Membrane in water
40155
    1TCq1    O1    1   0.709   0.891  10.633 -0.5366  0.3005  0.0087
    1TCq1    C1    2   0.670   0.798  10.719  0.8322 -0.1430 -0.1154
    1TCq1    O2    3   0.682   0.680  10.696  0.7315 -0.3102  0.1179
    1TCq1    C2    4   0.630   0.868  10.838  0.0975 -0.5695 -0.5346
    1TCq1    C3    5   0.553   0.982  10.823  0.1445 -0.1101 -0.4512
    1TCq1    C4    6   0.526   1.049  10.943  0.2140 -0.9625 -0.0992
    1TCq1    C5    7   0.572   1.004  11.062 -1.1084  0.4251 -0.4456
    1TCq1    C6    8   0.643   0.887  11.065  0.4866 -0.0979  0.1100
    1TCq1    C7    9   0.674   0.816  10.954  0.6458 -0.1237 -0.0420
    1TCq1    C8   10   0.679   0.845  11.196 -0.4962 -0.8255 -0.5711
    1TCq1    O4   11   0.676   0.930  11.282 -0.1996  0.2352  0.3685
    1TCq1    C9   12   0.453   1.167  10.943  0.2269 -0.4220 -0.1319
    1TCq1    O5   13   0.433   1.240  11.042 -0.3891 -0.2341  0.1216
    1TCq1    O6   14   0.391   1.183  10.831 -0.3313  0.2464  0.6564
    1TCq1    H1   15   0.689   0.982  10.664  0.9891  0.6486 -0.0350
    1TCq1    H2   16   0.513   1.031  10.734  0.2485 -3.1127 -2.1456
    1TCq1    H3   17   0.535   1.059  11.148 -0.9991  1.0949 -0.8309
    1TCq1    H4   18   0.736   0.727  10.947  1.1283  0.1987  0.0970
    2MPD2     C   19   0.905   0.548  11.525 -0.8485  0.0814 -0.2774
    2MPD2    C1   20   0.814   0.650  11.550 -0.2446  0.3242 -0.3146
    2MPD2    C2   21   0.760   0.707  11.438 -0.4639 -0.4571 -0.1507
    2MPD2    C3   22   0.785   0.659  11.311 -0.0742 -0.7156  0.1668
    2MPD2    C4   23   0.879   0.558  11.292  0.2583 -0.2863  0.3618
    2MPD2    C5   24   0.942   0.505  11.399  0.3375  0.4330  0.4824
    2MPD2     H   25   0.700   0.796  11.455  0.2035  0.2019 -1.2540
    2MPD2    H1   26   0.918   0.523  11.197 -0.2741 -0.9132  0.3749
    2MPD2    H2   27   0.960   0.492  11.601  1.3885  2.2053 -0.3360
    2MPD2    H3   28   1.026   0.437  11.386  1.2035  1.4830  0.5118
    2MPD2     N   29   0.732   0.719  11.198  0.6225 -0.3179 -0.3125
    2MPD2    H5   30   0.745   0.683  11.104  1.0210 -1.8531  0.3362
    2MPD2    N1   31   0.768   0.696  11.674  0.3648  0.0648 -0.7242
    2MPD2    H7   32   0.693   0.764  11.671 -1.5939 -1.9671  2.4549
    3TCq1    O1   33   4.145   1.842  11.336  0.2406  0.2442 -0.1161
    3TCq1    C1   34   4.261   1.869  11.271 -0.2095 -0.3666  0.7043
    3TCq1    O2   35   4.324   1.792  11.200 -0.0106 -0.0276 -0.2947
    3TCq1    C2   36   4.320   1.982  11.335  0.3269  0.3722  0.0190
    3TCq1    C3   37   4.410   2.050  11.257  0.9200  0.3301  0.0817
    3TCq1    C4   38   4.493   2.141  11.324 -0.2744 -0.8969  0.4048
    3TCq1    C5   39   4.477   2.167  11.455  0.4401  0.1280 -0.7638
    3TCq1    C6   40   4.384   2.095  11.525 -0.4081 -0.1336 -0.7726
    3TCq1    C7   41   4.322   1.988  11.467  0.5452  0.0597 -0.8987
    3TCq1    C8   42   4.333   2.137  11.652  0.2849  0.1446 -0.1547
    3TCq1    O4   43   4.287   2.057  11.732  0.6180 -0.0325  0.3171
    3TCq1    C9   44   4.593   2.218  11.246 -0.4680 -0.5885 -0.4723
    3TCq1    O5   45   4.569   2.226  11.124 -0.4545  0.1878 -1.0858
    3TCq1    O6   46   4.692   2.273  11.304 -0.0436  0.5736 -0.4060
    3TCq1    H1   47   4.115   1.918  11.391  1.7476  0.6645  0.1361
    3TCq1    H2   48   4.422   2.044  11.150  0.4072  0.9590 -0.0096
    3TCq1    H3   49   4.541   2.244  11.496  0.9170  0.3470 -1.9034
    3TCq1    H4   50   4.253   1.932  11.529 -0.5793 -0.4065 -2.5799
    4MPD2     C   51   4.088   2.496  11.933  0.4738  0.5914  0.5261
    4MPD2    C1   52   4.120   2.544  11.812  0.1155  0.3272 -0.1119
    4MPD2    C2   53   4.200   2.472  11.727  0.7168  0.0967  0.6238
    4MPD2    C3   54   4.258   2.349  11.765  0.6039 -1.2664  0.8853
    4MPD2    C4   55   4.230   2.304  11.890  0.1167 -0.5031 -0.1345
    4MPD2    C5   56   4.143   2.377  11.969 -0.1273  0.3201  0.1103
    4MPD2     H   57   4.203   2.501  11.623 -0.6111  0.6478  0.7498
    4MPD2    H1   58   4.260   2.204  11.920 -0.0948 -0.5338 -0.0234
    4MPD2    H2   59   4.009   2.530  11.999 -0.2980 -1.8348  0.8442
    4MPD2    H3   60   4.141   2.351  12.074  0.4497 -0.1109  0.0117
    4MPD2     N   61   4.319   2.275  11.663 -0.1273 -0.1704  0.1160
    4MPD2    H5   62   4.333   2.335  11.582 -0.3084 -0.1278  0.1152
    4MPD2    N1   63   4.070   2.672  11.759 -0.9190 -0.0751 -0.7797
    4MPD2    H7   64   4.087   2.691  11.661  1.3357 -0.0449 -0.3776
    5TCq1    O1   65   4.279   4.590  11.072 -0.1084 -0.1499 -0.1871
    5TCq1    C1   66   4.346   4.473  11.077 -0.3479  0.8492 -0.5752
    5TCq1    O2   67   4.470   4.466  11.083  0.3478 -0.4912 -0.1156
    5TCq1    C2   68   4.259   4.374  11.018  0.1380 -0.2500  0.0621
    5TCq1    C3   69   4.139   4.395  10.957  0.6277 -0.5387  0.4668
    5TCq1    C4   70   4.089   4.287  10.889  0.2651  0.2397 -0.5678
    5TCq1    C5   71   4.160   4.173  10.874 -0.3312 -0.2933  0.7849
    5TCq1    C6   72   4.283   4.159  10.924  0.4062  0.8108  0.4452
    5TCq1    C7   73   4.330   4.262  11.005  0.3033  0.5804 -0.0356
    5TCq1    C8   74   4.374   4.066  10.856 -0.1688  0.1841 -0.5859
    5TCq1    O4   75   4.484   4.057  10.913  0.3579  0.0057  0.0192
    5TCq1    C9   76   3.961   4.304  10.830  0.6268 -0.6645 -0.6888
    5TCq1    O5   77   3.934   4.219  10.736 -0.0855  0.1727 -0.7090
    5TCq1    O6   78   3.881   4.381  10.891  1.1347 -0.3655  0.5901
    5TCq1    H1   79   4.187   4.566  11.094 -0.7029 -1.6640 -4.2867
    5TCq1    H2   80   4.085   4.488  10.967  0.1353 -0.9854  2.0621
    5TCq1    H3   81   4.121   4.094  10.810 -0.1726 -0.1466  0.5082
    5TCq1    H4   82   4.425   4.248  11.056  1.6904  1.5072 -2.3755
    6MPD2     C   83   4.370   3.906  10.521 -0.1321  0.3814  0.5584
    6MPD2    C1   84   4.407   3.927  10.651  0.1434 -0.4884 -0.5019
    6MPD2    C2   85   4.512   3.852  10.710  0.2719 -0.0668 -0.4067
    6MPD2    C3   86   4.571   3.754  10.639 -0.2229 -1.1956  0.4528
    6MPD2    C4   87   4.534   3.735  10.506 -0.0297  0.1902 -1.0604
    6MPD2    C5   88   4.437   3.812  10.449  0.1418 -0.8337  0.5588
    6MPD2     H   89   4.532   3.848  10.816  1.6635 -2.3798 -0.7417
    6MPD2    H1   90   4.577   3.657  10.444  1.0202 -0.5705  0.6043
    6MPD2    H2   91   4.295   3.963  10.466 -0.0519  0.1981  0.2578
    6MPD2    H3   92   4.426   3.798  10.342  0.9387  0.8649  0.2501
    6MPD2     N   93   4.668   3.668  10.702  0.0078  0.8508  0.4910
    6MPD2    H5   94   4.673   3.689  10.801  3.9260 -1.6597  0.7788
    6MPD2    N1   95   4.342   4.028  10.726  0.3751 -0.4522 -0.0575
    6MPD2    H7   96   4.270   4.077  10.674  0.1243  1.5763  2.1343
    7TCq1    O1   97   2.319   4.194  13.276  0.7792 -0.5112  0.1187
    7TCq1    C1   98   2.277   4.196  13.404 -0.2478 -1.0454  0.7801
    7TCq1    O2   99   2.353   4.240  13.484 -0.0208 -0.0173 -0.6549
    7TCq1    C2  100   2.228   4.064  13.421 -0.0141  0.6009 -0.0913
    7TCq1    C3  101   2.099   4.025  13.404  0.2360 -0.2696 -0.2916
    7TCq1    C4  102   2.066   3.891  13.430 -0.8722  0.1804  0.5397
    7TCq1    C5  103   2.157   3.803  13.467 -0.0483  0.0527  0.4596
    7TCq1    C6  104   2.285   3.847  13.492  0.5525  0.6211 -0.1777
    7TCq1    C7  105   2.321   3.980  13.477  0.4118  1.0909 -0.4866
    7TCq1    C8  106   2.379   3.742  13.533  0.5454 -0.3701 -0.2876
    7TCq1    O4  107   2.339   3.630  13.558 -0.0861  0.7264 -0.8184
    7TCq1    C9  108   1.932   3.842  13.403 -0.2735  0.8814 -0.2529
    7TCq1    O5  109   1.911   3.727  13.456  0.0650 -0.6431  1.2267
    7TCq1    O6  110   1.846   3.928  13.372  0.4104  0.1036 -0.0480
    7TCq1    H1  111   2.251   4.136  13.234  0.7689  0.6693 -1.5028
    7TCq1    H2  112   2.027   4.091  13.357 -1.9226 -1.2390  1.6606
    7TCq1    H3  113   2.137   3.698  13.487 -1.0383 -0.3591 -2.7500
    7TCq1    H4  114   2.422   4.019  13.493 -0.0005  1.8552  0.2694
    8MPD2     C  115   2.867   3.617  13.629  0.6689 -0.8115 -0.2806
    8MPD2    C1  116   2.764   3.538  13.594  0.3775  0.4771 -0.4991
    8MPD2    C2  117   2.642   3.592  13.572 -0.7839  0.2088  0.3354
    8MPD2    C3  118   2.629   3.730  13.588 -1.3079  0.4386 -0.0356
    8MPD2    C4  119   2.732   3.806  13.620  0.2048  0.1889  0.5080
    8MPD2    C5  120   2.852   3.755  13.646 -0.3432  0.2407  0.3841
    8MPD2     H  121   2.552   3.544  13.535 -1.4937  0.4962  1.6712
    8MPD2    H1  122   2.706   3.909  13.642 -0.6845  0.3785 -1.4434
    8MPD2    H2  123   2.966   3.578  13.651  1.0418 -0.6786 -1.7237
    8MPD2    H3  124   2.936   3.817  13.674  1.4977 -2.0622  0.0315
    8MPD2     N  125   2.508   3.797  13.555  0.0257 -0.6567  0.5771
    8MPD2    H5  126   2.516   3.897  13.567 -0.8004 -0.4170 -0.8003
    8MPD2    N1  127   2.788   3.397  13.583 -1.1076  0.5967 -0.9447
    8MPD2    H7  128   2.875   3.360  13.621 -2.1270 -0.1563  0.6540
    9TCq1    O1  129   4.626   2.474  11.453 -0.1380 -0.0097 -0.2683
    9TCq1    C1  130   4.551   2.572  11.400 -0.1681 -0.1229 -0.1582
    9TCq1    O2  131   4.475   2.647  11.457 -0.2212  0.0752 -0.6355
    9TCq1    C2  132   4.614   2.603  11.274 -0.4676  1.0897  0.5210
    9TCq1    C3  133   4.535   2.663  11.186  0.3547 -0.6952 -0.0946
    9TCq1    C4  134   4.581   2.683  11.058 -0.1808 -0.7641  0.1689
    9TCq1    C5  135   4.704   2.649  11.017 -0.0567 -0.0931 -0.2838
    9TCq1    C6  136   0.063   2.584  11.109  0.0529 -0.3156  0.0485
    9TCq1    C7  137   0.019   2.564  11.239  0.6505  0.5084  0.1005
    9TCq1    C8  138   0.191   2.522  11.066 -0.1654 -0.5411  0.4607
    9TCq1    O4  139   0.239   2.553  10.958  0.4844  0.3292 -0.2147
    9TCq1    C9  140   4.501   2.761  10.963  0.2431  0.7172  0.0345
    9TCq1    O5  141   4.560   2.782  10.857  0.0863  0.0043  0.1884
    9TCq1    O6  142   4.379   2.779  10.989 -0.3023  0.4988  0.1136
    9TCq1    H1  143   4.665   2.413  11.387  0.3008 -1.4073  1.2826
    9TCq1    H2  144   4.442   2.708  11.220  0.9992 -0.0467  0.8064
    9TCq1    H3  145   0.013   2.676  10.916  0.8280 -0.1307 -0.0280
    9TCq1    H4  146   0.089   2.522  11.310  1.4814  2.6968  0.5929
   10MPD2     C  147   0.440   2.371  11.041  0.1277 -0.3718 -0.3922
   10MPD2    C1  148   0.337   2.335  11.129  0.3641  0.3924 -0.1396
   10MPD2    C2  149   0.363   2.229  11.210 -0.0556 -0.0826  0.0245
   10MPD2    C3  150   0.490   2.180  11.232  0.3465 -0.2353  0.0682
   10MPD2    C4  151   0.594   2.219  11.147  0.0299 -0.2309 -0.8137
   10MPD2    C5  152   0.562   2.315  11.057 -0.3512 -0.0342  0.0066
   10MPD2     H  153   0.278   2.194  11.267 -0.1908 -0.5277 -0.4453
   10MPD2    H1  154   0.689   2.168  11.158  0.0776 -0.0049 -0.1757
   10MPD2    H2  155   0.445   2.458  10.978 -0.9970 -0.8625 -1.1581
   10MPD2    H3  156   0.640   2.343  10.986 -0.0207 -1.4420 -0.1844
   10MPD2     N  157   0.527   2.086  11.335  0.4049 -0.5399  0.1169
   10MPD2    H5  158   0.625   2.083  11.359  0.0230  0.7619  1.9272
   10MPD2    N1  159   0.221   2.413  11.145  0.4249  0.0884  1.1191
   10MPD2    H7  160   0.153   2.386  11.215 -1.7872 -0.5118 -1.2700
   11TCq1    O1  161   0.768   2.459  14.290  0.6405  0.3623  0.2084
   11TCq1    C1  162   0.814   2.587  14.271  0.1820  0.1683  0.7176
   11TCq1    O2  163   0.830   2.675  14.353 -0.4850  0.5351  0.2375
   11TCq1    C2  164   0.890   2.592  14.147  0.0825  0.0877 -0.3568
   11TCq1    C3  165   0.907   2.712  14.089  0.6596  0.1033  0.6155
   11TCq1    C4  166   1.004   2.726  13.995 -0.3128 -0.2161  0.0901
   11TCq1    C5  167   1.077   2.615  13.945 -0.9968 -0.0354  0.5578
   11TCq1    C6  168   1.063   2.501  14.011 -1.1051 -0.2195  0.0092
   11TCq1    C7  169   0.977   2.487  14.114  0.1453 -0.3271  0.0948
   11TCq1    C8  170   1.134   2.379  13.977 -0.3023 -0.3326  0.5741
   11TCq1    O4  171   1.253   2.375  13.993 -0.6609  0.4362  0.3518
   11TCq1    C9  172   1.023   2.849  13.930 -0.7950  0.3638  0.4699
   11TCq1    O5  173   1.122   2.859  13.856  0.2851 -0.0227 -0.4845
   11TCq1    O6  174   0.961   2.949  13.979 -0.3127  0.0692 -0.1480
   11TCq1    H1  175   0.782   2.401  14.212 -0.5256  3.2201 -2.1373
   11TCq1    H2  176   0.841   2.796  14.104 -0.5028 -0.6076 -0.4820
   11TCq1    H3  177   1.152   2.631  13.868 -0.2261  1.1547  1.5477
   11TCq1    H4  178   0.985   2.398  14.175  2.7822 -0.5615 -0.6141
   12MPD2     C  179   1.203   2.086  13.995 -0.1191 -0.3183  0.4486
   12MPD2    C1  180   1.078   2.139  13.959 -0.3698  0.2374 -0.8181
   12MPD2    C2  181   0.982   2.039  13.928 -0.1427 -0.0347 -0.2968
   12MPD2    C3  182   1.015   1.906  13.910 -0.5395 -0.3466 -0.0056
   12MPD2    C4  183   1.140   1.864  13.938 -1.0315  0.0479 -0.3282
   12MPD2    C5  184   1.229   1.955  13.980  0.1549  0.0334 -0.3122
   12MPD2     H  185   0.888   2.080  13.892  1.1151  1.1477 -2.2591
   12MPD2    H1  186   1.178   1.763  13.928  1.4372  0.9195  0.2112
   12MPD2    H2  187   1.289   2.147  14.023 -0.9907  1.6138 -1.1249
   12MPD2    H3  188   1.328   1.923  14.011 -0.3174 -0.1304  1.0537
   12MPD2     N  189   0.931   1.806  13.859 -0.3427 -0.0313 -0.0741
   12MPD2    H5  190   0.963   1.710  13.853 -0.4034 -0.1063  0.8269
   12MPD2    N1  191   1.041   2.277  13.970  0.2638 -0.4108  0.2409
   12MPD2    H7  192   0.944   2.306  13.961  0.6037  0.9235  0.7820
   13TCq1    O1  193   0.885   1.837  11.036  0.4252 -0.0718  0.0524
   13TCq1    C1  194   0.878   1.973  11.002  0.3442 -0.0681 -0.2533
   13TCq1    O2  195   0.927   2.059  11.070 -0.0980 -0.7103  0.0785
   13TCq1    C2  196   0.752   1.987  10.933  0.4922  0.2880 -0.5924
   13TCq1    C3  197   0.746   2.095  10.847  0.5358 -0.4909 -0.0546
   13TCq1    C4  198   0.630   2.121  10.785  0.5612  0.2559 -1.2562
   13TCq1    C5  199   0.522   2.042  10.809  0.3351 -0.3904  0.1862
   13TCq1    C6  200   0.525   1.943  10.899  0.0318  0.7748 -0.0660
   13TCq1    C7  201   0.647   1.907  10.953  0.0006 -0.6250  0.8331
   13TCq1    C8  202   0.411   1.893  10.964 -0.4447 -0.2683  0.1152
   13TCq1    O4  203   0.443   1.838  11.068 -0.1957  0.2068  0.5761
   13TCq1    C9  204   0.616   2.241  10.700  0.0977  0.3689 -0.0601
   13TCq1    O5  205   0.516   2.245  10.623  0.0661  0.5831  0.0984
   13TCq1    O6  206   0.694   2.340  10.716  0.2107 -0.2520 -0.3181
   13TCq1    H1  207   0.846   1.792  10.958  1.4740  0.2587 -0.6634
   13TCq1    H2  208   0.836   2.152  10.825 -0.5081  0.8532 -0.8297
   13TCq1    H3  209   0.423   2.073  10.778 -0.1228  0.8248  2.8850
   13TCq1    H4  210   0.655   1.840  11.037 -2.4125 -0.6792  1.0103
   14MPD2     C  211   0.045   1.909  10.920  0.1573 -0.5429 -0.1041
   14MPD2    C1  212   0.169   1.913  10.987  0.1643 -0.1380  0.4347
   14MPD2    C2  213   0.165   1.907  11.125 -0.5352 -0.3785 -0.8936
   14MPD2    C3  214   0.043   1.887  11.195  0.5478  0.5938 -0.1023
   14MPD2    C4  215   4.650   1.877  11.122  0.5403  0.1827 -0.4083
   14MPD2    C5  216   4.649   1.885  10.988 -0.4180 -0.7576 -0.3663
   14MPD2     H  217   0.258   1.917  11.179  0.3137  0.9057 -2.6211
   14MPD2    H1  218   4.557   1.857  11.174 -0.1313  0.1556 -1.5957
   14MPD2    H2  219   0.045   1.912  10.812 -0.0272  3.0375 -0.0053
   14MPD2    H3  220   4.558   1.867  10.933 -0.9429 -0.4247  0.4032
   14MPD2     N  221   0.052   1.878  11.331 -0.0428 -0.9212  0.0265
   14MPD2    H5  222   0.132   1.910  11.385 -0.0439 -0.4191 -0.2627
   14MPD2    N1  223   0.287   1.933  10.917 -0.5659 -0.1675  0.2033
   14MPD2    H7  224   0.270   1.959  10.821 -0.1304 -0.7166 -0.0158
   15TCq1    O1  225   2.506   1.066   2.257  0.4687 -0.1715 -0.0585
   15TCq1    C1  226   2.400   1.143   2.215 -0.1776 -0.5930 -0.5870
   15TCq1    O2  227   2.289   1.148   2.271 -0.2584  0.2051 -0.2454
   15TCq1    C2  228   2.412   1.121   2.072 -0.2097 -0.6483 -0.3355
   15TCq1    C3  229   2.331   1.211   1.999 -0.6001  0.1849  0.0180
   15TCq1    C4  230   2.334   1.210   1.865  0.1006  0.5667 -0.4565
   15TCq1    C5  231   2.419   1.135   1.794  0.4519 -0.1265 -0.1027
   15TCq1    C6  232   2.488   1.039   1.866 -0.6618  0.1877  0.1888
   15TCq1    C7  233   2.485   1.028   2.002 -0.7558 -0.4180  0.0772
   15TCq1    C8  234   2.586   0.954   1.802  0.0047  0.8764 -0.0997
   15TCq1    O4  235   2.664   0.892   1.876 -0.3942  0.4238 -0.1230
   15TCq1    C9  236   2.242   1.294   1.797  0.9663  0.1332 -0.8543
   15TCq1    O5  237   2.246   1.303   1.673  0.6685  0.4532 -1.1481
   15TCq1    O6  238   2.158   1.355   1.865 -0.8525  0.1309  0.1378
   15TCq1    H1  239   2.589   1.073   2.205  0.9190 -0.7297  0.5783
   15TCq1    H2  240   2.262   1.276   2.053 -1.7901  0.4946 -1.8708
   15TCq1    H3  241   2.423   1.148   1.687  4.0558 -1.4890 -0.1522
   15TCq1    H4  242   2.544   0.957   2.059  0.7208  1.7431  1.2149
   16MPD2     C  243   2.586   0.867   1.449  0.4610  0.7836  0.4149
   16MPD2    C1  244   2.643   0.888   1.571  0.3511 -0.3707  0.5774
   16MPD2    C2  245   2.778   0.856   1.596  0.1202  0.2002 -0.2521
   16MPD2    C3  246   2.850   0.805   1.495  0.4230 -0.0908  0.4591
   16MPD2    C4  247   2.794   0.787   1.373 -0.2332 -0.0851  0.4769
   16MPD2    C5  248   2.661   0.823   1.342  0.2648  0.1506 -0.5009
   16MPD2     H  249   2.832   0.882   1.685  0.8581 -0.2229 -0.5773
   16MPD2    H1  250   2.842   0.754   1.280  0.1768  0.0603  0.6353
   16MPD2    H2  251   2.490   0.915   1.431 -0.3882 -0.7901  0.8156
   16MPD2    H3  252   2.616   0.809   1.244  0.0320  2.4515 -0.7284
   16MPD2     N  253   2.988   0.788   1.522 -0.0264 -0.2654 -0.3294
   16MPD2    H5  254   3.022   0.821   1.612 -1.1730 -0.5910  0.2195
   16MPD2    N1  255   2.557   0.943   1.673  0.5986  0.2026  0.3553
   16MPD2    H7  256   2.474   0.988   1.636  0.3275 -1.1020 -0.6368
   17TCq1    O1  257   4.647   1.079  11.664  0.1521  0.6160 -0.1179
   17TCq1    C1  258   0.058   1.087  11.643 -0.1654  0.3905 -0.7700
   17TCq1    O2  259   0.138   1.028  11.714  0.1492  0.5615  0.2572
   17TCq1    C2  260   0.093   1.169  11.525 -0.4920  0.1916 -0.0889
   17TCq1    C3  261   0.034   1.148  11.402  0.0513  0.9377  0.0622
   17TCq1    C4  262   0.085   1.205  11.286  0.6846  0.5336 -0.3743
   17TCq1    C5  263   0.214   1.260  11.291  0.3566 -0.1836 -0.9371
   17TCq1    C6  264   0.286   1.259  11.415 -0.5351  1.3546  0.3064
   17TCq1    C7  265   0.218   1.226  11.528 -0.9125 -0.2048  0.6645
   17TCq1    C8  266   0.405   1.340  11.423  1.4404  0.3697  0.4353
   17TCq1    O4  267   0.443   1.375  11.534  0.0663  0.3821  0.1807
   17TCq1    C9  268   0.033   1.166  11.157  0.3643  0.8995  0.3272
   17TCq1    O5  269   0.053   1.254  11.068 -0.2232 -0.6300 -0.2662
   17TCq1    O6  270   4.654   1.087  11.165 -0.2841  0.2284 -0.0724
   17TCq1    H1  271   4.601   1.144  11.606 -0.8838  1.0227  1.1669
   17TCq1    H2  272   4.653   1.114  11.396  0.0593  0.3034  3.3845
   17TCq1    H3  273   0.262   1.303  11.204  1.8761 -0.7760 -0.4049
   17TCq1    H4  274   0.261   1.243  11.626 -1.2251 -2.1727  1.1495
   18MPD2     C  275   0.610   1.530  11.364  0.9354 -0.7147  0.2685
   18MPD2    C1  276   0.590   1.415  11.289  0.3277 -0.6477  0.1960
   18MPD2    C2  277   0.677   1.383  11.187  0.5364  0.2061  0.1711
   18MPD2    C3  278   0.779   1.470  11.162 -0.2528 -0.4898 -0.1424
   18MPD2    C4  279   0.797   1.585  11.244 -0.0552 -0.7051  0.6464
   18MPD2    C5  280   0.704   1.618  11.338 -0.1025 -0.9250 -0.3045
   18MPD2     H  281   0.661   1.289  11.136 -1.8798  0.6032  0.2366
   18MPD2    H1  282   0.877   1.658  11.232 -0.0583 -0.4367  2.2615
   18MPD2    H2  283   0.540   1.562  11.441 -0.9597 -2.0002 -0.8936
   18MPD2    H3  284   0.722   1.705  11.399 -1.6087 -0.5556 -0.3894
   18MPD2     N  285   0.880   1.450  11.063  0.0419  0.5458 -0.5504
   18MPD2    H5  286   0.951   1.522  11.050 -0.5790  1.1886 -0.3747
   18MPD2    N1  287   0.478   1.339  11.309  0.5198 -0.1059 -0.2720
   18MPD2    H7  288   0.452   1.282  11.230 -1.4733 -1.0236  1.0334
   19TMC2    C1  289   2.227   1.932  14.060  0.1008  0.8228 -0.5358
   19TMC2    C2  290   2.171   2.046  14.108  0.5916 -0.0878 -0.7733
   19TMC2    C3  291   2.044   2.072  14.078 -0.5629 -0.8857  0.1420
   19TMC2    C4  292   2.158   1.851  13.977 -0.8353  0.4996 -0.5500
   19TMC2    C5  293   2.021   1.861  13.968 -0.2384  0.3949  0.0245
   19TMC2    C6  294   1.968   1.978  14.014 -0.3667 -0.1964  0.2638
   19TMC2     C  295   2.364   1.899  14.100 -1.1781 -0.8328  0.0111
   19TMC2     O  296   2.411   1.800  14.051  0.3953  0.8037  0.0757
   19TMC2     H  297   2.227   2.124  14.156 -1.2057 -0.1941  1.4999
   19TMC2    H1  298   2.192   1.753  13.946  1.5886  0.7329  1.4256
   19TMC2    H2  299   1.868   2.003  13.980  0.3352  0.8207 -1.0486
   19TMC2    C7  300   1.938   1.745  13.947 -1.2888 -0.1103  0.1351
   19TMC2    C8  301   2.002   2.212  14.085  0.8334 -0.0772 -0.4095
   19TMC2    O1  302   1.987   1.645  13.890 -0.1121 -0.3617  0.4570
   19TMC2    O2  303   2.082   2.303  14.106 -0.2603 -0.3282 -0.5816
   19TMC2    O5  304   1.888   2.202  14.160 -0.1351  0.2830  0.1678
   19TMC2    H5  305   1.848   2.113  14.158 -2.5834  1.3646  1.4746
   20MPD2     C  306   2.611   1.846  14.260 -0.0025  0.7319  0.6040
   20MPD2    C1  307   2.509   1.920  14.310  0.6362 -0.9845 -0.8524
   20MPD2    C2  308   2.521   1.976  14.436 -0.8583  0.5488 -0.8255
   20MPD2    C3  309   2.634   1.934  14.514  0.0383  0.4987  0.3245
   20MPD2    C4  310   2.718   1.841  14.468  0.0890 -0.2880  0.2459
   20MPD2    C5  311   2.706   1.798  14.344  0.1780  0.3496 -0.4308
   20MPD2     H  312   2.449   2.048  14.474 -1.1353 -0.4302  0.5160
   20MPD2    H1  313   2.806   1.807  14.523  1.6070  0.1419 -1.9183
   20MPD2    H2  314   2.610   1.823  14.155 -0.2094 -1.0163  0.9821
   20MPD2    H3  315   2.777   1.731  14.298  0.5418  1.5764 -1.6190
   20MPD2     N  316   2.638   1.960  14.646  0.0415 -0.4292  0.5540
   20MPD2    H5  317   2.678   1.887  14.705  3.6932  0.4503 -0.8646
   20MPD2    N1  318   2.396   1.953  14.227 -0.4136 -0.7745  0.6901
   20MPD2    H7  319   2.333   2.025  14.262 -0.2444  0.2793 -1.1862
   21MPD2     C  320   0.150   2.675  14.161  0.6372 -0.6503  0.5855
   21MPD2    C1  321   0.122   2.540  14.185 -0.1475 -1.1883  0.1305
   21MPD2    C2  322   0.023   2.505  14.271  0.1416 -0.1718 -0.2157
   21MPD2    C3  323   4.671   2.606  14.343 -0.2168 -0.1873  0.7466
   21MPD2    C4  324   4.706   2.737  14.313 -0.0286 -0.3885 -0.1121
   21MPD2    C5  325   0.081   2.771  14.226  0.2947 -0.2530 -0.3286
   21MPD2     H  326   4.711   2.402  14.279  0.6359 -0.5095 -2.4663
   21MPD2    H1  327   4.646   2.820  14.349 -1.8168 -2.4275  1.5592
   21MPD2    H2  328   0.229   2.710  14.096 -1.1259  2.0125 -0.0999
   21MPD2    H3  329   0.098   2.873  14.193 -0.8325 -0.2944 -1.0748
   21MPD2     N  330   4.572   2.581  14.443 -0.3202  0.1902 -0.3799
   21MPD2    H5  331   4.523   2.663  14.477 -3.2400 -1.3927 -0.7631
   21MPD2    N1  332   0.183   2.431  14.129 -0.4435  0.2822 -0.4111
   21MPD2    H7  333   0.158   2.336  14.155 -0.3961 -0.0076 -1.3990
   22TCq2    C1  334   4.532   2.461  14.488  0.0358  0.3970 -0.4950
   22TCq2    O2  335   4.582   2.353  14.467  0.0563 -0.3078  0.2968
   22TCq2    C2  336   4.417   2.472  14.581 -0.2165 -0.1084 -0.2904
   22TCq2    C3  337   4.392   2.370  14.670 -0.2004  0.1592 -0.1400
   22TCq2    C4  338   4.279   2.380  14.751 -0.1109 -1.0444  0.0255
   22TCq2    C5  339   4.185   2.477  14.734 -0.2827  0.7022  0.4753
   22TCq2    C6  340   4.216   2.573  14.635  0.0322 -0.6967 -0.9519
   22TCq2    C7  341   4.337   2.582  14.575 -0.6270  0.3233  0.4576
   22TCq2    C8  342   4.111   2.665  14.605  0.6432  0.0210  0.0903
   22TCq2    O4  343   3.997   2.635  14.636  0.1712 -0.1714 -0.5269
   22TCq2    C9  344   4.247   2.260  14.834 -0.4054  0.1463  0.2243
   22TCq2    O5  345   4.340   2.175  14.836 -0.2744 -0.0760  0.0307
   22TCq2    O6  346   4.159   2.282  14.921 -0.2489 -0.4691 -0.0396
   22TCq2    H2  347   4.463   2.288  14.674  0.9999  1.1394 -1.2945
   22TCq2    H3  348   4.086   2.470  14.778 -1.1154 -0.2329 -1.5741
   22TCq2    H4  349   4.355   2.654  14.497 -0.0190  0.4315  0.6950
   23MPD2     C  350   1.198   3.548  14.986  0.3007  0.0665 -0.0957
   23MPD2    C1  351   1.088   3.468  15.023 -1.1938  0.6050  0.6145
   23MPD2    C2  352   0.980   3.471  14.936 -0.8047  0.3147  0.0633
   23MPD2    C3  353   0.980   3.553  14.818 -0.4845 -0.3880  0.1504
   23MPD2    C4  354   1.081   3.635  14.794 -0.0636 -0.7984  0.1777
   23MPD2    C5  355   1.195   3.629  14.877 -0.1844  0.4199  0.6273
   23MPD2     H  356   0.885   3.423  14.957 -1.9901  2.6616 -0.0137
   23MPD2    H1  357   1.078   3.720  14.726  0.1037 -1.2656 -0.4106
   23MPD2    H2  358   1.295   3.544  15.036 -0.4000  3.7216  1.5446
   23MPD2    H3  359   1.282   3.688  14.850 -0.2942  0.1683 -0.2996
   23MPD2     N  360   0.866   3.567  14.728 -0.7268  0.8071 -0.0602
   23MPD2    H5  361   0.873   3.643  14.660  1.5564 -0.6139 -1.3976
   23MPD2    N1  362   1.086   3.383  15.135  0.2280 -0.1058  0.1253
   23MPD2    H7  363   1.017   3.308  15.136  0.2689 -0.1090  1.9636
   24TCq2    C1  364   0.746   3.497  14.732  0.2690 -0.6565  0.0280
   24TCq2    O2  365   0.714   3.396  14.795 -0.3646 -0.6368  0.3032
   24TCq2    C2  366   0.652   3.552  14.645  0.8067  1.0790  0.0477
   24TCq2    C3  367   0.663   3.684  14.610  0.4387 -0.1820 -0.0983
   24TCq2    C4  368   0.593   3.734  14.509  0.5834 -0.1386 -0.2040
   24TCq2    C5  369   0.511   3.656  14.425 -0.9623  1.0765  0.1882
   24TCq2    C6  370   0.497   3.526  14.461  0.5365  0.1130  0.3465
   24TCq2    C7  371   0.562   3.473  14.576 -0.8410  0.0101 -0.4177
   24TCq2    C8  372   0.403   3.438  14.382 -0.5109  0.2465  0.3310
   24TCq2    O4  373   0.411   3.319  14.415 -0.3752  0.2650 -0.5072
   24TCq2    C9  374   0.581   3.870  14.481 -0.2134 -0.3261  0.6821
   24TCq2    O5  375   0.462   3.913  14.480  0.7572  0.2593  0.2058
   24TCq2    O6  376   0.681   3.941  14.525  0.0651  0.5130 -0.4511
   24TCq2    H2  377   0.708   3.751  14.681 -0.8402 -0.7774  1.2695
   24TCq2    H3  378   0.475   3.698  14.332 -0.2663  0.4157 -0.3861
   24TCq2    H4  379   0.560   3.370  14.610 -1.0837  0.4975  1.0150
   25TMC2    C1  380   0.194   0.827  11.385 -0.2295 -1.0263  0.3685
   25TMC2    C2  381   0.311   0.822  11.456 -0.0119  0.3579 -1.0031
   25TMC2    C3  382   0.296   0.775  11.582  0.3489  0.3680  0.3621
   25TMC2    C4  383   0.077   0.773  11.432  0.2673 -0.2675  0.4416
   25TMC2    C5  384   0.067   0.739  11.560  0.3549  0.1611 -0.1797
   25TMC2    C6  385   0.184   0.733  11.642 -1.0402 -0.4509  0.4419
   25TMC2     C  386   0.212   0.864  11.247 -0.8577  0.8494  0.3571
   25TMC2     O  387   0.311   0.932  11.230 -0.6739 -0.5596  0.2028
   25TMC2     H  388   0.410   0.842  11.418  0.2056 -0.0404 -0.6394
   25TMC2    H1  389   4.710   0.786  11.370  1.2633  0.7839 -0.7486
   25TMC2    H2  390   0.180   0.702  11.746 -1.0613  0.1360  0.6131
   25TMC2    C7  391   4.669   0.720  11.628 -0.1944  0.2049 -0.2697
   25TMC2    C8  392   0.411   0.754  11.671 -0.2803  0.0462  0.2482
   25TMC2    O1  393   4.679   0.668  11.740  0.5481 -0.0671 -0.2596
   25TMC2    O2  394   0.421   0.661  11.748  0.6546  0.3483 -0.2604
   25TMC2    O5  395   0.516   0.835  11.637 -0.4420 -0.0215  0.4306
   25TMC2    H5  396   0.483   0.910  11.584  0.7502  0.4589  0.3833
   26MPD2     C  397   0.078   0.830  10.755  0.3737 -0.5301  0.1409
   26MPD2    C1  398   0.026   0.723  10.822 -0.4293 -0.8825 -0.2298
   26MPD2    C2  399   0.056   0.705  10.955  0.1779  0.1782 -0.1351
   26MPD2    C3  400   0.128   0.803  11.025  0.0567  0.1537 -0.1134
   26MPD2    C4  401   0.177   0.905  10.955  0.3578  0.0635  0.3610
   26MPD2    C5  402   0.155   0.922  10.819  0.2358 -0.1375  0.2601
   26MPD2     H  403   0.021   0.617  11.008 -0.3170  0.1595 -0.4975
   26MPD2    H1  404   0.227   0.989  11.004  1.4249  0.3997 -1.2887
   26MPD2    H2  405   0.058   0.841  10.649  2.4641 -0.0990 -0.2186
   26MPD2    H3  406   0.188   1.015  10.774  1.0195 -0.0785  0.9560
   26MPD2     N  407   0.130   0.791  11.164  0.9356 -0.1496 -0.4896
   26MPD2    H5  408   0.076   0.710  11.194 -1.2746  0.8767 -1.7305
   26MPD2    N1  409   4.657   0.647  10.746  0.1702  0.6329 -0.0623
   26MPD2    H7  410   4.636   0.672  10.650  2.2374  0.9264 -0.4250
   27TMC2    C1  411   3.136   2.308  12.133 -0.1925 -0.4741  0.8283
   27TMC2    C2  412   3.225   2.366  12.046 -0.2221  0.2942 -1.1089
   27TMC2    C3  413   3.177   2.467  11.969 -0.6717 -0.1758  0.2084
   27TMC2    C4  414   3.008   2.351  12.146  0.8448  0.0630 -0.3273
   27TMC2    C5  415   2.959   2.456  12.072  0.3730 -0.4732 -0.5498
   27TMC2    C6  416   3.045   2.505  11.981  0.1625  0.6373 -0.1970
   27TMC2     C  417   3.192   2.284  12.260  0.2688  0.6455  0.3375
   27TMC2     O  418   3.291   2.211  12.260 -0.1447 -0.6635 -0.6448
   27TMC2     H  419   3.328   2.332  12.053 -0.6361 -0.8259 -0.4526
   27TMC2    H1  420   2.935   2.291  12.200  0.1825  0.0540 -1.2233
   27TMC2    H2  421   3.013   2.582  11.911  0.8574 -2.0938 -3.4990
   27TMC2    C7  422   2.879   2.548  12.146 -0.4240 -0.2342  0.3513
   27TMC2    C8  423   3.220   2.460  11.829  0.8478 -0.3041 -0.0470
   27TMC2    O1  424   2.844   2.503  12.253 -0.3384 -0.5899  0.3220
   27TMC2    O2  425   3.147   2.486  11.734  0.5768 -0.9316 -0.2125
   27TMC2    O5  426   3.339   2.397  11.824  0.3398 -0.0179 -0.9136
   27TMC2    H5  427   3.390   2.390  11.907  1.1906  1.9729 -1.2638
   28MPD2     C  428   3.099   2.287  12.765  0.5506 -0.4469  0.2102
   28MPD2    C1  429   3.015   2.381  12.708 -0.0160  0.1708 -0.4357
   28MPD2    C2  430   3.041   2.403  12.572  0.4812  0.7374  0.1395
   28MPD2    C3  431   3.124   2.321  12.496 -0.3897  0.1631  0.3973
   28MPD2    C4  432   3.205   2.229  12.553  0.8538  0.2830  0.1158
   28MPD2    C5  433   3.198   2.220  12.691  0.4591  0.1071 -0.1136
   28MPD2     H  434   2.980   2.477  12.522  1.5374  0.5113 -1.4936
   28MPD2    H1  435   3.285   2.183  12.497 -0.3848 -0.0767 -1.3671
   28MPD2    H2  436   3.107   2.269  12.872  0.9819 -0.8015  0.1195
   28MPD2    H3  437   3.275   2.158  12.737  0.1839  0.4301  0.7615
   28MPD2     N  438   3.121   2.350  12.355  0.0335 -0.2422  0.6587
   28MPD2    H5  439   3.052   2.414  12.317  1.1126  0.2564 -0.4825
   28MPD2    N1  440   2.919   2.446  12.786  0.1873 -0.1799 -0.0073
   28MPD2    H7  441   2.920   2.415  12.883  0.9551 -1.1375 -0.3211
   29MPD2     C  442   2.885   0.526  14.497  0.0796 -0.5968 -0.0646
   29MPD2    C1  443   2.946   0.500  14.613 -0.0894  0.2095 -0.4036
   29MPD2    C2  444   3.005   0.603  14.690 -0.7045  0.3320  0.0670
   29MPD2    C3  445   2.985   0.736  14.655 -0.0130  0.1030 -0.1132
   29MPD2    C4  446   2.914   0.758  14.539  0.1684 -0.0531 -0.2175
   29MPD2    C5  447   2.868   0.657  14.455 -0.7039  0.2766 -0.0395
   29MPD2     H  448   3.061   0.574  14.778  1.1221  1.4328 -0.7383
   29MPD2    H1  449   2.902   0.861  14.504  0.1178  0.1748  0.4832
   29MPD2    H2  450   2.838   0.451  14.433  2.3601  0.4425 -2.9625
   29MPD2    H3  451   2.814   0.675  14.363  2.5946  2.0673 -1.6069
   29MPD2     N  452   3.030   0.850  14.717 -0.4915  0.2324  0.2582
   29MPD2    H5  453   3.013   0.939  14.671 -1.2431 -1.4673 -2.7543
   29MPD2    N1  454   2.971   0.365  14.654 -0.7128  0.5206 -0.3699
   29MPD2    H7  455   3.037   0.344  14.728 -1.5328  0.7417  0.4157
   30TCq2    C1  456   3.104   0.848  14.833 -0.0771 -0.5454 -0.4094
   30TCq2    O2  457   3.143   0.752  14.902  0.7263  0.4747 -0.4702
   30TCq2    C2  458   3.142   0.978  14.870 -0.9621  0.7652  0.9903
   30TCq2    C3  459   3.137   1.009  15.007  0.0564  0.8416  0.5835
   30TCq2    C4  460   3.173   1.133  15.049 -0.5426 -1.0380 -0.5281
   30TCq2    C5  461   3.208   1.233  14.956 -0.1053 -0.0266 -0.1837
   30TCq2    C6  462   3.198   1.193  14.822  0.3907 -0.1259  0.2461
   30TCq2    C7  463   3.166   1.072  14.775 -0.4021 -0.3655 -0.0206
   30TCq2    C8  464   3.205   1.295  14.716  0.0569  0.0124 -0.3786
   30TCq2    O4  465   3.152   1.272  14.608 -0.0543  0.3456 -0.4720
   30TCq2    C9  466   3.133   1.170  15.182 -0.3739  0.2877 -0.9248
   30TCq2    O5  467   3.109   1.076  15.262  0.7570  0.4969  0.0142
   30TCq2    O6  468   3.072   1.281  15.195 -0.5754 -0.2239  0.1216
   30TCq2    H2  469   3.108   0.941  15.086 -1.0048 -0.0697 -0.6033
   30TCq2    H3  470   3.223   1.337  14.982 -0.4783 -0.0302  0.0514
   30TCq2    H4  471   3.150   1.047  14.671 -0.9032  1.7855 -0.4680
   31MPD2     C  472   1.240   4.215  15.043  0.0808 -0.0853 -0.0108
   31MPD2    C1  473   1.129   4.177  14.972  0.1904 -0.6603 -0.0696
   31MPD2    C2  474   1.061   4.057  15.000 -0.3559 -0.4182  0.1953
   31MPD2    C3  475   1.113   3.973  15.099  0.3918  0.3607 -0.1112
   31MPD2    C4  476   1.229   4.010  15.164  0.4003  0.2496 -0.6921
   31MPD2    C5  477   1.285   4.130  15.140 -0.2719  0.1315  0.1730
   31MPD2     H  478   0.977   4.038  14.935 -0.4806  0.2963  0.1483
   31MPD2    H1  479   1.257   3.963  15.258 -0.9078  3.3366  1.2769
   31MPD2    H2  480   1.296   4.307  15.031 -1.1204  0.5237 -0.8770
   31MPD2    H3  481   1.360   4.168  15.209 -2.5033  0.8138  2.2464
   31MPD2     N  482   1.038   3.863  15.154  0.1247 -0.2795  0.2982
   31MPD2    H5  483   1.072   3.826  15.242  0.2064  2.2949  1.3705
   31MPD2    N1  484   1.105   4.271  14.874  0.1055  0.0685  0.0812
   31MPD2    H7  485   1.178   4.341  14.863  0.3918 -0.1181  0.7438
   32TCq2    C1  486   0.927   3.807  15.094  0.4973 -0.3079  0.8144
   32TCq2    O2  487   0.875   3.838  14.993 -0.1493  0.5172  0.6351
   32TCq2    C2  488   0.866   3.691  15.173 -0.4448  0.1054 -0.3604
   32TCq2    C3  489   0.762   3.622  15.122  0.5041 -0.1447 -0.2937
   32TCq2    C4  490   0.690   3.543  15.206  0.3302  0.4254 -0.0230
   32TCq2    C5  491   0.734   3.513  15.326 -1.0057 -0.0402 -0.0077
   32TCq2    C6  492   0.836   3.583  15.378 -0.3614 -0.1701  0.1680
   32TCq2    C7  493   0.902   3.678  15.301  0.7256  0.2475 -0.3368
   32TCq2    C8  494   0.879   3.535  15.510 -0.2181 -0.6867  0.5282
   32TCq2    O4  495   0.871   3.415  15.524  0.1485 -0.3876 -0.3576
   32TCq2    C9  496   0.578   3.466  15.152  0.4842 -0.1212  0.5163
   32TCq2    O5  497   0.500   3.535  15.074 -0.1838 -0.0233 -0.0600
   32TCq2    O6  498   0.586   3.341  15.156 -0.4187 -0.3488 -0.3663
   32TCq2    H2  499   0.721   3.649  15.025  0.0979 -0.1753 -0.1325
   32TCq2    H3  500   0.683   3.445  15.394  0.0703 -1.5940 -0.7694
   32TCq2    H4  501   0.990   3.729  15.339 -0.1875  0.2283  1.7991
   33MPD2     C  502   1.227   1.916  10.890 -0.6132 -0.1761  0.5742
   33MPD2    C1  503   1.209   1.840  10.781  0.5007  0.1856 -0.2243
   33MPD2    C2  504   1.206   1.893  10.658  0.7944 -0.0950 -0.2979
   33MPD2    C3  505   1.209   2.032  10.645 -0.5057  0.3027 -0.2985
   33MPD2    C4  506   1.219   2.115  10.765 -0.0447  0.0841  0.1501
   33MPD2    C5  507   1.232   2.054  10.886  0.5919 -0.6614 -0.1731
   33MPD2     H  508   1.190   1.825  10.575 -2.1669 -0.7169  0.7716
   33MPD2    H1  509   1.219   2.223  10.765  1.5998  0.0965  1.2526
   33MPD2    H2  510   1.222   1.886  10.994  2.6146 -0.8093  0.5608
   33MPD2    H3  511   1.231   2.122  10.970 -2.8429  0.9782 -1.5428
   33MPD2     N  512   1.211   2.105  10.522 -0.3600 -0.2674  0.0719
   33MPD2    H5  513   1.204   2.206  10.529  2.9266 -0.1889  2.3610
   33MPD2    N1  514   1.204   1.699  10.799 -0.0596  0.9944  0.1664
   33MPD2    H7  515   1.207   1.675  10.898  0.9703  2.6207  0.5394
   34TCq2    C1  516   1.205   2.055  10.393  0.0454 -0.3409 -0.8150
   34TCq2    O2  517   1.228   1.936  10.358  0.1812 -0.3092 -0.0715
   34TCq2    C2  518   1.179   2.151  10.291 -0.2711 -0.8017 -0.5396
   34TCq2    C3  519   1.101   2.256  10.312 -0.0310  0.3213 -0.6093
   34TCq2    C4  520   1.052   2.338  10.213 -0.0097  0.0252  0.1869
   34TCq2    C5  521   1.101   2.328  10.085  0.1215  0.4982  0.1228
   34TCq2    C6  522   1.186   2.217  10.059 -0.7156  0.6690 -0.2111
   34TCq2    C7  523   1.208   2.126  10.159  0.3784 -0.1825 -0.0729
   34TCq2    C8  524   1.290   2.240   9.956 -0.0064 -0.4983 -0.4514
   34TCq2    O4  525   1.397   2.210  10.000  0.7790  0.3668  0.2216
   34TCq2    C9  526   0.948   2.437  10.241 -0.2549 -0.4504  0.0610
   34TCq2    O5  527   0.902   2.445  10.356 -0.3058  0.0857  0.1244
   34TCq2    O6  528   0.915   2.505  10.143 -0.5338  0.2413  0.9617
   34TCq2    H2  529   1.028   2.258  10.393  2.3745 -1.1910  1.5992
   34TCq2    H3  530   1.073   2.401  10.010 -0.2616 -1.0818 -1.2741
   34TCq2    H4  531   1.266   2.037  10.136  0.7933  0.1231 -0.2299
   35MPD2     C  532   2.319   2.426  11.881 -0.1801  0.0751 -0.9302
   35MPD2    C1  533   2.329   2.550  11.941 -0.1031 -0.5717 -0.0707
   35MPD2    C2  534   2.234   2.648  11.924  0.6120 -0.5887  0.0802
   35MPD2    C3  535   2.124   2.623  11.842  0.0033 -0.0636  0.6272
   35MPD2    C4  536   2.113   2.503  11.768 -0.0529  0.0887 -0.2876
   35MPD2    C5  537   2.209   2.407  11.796 -0.0230  0.4377  0.2884
   35MPD2     H  538   2.231   2.746  11.971  0.7464 -0.1960 -0.7325
   35MPD2    H1  539   2.046   2.490  11.684 -1.6113 -0.1190  0.9877
   35MPD2    H2  540   2.392   2.347  11.889 -0.1494 -0.0003 -1.9695
   35MPD2    H3  541   2.196   2.314  11.742 -2.3142  2.3086 -2.3577
   35MPD2     N  542   2.036   2.735  11.825 -0.0124 -0.0376  0.8299
   35MPD2    H5  543   2.074   2.825  11.853 -1.3758 -0.1579  3.0999
   35MPD2    N1  544   2.437   2.566  12.031  0.6025  0.4260 -0.5770
   35MPD2    H7  545   2.473   2.478  12.066 -0.3515  1.2121  2.3928
   36TCq2    C1  546   1.905   2.734  11.800 -0.1244 -0.0589 -0.0093
   36TCq2    O2  547   1.831   2.633  11.786  0.6192  0.2273 -0.6325
   36TCq2    C2  548   1.839   2.868  11.820  0.9376  0.1639 -0.1605
   36TCq2    C3  549   1.704   2.887  11.785 -0.0029 -0.2285 -0.0528
   36TCq2    C4  550   1.636   2.999  11.828  0.6593  0.1418 -0.1808
   36TCq2    C5  551   1.693   3.086  11.915  0.1189  0.5975  0.3363
   36TCq2    C6  552   1.827   3.071  11.952  0.2131  0.2423 -0.1654
   36TCq2    C7  553   1.902   2.970  11.896  0.3193 -0.3407  1.0658
   36TCq2    C8  554   1.880   3.192  12.010 -0.5391 -0.5374 -0.4083
   36TCq2    O4  555   1.849   3.299  11.959  0.4505 -0.3543  0.5549
   36TCq2    C9  556   1.497   3.013  11.788  0.6889 -0.2643  0.1724
   36TCq2    O5  557   1.448   3.122  11.825  0.2884 -0.2117 -0.2747
   36TCq2    O6  558   1.428   2.922  11.732 -0.4839  0.1197  0.5201
   36TCq2    H2  559   1.653   2.808  11.730 -0.5694 -0.8691  1.3670
   36TCq2    H3  560   1.640   3.177  11.941 -3.6986 -1.5993  0.1732
   36TCq2    H4  561   2.004   2.960  11.931  0.9296  0.0832 -0.6359
   37TMC2    C1  562   4.431   3.291  11.682 -0.2141 -0.3051 -0.9165
   37TMC2    C2  563   4.446   3.295  11.548 -0.3111 -0.2284 -0.8678
   37TMC2    C3  564   4.576   3.313  11.505  0.5810  0.0714  0.1835
   37TMC2    C4  565   4.534   3.309  11.773 -0.2267 -0.1045 -0.5711
   37TMC2    C5  566   4.663   3.322  11.726  0.3430 -0.2176 -0.3071
   37TMC2    C6  567   4.683   3.325  11.592  0.0325  0.4920 -0.3837
   37TMC2     C  568   4.302   3.257  11.734 -0.3205 -0.1448  0.0298
   37TMC2     O  569   4.202   3.248  11.662 -0.2024 -0.0694 -0.1236
   37TMC2     H  570   4.359   3.298  11.484  0.9767  1.1303 -2.5662
   37TMC2    H1  571   4.536   3.310  11.882  0.1201  0.3920 -0.5826
   37TMC2    H2  572   0.060   3.320  11.547 -0.1028 -2.4689 -0.3753
   37TMC2    C7  573   0.045   3.330  11.831  0.3209 -0.1421  0.1942
   37TMC2    C8  574   4.604   3.362  11.373 -0.5764  1.0454 -0.0135
   37TMC2    O1  575   0.027   3.312  11.953 -0.7954  0.2537 -0.0940
   37TMC2    O2  576   4.706   3.427  11.364 -0.3084  0.6048  0.3222
   37TMC2    O5  577   4.490   3.392  11.305 -0.1139 -0.5882  0.6355
   37TMC2    H5  578   4.417   3.326  11.305 -0.5325 -0.1279  0.9307
   38MPD2     C  579   4.000   3.068  12.117 -0.1833  1.1817 -0.4307
   38MPD2    C1  580   4.131   3.059  12.152 -0.5605 -0.1268  0.1488
   38MPD2    C2  581   4.229   3.106  12.066  0.2762 -0.2219 -0.0975
   38MPD2    C3  582   4.198   3.176  11.950  0.0720 -0.1805  1.0814
   38MPD2    C4  583   4.065   3.197  11.926 -0.1092  0.0060  0.1949
   38MPD2    C5  584   3.968   3.143  12.010  0.1770 -0.4302  0.7191
   38MPD2     H  585   4.333   3.090  12.089  0.0929  1.7077  2.0954
   38MPD2    H1  586   4.033   3.254  11.839 -1.1060 -0.2349  0.4086
   38MPD2    H2  587   3.919   3.028  12.178  1.1097 -0.4389  0.2333
   38MPD2    H3  588   3.865   3.149  11.977 -0.2149 -1.6257  1.7565
   38MPD2     N  589   4.305   3.218  11.867  0.3224  0.5027 -0.3408
   38MPD2    H5  590   4.399   3.193  11.897  0.5445  1.9922  0.2099
   38MPD2    N1  591   4.190   2.994  12.266 -0.1133 -0.4567  0.1011
   38MPD2    H7  592   4.291   2.984  12.270  0.1958  2.1484 -1.1003
   39MPD2     C  593   3.372   0.384   1.771  0.4248 -0.0225  0.3346
   39MPD2    C1  594   3.310   0.496   1.821  0.7247 -0.6791  0.4546
   39MPD2    C2  595   3.177   0.521   1.801 -0.8042 -0.0825 -0.2226
   39MPD2    C3  596   3.100   0.427   1.736  0.3634  0.6654 -0.8865
   39MPD2    C4  597   3.154   0.310   1.697  0.6489  0.2143 -0.0425
   39MPD2    C5  598   3.288   0.290   1.710 -0.2117  0.0390 -0.3029
   39MPD2     H  599   3.132   0.611   1.840 -1.5791 -0.3301 -0.5389
   39MPD2    H1  600   3.098   0.248   1.629  1.1003  0.4384 -0.6151
   39MPD2    H2  601   3.472   0.358   1.805 -0.2267  0.5256  2.6855
   39MPD2    H3  602   3.324   0.191   1.682  0.0920  0.4503 -1.3822
   39MPD2     N  603   2.960   0.448   1.715  0.3738 -0.1955 -0.5881
   39MPD2    H5  604   2.911   0.375   1.665 -1.4252 -0.7208  1.9763
   39MPD2    N1  605   3.404   0.579   1.887  0.1628  0.7977  0.0084
   39MPD2    H7  606   3.503   0.561   1.870 -0.0579  0.1692 -0.6091
   40TCq2    C1  607   3.375   0.699   1.947  0.4355  0.0773  0.3402
   40TCq2    O2  608   3.263   0.745   1.962 -0.4307  0.6176  0.0002
   40TCq2    C2  609   3.488   0.787   1.991  0.2318  0.1085  0.0050
   40TCq2    C3  610   3.468   0.926   2.025 -0.1745  0.0525 -0.2502
   40TCq2    C4  611   3.565   0.996   2.098 -0.4589 -0.1584  0.3302
   40TCq2    C5  612   3.689   0.937   2.115 -0.0685  0.2741 -0.4739
   40TCq2    C6  613   3.709   0.807   2.076 -0.6192  0.0332 -0.5136
   40TCq2    C7  614   3.609   0.736   2.018 -0.1848 -0.2298  0.6773
   40TCq2    C8  615   3.837   0.741   2.078  0.1141 -0.0181  0.1454
   40TCq2    O4  616   3.829   0.617   2.084  0.1531 -0.4764 -0.3282
   40TCq2    C9  617   3.539   1.130   2.154 -0.0928 -0.5436  0.0310
   40TCq2    O5  618   3.618   1.174   2.244 -0.1614 -0.2757  0.5488
   40TCq2    O6  619   3.417   1.159   2.144 -0.2662 -0.0917  0.2495
   40TCq2    H2  620   3.369   0.967   2.008  0.5362  0.9136 -2.3756
   40TCq2    H3  621   3.771   0.991   2.160  0.3503  0.6245 -1.6525
   40TCq2    H4  622   3.639   0.638   1.982 -2.1390 -0.5586 -0.0677
   41TMC2    C1  623   1.523   3.440  14.003  0.3123  0.4193  0.3063
   41TMC2    C2  624   1.590   3.558  14.018  0.0895 -0.3477 -0.2780
   41TMC2    C3  625   1.591   3.643  13.916  0.5860  0.7360 -0.4582
   41TMC2    C4  626   1.462   3.398  13.891  0.8182  0.2946  0.5317
   41TMC2    C5  627   1.445   3.490  13.791  0.0892 -0.3130  0.3362
   41TMC2    C6  628   1.514   3.609  13.800 -0.0522 -0.7339 -0.4350
   41TMC2     C  629   1.511   3.351  14.109 -0.2353 -0.0894  1.5245
   41TMC2     O  630   1.449   3.244  14.088  0.6933 -0.2429  0.0677
   41TMC2     H  631   1.630   3.594  14.112 -0.5205 -1.5827  0.4537
   41TMC2    H1  632   1.405   3.307  13.881  0.4494  0.7662 -1.6776
   41TMC2    H2  633   1.503   3.678  13.717 -2.4378 -2.4645 -1.5730
   41TMC2    C7  634   1.381   3.450  13.667  0.0248  0.1909  0.0625
   41TMC2    C8  635   1.668   3.764  13.922  0.1047  0.4004 -0.2185
   41TMC2    O1  636   1.301   3.358  13.686  0.2297  0.8621  0.2622
   41TMC2    O2  637   1.731   3.795  14.024 -0.3475 -0.5772 -0.6982
   41TMC2    O5  638   1.628   3.854  13.832 -0.9036 -0.3523  0.6621
   41TMC2    H5  639   1.570   3.822  13.759 -0.3489  0.1556 -0.0009
   42MPD2     C  640   1.523   3.196  14.374  0.0698  0.4631 -0.5602
   42MPD2    C1  641   1.561   3.323  14.357  0.2513 -0.0496  0.2022
   42MPD2    C2  642   1.634   3.384  14.456  0.3427 -0.2686 -1.0502
   42MPD2    C3  643   1.658   3.323  14.580  0.3348 -0.7794 -0.8248
   42MPD2    C4  644   1.609   3.194  14.597 -0.5940 -0.5746 -0.1761
   42MPD2    C5  645   1.541   3.131  14.493  0.0547 -0.4148 -0.1304
   42MPD2     H  646   1.682   3.479  14.435 -1.6378  0.7629 -0.8182
   42MPD2    H1  647   1.634   3.148  14.691 -1.4601 -0.6921 -0.0028
   42MPD2    H2  648   1.482   3.145  14.288  2.4258 -1.9697 -0.2186
   42MPD2    H3  649   1.502   3.031  14.507 -0.2471 -0.1910  0.5962
   42MPD2     N  650   1.739   3.374  14.681 -0.4142  0.4264 -0.3830
   42MPD2    H5  651   1.775   3.322  14.760  0.3105  2.0418  0.3453
   42MPD2    N1  652   1.555   3.395  14.236  0.3090 -0.0628  0.9158
   42MPD2    H7  653   1.585   3.492  14.236  1.9052 -0.5677  1.1558
   43MPD2     C  654   3.337   0.558   0.991 -0.5267  0.1464  0.3239
   43MPD2    C1  655   3.447   0.579   1.078 -0.7667  0.3220 -0.6674
   43MPD2    C2  656   3.457   0.705   1.139 -0.1834 -0.0493 -0.2365
   43MPD2    C3  657   3.357   0.797   1.128  0.1297 -0.4405 -0.0656
   43MPD2    C4  658   3.250   0.761   1.055  0.2387 -0.4795 -0.0903
   43MPD2    C5  659   3.239   0.649   0.988  0.1212 -0.2508  0.2298
   43MPD2     H  660   3.543   0.728   1.199 -0.6999 -0.1055  0.5189
   43MPD2    H1  661   3.159   0.820   1.049  1.0207  0.9469  1.8489
   43MPD2    H2  662   3.325   0.466   0.934  2.2851  0.3069 -0.5271
   43MPD2    H3  663   3.162   0.615   0.921  2.2945 -1.7344 -1.5070
   43MPD2     N  664   3.366   0.926   1.180  0.3184  0.4372 -0.5964
   43MPD2    H5  665   3.287   0.987   1.161  2.6168  4.1577  1.7171
   43MPD2    N1  666   3.550   0.487   1.096  0.0787 -0.0563  0.1493
   43MPD2    H7  667   3.635   0.529   1.132 -0.5520 -0.1791  1.7547
   44TCq2    C1  668   3.656   1.349   1.469  0.8375  0.1848 -0.2483
   44TCq2    O2  669   3.745   1.404   1.405  0.0177 -0.2826  0.3596
   44TCq2    C2  670   3.546   1.306   1.393 -0.1718  0.3607 -0.4450
   44TCq2    C3  671   3.495   1.385   1.292 -0.5871  0.3988 -0.3276
   44TCq2    C4  672   3.434   1.329   1.184  0.1691  0.1237 -1.4162
   44TCq2    C5  673   3.408   1.194   1.178 -0.5830 -0.1551 -0.0172
   44TCq2    C6  674   3.465   1.114   1.277 -0.0202 -0.7974 -0.5727
   44TCq2    C7  675   3.532   1.168   1.384 -0.9863 -0.5591  0.1065
   44TCq2    C8  676   3.468   0.973   1.256  0.0734  0.3101  0.8170
   44TCq2    O4  677   3.555   0.915   1.315  0.0776 -0.0546  0.1605
   44TCq2    C9  678   3.375   1.417   1.087 -0.0790 -0.2435 -0.0058
   44TCq2    O5  679   3.406   1.542   1.074 -0.1166  0.0967  0.1954
   44TCq2    O6  680   3.290   1.368   1.013 -0.0107  0.0170 -0.7378
   44TCq2    H2  681   3.519   1.489   1.306  0.2877  0.2829 -0.9571
   44TCq2    H3  682   3.357   1.151   1.092  0.0765 -0.9368 -0.0237
   44TCq2    H4  683   3.580   1.098   1.451  1.6133 -0.1664 -1.3395
   45TMC2    C1  684   3.361   3.640   9.437 -0.1399  0.7565 -0.0009
   45TMC2    C2  685   3.427   3.566   9.531 -0.1564 -0.5313  0.0546
   45TMC2    C3  686   3.534   3.622   9.591 -1.1201 -0.3353  0.1017
   45TMC2    C4  687   3.399   3.764   9.410 -0.3592 -0.1605  0.1192
   45TMC2    C5  688   3.514   3.820   9.466 -0.7572  0.8489  0.3146
   45TMC2    C6  689   3.574   3.749   9.568 -0.0918 -0.3107 -0.6123
   45TMC2     C  690   3.239   3.586   9.371  0.1928  0.3997  0.2375
   45TMC2     O  691   3.170   3.668   9.311  0.9393 -0.8914 -0.0352
   45TMC2     H  692   3.419   3.460   9.556  0.0310 -0.8856 -1.3853
   45TMC2    H1  693   3.342   3.819   9.335  0.3475 -2.2732 -1.9826
   45TMC2    H2  694   3.655   3.798   9.620  1.1980 -1.9095 -1.1249
   45TMC2    C7  695   3.539   3.962   9.428  0.2535  0.0841 -0.6447
   45TMC2    C8  696   3.606   3.540   9.680 -0.2600  0.3878  0.0006
   45TMC2    O1  697   3.456   4.029   9.367 -0.0651 -0.1959 -0.0445
   45TMC2    O2  698   3.575   3.421   9.697  0.0432 -0.7386  0.1866
   45TMC2    O5  699   3.730   3.593   9.681  0.2121 -0.6186  0.3895
   45TMC2    H5  700   3.754   3.668   9.621 -1.7067 -1.5659 -1.5650
   46MPD2     C  701   2.981   3.443   9.329 -0.2347  0.4652  0.6793
   46MPD2    C1  702   3.091   3.391   9.401 -0.7340 -0.3226  0.0252
   46MPD2    C2  703   3.081   3.273   9.468 -0.4377 -0.3872  0.4336
   46MPD2    C3  704   2.968   3.199   9.475 -0.2520  0.0978 -0.2612
   46MPD2    C4  705   2.859   3.249   9.403  0.6110 -0.8440  0.1397
   46MPD2    C5  706   2.867   3.364   9.329 -0.4944 -1.1184 -1.3781
   46MPD2     H  707   3.169   3.235   9.518 -0.0680  0.9600  0.8034
   46MPD2    H1  708   2.760   3.205   9.405 -0.2433  1.2118  2.3368
   46MPD2    H2  709   2.989   3.523   9.256 -0.4445  3.2978  3.7774
   46MPD2    H3  710   2.784   3.395   9.266 -1.9754 -3.6023 -0.6287
   46MPD2     N  711   2.962   3.084   9.561  0.5607  0.1006  0.4096
   46MPD2    H5  712   3.052   3.052   9.595  0.4318 -1.9644 -1.2259
   46MPD2    N1  713   3.213   3.457   9.411  0.9010 -0.3767  0.6241
   46MPD2    H7  714   3.281   3.400   9.460  0.5070 -1.2616  0.1502
   47TMC2    C1  715   2.061   4.475   9.815  1.0964  0.0071  0.3120
   47TMC2    C2  716   2.145   4.409   9.723 -0.2468 -0.0578  0.1789
   47TMC2    C3  717   2.119   4.414   9.589 -0.1262  0.6920 -0.0900
   47TMC2    C4  718   1.944   4.520   9.776 -0.6394  0.1279  0.0873
   47TMC2    C5  719   1.910   4.494   9.645 -1.2463 -0.0410  0.4600
   47TMC2    C6  720   1.998   4.455   9.550 -0.4688  0.0803 -0.0171
   47TMC2     C  721   2.078   4.453   9.956  0.3368  0.6030 -0.4183
   47TMC2     O  722   2.044   4.534  10.040 -0.0199  0.4126  0.1217
   47TMC2     H  723   2.249   4.395   9.747 -0.5850  0.4204  1.9160
   47TMC2    H1  724   1.870   4.569   9.839 -0.2239  0.6380  0.1749
   47TMC2    H2  725   1.977   4.449   9.444 -0.5579 -1.6190  0.0950
   47TMC2    C7  726   1.772   4.510   9.606 -0.2495 -0.9641  1.1093
   47TMC2    C8  727   2.207   4.368   9.483 -0.4131  0.6726  0.1701
   47TMC2    O1  728   1.749   4.531   9.485  0.2702 -0.0209  0.0726
   47TMC2    O2  729   2.201   4.399   9.363  0.4112  0.2552  0.2740
   47TMC2    O5  730   2.279   4.262   9.534 -0.5309 -0.1953 -0.2818
   47TMC2    H5  731   2.260   4.230   9.624  0.3459 -0.6400 -0.2523
   48MPD2     C  732   2.089   4.316  10.223 -0.2407 -0.5386 -0.2367
   48MPD2    C1  733   2.143   4.272  10.101 -0.0699  0.4924  0.2897
   48MPD2    C2  734   2.213   4.153  10.108 -0.6895 -0.7574 -0.0204
   48MPD2    C3  735   2.236   4.086  10.226 -0.0233  0.0138  0.3847
   48MPD2    C4  736   2.158   4.118  10.337 -0.4674  0.1920 -0.3118
   48MPD2    C5  737   2.089   4.238  10.335 -0.0120 -0.3346  0.7462
   48MPD2     H  738   2.250   4.120  10.011 -1.0422 -0.6648 -0.1888
   48MPD2    H1  739   2.165   4.060  10.429  0.3820  1.8910  0.6991
   48MPD2    H2  740   2.043   4.411  10.245  0.6644  0.5086 -2.8708
   48MPD2    H3  741   2.036   4.268  10.425  0.0223  0.4582  0.5082
   48MPD2     N  742   2.324   3.977  10.218  0.0777 -0.2888  0.4544
   48MPD2    H5  743   2.373   3.947  10.135  1.9870 -3.0991  2.5699
   48MPD2    N1  744   2.128   4.324   9.973  0.4999  0.0947 -0.6791
   48MPD2    H7  745   2.162   4.281   9.888  1.3577  0.2313 -0.3981
   49MPD2     C  746   4.381   0.980   9.899  0.2649 -0.3758  0.8804
   49MPD2    C1  747   4.308   0.950  10.009  0.3921 -0.2599 -0.3091
   49MPD2    C2  748   4.340   1.007  10.131 -0.2464 -0.4192 -0.7665
   49MPD2    C3  749   4.447   1.098  10.140 -0.2333  0.3700  0.1330
   49MPD2    C4  750   4.520   1.121  10.029  0.3129 -0.3076  0.2198
   49MPD2    C5  751   4.489   1.064   9.906 -0.5125 -0.7672 -0.1376
   49MPD2     H  752   4.282   0.987  10.221  2.8120 -3.3136  0.5934
   49MPD2    H1  753   4.603   1.191  10.036  1.0400 -1.1074 -0.3616
   49MPD2    H2  754   4.345   0.933   9.809 -0.3451 -0.8055  1.3470
   49MPD2    H3  755   4.550   1.083   9.819 -0.8012  2.1240  0.2778
   49MPD2     N  756   4.477   1.160  10.263 -0.1892  0.2552 -0.6700
   49MPD2    H5  757   4.570   1.197  10.277 -0.4494  0.3758  0.7263
   49MPD2    N1  758   4.195   0.869  10.007 -0.3854  0.2579 -0.0280
   49MPD2    H7  759   4.154   0.863  10.100 -0.8453  0.5372 -0.2112
   50TCq2    C1  760   4.121   0.834   9.896  1.0814  0.4767 -0.1192
   50TCq2    O2  761   4.126   0.888   9.786 -0.4521 -0.2424 -0.2334
   50TCq2    C2  762   4.013   0.748   9.928  0.6899 -0.4808  0.4609
   50TCq2    C3  763   3.903   0.754   9.847  0.4435 -0.2511 -0.2975
   50TCq2    C4  764   3.814   0.651   9.853  0.4676 -0.2907  0.0656
   50TCq2    C5  765   3.831   0.545   9.940  0.4708  0.6354  0.3646
   50TCq2    C6  766   3.939   0.546  10.025  0.1598  0.1202  0.1177
   50TCq2    C7  767   4.039   0.645  10.016  0.3764  0.6400 -0.5014
   50TCq2    C8  768   3.960   0.433  10.109 -0.5206  0.2549  0.4129
   50TCq2    O4  769   4.004   0.464  10.220  0.2546  0.4910  0.1031
   50TCq2    C9  770   3.695   0.667   9.785  0.0160  0.3893 -0.6739
   50TCq2    O5  771   3.685   0.769   9.712 -0.7572  0.0866  0.6472
   50TCq2    O6  772   3.609   0.581   9.802  0.0359 -0.0302 -0.3095
   50TCq2    H2  773   3.870   0.845   9.798  0.8229  0.0917  0.0763
   50TCq2    H3  774   3.748   0.479   9.964  0.1154  0.5813 -1.0449
   50TCq2    H4  775   4.132   0.634  10.069  0.9564 -0.1795 -1.6675
   51MPD2     C  776   0.089   0.283   1.241 -0.4841 -0.1384  0.2634
   51MPD2    C1  777   0.072   0.158   1.294  0.0639  1.2292  0.5436
   51MPD2    C2  778   0.056   0.138   1.428 -0.1156 -0.2140 -0.1922
   51MPD2    C3  779   0.068   0.243   1.522  0.0757 -0.3261  0.1828
   51MPD2    C4  780   0.098   0.367   1.466  0.0873 -0.2249 -0.2136
   51MPD2    C5  781   0.109   0.386   1.332 -0.1770 -0.3068  0.2994
   51MPD2     H  782   0.035   0.034   1.453  0.9993  0.0422  1.7678
   51MPD2    H1  783   0.109   0.451   1.533 -1.0091 -0.7625  0.6463
   51MPD2    H2  784   0.107   0.313   1.139 -1.7089 -2.8170 -0.7418
   51MPD2    H3  785   0.141   0.484   1.300 -0.5190 -0.4603 -0.5252
   51MPD2     N  786   0.053   0.215   1.663  0.3637  0.4055  0.4460
   51MPD2    H5  787   0.068   0.299   1.718 -0.4234  0.4776  0.5542
   51MPD2    N1  788   0.064   0.034   1.208 -0.5260  0.0234 -0.2281
   51MPD2    H7  789   0.024   4.671   1.248 -2.2037  2.0494  2.3010
   52TCq2    C1  790   0.030   0.091   1.723  0.5293  1.2612  0.5282
   52TCq2    O2  791   0.009   4.707   1.667 -0.6528  0.4359  0.5030
   52TCq2    C2  792   0.019   0.092   1.870  0.0536  0.2751 -0.1081
   52TCq2    C3  793   0.024   4.699   1.939 -0.5382  0.4671  0.4057
   52TCq2    C4  794   0.038   4.697   2.076 -0.0378 -0.2413  0.3728
   52TCq2    C5  795   0.036   0.093   2.152 -0.9673 -0.3788 -0.1503
   52TCq2    C6  796   0.051   0.205   2.073 -0.0874 -0.4373 -0.3683
   52TCq2    C7  797   0.043   0.210   1.938 -1.2420 -0.2548 -0.0746
   52TCq2    C8  798   0.108   0.329   2.137  0.3695 -0.0905  0.0255
   52TCq2    O4  799   0.167   0.400   2.057  0.4148  0.9101  0.8154
   52TCq2    C9  800   0.040   4.578   2.149 -0.6822 -0.2664  0.2293
   52TCq2    O5  801   4.706   4.474   2.096 -0.2515  0.0274  0.2173
   52TCq2    O6  802   0.089   4.577   2.266 -0.1646  0.6372 -0.4862
   52TCq2    H2  803   0.027   4.603   1.888  2.3644  0.9427 -0.3297
   52TCq2    H3  804   0.046   0.091   2.260 -2.0097 -2.4801 -0.0925
   52TCq2    H4  805   0.045   0.306   1.887 -1.0869 -0.3202 -0.1939
   53TMC2    C1  806   0.524   3.491  12.363 -0.1446 -0.1876 -0.7381
   53TMC2    C2  807   0.531   3.599  12.448 -0.7323 -0.0885 -0.4717
   53TMC2    C3  808   0.453   3.596  12.559 -0.0259 -0.1055  1.0691
   53TMC2    C4  809   0.445   3.380  12.388  0.1379 -0.0960  0.1087
   53TMC2    C5  810   0.370   3.381  12.505  0.1037  0.3355 -0.4987
   53TMC2    C6  811   0.375   3.487  12.591  0.3974  0.6206 -0.2271
   53TMC2     C  812   0.550   3.519  12.221 -0.0640 -0.2706  0.1407
   53TMC2     O  813   0.662   3.555  12.181  0.5849  0.0997 -0.0969
   53TMC2     H  814   0.589   3.686  12.418 -0.6674 -0.2930 -0.9330
   53TMC2    H1  815   0.446   3.300  12.315  0.2423  0.2906 -0.3143
   53TMC2    H2  816   0.309   3.490  12.677 -0.7889  3.4014 -1.2486
   53TMC2    C7  817   0.247   3.308  12.492  0.8810  0.7506  0.0598
   53TMC2    C8  818   0.482   3.696  12.654 -0.6781  0.4221 -0.0170
   53TMC2    O1  819   0.212   3.288  12.375 -0.3623 -0.8260 -0.4997
   53TMC2    O2  820   0.598   3.726  12.666 -0.3018 -0.1643  0.3478
   53TMC2    O5  821   0.399   3.673  12.755 -0.3209  0.3395 -0.4004
   53TMC2    H5  822   0.307   3.671  12.720 -0.8858  0.3716  1.0968
   54MPD2     C  823   0.519   3.525  11.927 -0.0990 -0.4245 -0.0393
   54MPD2    C1  824   0.424   3.479  12.015 -0.9288 -0.6495 -0.6541
   54MPD2    C2  825   0.302   3.428  11.959 -0.6886 -0.6238  0.2638
   54MPD2    C3  826   0.275   3.433  11.819 -0.1574  0.4112  0.4903
   54MPD2    C4  827   0.372   3.493  11.742  0.6939  0.7039  0.2201
   54MPD2    C5  828   0.493   3.528  11.792 -0.3453  0.2295  0.2970
   54MPD2     H  829   0.238   3.390  12.037 -2.1588  1.5078  0.0734
   54MPD2    H1  830   0.367   3.506  11.634 -1.8633 -2.4782 -0.0725
   54MPD2    H2  831   0.618   3.559  11.958 -0.9026  0.7681  1.2370
   54MPD2    H3  832   0.577   3.556  11.729 -0.1373 -0.1078  0.4236
   54MPD2     N  833   0.158   3.379  11.769 -0.2071 -0.1455 -0.0770
   54MPD2    H5  834   0.148   3.400  11.670 -1.2330 -0.2935 -0.0041
   54MPD2    N1  835   0.442   3.472  12.152  0.2683 -0.0618 -0.1067
   54MPD2    H7  836   0.365   3.440  12.210  0.9372 -1.3644  0.0699
   55MPD2     C  837   1.281   0.561   1.231 -0.7640 -0.9555  0.1050
   55MPD2    C1  838   1.154   0.522   1.219 -0.0065  1.0056  0.0882
   55MPD2    C2  839   1.057   0.621   1.188 -0.4420 -0.3336  0.7450
   55MPD2    C3  840   1.089   0.758   1.176 -0.5547 -0.7628 -0.1349
   55MPD2    C4  841   1.221   0.791   1.191  0.3480 -0.3570 -0.2871
   55MPD2    C5  842   1.311   0.694   1.231 -0.5872 -0.0426 -0.5826
   55MPD2     H  843   0.954   0.591   1.171 -0.1410 -1.0549  0.1945
   55MPD2    H1  844   1.254   0.894   1.203  2.8205 -1.0653 -0.8944
   55MPD2    H2  845   1.355   0.484   1.252  0.4881 -0.3591 -2.0328
   55MPD2    H3  846   1.414   0.721   1.252 -0.8305 -0.0362  0.5954
   55MPD2     N  847   0.996   0.862   1.136 -0.2051 -0.0239 -1.4674
   55MPD2    H5  848   1.025   0.959   1.144  0.0056 -0.2039 -0.0561
   55MPD2    N1  849   1.119   0.387   1.236 -0.0438  0.1226  0.3731
   55MPD2    H7  850   1.192   0.321   1.261 -0.1972 -0.0903  0.2534
   56TCq2    C1  851   0.991   0.329   1.235  0.6535 -0.1304  0.5671
   56TCq2    O2  852   0.881   0.383   1.214 -0.1096 -0.1284  0.1675
   56TCq2    C2  853   0.990   0.192   1.292 -0.0531  0.0055  0.3531
   56TCq2    C3  854   1.110   0.125   1.303  0.0026 -0.6084  0.0081
   56TCq2    C4  855   1.111   0.011   1.370  0.0700  0.5153  0.1927
   56TCq2    C5  856   1.012   4.703   1.459 -0.0518  0.3693 -0.1025
   56TCq2    C6  857   0.900   0.062   1.461  0.5959 -0.3194 -0.3270
   56TCq2    C7  858   0.884   0.165   1.374 -0.1863  0.6349  0.5564
   56TCq2    C8  859   0.806   0.030   1.572  0.6262 -0.1816  0.8837
   56TCq2    O4  860   0.805   4.637   1.622 -0.1414  0.0509  0.0689
   56TCq2    C9  861   1.217   4.633   1.352 -0.0758  0.2222 -0.0323
   56TCq2    O5  862   1.282   4.631   1.247 -0.1550 -0.2920 -0.3342
   56TCq2    O6  863   1.208   4.532   1.422  0.0600 -0.0085  0.0060
   56TCq2    H2  864   1.192   0.147   1.236 -0.9344 -2.7794 -1.8445
   56TCq2    H3  865   1.012   4.601   1.496  1.4488  0.9505  1.5076
   56TCq2    H4  866   0.794   0.224   1.363  0.1292  0.9415 -0.4299
   57TMC2    C1  867   0.147   2.189  13.534  0.4105  1.2588  0.2405
   57TMC2    C2  868   0.102   2.060  13.527 -0.3419  0.2082  0.8255
   57TMC2    C3  869   0.190   1.965  13.480  0.0350  0.0224 -0.1546
   57TMC2    C4  870   0.274   2.224  13.505 -0.1489  0.3161 -0.2035
   57TMC2    C5  871   0.356   2.129  13.452 -0.6098 -0.5560 -0.1214
   57TMC2    C6  872   0.316   1.997  13.439 -0.1123 -0.0288  0.4317
   57TMC2     C  873   0.089   2.271  13.641 -0.0443  0.3819 -0.3971
   57TMC2     O  874   0.135   2.389  13.651  0.1629  0.0622 -0.1206
   57TMC2     H  875   4.719   2.040  13.553 -0.6025 -0.8113 -0.9845
   57TMC2    H1  876   0.310   2.325  13.520 -0.4652  0.3854  0.0633
   57TMC2    H2  877   0.371   1.923  13.382 -1.4323  0.7158 -1.7803
   57TMC2    C7  878   0.490   2.174  13.418  0.0723 -0.6776  0.0271
   57TMC2    C8  879   0.130   1.836  13.478 -0.0963 -0.4796  0.1874
   57TMC2    O1  880   0.502   2.294  13.405 -0.0109  0.0509  0.4193
   57TMC2    O2  881   0.010   1.818  13.494 -0.2472 -0.5306  0.6943
   57TMC2    O5  882   0.222   1.734  13.464 -0.2340  0.2376  0.1230
   57TMC2    H5  883   0.312   1.762  13.489 -0.1263 -2.1093  2.2744
   58MPD2     C  884   4.528   2.320  14.070  0.0140  0.4460  0.4902
   58MPD2    C1  885   4.571   2.414  13.979 -0.2270 -0.0197  0.1018
   58MPD2    C2  886   4.652   2.383  13.867  1.0787  0.0605 -1.2295
   58MPD2    C3  887   4.676   2.247  13.842 -0.2213  0.1120 -0.2917
   58MPD2    C4  888   4.622   2.156  13.927  0.2847  0.2749  0.2852
   58MPD2    C5  889   4.560   2.190  14.040 -0.0636  0.2095 -0.1667
   58MPD2     H  890   4.688   2.456  13.795 -0.7733  0.4400 -1.7746
   58MPD2    H1  891   4.637   2.049  13.921  1.3741  0.5869 -2.6044
   58MPD2    H2  892   4.475   2.336  14.163  1.5091  2.6975  0.9570
   58MPD2    H3  893   4.536   2.100  14.096  0.9508  0.0807  0.0607
   58MPD2     N  894   0.032   2.199  13.742 -0.4127 -0.0449 -0.0443
   58MPD2    H5  895   0.030   2.098  13.734 -0.0161 -0.0853  0.4041
   58MPD2    N1  896   4.526   2.547  13.987 -0.2528 -0.1973  0.1726
   58MPD2    H7  897   4.548   2.604  13.906 -0.1418 -0.7628 -0.1974
   59MPD2     C  898   2.629   2.301  13.517 -0.4544 -0.9811  0.1397
   59MPD2    C1  899   2.712   2.268  13.416  0.0450 -0.0731  0.3714
   59MPD2    C2  900   2.829   2.340  13.416  0.1833 -0.0007  0.3679
   59MPD2    C3  901   2.869   2.432  13.507 -0.1442  0.2410  0.4283
   59MPD2    C4  902   2.787   2.456  13.608 -0.3406  0.4480  0.1218
   59MPD2    C5  903   2.669   2.390  13.611 -0.7460 -0.0237 -1.1561
   59MPD2     H  904   2.901   2.305  13.343 -0.2577  0.6339 -0.3701
   59MPD2    H1  905   2.802   2.533  13.682  3.0485  0.5404 -0.6782
   59MPD2    H2  906   2.536   2.248  13.532 -0.9942 -0.5819 -1.8418
   59MPD2    H3  907   2.603   2.419  13.692 -1.3755 -0.7683 -1.4016
   59MPD2     N  908   2.985   2.512  13.504  0.3965 -0.0807 -0.2605
   59MPD2    H5  909   2.993   2.576  13.581  1.9715 -0.4104 -0.1525
   59MPD2    N1  910   2.684   2.168  13.325 -0.5491 -0.1285 -0.1736
   59MPD2    H7  911   2.760   2.138  13.264 -0.6359 -2.7069  0.9866
   60TCq2    C1  912   2.563   2.099  13.311  0.4714  0.8041  0.1521
   60TCq2    O2  913   2.465   2.101  13.387 -0.2587  0.2129 -0.2739
   60TCq2    C2  914   2.570   1.980  13.218  0.2511  0.5856 -0.0838
   60TCq2    C3  915   2.489   1.876  13.244 -0.1159  0.5145 -0.2227
   60TCq2    C4  916   2.470   1.786  13.141  0.6201  0.5076 -0.2204
   60TCq2    C5  917   2.536   1.799  13.021  0.2524  0.1349 -0.0194
   60TCq2    C6  918   2.607   1.913  12.998 -0.0332 -0.6035 -0.6614
   60TCq2    C7  919   2.624   2.007  13.092  0.5640 -0.1324 -0.5005
   60TCq2    C8  920   2.659   1.935  12.864 -0.9062 -0.3148 -0.6494
   60TCq2    O4  921   2.682   1.834  12.799 -0.3105  0.2685 -0.2783
   60TCq2    C9  922   2.371   1.678  13.154 -0.0875  0.1079 -0.4186
   60TCq2    O5  923   2.317   1.673  13.267 -0.0742  0.3773 -0.0470
   60TCq2    O6  924   2.371   1.583  13.069  0.3251  0.6315  0.4078
   60TCq2    H2  925   2.426   1.863  13.332 -0.4012 -0.3400 -0.5528
   60TCq2    H3  926   2.520   1.725  12.943 -0.6590  1.9417 -1.5480
   60TCq2    H4  927   2.683   2.097  13.081 -1.7031  1.0672 -2.8354
   61MPD2     C  928   2.397   3.802  15.811  0.1716  0.5386  0.9544
   61MPD2    C1  929   2.414   3.936  15.829  0.3042 -0.3585 -0.0658
   61MPD2    C2  930   2.504   4.002  15.747 -0.0488 -0.0522 -0.1871
   61MPD2    C3  931   2.565   3.936  15.641  0.0374 -0.6994  0.3282
   61MPD2    C4  932   2.544   3.805  15.625  0.0939  0.4876 -0.8160
   61MPD2    C5  933   2.467   3.734  15.712  0.2781  0.1309  0.2899
   61MPD2     H  934   2.536   4.103  15.771 -1.5952  0.1080  1.1808
   61MPD2    H1  935   2.584   3.744  15.544  0.4937  0.2842 -0.4625
   61MPD2    H2  936   2.324   3.739  15.859  1.9810 -3.8614 -1.9654
   61MPD2    H3  937   2.444   3.628  15.707 -2.2274  0.7536 -1.2860
   61MPD2     N  938   2.651   3.996  15.540 -0.3917  1.2340  0.1569
   61MPD2    H5  939   2.667   3.939  15.458 -1.1118 -0.9958  1.5831
   61MPD2    N1  940   2.334   4.014  15.914 -0.3329 -0.1229 -0.2037
   61MPD2    H7  941   2.331   4.115  15.904  1.4762  0.2022  2.5169
   62TCq2    C1  942   2.235   3.965  15.997 -0.2816  0.6553  0.3586
   62TCq2    O2  943   2.186   3.850  16.002 -0.5408 -0.1370  0.0795
   62TCq2    C2  944   2.158   4.068  16.072 -0.5015  0.3098 -1.0185
   62TCq2    C3  945   2.067   4.013  16.157 -0.1899  0.4960 -0.2136
   62TCq2    C4  946   1.954   4.084  16.198  0.0247 -0.0391  0.7340
   62TCq2    C5  947   1.952   4.222  16.167  0.1964 -0.0925 -0.4672
   62TCq2    C6  948   2.048   4.277  16.084  0.1527  0.3191 -0.6515
   62TCq2    C7  949   2.152   4.201  16.041  0.0360  1.1241  0.2828
   62TCq2    C8  950   2.031   4.403  16.018 -0.2937 -0.1359  0.2206
   62TCq2    O4  951   2.121   4.445  15.950 -0.0637  0.1539  0.3129
   62TCq2    C9  952   1.841   4.030  16.274  0.2277 -0.2229  0.4402
   62TCq2    O5  953   1.761   4.113  16.319  0.0045 -0.0075  0.6273
   62TCq2    O6  954   1.869   3.915  16.317  0.0692 -0.3715 -0.1350
   62TCq2    H2  955   2.067   3.907  16.177 -0.9983  0.6555  0.6405
   62TCq2    H3  956   1.874   4.278  16.218 -0.4042 -0.1025 -1.3853
   62TCq2    H4  957   2.221   4.245  15.970 -0.5902  0.8275 -0.5092
   63TMC2    C1  958   1.680   3.649  10.981  0.2527 -0.1365  0.4129
   63TMC2    C2  959   1.783   3.590  11.057  0.4040  0.2674  0.5871
   63TMC2    C3  960   1.887   3.675  11.088  0.2743  0.9419 -0.9125
   63TMC2    C4  961   1.671   3.778  10.957 -0.2437  0.4443  0.1566
   63TMC2    C5  962   1.778   3.857  11.000 -0.3860 -1.3644 -0.1174
   63TMC2    C6  963   1.892   3.810  11.059 -0.6612 -0.1898 -0.2045
   63TMC2     C  964   1.560   3.568  10.945  0.5820  0.5413  0.1331
   63TMC2     O  965   1.463   3.629  10.896 -0.0091  0.1214  0.3075
   63TMC2     H  966   1.792   3.492  11.104  0.4470 -0.0623 -0.1076
   63TMC2    H1  967   1.588   3.818  10.900 -0.2757  2.1436  1.3801
   63TMC2    H2  968   1.981   3.868  11.082 -1.3981  0.8316  0.0733
   63TMC2    C7  969   1.775   3.984  10.930  0.0810  1.0429  0.0627
   63TMC2    C8  970   2.011   3.608  11.127 -0.3709  0.1038  0.0471
   63TMC2    O1  971   1.781   3.989  10.810  0.4318 -0.0189  0.1449
   63TMC2    O2  972   2.085   3.655  11.210  0.2919 -0.4432 -0.2001
   63TMC2    O5  973   2.049   3.538  11.020  0.1011  0.4429  0.3817
   63TMC2    H5  974   1.977   3.490  10.975  0.7729 -0.4958  0.2911
   64MPD2     C  975   1.323   3.165  10.764 -0.2657 -0.3601 -0.6820
   64MPD2    C1  976   1.456   3.136  10.749  0.2351 -0.0270  0.3843
   64MPD2    C2  977   1.543   3.231  10.798  0.0902 -0.1786 -0.0859
   64MPD2    C3  978   1.497   3.344  10.865  0.8388  0.4383 -0.1724
   64MPD2    C4  979   1.361   3.366  10.878 -0.0088  0.1194  1.1388
   64MPD2    C5  980   1.277   3.273  10.822 -0.1797 -0.0501 -0.4227
   64MPD2     H  981   1.649   3.217  10.784 -0.0851 -0.1233 -1.4368
   64MPD2    H1  982   1.312   3.454  10.918  0.3108  1.5424 -1.6279
   64MPD2    H2  983   1.250   3.097  10.721 -2.5809  0.7684  1.4391
   64MPD2    H3  984   1.170   3.289  10.814 -0.4033 -1.6932 -0.6910
   64MPD2     N  985   1.593   3.445  10.894  0.0416 -0.4850  0.4769
   64MPD2    H5  986   1.691   3.420  10.898  0.8573  2.9531  1.7620
   64MPD2    N1  987   1.507   3.020  10.684 -0.4693 -0.0476  0.2914
   64MPD2    H7  988   1.608   3.012  10.675 -0.1681  1.0744  2.6673
   65MPD2     C  989   2.309   3.290  16.084 -0.3634 -0.5865 -0.9354
   65MPD2    C1  990   2.406   3.312  15.989  0.2393  0.2173  0.3423
   65MPD2    C2  991   2.429   3.206  15.896 -0.1689 -1.4918 -1.0744
   65MPD2    C3  992   2.351   3.088  15.894 -0.6633 -0.0617 -0.1185
   65MPD2    C4  993   2.251   3.071  15.984 -0.2132 -0.4690  1.3494
   65MPD2    C5  994   2.233   3.174  16.076 -0.4953  0.0745  0.3269
   65MPD2     H  995   2.493   3.219  15.809 -1.5810  0.8997 -1.7526
   65MPD2    H1  996   2.180   2.989  15.982 -0.6243 -0.0881  0.1618
   65MPD2    H2  997   2.297   3.365  16.162 -1.0818 -0.0448 -1.5581
   65MPD2    H3  998   2.153   3.159  16.147 -2.2446  2.6467 -1.0927
   65MPD2     N  999   2.366   2.984  15.805 -0.3272  0.3719 -0.4311
   65MPD2    H5 1000   2.305   2.903  15.817 -0.6568  0.4207 -1.8469
   65MPD2    N1 1001   2.498   3.424  16.001  0.0039 -0.3213 -0.0626
   65MPD2    H7 1002   2.589   3.418  15.956  0.0530 -0.4078  0.0464
   66TCq2    C1 1003   2.482   3.536  16.081 -1.1102 -0.3983  0.7515
   66TCq2    O2 1004   2.376   3.581  16.128 -0.4787  0.0151 -0.5124
   66TCq2    C2 1005   2.606   3.621  16.090 -0.4490  0.0538  0.0538
   66TCq2    C3 1006   2.726   3.563  16.068  0.3938 -0.3446  0.2250
   66TCq2    C4 1007   2.831   3.635  16.026  0.8156  1.1352  0.1661
   66TCq2    C5 1008   2.814   3.767  16.016  0.4144 -0.0985 -0.2352
   66TCq2    C6 1009   2.706   3.836  16.072 -0.2695  0.4892  0.6801
   66TCq2    C7 1010   2.592   3.760  16.109  0.6882  0.3353 -0.5680
   66TCq2    C8 1011   2.693   3.978  16.052  0.4684  0.1104  0.4112
   66TCq2    O4 1012   2.794   4.033  15.994  0.3762 -0.0798  0.4106
   66TCq2    C9 1013   2.952   3.571  16.001  0.1562 -0.1322 -0.2515
   66TCq2    O5 1014   3.047   3.632  15.953 -0.5777 -0.9618 -0.0263
   66TCq2    O6 1015   2.965   3.456  16.048 -0.8127  0.5077  0.7820
   66TCq2    H2 1016   2.730   3.456  16.085 -0.3638 -0.6786 -1.7278
   66TCq2    H3 1017   2.902   3.815  15.976  0.3621 -0.2664 -0.5478
   66TCq2    H4 1018   2.504   3.805  16.154  1.3879  1.8098 -0.6837
   67MPD2     C 1019   2.733   2.681  14.037  0.3419  0.1426  0.2847
   67MPD2    C1 1020   2.652   2.734  14.140 -0.0951  0.2820 -0.3652
   67MPD2    C2 1021   2.533   2.789  14.108 -0.8790  0.2836  0.4321
   67MPD2    C3 1022   2.475   2.789  13.979  0.6981 -0.1442 -0.6072
   67MPD2    C4 1023   2.552   2.727  13.879  0.3700 -0.0444 -0.1714
   67MPD2    C5 1024   2.679   2.684  13.910  0.6647 -0.7844 -0.0426
   67MPD2     H 1025   2.478   2.847  14.181  0.0911  1.0325  0.5715
   67MPD2    H1 1026   2.521   2.723  13.775  1.3789 -1.1210 -0.4242
   67MPD2    H2 1027   2.827   2.634  14.065  1.2751  1.8766  0.0722
   67MPD2    H3 1028   2.723   2.631  13.826  2.9340  0.2572  0.4947
   67MPD2     N 1029   2.344   2.825  13.930  0.1627  0.1215 -0.1465
   67MPD2    H5 1030   2.313   2.804  13.836 -1.5842 -2.0859  0.9505
   67MPD2    N1 1031   2.698   2.758  14.268 -0.0632  0.6543  0.0108
   67MPD2    H7 1032   2.648   2.806  14.342  0.3846  0.3057  0.5456
   68TCq2    C1 1033   2.817   2.707  14.321  0.1455  0.5160  0.3955
   68TCq2    O2 1034   2.905   2.637  14.276  0.3773  0.5552 -0.0352
   68TCq2    C2 1035   2.848   2.771  14.449 -0.2933 -0.0490  0.5440
   68TCq2    C3 1036   2.771   2.871  14.506  0.2175 -0.0282  0.3349
   68TCq2    C4 1037   2.821   2.936  14.617  0.7399 -0.1308  1.1224
   68TCq2    C5 1038   2.932   2.890  14.676  0.3492 -0.6689  0.0280
   68TCq2    C6 1039   3.003   2.789  14.620 -0.3545  0.2118  0.0428
   68TCq2    C7 1040   2.968   2.730  14.501  0.3376  0.3501  0.7607
   68TCq2    C8 1041   3.142   2.763  14.659 -0.6771 -0.2364 -0.2231
   68TCq2    O4 1042   3.219   2.759  14.565 -0.4871  0.1835  0.0192
   68TCq2    C9 1043   2.756   3.052  14.662 -0.5274  0.3693  0.5525
   68TCq2    O5 1044   2.801   3.102  14.768 -0.3461  0.2840  0.3202
   68TCq2    O6 1045   2.659   3.097  14.598 -0.1236  0.5065 -0.4844
   68TCq2    H2 1046   2.676   2.904  14.466  0.1735  0.3627  0.7602
   68TCq2    H3 1047   2.970   2.937  14.766 -0.3984  1.6578 -0.8693
   68TCq2    H4 1048   3.023   2.640  14.474  0.5442  0.4962  0.6969
   69TMC2    C1 1049   3.997   3.888  12.104  0.2964 -0.3432  0.3911
   69TMC2    C2 1050   3.878   3.958  12.117  0.7323  0.0814 -0.2141
   69TMC2    C3 1051   3.822   4.008  12.007 -0.0038 -0.3536 -0.6209
   69TMC2    C4 1052   4.056   3.873  11.978 -0.6484 -0.7854  0.5991
   69TMC2    C5 1053   3.994   3.930  11.870 -0.6668  1.2525  0.3007
   69TMC2    C6 1054   3.885   4.007  11.884  0.0236 -0.3622 -0.5062
   69TMC2     C 1055   4.068   3.841  12.224  0.5520 -0.6265  0.2991
   69TMC2     O 1056   4.007   3.832  12.332 -0.0770  0.2416  0.8333
   69TMC2     H 1057   3.837   3.980  12.215 -2.3584  0.2688 -1.5546
   69TMC2    H1 1058   4.136   3.800  11.970 -2.3421 -2.5117 -0.3794
   69TMC2    H2 1059   3.836   4.057  11.801  1.2274 -1.7152 -2.0365
   69TMC2    C7 1060   4.088   3.947  11.759  0.6861 -0.4743  0.0255
   69TMC2    C8 1061   3.691   4.067  12.020  0.2745 -0.5190 -0.1187
   69TMC2    O1 1062   4.191   3.887  11.777 -0.3698  0.4572 -0.2133
   69TMC2    O2 1063   3.671   4.169  12.084 -0.0272  0.4666 -0.6612
   69TMC2    O5 1064   3.613   4.028  11.918  0.5820 -0.0649 -0.1480
   69TMC2    H5 1065   3.635   3.942  11.878  1.6744 -0.8990  2.2351
   70MPD2     C 1066   4.428   3.835  12.277 -0.2058  0.1914  0.0266
   70MPD2    C1 1067   4.300   3.798  12.297 -0.4789  0.7817  0.0043
   70MPD2    C2 1068   4.257   3.722  12.407 -0.2596 -0.3916 -0.2453
   70MPD2    C3 1069   4.360   3.675  12.494  0.4538  0.2173  0.4773
   70MPD2    C4 1070   4.492   3.709  12.472 -0.2647 -0.4238 -0.3502
   70MPD2    C5 1071   4.522   3.792  12.366 -0.0275 -0.0557  0.1426
   70MPD2     H 1072   4.154   3.692  12.418 -0.4707  1.0734  1.7021
   70MPD2    H1 1073   4.572   3.677  12.537  0.0561  2.3508  0.6061
   70MPD2    H2 1074   4.448   3.898  12.191 -2.6382  2.2630  1.0107
   70MPD2    H3 1075   4.625   3.821  12.350  0.0420 -0.2804  0.1738
   70MPD2     N 1076   4.350   3.592  12.611 -0.1225  0.2429 -0.1555
   70MPD2    H5 1077   4.437   3.557  12.650 -1.0505 -1.0130  0.7810
   70MPD2    N1 1078   4.201   3.837  12.199 -0.5599 -0.3372 -0.4150
   70MPD2    H7 1079   4.240   3.890  12.121 -3.0035 -1.3695 -2.3069
   71TMC2    C1 1080   2.829   3.700   2.103 -0.5119  0.7218 -0.1105
   71TMC2    C2 1081   2.872   3.594   2.187 -0.7938  0.1135 -0.1115
   71TMC2    C3 1082   2.779   3.518   2.241  0.5094  0.1229 -0.0656
   71TMC2    C4 1083   2.699   3.736   2.103  0.5191  0.3223  0.0582
   71TMC2    C5 1084   2.607   3.667   2.183 -0.9265  0.0676  0.7089
   71TMC2    C6 1085   2.646   3.553   2.252  0.2788  1.2201  0.3182
   71TMC2     C 1086   2.918   3.774   2.027 -0.7262  1.4245  0.5244
   71TMC2     O 1087   2.873   3.876   1.967  0.1263  0.1473 -0.0416
   71TMC2     H 1088   2.972   3.553   2.176 -0.4444  0.4567  1.9242
   71TMC2    H1 1089   2.659   3.811   2.035  1.7918 -0.2677 -1.3453
   71TMC2    H2 1090   2.573   3.486   2.295  1.7197 -1.1035 -0.8410
   71TMC2    C7 1091   2.471   3.704   2.186 -0.2177 -0.1101  0.1663
   71TMC2    C8 1092   2.814   3.379   2.274  0.8578 -0.1897 -0.9250
   71TMC2    O1 1093   2.396   3.619   2.227 -0.0398 -0.1946  0.2015
   71TMC2    O2 1094   2.727   3.294   2.258 -0.1879 -0.0266 -0.7154
   71TMC2    O5 1095   2.916   3.376   2.365  0.0237  0.2951 -0.2125
   71TMC2    H5 1096   2.945   3.465   2.395  1.0559 -0.4519  0.9807
   72MPD2     C 1097   3.411   3.902   1.897 -0.2017 -0.0402 -0.4131
   72MPD2    C1 1098   3.294   3.936   1.839 -0.3040  0.8259  0.6624
   72MPD2    C2 1099   3.171   3.895   1.886 -0.3705 -0.0140  0.1252
   72MPD2    C3 1100   3.165   3.815   2.001  0.6832  0.2377 -0.0122
   72MPD2    C4 1101   3.284   3.790   2.063 -0.5888 -0.2578 -0.2418
   72MPD2    C5 1102   3.403   3.832   2.016  0.0791  0.3758 -0.4556
   72MPD2     H 1103   3.087   3.908   1.819 -1.6926 -0.4751  1.6999
   72MPD2    H1 1104   3.293   3.723   2.148 -0.8075 -0.7759 -0.6269
   72MPD2    H2 1105   3.511   3.906   1.854  0.1493 -0.7036  0.3502
   72MPD2    H3 1106   3.496   3.815   2.070  0.7705  0.4436 -1.6230
   72MPD2     N 1107   3.049   3.745   2.056  0.0024 -0.2163  0.2581
   72MPD2    H5 1108   3.072   3.672   2.123  1.0694 -1.0766 -1.0256
   72MPD2    N1 1109   3.295   4.023   1.731  0.4209  0.0047  0.1900
   72MPD2    H7 1110   3.203   4.038   1.692  1.1157  0.2034 -1.3656
   73TMC2    C1 1111   3.504   1.301  13.887  0.1500 -0.3970  0.5552
   73TMC2    C2 1112   3.479   1.188  13.975 -0.2840  0.6552 -0.0138
   73TMC2    C3 1113   3.586   1.100  13.984 -1.0313 -0.4519  0.0401
   73TMC2    C4 1114   3.624   1.325  13.835 -0.0144 -0.5447  0.1519
   73TMC2    C5 1115   3.723   1.234  13.849  0.1327 -0.1179 -0.7826
   73TMC2    C6 1116   3.700   1.124  13.925 -1.1438 -0.1751 -0.2939
   73TMC2     C 1117   3.400   1.316  13.790 -0.1951 -0.0028  1.2204
   73TMC2     O 1118   3.454   1.339  13.681  0.0332  0.1502 -0.1701
   73TMC2     H 1119   3.381   1.185  14.020 -0.5921  1.1466 -0.6620
   73TMC2    H1 1120   3.644   1.422  13.791 -0.9708 -0.5676 -0.3546
   73TMC2    H2 1121   3.776   1.049  13.913  1.5607  2.8613 -2.2172
   73TMC2    C7 1122   3.795   1.211  13.723 -0.9435  0.1407  0.4818
   73TMC2    C8 1123   3.592   0.991  14.082 -0.0213  0.1518 -0.6540
   73TMC2    O1 1124   3.891   1.134  13.719  0.0461 -0.3330 -0.6011
   73TMC2    O2 1125   3.700   0.949  14.126  0.4907 -0.0597  0.5643
   73TMC2    O5 1126   3.466   0.945  14.112  0.2078  0.0662 -0.0920
   73TMC2    H5 1127   3.394   0.992  14.066  0.2398 -0.6414 -0.8673
   74MPD2     C 1128   2.945   1.280  13.559 -0.6850 -0.1700  0.2975
   74MPD2    C1 1129   3.074   1.317  13.509 -0.1763  0.8824  0.2156
   74MPD2    C2 1130   3.180   1.318  13.598 -0.0115  0.2969  0.4322
   74MPD2    C3 1131   3.164   1.280  13.731 -0.3155  0.2148 -0.3058
   74MPD2    C4 1132   3.043   1.237  13.770 -0.0806  0.2918  0.1224
   74MPD2    C5 1133   2.935   1.230  13.685 -0.0635 -0.1819 -0.7434
   74MPD2     H 1134   3.270   1.361  13.555 -0.5707  0.5014 -0.5393
   74MPD2    H1 1135   3.029   1.195  13.869 -1.7113  2.4856  0.8053
   74MPD2    H2 1136   2.861   1.269  13.491 -0.3449 -2.5811  0.2582
   74MPD2    H3 1137   2.842   1.184  13.714  0.4229 -0.4141  0.4583
   74MPD2     N 1138   3.270   1.288  13.826 -0.3273  0.2810 -0.3421
   74MPD2    H5 1139   3.252   1.270  13.924  0.1000 -1.3037 -0.5415
   74MPD2    N1 1140   3.090   1.354  13.374 -0.8461  0.6672  0.0510
   74MPD2    H7 1141   3.008   1.348  13.315 -2.7211 -2.7397  3.0155
   75TCq2    C1 1142   2.249   2.884  14.016  0.3036  0.6416  0.3294
   75TCq2    O2 1143   2.269   2.938  14.123  0.0296 -0.6279 -0.6494
   75TCq2    C2 1144   2.113   2.884  13.967 -0.0016 -1.0084  1.2796
   75TCq2    C3 1145   2.036   2.801  14.043 -1.4240 -0.8074  0.1531
   75TCq2    C4 1146   1.919   2.741  14.002 -0.2244 -0.1558 -0.3466
   75TCq2    C5 1147   1.887   2.767  13.871  0.3071 -0.3431 -0.0780
   75TCq2    C6 1148   1.963   2.849  13.795 -0.0096  0.6912  0.7277
   75TCq2    C7 1149   2.082   2.902  13.836 -0.5993  0.4001 -0.2429
   75TCq2    C8 1150   1.913   2.855  13.652  0.0434  0.3723 -0.0723
   75TCq2    O4 1151   1.852   2.752  13.618  0.1226  0.6060 -0.0913
   75TCq2    C9 1152   1.832   2.675  14.093 -0.3255  0.4274 -0.1424
   75TCq2    O5 1153   1.713   2.690  14.077  0.2363 -0.0943  0.2765
   75TCq2    O6 1154   1.890   2.640  14.203  0.0600 -0.3600  0.2160
   75TCq2    H2 1155   2.066   2.785  14.146  2.3292  1.6673 -0.5856
   75TCq2    H3 1156   1.792   2.730  13.835 -0.4243 -0.0139  1.5120
   75TCq2    H4 1157   2.151   2.953  13.769  1.6409 -0.9629  0.9911
   76MPD2     C 1158   0.455   4.067  11.980  0.2873 -0.2917  0.1593
   76MPD2    C1 1159   0.465   3.990  11.865  0.2931 -0.5979 -0.7440
   76MPD2    C2 1160   0.576   3.912  11.846  0.4423 -0.3001 -0.0558
   76MPD2    C3 1161   0.681   3.913  11.937 -0.5268  0.2478 -0.1063
   76MPD2    C4 1162   0.668   3.982  12.058  0.0659  0.8711 -0.1599
   76MPD2    C5 1163   0.550   4.055  12.080  0.1177  0.3224  1.0191
   76MPD2     H 1164   0.592   3.856  11.755  1.5212 -0.5059  0.2568
   76MPD2    H1 1165   0.743   3.972  12.135 -0.4311 -0.5712  0.1347
   76MPD2    H2 1166   0.372   4.134  11.996  1.4251  1.6294 -2.0300
   76MPD2    H3 1167   0.542   4.130  12.159  0.3564  0.8675  0.5273
   76MPD2     N 1168   0.797   3.836  11.930  0.0913  0.0183  0.5999
   76MPD2    H5 1169   0.857   3.818  12.009 -0.3366  1.0743  1.1591
   76MPD2    N1 1170   0.366   4.000  11.765 -0.0771 -0.0687 -0.2052
   76MPD2    H7 1171   0.381   3.954  11.675 -2.9768 -1.5610  0.0841
   77TCq2    C1 1172   0.847   3.776  11.812  0.5220 -0.5449  0.6596
   77TCq2    O2 1173   0.782   3.729  11.720 -0.0308 -0.0089 -0.3256
   77TCq2    C2 1174   0.975   3.710  11.842  0.0293 -0.0168 -0.1134
   77TCq2    C3 1175   0.988   3.582  11.799 -0.1667 -0.9532  0.3463
   77TCq2    C4 1176   1.099   3.518  11.852 -0.2961  0.2320  0.0619
   77TCq2    C5 1177   1.186   3.566  11.943  0.0847  0.0772  0.3326
   77TCq2    C6 1178   1.157   3.696  11.982 -0.0611 -0.4845 -0.0906
   77TCq2    C7 1179   1.049   3.768  11.938  0.4870  0.1192  0.2868
   77TCq2    C8 1180   1.252   3.776  12.067  0.1978  0.3433  0.0567
   77TCq2    O4 1181   1.243   3.901  12.075  0.0189  0.8696  0.4022
   77TCq2    C9 1182   1.119   3.381  11.815  0.0148 -0.6087 -0.4606
   77TCq2    O5 1183   1.220   3.323  11.860 -0.6194  0.3132 -0.1581
   77TCq2    O6 1184   1.031   3.324  11.747 -0.3239  0.1082 -0.7633
   77TCq2    H2 1185   0.905   3.540  11.744  0.1434 -0.2895 -0.6178
   77TCq2    H3 1186   1.268   3.509  11.986 -0.1053 -1.1177 -0.9046
   77TCq2    H4 1187   1.052   3.876  11.946 -1.5157  0.0376  2.0190
   78MPD1     C 1188   1.788   4.308   1.359 -0.7294 -0.2353 -0.2159
   78MPD1    C1 1189   1.911   4.256   1.317  0.1129 -0.0559  0.4589
   78MPD1    C2 1190   1.966   4.152   1.383  0.4783 -0.2265  0.3153
   78MPD1    C3 1191   1.906   4.118   1.499 -0.2850  0.4996 -0.0937
   78MPD1    C4 1192   1.788   4.166   1.543  0.4131  0.6051 -0.3311
   78MPD1    C5 1193   1.724   4.256   1.466  0.4939 -0.6093 -0.6075
   78MPD1     H 1194   2.054   4.099   1.348  0.5603 -0.9075  1.5078
   78MPD1    H1 1195   1.745   4.145   1.641  0.4344  1.6216 -0.1071
   78MPD1    H2 1196   1.727   4.374   1.297  0.6979  1.0498 -0.2552
   78MPD1    H3 1197   1.626   4.297   1.488  1.0798  0.9126 -0.8052
   78MPD1     N 1198   1.956   4.030   1.586  0.1608 -0.7050  0.1387
   78MPD1    H5 1199   1.894   4.002   1.661 -1.3366 -0.9996 -1.2062
   78MPD1    N1 1200   1.965   4.299   1.190 -0.1106  0.2860  0.2077
   78MPD1    H6 1201   2.067   4.300   1.195 -0.1956  2.3795  1.4068
   78MPD1    H7 1202   1.935   4.393   1.166  1.4377  0.8182  0.4023
   79TCq2    C1 1203   2.083   3.972   1.572  0.3867  0.1537  0.3017
   79TCq2    O2 1204   2.182   4.023   1.519  0.4446  0.1410  0.5430
   79TCq2    C2 1205   2.113   3.884   1.681  0.8209 -0.0382 -0.6774
   79TCq2    C3 1206   2.009   3.820   1.746 -0.4478 -0.6358 -0.4069
   79TCq2    C4 1207   2.041   3.725   1.839  0.9294 -0.5289  1.6236
   79TCq2    C5 1208   2.180   3.719   1.878 -0.0952  0.6263  0.3729
   79TCq2    C6 1209   2.276   3.781   1.806  0.3769  0.6874  0.2214
   79TCq2    C7 1210   2.246   3.866   1.703 -0.4897 -0.4567 -0.8002
   79TCq2    C8 1211   2.408   3.712   1.801 -0.0045  0.1111 -0.6638
   79TCq2    O4 1212   2.488   3.756   1.721 -0.5633  0.6356 -0.2007
   79TCq2    C9 1213   1.946   3.640   1.911  0.2055 -0.6272  0.2925
   79TCq2    O5 1214   1.823   3.653   1.892  0.2856 -0.4518 -0.2776
   79TCq2    O6 1215   1.995   3.546   1.976  0.5432 -0.5470 -0.0797
   79TCq2    H2 1216   1.905   3.825   1.715 -1.4228 -0.1577  2.9865
   79TCq2    H3 1217   2.214   3.674   1.970  0.4977 -1.1034 -0.6863
   79TCq2    H4 1218   2.326   3.921   1.656 -0.1871  0.2449  0.5542
   80MPD2     C 1219   0.344   2.882  12.549 -0.8658 -0.5158 -0.5435
   80MPD2    C1 1220   0.251   2.849  12.446  0.3877  0.3363 -0.1644
   80MPD2    C2 1221   0.112   2.841  12.468 -0.4725 -0.5677 -0.3506
   80MPD2    C3 1222   0.067   2.882  12.591  0.6254 -0.6693  0.3765
   80MPD2    C4 1223   0.159   2.907  12.694  0.2092 -0.3355 -0.2249
   80MPD2    C5 1224   0.291   2.910  12.676  0.6024 -0.9433 -0.2599
   80MPD2     H 1225   0.039   2.817  12.392  0.9677  0.2974 -2.0086
   80MPD2    H1 1226   0.115   2.950  12.783  3.1231 -0.7727  1.4045
   80MPD2    H2 1227   0.451   2.888  12.532 -0.6864  0.8205  0.9976
   80MPD2    H3 1228   0.352   2.945  12.759 -1.3926  1.4968  0.1794
   80MPD2     N 1229   4.653   2.897  12.625 -0.2805 -0.3669  0.3202
   80MPD2    H5 1230   4.637   2.914  12.724  0.8128  1.7647  0.1248
   80MPD2    N1 1231   0.304   2.816  12.321 -0.3901  0.1370 -0.3436
   80MPD2    H7 1232   0.238   2.765  12.264 -0.7082  1.1137 -0.8464
   81TCq2    C1 1233   0.428   2.855  12.268 -0.1658 -0.3932  0.1365
   81TCq2    O2 1234   0.503   2.946  12.299 -0.4395  0.2627 -1.0240
   81TCq2    C2 1235   0.459   2.789  12.144  0.0621  0.1496  0.0490
   81TCq2    C3 1236   0.560   2.839  12.066  0.2290  0.1340 -0.4384
   81TCq2    C4 1237   0.592   2.776  11.946  0.2294 -0.6774  0.0339
   81TCq2    C5 1238   0.520   2.668  11.901 -0.7728  0.0260 -0.0599
   81TCq2    C6 1239   0.424   2.617  11.985  0.1507  0.3925 -0.0490
   81TCq2    C7 1240   0.393   2.671  12.111  0.0963  0.3809  0.2293
   81TCq2    C8 1241   0.313   2.555  11.909 -0.6398 -0.3839 -0.3150
   81TCq2    O4 1242   0.288   2.579  11.789 -0.0032  0.0510  0.0456
   81TCq2    C9 1243   0.698   2.832  11.868  0.3949 -0.0401 -0.2363
   81TCq2    O5 1244   0.752   2.935  11.912  0.3149 -0.6373  0.3678
   81TCq2    O6 1245   0.720   2.771  11.763  0.1002  0.0520 -0.1477
   81TCq2    H2 1246   0.618   2.926  12.094 -0.6278  0.8511 -0.8984
   81TCq2    H3 1247   0.541   2.627  11.803  0.5099 -0.1888  0.3070
   81TCq2    H4 1248   0.307   2.629  12.162 -0.3171  0.6762 -0.2194
   82MPD2     C 1249   3.640   2.743  10.832  0.0183 -0.5420  0.4705
   82MPD2    C1 1250   3.533   2.652  10.833  0.6402 -0.3124 -0.2611
   82MPD2    C2 1251   3.538   2.546  10.921 -0.3736 -0.0620  0.1480
   82MPD2    C3 1252   3.655   2.514  10.995  0.3228  0.2411 -0.8447
   82MPD2    C4 1253   3.760   2.603  10.981 -0.6554  0.0155 -0.3230
   82MPD2    C5 1254   3.753   2.718  10.903  0.1112 -0.7282  0.2276
   82MPD2     H 1255   3.452   2.481  10.934  1.7782 -2.3056  2.9450
   82MPD2    H1 1256   3.853   2.585  11.033  0.0604  1.1704 -1.2055
   82MPD2    H2 1257   3.639   2.830  10.768 -2.4533 -0.2034  0.9890
   82MPD2    H3 1258   3.841   2.780  10.894  1.2739 -2.1211  2.0613
   82MPD2     N 1259   3.689   2.407  11.081 -0.1289 -0.0116 -0.4794
   82MPD2    H5 1260   3.789   2.413  11.101 -0.7021  2.2697  1.6090
   82MPD2    N1 1261   3.426   2.678  10.738  0.1603  0.4842 -0.2491
   82MPD2    H7 1262   3.439   2.760  10.680 -1.3034  1.9076  1.4238
   83TCq2    C1 1263   3.593   2.314  11.132  0.5055 -0.3626  0.4628
   83TCq2    O2 1264   3.472   2.314  11.121 -0.1315 -0.7190 -0.0117
   83TCq2    C2 1265   3.656   2.212  11.220 -0.2502  0.3408  0.1513
   83TCq2    C3 1266   3.790   2.212  11.237  0.1203  0.7215  0.8281
   83TCq2    C4 1267   3.835   2.146  11.350 -0.7274 -0.0236 -0.1187
   83TCq2    C5 1268   3.760   2.080  11.440  0.0065  0.0754  0.0287
   83TCq2    C6 1269   3.625   2.067  11.409 -0.0291  0.0089  0.1557
   83TCq2    C7 1270   3.573   2.146  11.307  1.0159 -0.1259 -0.5127
   83TCq2    C8 1271   3.532   1.991  11.505  0.2807  0.6715  0.2988
   83TCq2    O4 1272   3.416   2.034  11.517  0.0354 -0.0058  0.4902
   83TCq2    C9 1273   3.977   2.140  11.372  0.0027  0.0863 -0.1292
   83TCq2    O5 1274   4.022   2.044  11.439 -0.6509  0.1477  0.2700
   83TCq2    O6 1275   4.049   2.213  11.299  0.2807  0.2603 -0.4428
   83TCq2    H2 1276   3.868   2.248  11.172 -0.6733  1.3116  0.1922
   83TCq2    H3 1277   3.810   2.042  11.528 -0.1929  1.4308  0.7285
   83TCq2    H4 1278   3.465   2.144  11.297  0.9029  0.6811  0.5074
   84TCq2    C1 1279   4.393   1.173  10.371  0.1059 -0.5186  1.2676
   84TCq2    O2 1280   4.274   1.143  10.378  0.0256  0.4498 -0.5344
   84TCq2    C2 1281   4.461   1.220  10.493  0.4953  0.1389  0.8264
   84TCq2    C3 1282   4.594   1.240  10.503 -0.4705 -0.5680 -0.0903
   84TCq2    C4 1283   4.653   1.273  10.623 -0.1591 -0.1290 -0.3803
   84TCq2    C5 1284   4.574   1.281  10.736  0.5971  0.6689 -0.4956
   84TCq2    C6 1285   4.438   1.261  10.719  0.3369  0.2184  0.4129
   84TCq2    C7 1286   4.376   1.219  10.603  0.3243 -0.3752 -0.0264
   84TCq2    C8 1287   4.362   1.281  10.840  0.1468  0.7680 -0.1059
   84TCq2    O4 1288   4.430   1.348  10.917  0.2505 -0.2153 -0.4621
   84TCq2    C9 1289   0.078   1.284  10.642 -0.0852  0.5609 -0.1490
   84TCq2    O5 1290   0.152   1.226  10.560  0.4692 -0.0039 -0.0143
   84TCq2    O6 1291   0.119   1.304  10.759  0.2521  0.5309  0.3464
   84TCq2    H2 1292   4.666   1.238  10.422 -1.2151  0.5386 -0.7743
   84TCq2    H3 1293   4.623   1.290  10.833  1.8896  0.7452 -1.1608
   84TCq2    H4 1294   4.273   1.183  10.601 -0.1819  1.1208 -0.9554
   85MPD2     C 1295   4.689   4.233  16.014 -0.2619 -0.5112 -0.0033
   85MPD2    C1 1296   0.005   4.140  15.922 -0.4038  0.3188  0.1481
   85MPD2    C2 1297   0.086   4.182  15.816  0.7683 -0.2489  0.3803
   85MPD2    C3 1298   0.113   4.316  15.789 -0.3359 -0.4639  0.2124
   85MPD2    C4 1299   0.084   4.406  15.885  0.2563 -0.4088  0.6512
   85MPD2    C5 1300   0.008   4.365  15.995 -0.2849  0.1023  1.1177
   85MPD2     H 1301   0.113   4.119  15.732 -0.7373 -0.2611 -0.0916
   85MPD2    H1 1302   0.122   4.507  15.871  1.0300 -0.5977  1.3591
   85MPD2    H2 1303   4.638   4.213  16.108  0.4329  0.9068  0.6903
   85MPD2    H3 1304   4.711   4.442  16.070  1.4135  1.9425 -0.3566
   85MPD2     N 1305   0.162   4.352  15.661 -0.1146  0.2581  0.3629
   85MPD2    H5 1306   0.183   4.277  15.595  5.2595  0.4768  1.8431
   85MPD2    N1 1307   4.687   4.003  15.915 -0.5141  0.3453  0.6622
   85MPD2    H7 1308   0.026   3.941  15.861  1.8629  2.3639  1.0161
   86TCq2    C1 1309   0.169   4.478  15.609  0.2157  0.0524 -0.5664
   86TCq2    O2 1310   0.140   4.591  15.654 -0.3767  0.4473  0.3835
   86TCq2    C2 1311   0.232   4.476  15.478  0.3448 -0.6499  0.3029
   86TCq2    C3 1312   0.286   4.592  15.422 -0.3875  0.3347  0.3506
   86TCq2    C4 1313   0.351   4.587  15.308 -0.2112  0.3004 -0.2684
   86TCq2    C5 1314   0.376   4.470  15.245 -0.1143  0.5316  0.6812
   86TCq2    C6 1315   0.316   4.352  15.300  0.2864 -0.0080 -0.1159
   86TCq2    C7 1316   0.241   4.358  15.416 -0.4756  0.2743  0.1959
   86TCq2    C8 1317   0.344   4.224  15.242 -0.3801 -0.0853  0.5974
   86TCq2    O4 1318   0.303   4.124  15.304 -0.5956 -0.1689 -0.6680
   86TCq2    C9 1319   0.393   4.706  15.247  0.7597 -0.3825 -0.3820
   86TCq2    O5 1320   0.395   0.094  15.315 -0.1251 -0.6652 -0.3666
   86TCq2    O6 1321   0.464   4.692  15.142  0.0909 -0.2871 -0.1728
   86TCq2    H2 1322   0.277   4.690  15.467 -0.9148  0.8739 -0.9149
   86TCq2    H3 1323   0.422   4.474  15.147  0.9665  0.0177  1.1654
   86TCq2    H4 1324   0.177   4.274  15.441 -0.6068  0.1113 -0.6935
   87MPD2     C 1325   2.796   3.046   1.532 -0.7063 -0.7759  0.2693
   87MPD2    C1 1326   2.706   2.985   1.617 -0.0096  0.7536  0.0828
   87MPD2    C2 1327   2.582   3.041   1.642  0.5783  0.2649  0.4370
   87MPD2    C3 1328   2.554   3.171   1.591  0.4632 -0.2285  0.1199
   87MPD2    C4 1329   2.653   3.238   1.526 -0.7323  0.5651 -0.6629
   87MPD2    C5 1330   2.768   3.169   1.486  0.2159 -0.2732  0.0936
   87MPD2     H 1331   2.500   2.991   1.693  1.1830 -0.0934  1.0559
   87MPD2    H1 1332   2.635   3.344   1.509 -0.2660  0.8238  0.4905
   87MPD2    H2 1333   2.887   2.996   1.500  0.0326  0.9063 -0.2570
   87MPD2    H3 1334   2.839   3.216   1.419  1.7607  2.3149  3.5779
   87MPD2     N 1335   2.432   3.243   1.598 -0.1787 -0.6791  0.7134
   87MPD2    H5 1336   2.424   3.332   1.550 -0.0830 -1.4959 -0.8169
   87MPD2    N1 1337   2.737   2.848   1.648 -0.1568 -0.1145  0.5872
   87MPD2    H7 1338   2.821   2.804   1.610 -1.5261 -3.2139  1.1808
   88TCq2    C1 1339   2.657   2.763   1.723 -0.1668  0.3434  0.1960
   88TCq2    O2 1340   2.556   2.796   1.789  0.1336 -0.2103  0.0321
   88TCq2    C2 1341   2.703   2.629   1.729 -0.5018  0.4472  0.5572
   88TCq2    C3 1342   2.684   2.566   1.850 -0.0614 -0.7428  0.6447
   88TCq2    C4 1343   2.725   2.437   1.855 -0.7844  0.3990  0.3564
   88TCq2    C5 1344   2.786   2.383   1.748 -0.1025  0.0660  0.1285
   88TCq2    C6 1345   2.807   2.449   1.628 -0.2057 -0.0382  0.5351
   88TCq2    C7 1346   2.758   2.577   1.612  0.1620  0.0278 -0.2394
   88TCq2    C8 1347   2.843   2.379   1.506 -0.8060  0.2140 -0.4047
   88TCq2    O4 1348   2.850   2.443   1.403 -0.7352  0.0007  0.2084
   88TCq2    C9 1349   2.698   2.353   1.966  0.1346 -0.0890 -0.2866
   88TCq2    O5 1350   2.743   2.236   1.968  0.4440  0.1493  0.4944
   88TCq2    O6 1351   2.622   2.397   2.060  0.1364 -0.2237 -0.0798
   88TCq2    H2 1352   2.629   2.618   1.928  1.5536 -1.1790  2.0701
   88TCq2    H3 1353   2.824   2.283   1.766  0.2595  0.0768 -0.5843
   88TCq2    H4 1354   2.769   2.645   1.528 -1.3976  1.3981  0.6652
   89MPD2     C 1355   4.121   0.674   2.135 -0.1596 -0.5697 -0.1118
   89MPD2    C1 1356   4.081   0.794   2.087  0.4383  0.1002 -0.1713
   89MPD2    C2 1357   4.176   0.887   2.045 -0.0535  0.0815  0.9459
   89MPD2    C3 1358   4.310   0.867   2.061 -0.0403 -0.3109 -0.0209
   89MPD2    C4 1359   4.348   0.747   2.113  0.1136 -0.1550  0.6058
   89MPD2    C5 1360   4.252   0.656   2.157  0.1489  0.4035  0.1903
   89MPD2     H 1361   4.145   0.984   2.006 -0.2696  0.1992  1.4155
   89MPD2    H1 1362   4.449   0.712   2.126  0.2511 -1.0807 -2.9264
   89MPD2    H2 1363   4.044   0.606   2.171 -0.6911 -0.5031 -1.1438
   89MPD2    H3 1364   4.292   0.573   2.214  0.7661  0.6629  0.1356
   89MPD2     N 1365   4.401   0.968   2.020  0.6049 -0.2010  0.2883
   89MPD2    H5 1366   4.362   1.055   1.985 -1.0316 -0.8956  0.3343
   89MPD2    N1 1367   3.945   0.827   2.077  0.2894  0.6678 -0.3328
   89MPD2    H7 1368   3.925   0.923   2.053 -2.2552  0.2457  0.1098
   90TCq2    C1 1369   4.537   0.954   2.012  0.0839  1.2187  0.0813
   90TCq2    O2 1370   4.609   0.865   2.062 -0.1486  0.1738  0.1133
   90TCq2    C2 1371   4.602   1.069   1.947 -0.3333 -0.1721  0.2976
   90TCq2    C3 1372   4.533   1.159   1.865 -0.7010  0.1800 -0.1715
   90TCq2    C4 1373   4.595   1.279   1.841  0.0100 -0.1067 -0.1067
   90TCq2    C5 1374   4.718   1.307   1.886  0.0769  0.4454  0.4623
   90TCq2    C6 1375   0.072   1.209   1.946  0.8447  0.0033  0.2913
   90TCq2    C7 1376   0.015   1.093   1.982  0.5095  0.0119  0.8248
   90TCq2    C8 1377   0.211   1.238   1.980  0.3491 -0.0791  0.1254
   90TCq2    O4 1378   0.255   1.169   2.075  0.5185  0.3612 -0.0396
   90TCq2    C9 1379   4.522   1.377   1.770  0.3615 -0.5002  0.1884
   90TCq2    O5 1380   4.402   1.387   1.788 -0.8567  0.1731  0.1512
   90TCq2    O6 1381   4.591   1.459   1.705  0.0234  0.0299  0.7483
   90TCq2    H2 1382   4.435   1.136   1.825  0.9145 -4.2753 -1.5364
   90TCq2    H3 1383   0.037   1.407   1.869 -2.4826  1.0546 -1.9840
   90TCq2    H4 1384   0.059   1.027   2.057  2.4046  0.6793  0.2797
   91TMC2    C1 1385   0.401   0.822  16.076 -0.0945  0.2926 -0.0661
   91TMC2    C2 1386   0.505   0.901  16.126 -0.3044  0.4918 -0.1726
   91TMC2    C3 1387   0.473   1.007  16.210 -0.0582 -0.2330  0.0647
   91TMC2    C4 1388   0.276   0.848  16.113  0.1353 -0.1449  0.0847
   91TMC2    C5 1389   0.246   0.960  16.178  0.6282 -0.3996 -0.0180
   91TMC2    C6 1390   0.346   1.034  16.238 -0.2621 -0.2566  0.3796
   91TMC2     C 1391   0.421   0.682  16.062  0.4990 -0.4406  0.3534
   91TMC2     O 1392   0.339   0.618  15.998 -0.5651  0.0014  0.7393
   91TMC2     H 1393   0.610   0.885  16.103 -0.4472  0.3881 -0.7441
   91TMC2    H1 1394   0.202   0.775  16.083 -0.4635 -0.5147  2.4460
   91TMC2    H2 1395   0.324   1.098  16.323  1.1561  1.7293 -0.7582
   91TMC2    C7 1396   0.116   0.981  16.233  0.5969  0.1293  0.4967
   91TMC2    C8 1397   0.559   1.042  16.317 -0.2716 -0.8308  0.4492
   91TMC2    O1 1398   0.105   1.049  16.334  0.0090 -0.3595 -0.0237
   91TMC2    O2 1399   0.638   0.949  16.340 -0.0258 -0.4989  0.0908
   91TMC2    O5 1400   0.599   1.160  16.279  0.0032  0.1027 -0.6114
   91TMC2    H5 1401   0.526   1.223  16.260 -0.2246 -0.6901 -2.4041
   92MPD2     C 1402   0.563   0.426  16.071 -0.0096 -1.4426  0.2626
   92MPD2    C1 1403   0.585   0.522  16.165 -0.2764  0.1691 -0.0884
   92MPD2    C2 1404   0.671   0.503  16.267 -0.7144  0.0651 -0.4574
   92MPD2    C3 1405   0.715   0.378  16.293 -0.3928 -0.5129 -0.1471
   92MPD2    C4 1406   0.690   0.275  16.203 -0.4101 -0.1303  0.6113
   92MPD2    C5 1407   0.618   0.301  16.089 -0.1980 -0.3102  0.0860
   92MPD2     H 1408   0.700   0.585  16.332 -2.0925 -1.2704  1.8601
   92MPD2    H1 1409   0.739   0.179  16.196  0.4342  0.2789  0.9071
   92MPD2    H2 1410   0.505   0.432  15.979 -0.1837  0.5364  0.4928
   92MPD2    H3 1411   0.606   0.226  16.011 -1.9098  0.0413 -0.0038
   92MPD2     N 1412   0.792   0.354  16.410 -0.3306 -0.7692  0.1043
   92MPD2    H5 1413   0.820   0.442  16.452 -0.7955 -1.1945  1.2848
   92MPD2    N1 1414   0.519   0.650  16.150 -0.3343 -0.1142 -0.0292
   92MPD2    H7 1415   0.548   0.724  16.213  0.9888 -1.0594  0.4759
   93MPD2     C 1416   1.669   0.445  14.028  0.2390  0.2992 -0.3403
   93MPD2    C1 1417   1.620   0.572  14.038 -0.2190 -0.5406 -0.6687
   93MPD2    C2 1418   1.517   0.600  13.954  0.0850  0.2306  0.1279
   93MPD2    C3 1419   1.467   0.511  13.860  0.1383 -0.0256 -0.4794
   93MPD2    C4 1420   1.516   0.383  13.860  0.3023 -0.1177 -0.6717
   93MPD2    C5 1421   1.620   0.351  13.941 -0.6888  0.3823  0.4460
   93MPD2     H 1422   1.496   0.706  13.947 -1.4930  0.1111  3.1783
   93MPD2    H1 1423   1.466   0.313  13.794  1.2071 -0.3945 -1.0606
   93MPD2    H2 1424   1.750   0.403  14.087 -1.2524 -0.3234  1.2455
   93MPD2    H3 1425   1.672   0.256  13.936 -1.7690 -0.1506 -0.4730
   93MPD2     N 1426   1.360   0.527  13.768  0.0895  0.4328 -0.9110
   93MPD2    H5 1427   1.349   0.450  13.703  1.1562 -1.7220  1.4566
   93MPD2    N1 1428   1.689   0.673  14.112 -0.2889 -0.0676  0.5613
   93MPD2    H7 1429   1.638   0.761  14.115  2.2681  1.4465 -0.7648
   94TCq2    C1 1430   1.813   0.654  14.169  0.1343  0.4679 -0.0790
   94TCq2    O2 1431   1.900   0.567  14.162 -0.2101  0.2881  0.3922
   94TCq2    C2 1432   1.861   0.783  14.212  0.7427 -0.3415 -0.0101
   94TCq2    C3 1433   1.778   0.868  14.274 -0.0444 -0.8766  0.6689
   94TCq2    C4 1434   1.832   0.985  14.317  0.0059  0.3672 -0.4228
   94TCq2    C5 1435   1.968   1.023  14.310 -0.3196  0.2365  0.2900
   94TCq2    C6 1436   2.040   0.932  14.230 -0.3788 -0.2290  0.2253
   94TCq2    C7 1437   1.995   0.811  14.185 -0.0452 -0.3948 -0.6227
   94TCq2    C8 1438   2.186   0.951  14.211 -1.0261 -1.2855 -0.4514
   94TCq2    O4 1439   2.238   0.886  14.122  0.0066  0.0852 -0.2883
   94TCq2    C9 1440   1.755   1.069  14.412  0.8520  0.1009  0.0547
   94TCq2    O5 1441   1.824   1.162  14.462 -1.3636  0.0074 -0.4599
   94TCq2    O6 1442   1.633   1.039  14.426  0.2044  0.2713  0.3629
   94TCq2    H2 1443   1.673   0.853  14.297 -0.4851  0.5843 -0.3588
   94TCq2    H3 1444   1.995   1.126  14.332  1.0871 -0.2287  0.6744
   94TCq2    H4 1445   2.052   0.744  14.121  0.8025  0.6236 -0.9414
   95TMC2    C1 1446   2.122   2.063  16.166 -0.7815 -1.0909 -0.4210
   95TMC2    C2 1447   2.032   1.961  16.175 -0.6374  0.3890  0.0192
   95TMC2    C3 1448   1.977   1.932  16.296  0.6456  0.0646 -0.1653
   95TMC2    C4 1449   2.138   2.149  16.269  0.5730  0.4057 -0.3888
   95TMC2    C5 1450   2.076   2.121  16.387  0.1511  0.6613  0.4072
   95TMC2    C6 1451   1.991   2.017  16.404  0.0975  0.3877  0.4718
   95TMC2     C 1452   2.190   2.107  16.040 -0.3518 -0.2226  0.0940
   95TMC2     O 1453   2.279   2.192  16.049 -0.3558 -0.2023  0.5107
   95TMC2     H 1454   2.031   1.890  16.093  2.7058  0.6621 -0.2310
   95TMC2    H1 1455   2.228   2.209  16.274  1.0714 -0.5291  1.6920
   95TMC2    H2 1456   1.935   1.993  16.493 -0.5943  0.3816  0.0387
   95TMC2    C7 1457   2.072   2.217  16.494 -0.1702  0.2988 -0.6062
   95TMC2    C8 1458   1.853   1.864  16.299 -0.0448  0.4626 -0.1734
   95TMC2    O1 1459   1.999   2.194  16.589 -0.4731  0.5731 -0.5715
   95TMC2    O2 1460   1.804   1.837  16.191 -1.4703  0.1940 -0.4073
   95TMC2    O5 1461   1.851   1.781  16.403  0.1966 -0.2104 -0.2920
   95TMC2    H5 1462   1.941   1.773  16.440 -0.2682 -1.8225  0.4628
   96MPD2     C 1463   2.138   2.212  15.533  0.6445  0.0908 -0.0451
   96MPD2    C1 1464   2.182   2.291  15.641  0.0018 -0.6680 -0.0001
   96MPD2    C2 1465   2.170   2.246  15.772 -0.3730  0.2023  0.1374
   96MPD2    C3 1466   2.132   2.117  15.796  0.1294 -0.6761 -0.4294
   96MPD2    C4 1467   2.088   2.044  15.684  0.3388 -0.7942 -0.2568
   96MPD2    C5 1468   2.089   2.087  15.556  0.6070  0.2868 -0.0138
   96MPD2     H 1469   2.205   2.306  15.855  0.9136  1.3329 -1.2236
   96MPD2    H1 1470   2.043   1.948  15.707 -0.5162 -0.4266 -0.4241
   96MPD2    H2 1471   2.150   2.243  15.429  1.4290 -0.4651 -0.1194
   96MPD2    H3 1472   2.059   2.025  15.472  0.9221 -1.3072  1.0669
   96MPD2     N 1473   2.131   2.053  15.925  0.2405  0.3235 -0.4362
   96MPD2    H5 1474   2.067   1.977  15.945 -0.6285  1.0153 -0.5690
   96MPD2    N1 1475   2.227   2.420  15.604  0.3949  0.2229  0.1919
   96MPD2    H7 1476   2.210   2.445  15.507  0.3149 -1.2708 -0.1776
   97MPD2     C 1477   3.699   4.184   1.449  0.5685  0.7615  0.3714
   97MPD2    C1 1478   3.800   4.272   1.430 -0.4861  0.3894 -0.2678
   97MPD2    C2 1479   3.821   4.315   1.303 -0.5587  0.0020 -0.0452
   97MPD2    C3 1480   3.751   4.272   1.193 -0.4021 -0.3209  0.1149
   97MPD2    C4 1481   3.644   4.190   1.215 -0.0989 -0.1199 -0.0761
   97MPD2    C5 1482   3.616   4.150   1.342 -0.1718 -0.2676  0.2596
   97MPD2     H 1483   3.907   4.378   1.281  0.0742 -0.4190  1.1904
   97MPD2    H1 1484   3.594   4.148   1.128 -0.9541 -0.2828  0.4946
   97MPD2    H2 1485   3.687   4.146   1.550 -1.2213 -0.0073 -0.1345
   97MPD2    H3 1486   3.537   4.081   1.370  0.3953 -1.3399 -0.7833
   97MPD2     N 1487   3.789   4.302   1.057  0.2332 -0.2122 -0.1763
   97MPD2    H5 1488   3.732   4.258   0.985 -0.4926  0.7231 -0.1795
   97MPD2    N1 1489   3.860   4.304   1.549  0.0334 -0.2864 -0.5192
   97MPD2    H7 1490   3.835   4.255   1.635  1.3067  0.6321  0.3615
   98TCq2    C1 1491   3.898   4.370   1.010 -0.5681  0.4656  0.5844
   98TCq2    O2 1492   3.965   4.451   1.072 -0.2414 -0.1873  0.2864
   98TCq2    C2 1493   3.928   4.345   0.873  0.1385 -0.0153 -0.0132
   98TCq2    C3 1494   3.868   4.243   0.799  0.3274  0.0722 -0.4673
   98TCq2    C4 1495   3.936   4.194   0.693  0.4984 -0.1648  0.1018
   98TCq2    C5 1496   4.063   4.227   0.678 -0.0502  0.3468 -0.3895
   98TCq2    C6 1497   4.121   4.322   0.753 -0.2823 -0.1586  0.2372
   98TCq2    C7 1498   4.052   4.392   0.846 -0.5042  0.0624  0.2133
   98TCq2    C8 1499   4.240   4.389   0.712 -0.1777 -0.1493  0.5380
   98TCq2    O4 1500   4.278   4.490   0.777 -0.2007 -0.2316 -0.6512
   98TCq2    C9 1501   3.874   4.101   0.592  0.0640  0.5377  0.4342
   98TCq2    O5 1502   3.933   4.090   0.481  0.3838  0.1232  0.2061
   98TCq2    O6 1503   3.771   4.040   0.628  0.7731  0.2007 -0.1068
   98TCq2    H2 1504   3.766   4.211   0.818  0.2892  0.2716 -0.3364
   98TCq2    H3 1505   4.119   4.181   0.597  0.4922  0.2844  0.0153
   98TCq2    H4 1506   4.100   4.471   0.903  1.5059 -0.4555 -0.7385
   99MPD2     C 1507   3.899   1.473   1.892 -0.3191 -0.2719  0.3921
   99MPD2    C1 1508   3.773   1.432   1.940  0.3230 -0.1981  0.2619
   99MPD2    C2 1509   3.685   1.383   1.843 -0.3981  1.0170  0.5193
   99MPD2    C3 1510   3.731   1.377   1.708 -0.1146  0.1786  0.1915
   99MPD2    C4 1511   3.858   1.410   1.665  0.3505  0.1816  0.6351
   99MPD2    C5 1512   3.940   1.462   1.763  0.4549  0.1726 -0.0172
   99MPD2     H 1513   3.581   1.360   1.863 -0.2790 -0.2687 -0.3717
   99MPD2    H1 1514   3.907   1.404   1.569  2.4517  1.2272  1.6358
   99MPD2    H2 1515   3.971   1.517   1.960 -0.5964 -3.9224  3.0644
   99MPD2    H3 1516   4.036   1.501   1.732  0.9985  0.7366  2.3995
   99MPD2     N 1517   3.638   1.329   1.605 -0.2078  0.0169  0.5208
   99MPD2    H5 1518   3.548   1.290   1.635  0.7909 -3.7132 -1.4046
   99MPD2    N1 1519   3.720   1.455   2.074 -0.0963  1.1208 -0.1558
   99MPD2    H7 1520   3.622   1.441   2.097 -0.1096 -0.2056 -0.9969
  100TCq2    C1 1521   3.801   1.491   2.179  0.0107  0.2214 -0.0651
  100TCq2    O2 1522   3.924   1.472   2.194  0.1023  0.4433  0.9208
  100TCq2    C2 1523   3.728   1.523   2.298 -0.2064  0.8102 -0.3122
  100TCq2    C3 1524   3.795   1.491   2.414 -0.0008  0.0653 -0.1117
  100TCq2    C4 1525   3.743   1.536   2.531 -0.5379 -0.0838 -0.2642
  100TCq2    C5 1526   3.623   1.604   2.529 -0.5491  0.3060 -0.0555
  100TCq2    C6 1527   3.563   1.635   2.411 -0.9336  0.5773 -0.3076
  100TCq2    C7 1528   3.602   1.590   2.294  0.0543  0.3387 -0.2822
  100TCq2    C8 1529   3.449   1.718   2.406 -0.4720  0.5733  0.5863
  100TCq2    O4 1530   3.456   1.818   2.471 -0.0825  0.7259  0.2201
  100TCq2    C9 1531   3.808   1.513   2.661  0.0392  0.5949 -0.1392
  100TCq2    O5 1532   3.732   1.504   2.758 -0.5821  0.2788 -0.5032
  100TCq2    O6 1533   3.927   1.473   2.652 -0.2401  0.2611  0.0198
  100TCq2    H2 1534   3.895   1.450   2.422  0.0901  0.8144  2.5171
  100TCq2    H3 1535   3.580   1.647   2.619  2.0952  0.5310  1.0923
  100TCq2    H4 1536   3.575   1.617   2.192 -1.2428  1.6207  0.4109
  101MPD2     C 1537   3.441   3.052  12.730  0.2018 -0.4126 -0.1503
  101MPD2    C1 1538   3.367   3.133  12.809 -0.1112 -0.4861  0.2961
  101MPD2    C2 1539   3.320   3.078  12.934  0.3069  0.0270  0.3670
  101MPD2    C3 1540   3.357   2.952  12.985  0.7678  0.0818 -0.0586
  101MPD2    C4 1541   3.421   2.872  12.892  0.6444  0.0629 -0.1038
  101MPD2    C5 1542   3.468   2.929  12.774 -0.5845 -0.0634  0.0742
  101MPD2     H 1543   3.251   3.134  12.997 -1.5964 -3.3579  1.2812
  101MPD2    H1 1544   3.466   2.774  12.908 -1.7325 -0.8838  0.7423
  101MPD2    H2 1545   3.466   3.083  12.630  1.0524  0.6599  0.3959
  101MPD2    H3 1546   3.519   2.864  12.703 -0.6787 -1.1117  0.9720
  101MPD2     N 1547   3.323   2.907  13.113 -0.1143 -0.0763  0.2044
  101MPD2    H5 1548   3.248   2.964  13.152  0.3868 -0.4565  1.6985
  101MPD2    N1 1549   3.352   3.272  12.773  0.0721 -0.3675  0.1446
  101MPD2    H7 1550   3.397   3.309  12.690 -1.0167  1.3056  0.2967
  102TCq2    C1 1551   3.511   3.661  12.564 -0.1889 -0.0715 -0.4061
  102TCq2    O2 1552   3.612   3.592  12.587 -0.2929 -0.1597 -0.2923
  102TCq2    C2 1553   3.397   3.649  12.655 -0.1658 -0.5850 -0.3885
  102TCq2    C3 1554   3.291   3.736  12.648  0.5499  0.2520  0.3131
  102TCq2    C4 1555   3.179   3.694  12.718  0.1742 -0.4126 -0.9216
  102TCq2    C5 1556   3.168   3.574  12.781  0.0045 -0.4643 -0.6146
  102TCq2    C6 1557   3.272   3.493  12.772 -0.5691  0.0992  0.0457
  102TCq2    C7 1558   3.388   3.525  12.719 -0.5651 -0.0246 -0.4788
  102TCq2    C8 1559   3.258   3.358  12.826  0.5767  0.2706  0.7798
  102TCq2    O4 1560   3.178   3.331  12.916  0.4152 -0.3877 -0.2403
  102TCq2    C9 1561   3.068   3.788  12.727  0.2692 -0.3163 -0.0326
  102TCq2    O5 1562   2.975   3.762  12.807  0.1834  0.1156 -0.3044
  102TCq2    O6 1563   3.067   3.883  12.642 -0.4921  0.2926 -0.2956
  102TCq2    H2 1564   3.296   3.831  12.596  2.5166 -0.1710 -0.2694
  102TCq2    H3 1565   3.081   3.533  12.831  2.5056 -0.8661  3.4023
  102TCq2    H4 1566   3.477   3.464  12.720 -1.4345 -1.2734 -0.2366
  103TMC2    C1 1567   1.648   3.482  12.693 -0.4863  0.2706  0.4935
  103TMC2    C2 1568   1.775   3.432  12.664  0.4793 -0.6074  0.1052
  103TMC2    C3 1569   1.860   3.433  12.773 -0.5379 -0.3703  0.5907
  103TMC2    C4 1570   1.602   3.523  12.814  0.1267 -0.1577 -0.3428
  103TMC2    C5 1571   1.692   3.500  12.920  0.3500 -0.7839  0.7379
  103TMC2    C6 1572   1.824   3.467  12.898  0.2942  0.4626 -0.0183
  103TMC2     C 1573   1.572   3.539  12.586 -0.3564  1.0626  0.4761
  103TMC2     O 1574   1.457   3.511  12.580  0.2060  0.3395 -0.1166
  103TMC2     H 1575   1.792   3.409  12.560 -1.9486 -0.5721 -0.3029
  103TMC2    H1 1576   1.501   3.556  12.832 -0.0435 -0.8292 -0.0544
  103TMC2    H2 1577   1.887   3.438  12.982 -1.6593 -1.2986  0.8438
  103TMC2    C7 1578   1.638   3.506  13.057  0.2393  0.3319 -0.4818
  103TMC2    C8 1579   1.978   3.354  12.740  0.4723 -0.8669  0.4282
  103TMC2    O1 1580   1.726   3.527  13.140 -0.3941 -0.4221  0.1753
  103TMC2    O2 1581   1.986   3.295  12.630 -0.2313 -0.4795  0.4990
  103TMC2    O5 1582   2.082   3.373  12.826  0.5719 -0.1026  0.4331
  103TMC2    H5 1583   2.070   3.439  12.898 -0.8683 -1.5954  1.5764
  104MPD2     C 1584   1.660   3.815  12.356  0.1051 -0.0083  0.0182
  104MPD2    C1 1585   1.595   3.702  12.403  0.0212  0.5584 -0.3530
  104MPD2    C2 1586   1.478   3.670  12.331  0.8757  0.0138  0.1055
  104MPD2    C3 1587   1.427   3.748  12.227 -0.4729 -0.2656 -0.7583
  104MPD2    C4 1588   1.496   3.864  12.188 -0.1361  0.7686 -0.2747
  104MPD2    C5 1589   1.619   3.892  12.245  0.1108  0.0354  0.5061
  104MPD2     H 1590   1.433   3.574  12.353  2.9893 -0.4314  2.5612
  104MPD2    H1 1591   1.471   3.930  12.105  2.1550 -1.2589 -2.5900
  104MPD2    H2 1592   1.751   3.856  12.397 -0.2562  0.2564  0.5458
  104MPD2    H3 1593   1.671   3.981  12.213 -1.4975  0.3595 -1.1896
  104MPD2     N 1594   1.323   3.698  12.154 -0.4885 -0.7728 -0.1677
  104MPD2    H5 1595   1.303   3.601  12.178  1.4280 -1.0071  0.5135
  104MPD2    N1 1596   1.646   3.626  12.503 -0.2855  0.0230 -0.0297
  104MPD2    H7 1597   1.743   3.644  12.525 -0.3242  2.3882 -1.9209
  105MPD2     C 1598   3.596   2.119   0.134 -0.7466 -0.3026 -0.6724
  105MPD2    C1 1599   3.492   2.204   0.139  0.0091 -0.1585  0.1598
  105MPD2    C2 1600   3.403   2.209   0.246 -0.0368 -0.3919  0.1628
  105MPD2    C3 1601   3.418   2.123   0.345  0.0622  0.3937  0.0690
  105MPD2    C4 1602   3.512   2.026   0.338  0.2255 -0.6515 -0.4697
  105MPD2    C5 1603   3.597   2.025   0.233  0.5418  0.7343 -0.1731
  105MPD2     H 1604   3.327   2.286   0.244  1.1123  0.7254  0.1853
  105MPD2    H1 1605   3.516   1.950   0.415  0.5308 -0.2914 -0.1297
  105MPD2    H2 1606   3.672   2.121   0.056 -0.3396 -1.2843 -0.2978
  105MPD2    H3 1607   3.681   1.957   0.239  0.0847  0.2908  1.0156
  105MPD2     N 1608   3.330   2.132   0.454 -0.0035  0.5799 -0.2473
  105MPD2    H5 1609   3.264   2.209   0.458  0.9123  1.3749 -0.3222
  105MPD2    N1 1610   3.466   2.286   0.027 -0.1958  0.5475  0.4239
  105MPD2    H7 1611   3.374   2.329   0.021 -0.4468 -0.1185 -0.4726
  106TCq2    C1 1612   3.321   2.048   0.559 -0.2030  0.4300 -0.6157
  106TCq2    O2 1613   3.380   1.941   0.581 -0.4531 -0.6055  0.3895
  106TCq2    C2 1614   3.220   2.105   0.652 -0.0903 -0.9406 -0.3291
  106TCq2    C3 1615   3.147   2.213   0.614 -0.3460 -0.2452  0.0550
  106TCq2    C4 1616   3.061   2.268   0.703 -0.3263  0.3501 -0.6843
  106TCq2    C5 1617   3.030   2.204   0.823 -0.0721  0.5828 -0.0925
  106TCq2    C6 1618   3.093   2.087   0.846 -0.1150 -0.5653  0.5550
  106TCq2    C7 1619   3.191   2.036   0.765  0.1073  0.0191 -0.4801
  106TCq2    C8 1620   3.075   2.019   0.975  0.1557 -1.5397  0.8542
  106TCq2    O4 1621   3.133   1.914   0.998  0.0032 -0.0764  0.3382
  106TCq2    C9 1622   2.990   2.391   0.673  0.4961  0.0187 -0.2797
  106TCq2    O5 1623   2.937   2.452   0.770 -0.1835  0.1698 -0.4227
  106TCq2    O6 1624   3.032   2.454   0.574  0.5975 -0.2902 -0.0779
  106TCq2    H2 1625   3.151   2.267   0.520  0.3589 -1.6866 -0.7462
  106TCq2    H3 1626   2.948   2.240   0.884 -0.5949  0.6803 -0.8618
  106TCq2    H4 1627   3.246   1.945   0.785  1.7156  0.9486 -0.7186
  107TMC2    C1 1628   4.165   1.519  11.730 -1.1746  0.2613 -0.6141
  107TMC2    C2 1629   4.283   1.454  11.739 -0.1398  0.1198 -0.0067
  107TMC2    C3 1630   4.347   1.417  11.626 -0.0351 -0.0997  0.0012
  107TMC2    C4 1631   4.092   1.536  11.611 -0.0723  1.1741  0.4792
  107TMC2    C5 1632   4.159   1.483  11.504 -0.3345 -0.2379 -0.4748
  107TMC2    C6 1633   4.283   1.417  11.503 -0.4296  0.2428 -0.1831
  107TMC2     C 1634   4.080   1.508  11.842 -0.4854 -1.0016  0.0456
  107TMC2     O 1635   4.103   1.416  11.919 -0.0068 -0.3588  0.6042
  107TMC2     H 1636   4.327   1.430  11.835 -0.2095 -1.1858 -0.2981
  107TMC2    H1 1637   3.994   1.583  11.606 -1.4502 -2.1400 -3.6112
  107TMC2    H2 1638   4.342   1.381  11.418  1.7982 -0.2962  1.5851
  107TMC2    C7 1639   4.083   1.480  11.379  0.0429 -0.0092 -0.2347
  107TMC2    C8 1640   4.481   1.364  11.640 -0.6286  0.0424  0.3557
  107TMC2    O1 1641   3.963   1.488  11.402  0.5527 -0.2631 -0.5874
  107TMC2    O2 1642   4.537   1.294  11.558  0.0628 -0.2547 -0.2204
  107TMC2    O5 1643   4.540   1.395  11.756 -0.1887 -0.4172  0.4091
  107TMC2    H5 1644   4.498   1.477  11.790 -1.5531 -1.1626  0.5268
  108MPD2     C 1645   3.785   1.722  11.923  0.0267  1.3518  0.1075
  108MPD2    C1 1646   3.881   1.619  11.940 -0.2703  0.1235 -0.2238
  108MPD2    C2 1647   3.885   1.547  12.055 -0.0279  0.0762  0.5575
  108MPD2    C3 1648   3.784   1.558  12.149  0.7037 -0.1433  0.2279
  108MPD2    C4 1649   3.680   1.652  12.125 -0.0650 -0.2276  0.2181
  108MPD2    C5 1650   3.676   1.729  12.007  0.3024 -0.3007  0.2858
  108MPD2     H 1651   3.966   1.478  12.075 -0.0819 -0.3046 -0.5888
  108MPD2    H1 1652   3.589   1.651  12.185 -0.7907  2.2811 -0.8313
  108MPD2    H2 1653   3.790   1.785  11.836 -0.2611  0.7911 -0.3155
  108MPD2    H3 1654   3.595   1.799  11.990  1.1064  0.6121  0.2214
  108MPD2     N 1655   3.775   1.474  12.263  0.1652  0.2952 -0.0558
  108MPD2    H5 1656   3.690   1.489  12.315  0.4591  1.9785 -0.0794
  108MPD2    N1 1657   3.982   1.602  11.842 -0.1686 -0.4818 -0.2314
  108MPD2    H7 1658   3.983   1.668  11.765  0.2350  0.7896  0.8487
  109MPD2     C 1659   3.412   3.279   2.120  0.4597  0.0373  0.0326
  109MPD2    C1 1660   3.470   3.377   2.044 -0.0415  0.1292  0.2916
  109MPD2    C2 1661   3.599   3.422   2.076  0.0502 -0.8515 -0.8289
  109MPD2    C3 1662   3.673   3.362   2.180  0.2636 -0.3559 -0.2201
  109MPD2    C4 1663   3.616   3.243   2.238 -0.1043 -0.5177 -0.2153
  109MPD2    C5 1664   3.489   3.204   2.208  0.1875  0.5782  0.2275
  109MPD2     H 1665   3.644   3.513   2.037 -2.4020  0.3173 -0.9491
  109MPD2    H1 1666   3.661   3.186   2.318 -0.2841  2.1217  1.7882
  109MPD2    H2 1667   3.311   3.238   2.119  0.1630  0.6725  2.3854
  109MPD2    H3 1668   3.446   3.119   2.260 -0.7126 -1.0986 -3.2725
  109MPD2     N 1669   3.803   3.423   2.216 -0.1040 -0.0454  0.2374
  109MPD2    H5 1670   3.832   3.505   2.163 -1.5648  0.1475 -0.2620
  109MPD2    N1 1671   3.381   3.434   1.948  0.1423  0.4988  0.5834
  109MPD2    H7 1672   3.284   3.405   1.941  0.3019  0.5002 -1.4581
  110TCq2    C1 1673   3.892   3.368   2.304 -0.2830  0.5942 -0.1858
  110TCq2    O2 1674   3.896   3.260   2.359  0.9609 -0.4011  0.0397
  110TCq2    C2 1675   4.007   3.452   2.320  0.0717  0.1761  0.3083
  110TCq2    C3 1676   4.105   3.396   2.396  0.8005  0.2507 -0.3741
  110TCq2    C4 1677   4.216   3.473   2.430 -0.1768 -0.6919 -0.8571
  110TCq2    C5 1678   4.232   3.601   2.389  0.6985  0.1146 -0.3573
  110TCq2    C6 1679   4.135   3.654   2.307  0.0043 -0.6752  0.4611
  110TCq2    C7 1680   4.016   3.585   2.275 -0.2922  0.8960 -0.2226
  110TCq2    C8 1681   4.151   3.791   2.263  0.1992  0.2007 -1.0799
  110TCq2    O4 1682   4.065   3.839   2.197 -0.4092  0.0816  0.5074
  110TCq2    C9 1683   4.319   3.409   2.501  0.3022  0.8661  0.4435
  110TCq2    O5 1684   4.311   3.282   2.525  0.0678 -0.2025  0.3950
  110TCq2    O6 1685   4.410   3.485   2.537 -0.2719 -0.5254 -0.1494
  110TCq2    H2 1686   4.098   3.294   2.433 -1.0125  0.4146 -0.2825
  110TCq2    H3 1687   4.323   3.654   2.416  0.5065  1.6189 -2.6758
  110TCq2    H4 1688   3.941   3.642   2.221 -1.4610 -0.5674 -0.1434
  111TMC2    C1 1689   4.292   3.809  11.146  0.7837  1.3033 -0.1897
  111TMC2    C2 1690   4.396   3.760  11.075 -0.7940 -0.7322  0.0181
  111TMC2    C3 1691   4.508   3.713  11.143 -0.5689 -0.1248 -0.1346
  111TMC2    C4 1692   4.286   3.789  11.281 -0.2994  0.7215  0.2319
  111TMC2    C5 1693   4.397   3.737  11.342 -0.4517 -1.5085 -0.5418
  111TMC2    C6 1694   4.507   3.701  11.280 -0.0699 -0.1028  0.3751
  111TMC2     C 1695   4.172   3.837  11.069  0.8040 -0.1007 -0.3928
  111TMC2     O 1696   4.180   3.853  10.945  0.0056 -0.6442  0.0175
  111TMC2     H 1697   4.389   3.772  10.968  0.6873  0.4048  0.0455
  111TMC2    H1 1698   4.211   3.818  11.353 -2.9262 -0.1446 -2.1578
  111TMC2    H2 1699   4.598   3.668  11.329 -0.7926  1.8100  2.9835
  111TMC2    C7 1700   4.402   3.694  11.477  0.6907 -0.2065 -0.2181
  111TMC2    C8 1701   4.630   3.692  11.074  0.2237  0.0158 -0.2850
  111TMC2    O1 1702   4.304   3.653  11.533 -0.4340  0.2179  0.4699
  111TMC2    O2 1703   4.656   3.736  10.960  0.1347  0.1629  0.5712
  111TMC2    O5 1704   4.649   3.566  11.111  0.7336 -0.1292 -0.1188
  111TMC2    H5 1705   4.593   3.537  11.186  0.1287 -0.9853 -0.9038
  112MPD2     C 1706   3.667   3.968  11.069 -0.4899  0.0137 -0.4723
  112MPD2    C1 1707   3.759   3.981  10.970  0.0286 -0.5520 -0.1397
  112MPD2    C2 1708   3.890   3.933  10.992 -0.5829  0.6734 -0.5297
  112MPD2    C3 1709   3.926   3.874  11.115  0.6394  0.1894 -0.3899
  112MPD2    C4 1710   3.822   3.859  11.208  0.8458 -0.1036 -0.1612
  112MPD2    C5 1711   3.697   3.904  11.186  0.6603 -0.3239  1.0121
  112MPD2     H 1712   3.959   3.962  10.913 -2.3768  2.8660 -1.3005
  112MPD2    H1 1713   3.845   3.816  11.305 -2.2850  0.7892  0.9580
  112MPD2    H2 1714   3.568   4.007  11.049  0.3568  2.3969  0.0983
  112MPD2    H3 1715   3.623   3.893  11.265 -1.7898 -1.9330 -1.4784
  112MPD2     N 1716   4.062   3.841  11.151  0.0425 -0.1117 -0.4614
  112MPD2    H5 1717   4.083   3.790  11.237  1.1701  0.7992 -0.2065
  112MPD2    N1 1718   3.732   4.039  10.840 -0.5001 -0.2792 -0.1501
  112MPD2    H7 1719   3.814   4.069  10.788  0.7974  1.1487  2.7343
  113MPD2     C 1720   2.520   1.541   1.049  0.4012  0.1743 -0.3743
  113MPD2    C1 1721   2.467   1.585   1.169 -0.0785  0.7526  0.4099
  113MPD2    C2 1722   2.331   1.617   1.177  0.4392 -0.7105  0.7823
  113MPD2    C3 1723   2.253   1.623   1.071  0.1901 -0.0920  0.1980
  113MPD2    C4 1724   2.311   1.608   0.944  0.1528  0.3077  0.1616
  113MPD2    C5 1725   2.439   1.561   0.941 -0.3912 -0.2310 -0.2059
  113MPD2     H 1726   2.291   1.644   1.274  2.7217  0.4708  1.4096
  113MPD2    H1 1727   2.256   1.621   0.851  0.4103 -1.4604 -0.2336
  113MPD2    H2 1728   2.621   1.506   1.029  1.0687  0.6065  2.2233
  113MPD2    H3 1729   2.477   1.527   0.845 -0.8318 -0.0083 -0.4623
  113MPD2     N 1730   2.122   1.672   1.066 -0.3171 -0.2003 -0.3585
  113MPD2    H5 1731   2.088   1.689   0.972 -0.1349 -0.2642 -0.4363
  113MPD2    N1 1732   2.534   1.598   1.290 -0.3278 -0.1917 -0.4609
  113MPD2    H7 1733   2.482   1.639   1.367 -0.8385 -1.1588 -0.2908
  114TCq2    C1 1734   2.051   1.696   1.176 -0.0790 -0.2401 -0.0855
  114TCq2    O2 1735   2.068   1.677   1.296  0.1200  0.4842  0.1550
  114TCq2    C2 1736   1.917   1.736   1.144  0.6000  0.2607 -0.6292
  114TCq2    C3 1737   1.897   1.825   1.042  0.0309  0.1088  0.5740
  114TCq2    C4 1738   1.770   1.881   1.029 -0.0092  0.7635  0.1434
  114TCq2    C5 1739   1.670   1.829   1.108  0.0509 -0.6167 -0.0320
  114TCq2    C6 1740   1.692   1.727   1.194  0.0372  0.3564  0.0200
  114TCq2    C7 1741   1.819   1.679   1.214 -0.0623 -0.0395 -0.0915
  114TCq2    C8 1742   1.576   1.660   1.238  0.7497 -0.2307  0.6825
  114TCq2    O4 1743   1.468   1.711   1.222 -0.2602  0.0963  0.5437
  114TCq2    C9 1744   1.754   1.982   0.928  0.6494  0.1037  0.4777
  114TCq2    O5 1745   1.638   2.021   0.902 -0.0364 -0.1445 -0.3423
  114TCq2    O6 1746   1.859   2.004   0.865 -0.3206  0.1291  0.0131
  114TCq2    H2 1747   1.979   1.861   0.981  2.0605 -0.4859  2.9263
  114TCq2    H3 1748   1.569   1.864   1.086 -1.0827 -1.7252  3.3888
  114TCq2    H4 1749   1.845   1.596   1.278 -1.3141 -0.9773 -0.8086
  115TMC2    C1 1750   2.552   4.329   0.291  0.7489  0.4636 -0.1862
  115TMC2    C2 1751   2.690   4.305   0.274  0.7321  0.1100 -0.1591
  115TMC2    C3 1752   2.767   4.405   0.227  0.0919  0.3505 -0.3998
  115TMC2    C4 1753   2.494   4.446   0.248 -0.2184  0.0999 -0.4120
  115TMC2    C5 1754   2.579   4.535   0.183 -0.0769  0.8973  0.3340
  115TMC2    C6 1755   2.715   4.520   0.172 -0.6437 -0.4501  0.4759
  115TMC2     C 1756   2.470   4.214   0.305  0.2652  0.4054  0.5890
  115TMC2     O 1757   2.521   4.105   0.297  0.0125  0.4552 -0.2800
  115TMC2     H 1758   2.741   4.232   0.336 -2.2421 -0.9552  1.0739
  115TMC2    H1 1759   2.389   4.465   0.268 -0.3338 -0.2945 -0.6297
  115TMC2    H2 1760   2.779   4.599   0.135  1.1676 -1.5224  1.3643
  115TMC2    C7 1761   2.505   4.629   0.101  0.7769 -0.4587 -0.0880
  115TMC2    C8 1762   2.908   4.390   0.232 -0.1938 -0.4143  0.4114
  115TMC2    O1 1763   2.394   4.595   0.072  0.4002  0.2162 -0.0757
  115TMC2    O2 1764   2.984   4.484   0.252  0.6015  0.1135  0.3713
  115TMC2    O5 1765   2.947   4.269   0.194  0.5393 -0.5402  0.2380
  115TMC2    H5 1766   2.868   4.216   0.168 -0.9124  1.3749  0.7654
  116MPD2     C 1767   1.996   4.002   0.361 -0.0658 -0.0237  0.3773
  116MPD2    C1 1768   2.101   3.967   0.281  0.0037 -0.7553  0.5762
  116MPD2    C2 1769   2.223   4.038   0.280  0.1825 -0.1475 -0.6752
  116MPD2    C3 1770   2.238   4.151   0.362  0.2437  0.0827 -0.2497
  116MPD2    C4 1771   2.127   4.184   0.435  0.3448 -0.2520 -0.0226
  116MPD2    C5 1772   2.013   4.105   0.442  0.1554 -0.2232 -0.1471
  116MPD2     H 1773   2.297   4.003   0.209  0.3296 -0.6405 -0.2803
  116MPD2    H1 1774   2.126   4.270   0.501  2.4696  0.0225 -0.3729
  116MPD2    H2 1775   1.904   3.945   0.350 -1.4160  1.4933  3.8206
  116MPD2    H3 1776   1.936   4.137   0.511  0.7763 -2.0134  1.3855
  116MPD2     N 1777   2.346   4.237   0.353  0.6556 -0.3390 -0.0742
  116MPD2    H5 1778   2.330   4.333   0.383  1.2776  0.4479 -2.2606
  116MPD2    N1 1779   2.078   3.854   0.203  0.6987 -0.4012 -0.1143
  116MPD2    H7 1780   1.988   3.809   0.210  0.5454  0.0365  0.7051
  117TMC2    C1 1781   1.536   0.959  13.721  0.5026  0.0433  0.6158
  117TMC2    C2 1782   1.623   0.855  13.740 -0.5055 -0.2968  0.2240
  117TMC2    C3 1783   1.744   0.886  13.794  0.4369 -0.6928  0.1052
  117TMC2    C4 1784   1.557   1.091  13.764 -0.3256  0.4275 -0.1003
  117TMC2    C5 1785   1.677   1.116  13.827  0.6073 -0.3540  0.3379
  117TMC2    C6 1786   1.774   1.019  13.829  0.0498 -0.5656  0.8356
  117TMC2     C 1787   1.411   0.928  13.664  0.1694  0.9501 -0.0060
  117TMC2     O 1788   1.407   0.830  13.594  0.0489  0.0427  0.2316
  117TMC2     H 1789   1.598   0.753  13.716 -0.5127 -0.3809  0.5920
  117TMC2    H1 1790   1.492   1.174  13.736 -1.7896 -1.1050 -1.2853
  117TMC2    H2 1791   1.869   1.038  13.877  0.8399  0.9116 -1.3141
  117TMC2    C7 1792   1.715   1.252  13.861 -0.2206  0.0683 -0.8024
  117TMC2    C8 1793   1.845   0.777  13.805  0.9226  0.2979  0.7503
  117TMC2    O1 1794   1.832   1.273  13.877 -0.0852  0.4655  0.1593
  117TMC2    O2 1795   1.827   0.656  13.803 -0.0657 -0.3961 -0.2369
  117TMC2    O5 1796   1.962   0.829  13.850 -0.4339  0.1955  0.3337
  117TMC2    H5 1797   1.980   0.919  13.815 -0.4562 -0.3601 -1.1037
  118MPD2     C 1798   1.477   1.529  13.920 -0.1881  0.4524 -0.1416
  118MPD2    C1 1799   1.602   1.468  13.905 -0.4672  0.2879  0.5535
  118MPD2    C2 1800   1.714   1.546  13.945  0.0613 -0.0793  0.1832
  118MPD2    C3 1801   1.701   1.685  13.961  0.5755  0.2490  0.2759
  118MPD2    C4 1802   1.575   1.739  13.963  0.2551  0.0330 -0.2068
  118MPD2    C5 1803   1.469   1.659  13.943 -0.1393 -0.0296  0.1370
  118MPD2     H 1804   1.814   1.506  13.932 -0.2710 -0.8041 -0.1573
  118MPD2    H1 1805   1.547   1.843  13.978 -0.2743  0.0853 -1.5265
  118MPD2    H2 1806   1.384   1.479  13.895  0.7283 -0.9413 -0.7291
  118MPD2    H3 1807   1.375   1.712  13.959 -0.2275  0.2613 -1.3178
  118MPD2     N 1808   1.806   1.772  13.972 -0.0503 -0.1012  0.7500
  118MPD2    H5 1809   1.782   1.869  13.989 -2.6535 -0.8701  1.3856
  118MPD2    N1 1810   1.603   1.337  13.864 -0.6776 -0.0522 -0.4262
  118MPD2    H7 1811   1.511   1.295  13.853 -0.8285  0.2949 -0.4590
  119MPD2     C 1812   0.179   2.875  13.707 -0.0578 -0.5234  0.4178
  119MPD2    C1 1813   0.043   2.879  13.746 -0.8195  0.3652 -0.0314
  119MPD2    C2 1814   4.678   2.783  13.698 -0.1435 -0.2945 -0.0751
  119MPD2    C3 1815   0.004   2.684  13.613  0.3490  0.3284  0.0847
  119MPD2    C4 1816   0.140   2.681  13.583  0.2099 -0.1347  0.0607
  119MPD2    C5 1817   0.228   2.772  13.635 -0.3311 -0.7236  0.0993
  119MPD2     H 1818   4.570   2.789  13.710 -0.1360 -1.0728  0.3351
  119MPD2    H1 1819   0.190   2.616  13.512  2.0374  1.1146  0.1881
  119MPD2    H2 1820   0.254   2.949  13.732 -2.2621  1.3077  1.6517
  119MPD2    H3 1821   0.333   2.772  13.606 -0.3175  0.9028  0.1515
  119MPD2     N 1822   4.638   2.592  13.545  0.3461 -0.0070  0.0482
  119MPD2    H5 1823   4.678   2.534  13.472 -1.0326 -2.7151  1.4230
  119MPD2    N1 1824   4.713   2.998  13.804  0.0479 -0.0921 -0.8329
  119MPD2    H7 1825   0.034   3.081  13.764  0.8251  0.5145  1.2561
  120TCq2    C1 1826   4.504   2.580  13.554  0.8788  0.2167 -0.1068
  120TCq2    O2 1827   4.427   2.631  13.632 -0.0371 -0.1582  0.2545
  120TCq2    C2 1828   4.447   2.511  13.439  0.1486  0.6322  0.3277
  120TCq2    C3 1829   4.527   2.463  13.340  0.2351  0.3026  1.0597
  120TCq2    C4 1830   4.462   2.392  13.247  0.1939  0.1807 -0.1976
  120TCq2    C5 1831   4.337   2.355  13.253  0.0991 -0.2046  0.3284
  120TCq2    C6 1832   4.260   2.408  13.349  0.6396 -0.1986  0.3706
  120TCq2    C7 1833   4.311   2.497  13.443 -0.2917  0.3663 -0.1320
  120TCq2    C8 1834   4.129   2.342  13.377 -0.0927 -0.6741  0.2473
  120TCq2    O4 1835   4.086   2.266  13.287  0.1284  0.5223  0.1018
  120TCq2    C9 1836   4.539   2.329  13.144  0.3568 -0.0839 -0.9358
  120TCq2    O5 1837   4.473   2.255  13.066  0.3072 -0.6081  0.0368
  120TCq2    O6 1838   4.660   2.367  13.135 -0.0280  0.1608 -0.1629
  120TCq2    H2 1839   4.635   2.474  13.338  0.0957  1.2494 -0.6530
  120TCq2    H3 1840   4.298   2.271  13.196 -0.4481  0.9505 -0.9928
  120TCq2    H4 1841   4.255   2.546  13.522 -0.9144  0.6324 -0.7364
  121TMC2    C1 1842   1.062   4.152  14.300 -0.3481 -0.2158  0.8333
  121TMC2    C2 1843   1.049   4.128  14.432 -0.2019  0.1254 -0.4207
  121TMC2    C3 1844   0.979   4.013  14.463 -0.3769  0.7169 -0.6145
  121TMC2    C4 1845   1.011   4.070  14.197 -0.2739  0.4258 -0.1465
  121TMC2    C5 1846   0.967   3.950  14.237 -0.6106 -0.0820 -0.2623
  121TMC2    C6 1847   0.942   3.924  14.367  0.4024 -0.9042  0.4228
  121TMC2     C 1848   1.159   4.254  14.277  0.3715  0.6701 -0.4005
  121TMC2     O 1849   1.216   4.299  14.377 -0.2062  0.4163 -0.5099
  121TMC2     H 1850   1.074   4.202  14.507 -0.3159 -1.0817  0.8107
  121TMC2    H1 1851   1.024   4.091  14.092  0.4050 -3.2151 -0.7694
  121TMC2    H2 1852   0.903   3.825  14.383  0.1977 -0.8518  0.2455
  121TMC2    C7 1853   0.870   3.886  14.151 -0.2519 -0.1728  0.0355
  121TMC2    C8 1854   1.006   3.960  14.599  0.4164 -0.1185 -0.2411
  121TMC2    O1 1855   0.874   3.771  14.118  0.5071 -0.0693 -0.2608
  121TMC2    O2 1856   1.123   3.949  14.641  0.5057 -0.1032  0.3030
  121TMC2    O5 1857   0.916   3.857  14.604 -0.2833 -0.4469 -0.1026
  121TMC2    H5 1858   0.827   3.886  14.577  0.4047  3.6723  2.0235
  122MPD2     C 1859   1.414   4.354  14.195 -0.1018 -0.1378 -0.6051
  122MPD2    C1 1860   1.301   4.349  14.112 -0.0651 -0.0590 -0.0234
  122MPD2    C2 1861   1.313   4.414  13.986  0.6507 -0.1903 -0.3620
  122MPD2    C3 1862   1.432   4.469  13.936 -0.2040 -0.2004  0.1853
  122MPD2    C4 1863   1.535   4.458  14.025 -0.0749 -0.4495 -0.4535
  122MPD2    C5 1864   1.528   4.406  14.154  0.4932 -0.5751 -0.3369
  122MPD2     H 1865   1.220   4.436  13.935 -1.8729 -1.4595  3.6514
  122MPD2    H1 1866   1.622   4.517  14.000 -0.7599  0.6663 -0.1979
  122MPD2    H2 1867   1.426   4.295  14.285 -0.0075  0.4949 -0.2081
  122MPD2    H3 1868   1.617   4.392  14.214  0.5575 -0.5547 -0.4273
  122MPD2     N 1869   1.443   4.544  13.812  0.1240  0.1138 -0.6444
  122MPD2    H5 1870   1.536   4.581  13.793 -0.4339  1.0401 -1.5929
  122MPD2    N1 1871   1.183   4.285  14.149 -0.0383  0.7696 -0.2237
  122MPD2    H7 1872   1.121   4.252  14.076  1.6407  1.4733 -1.9695
  123MPD2     C 1873   4.531   1.561  10.280 -0.2720  0.4089 -0.3930
  123MPD2    C1 1874   4.499   1.666  10.187 -0.0603 -0.5501 -0.0929
  123MPD2    C2 1875   4.606   1.737  10.130 -0.0633  0.1866  0.1009
  123MPD2    C3 1876   0.015   1.711  10.163 -0.0432  0.5249 -0.4987
  123MPD2    C4 1877   0.036   1.618  10.259  0.0157 -0.2074 -0.0276
  123MPD2    C5 1878   4.661   1.544  10.314  0.3665 -0.5399  0.3980
  123MPD2     H 1879   4.588   1.821  10.064 -2.2031 -0.4254 -0.0874
  123MPD2    H1 1880   0.129   1.589  10.306  0.5132 -0.3807 -1.1147
  123MPD2    H2 1881   4.453   1.497  10.320  0.9970 -0.2217  1.0452
  123MPD2    H3 1882   4.676   1.459  10.380 -0.2606  0.0512  1.2923
  123MPD2     N 1883   0.117   1.770  10.091 -0.0319  0.4336 -0.4259
  123MPD2    H5 1884   0.078   1.833  10.022 -1.4377  1.1723  1.0343
  123MPD2    N1 1885   4.358   1.699  10.169 -0.0360  0.7336 -0.3809
  123MPD2    H7 1886   4.287   1.646  10.219  0.2993  1.1010  0.4932
  124TCq2    C1 1887   0.251   1.771  10.112 -0.3070 -0.1495  0.2862
  124TCq2    O2 1888   0.321   1.710  10.194 -0.0281 -0.0042 -0.0422
  124TCq2    C2 1889   0.310   1.884  10.040 -0.3955 -0.3733  0.2698
  124TCq2    C3 1890   0.419   1.938  10.102 -0.2641  0.5097  1.2307
  124TCq2    C4 1891   0.468   2.055  10.058  0.2301  0.5009  0.7109
  124TCq2    C5 1892   0.401   2.120   9.961  0.1936 -0.1240 -0.4527
  124TCq2    C6 1893   0.290   2.063   9.904 -0.6977  0.2738  0.0241
  124TCq2    C7 1894   0.246   1.937   9.931 -0.2042  0.9803 -0.1794
  124TCq2    C8 1895   0.219   2.133   9.807  0.0786  0.8560 -0.1290
  124TCq2    O4 1896   0.132   2.063   9.755  0.3248 -0.4829  0.1707
  124TCq2    C9 1897   0.580   2.118  10.129 -0.8803 -0.2467  1.2341
  124TCq2    O5 1898   0.596   2.243  10.101 -0.2606 -0.3786 -1.0343
  124TCq2    O6 1899   0.623   2.053  10.229  0.0229  0.0163  0.3698
  124TCq2    H2 1900   0.447   1.892  10.197 -2.5945 -2.2312  0.6006
  124TCq2    H3 1901   0.439   2.218   9.935  2.4769 -0.9306 -0.1897
  124TCq2    H4 1902   0.163   1.890   9.878  0.0275  2.1305 -1.5731
  125TMC2    C1 1903   1.139   0.164   9.215  0.5454  0.7361  0.1654
  125TMC2    C2 1904   1.021   0.140   9.151 -0.4046  0.6034 -0.6761
  125TMC2    C3 1905   0.957   0.019   9.180 -0.0608 -0.5643  0.2098
  125TMC2    C4 1906   1.176   0.087   9.325 -0.6153 -0.0240  0.4692
  125TMC2    C5 1907   1.106   4.692   9.350 -0.2331  0.1329 -0.5043
  125TMC2    C6 1908   0.994   4.663   9.283 -0.2076  0.7414  0.1596
  125TMC2     C 1909   1.244   0.250   9.156 -0.3285  0.1684  0.3824
  125TMC2     O 1910   1.334   0.277   9.233 -0.6092 -0.1214 -0.3883
  125TMC2     H 1911   0.987   0.195   9.064  0.3764 -1.4545 -2.2853
  125TMC2    H1 1912   1.258   0.118   9.388  0.9816 -1.4927 -0.9246
  125TMC2    H2 1913   0.955   4.564   9.305 -1.0275  0.9435 -0.4225
  125TMC2    C7 1914   1.139   4.612   9.461  0.1495  0.0582  0.2982
  125TMC2    C8 1915   0.824   4.714   9.117 -0.8050 -0.4523  0.0551
  125TMC2    O1 1916   1.040   4.561   9.516 -0.1295 -0.1508 -0.2596
  125TMC2    O2 1917   0.792   0.036   9.007 -0.6366  0.6037  0.1068
  125TMC2    O5 1918   0.743   4.677   9.216  0.3210 -0.5883 -0.3188
  125TMC2    H5 1919   0.773   4.689   9.309  3.0657 -0.5132 -1.2100
  126MPD1     C 1920   1.436   0.572   8.791 -0.4689  0.2355 -1.1202
  126MPD1    C1 1921   1.305   0.534   8.763 -0.1518 -0.7329  0.3536
  126MPD1    C2 1922   1.240   0.446   8.842  0.4007  0.2908  0.0502
  126MPD1    C3 1923   1.294   0.393   8.956 -0.2948 -0.8506  0.7175
  126MPD1    C4 1924   1.423   0.432   8.995 -0.8822 -0.2238  0.3389
  126MPD1    C5 1925   1.498   0.510   8.903  0.7320 -0.7392  0.1258
  126MPD1     H 1926   1.147   0.400   8.811  0.6301 -1.0703  1.3935
  126MPD1    H1 1927   1.470   0.391   9.084 -0.6447  1.5205  1.0203
  126MPD1    H2 1928   1.493   0.634   8.723  1.1576 -1.0194 -0.8814
  126MPD1    H3 1929   1.602   0.533   8.925  0.8562 -1.8972  0.7745
  126MPD1     N 1930   1.218   0.291   9.022 -0.3581  0.7572 -0.2144
  126MPD1    H5 1931   1.127   0.276   8.980  0.9905 -0.2907 -2.7117
  126MPD1    N1 1932   1.249   0.577   8.643  0.2125 -0.2795 -0.7365
  126MPD1    H6 1933   1.281   0.671   8.623  0.5902 -0.1084  0.6413
  126MPD1    H7 1934   1.147   0.575   8.651  0.1495 -1.0070 -1.8454
  127MPD2     C 1935   2.127   3.214   9.682  0.2073 -0.4619 -0.2634
  127MPD2    C1 1936   2.157   3.147   9.797  0.4743 -0.8981  0.6971
  127MPD2    C2 1937   2.235   3.214   9.887  0.3921  0.8230  0.3035
  127MPD2    C3 1938   2.280   3.344   9.866 -0.7442  0.1546  0.5048
  127MPD2    C4 1939   2.253   3.406   9.747 -0.0380  0.2777  0.2698
  127MPD2    C5 1940   2.178   3.336   9.658 -0.1318 -0.1117  0.5512
  127MPD2     H 1941   2.272   3.165   9.976 -0.1147 -0.6378 -0.2928
  127MPD2    H1 1942   2.283   3.507   9.722 -0.3739  0.1945 -0.4710
  127MPD2    H2 1943   2.079   3.159   9.601  1.1881  2.2548 -2.6984
  127MPD2    H3 1944   2.136   3.387   9.573 -2.1390  1.4740  2.4904
  127MPD2     N 1945   2.348   3.404   9.981  0.1027  0.4934 -0.2592
  127MPD2    H5 1946   2.358   3.352  10.067 -1.8388 -0.8119 -0.8237
  127MPD2    N1 1947   2.118   3.012   9.805 -0.5401  0.4388  0.3339
  127MPD2    H7 1948   2.069   2.977   9.723 -1.3856 -0.6166  1.2819
  128TCq2    C1 1949   2.145   2.920   9.909  0.4076 -0.6585 -0.3602
  128TCq2    O2 1950   2.206   2.939  10.014 -0.0679  0.0729  0.5375
  128TCq2    C2 1951   2.057   2.804   9.910 -0.7895 -0.5526 -0.6721
  128TCq2    C3 1952   2.077   2.720  10.019 -0.9694  0.0218  0.0770
  128TCq2    C4 1953   1.975   2.636  10.059  0.1318  0.0592 -0.9345
  128TCq2    C5 1954   1.862   2.624   9.986 -0.1720 -0.0655 -0.3249
  128TCq2    C6 1955   1.849   2.706   9.874  0.3996  0.1056 -0.4268
  128TCq2    C7 1956   1.947   2.795   9.829 -0.1796 -0.4030 -0.2065
  128TCq2    C8 1957   1.739   2.692   9.785  0.4995 -0.2286 -0.0932
  128TCq2    O4 1958   1.724   2.787   9.706 -0.0950  0.3223 -0.4778
  128TCq2    C9 1959   1.999   2.560  10.176  0.6793 -0.7009 -0.4214
  128TCq2    O5 1960   2.108   2.574  10.238 -0.3411 -0.3313 -0.8114
  128TCq2    O6 1961   1.901   2.487  10.216 -0.6469  0.4307  0.6737
  128TCq2    H2 1962   2.169   2.720  10.076 -0.4393 -1.0739 -0.7802
  128TCq2    H3 1963   1.788   2.554  10.024 -1.2460  1.8365  1.0673
  128TCq2    H4 1964   1.923   2.880   9.765 -0.1757  0.7773  1.3410
  129MPD2     C 1965   4.179   4.187   1.340  0.3481 -0.0584  0.6012
  129MPD2    C1 1966   4.295   4.211   1.409 -0.3800  0.4053 -0.1280
  129MPD2    C2 1967   4.387   4.278   1.337  0.1731  0.3587 -0.3806
  129MPD2    C3 1968   4.377   4.305   1.205 -0.3258 -0.1321 -0.0436
  129MPD2    C4 1969   4.255   4.286   1.144 -0.2913 -1.1089 -0.1197
  129MPD2    C5 1970   4.156   4.236   1.218  0.6919 -0.0074  0.3697
  129MPD2     H 1971   4.488   4.293   1.371 -0.4107  1.5366  0.8501
  129MPD2    H1 1972   4.247   4.302   1.037 -3.9233  0.2534  0.3811
  129MPD2    H2 1973   4.096   4.145   1.395  0.8880  2.2375  3.1723
  129MPD2    H3 1974   4.059   4.223   1.170  1.2261  1.0661 -0.9929
  129MPD2     N 1975   4.490   4.361   1.148  0.0341 -0.0020  0.0693
  129MPD2    H5 1976   4.563   4.396   1.208  1.8358 -0.9431 -1.5830
  129MPD2    N1 1977   4.311   4.172   1.538 -0.2462  0.4898 -0.2440
  129MPD2    H7 1978   4.389   4.213   1.589  0.3675  0.5128 -1.1926
  130TCq2    C1 1979   4.236   4.073   1.603  0.3526  0.0109  0.2456
  130TCq2    O2 1980   4.136   4.011   1.565 -0.0535  0.4389  0.7665
  130TCq2    C2 1981   4.286   4.030   1.731  0.4092  0.0333 -0.4939
  130TCq2    C3 1982   4.412   4.076   1.777 -0.3645  0.0439 -0.6914
  130TCq2    C4 1983   4.479   4.001   1.869  0.8015  0.4833 -1.0530
  130TCq2    C5 1984   4.428   3.887   1.925 -0.3120  0.3140  0.5477
  130TCq2    C6 1985   4.301   3.855   1.887  0.1308 -0.7874  0.5665
  130TCq2    C7 1986   4.231   3.921   1.787 -0.2315  0.5866 -0.2535
  130TCq2    C8 1987   4.248   3.723   1.921  0.5602  1.2476  0.5953
  130TCq2    O4 1988   4.134   3.691   1.881 -0.3383 -0.3509 -0.6520
  130TCq2    C9 1989   4.619   4.023   1.886 -0.3853  0.2212 -0.8170
  130TCq2    O5 1990   4.674   4.127   1.839  0.6555 -0.1873 -0.1871
  130TCq2    O6 1991   4.679   3.919   1.932  0.0142  0.0400  0.4834
  130TCq2    H2 1992   4.457   4.164   1.733 -1.3863  0.1625 -1.5070
  130TCq2    H3 1993   4.484   3.839   2.005 -1.6191  1.5550  2.1936
  130TCq2    H4 1994   4.134   3.888   1.752  0.4442 -0.0978 -1.4494
  131MPD2     C 1995   4.043   2.550   9.740  0.9211 -0.0889 -0.3875
  131MPD2    C1 1996   4.141   2.513   9.819  0.1515 -0.2667  0.4532
  131MPD2    C2 1997   4.134   2.382   9.875 -0.3940 -1.0771  0.0010
  131MPD2    C3 1998   4.038   2.293   9.846 -0.0648  0.3090  0.0093
  131MPD2    C4 1999   3.937   2.333   9.759  0.7895 -0.4772 -0.4147
  131MPD2    C5 2000   3.938   2.465   9.723 -0.3894  0.3993 -0.1572
  131MPD2     H 2001   4.211   2.342   9.939 -0.8198 -0.7869  0.6971
  131MPD2    H1 2002   3.847   2.277   9.736  0.6653 -1.0079  1.3786
  131MPD2    H2 2003   4.037   2.649   9.695  0.7016  0.7864  1.5232
  131MPD2    H3 2004   3.852   2.496   9.664  0.2800  1.5888 -0.5191
  131MPD2     N 2005   4.040   2.171   9.916 -0.1478 -0.3678 -0.4723
  131MPD2    H5 2006   4.123   2.150   9.970 -0.4249  0.8673  0.4236
  131MPD2    N1 2007   4.255   2.595   9.836 -0.2603 -0.0733  0.4770
  131MPD2    H7 2008   4.262   2.688   9.796  3.0135 -1.2141 -1.6225
  132TCq2    C1 2009   0.063   2.730  10.072 -0.0744  0.5917 -0.0069
  132TCq2    O2 2010   0.071   2.618  10.130  0.1152 -0.5182  0.1795
  132TCq2    C2 2011   4.678   2.742   9.972 -0.2250 -0.0807  0.2661
  132TCq2    C3 2012   4.681   2.843   9.887 -0.0897  0.5123 -0.5446
  132TCq2    C4 2013   4.575   2.848   9.799 -0.9566 -0.4702 -0.0756
  132TCq2    C5 2014   4.463   2.770   9.798  1.1553 -0.6218 -0.1648
  132TCq2    C6 2015   4.466   2.672   9.896 -0.5718  0.1971 -0.1926
  132TCq2    C7 2016   4.577   2.651   9.974 -0.1880 -0.0858 -0.1120
  132TCq2    C8 2017   4.366   2.569   9.906  0.8707 -0.2118  0.4037
  132TCq2    O4 2018   4.398   2.468   9.969  0.1305  0.0870 -0.3380
  132TCq2    C9 2019   4.566   2.953   9.697  0.2986  0.3865  0.3647
  132TCq2    O5 2020   4.670   3.021   9.673 -0.2610  0.0273  0.4959
  132TCq2    O6 2021   4.449   2.981   9.652 -0.0942  0.8024 -0.3145
  132TCq2    H2 2022   0.045   2.904   9.861 -0.1344  1.1168  0.7548
  132TCq2    H3 2023   4.380   2.784   9.731  1.1051  0.8707  0.2167
  132TCq2    H4 2024   4.588   2.569  10.044 -0.2890 -0.0239 -0.0236
  133MPD2     C 2025   2.450   2.125   9.745 -0.3308 -0.4525  0.4889
  133MPD2    C1 2026   2.421   2.227   9.651 -0.4156  0.0539 -0.8368
  133MPD2    C2 2027   2.494   2.348   9.649 -0.3016 -0.0592 -0.7062
  133MPD2    C3 2028   2.602   2.362   9.738 -0.0307 -0.1508 -0.6251
  133MPD2    C4 2029   2.625   2.259   9.826 -0.3812  0.5950  0.2817
  133MPD2    C5 2030   2.553   2.145   9.829  0.4289 -0.7470  0.0068
  133MPD2     H 2031   2.460   2.435   9.595  0.3884  1.3132  1.0822
  133MPD2    H1 2032   2.709   2.275   9.892 -2.4122  2.4612  2.4425
  133MPD2    H2 2033   2.398   2.030   9.753  0.9399 -1.2339 -0.3879
  133MPD2    H3 2034   2.567   2.060   9.894  0.9009  0.3485  1.3606
  133MPD2     N 2035   2.678   2.479   9.750 -0.4469  0.3175 -0.0575
  133MPD2    H5 2036   2.731   2.489   9.836 -0.2175  1.5012 -0.3402
  133MPD2    N1 2037   2.307   2.203   9.576 -0.3683 -0.2729  0.2811
  133MPD2    H7 2038   2.263   2.114   9.599  0.4594 -0.6979  0.1942
  134TCq2    C1 2039   2.268   2.278   9.467  0.0778 -0.2985  0.5745
  134TCq2    O2 2040   2.334   2.351   9.404 -0.4327 -0.1027  0.5102
  134TCq2    C2 2041   2.142   2.234   9.404  0.4341 -0.4514  0.1348
  134TCq2    C3 2042   2.053   2.158   9.483  0.0762 -0.5753  0.7254
  134TCq2    C4 2043   1.933   2.108   9.425 -0.7103  0.6341  0.7462
  134TCq2    C5 2044   1.893   2.160   9.303  0.1674  0.3940 -0.0344
  134TCq2    C6 2045   1.985   2.236   9.226 -0.6000  0.3775 -0.8323
  134TCq2    C7 2046   2.110   2.272   9.276 -0.1285  0.9004  0.4830
  134TCq2    C8 2047   1.930   2.309   9.103 -0.4758 -0.3434  0.2131
  134TCq2    O4 2048   1.815   2.285   9.067  0.1751 -0.4235  0.2222
  134TCq2    C9 2049   1.850   2.030   9.510  0.1168 -0.1084 -0.1576
  134TCq2    O5 2050   1.867   2.019   9.633  0.1903 -0.2543  0.1140
  134TCq2    O6 2051   1.765   1.962   9.448  0.3099  0.1831  0.1329
  134TCq2    H2 2052   2.066   2.145   9.590  0.0903 -0.7848  0.6973
  134TCq2    H3 2053   1.797   2.129   9.263  0.3882  1.5037 -1.4183
  134TCq2    H4 2054   2.189   2.302   9.208 -0.8441  0.8751 -0.3671
  135MPD2     C 2055   1.055   0.208   9.666  0.4796 -0.1372 -0.2542
  135MPD2    C1 2056   1.155   0.145   9.742  1.5314 -0.7287  0.1054
  135MPD2    C2 2057   1.287   0.171   9.703  0.4090  0.2329  0.0073
  135MPD2    C3 2058   1.327   0.265   9.610  0.4159  0.1580 -0.0119
  135MPD2    C4 2059   1.226   0.319   9.536 -0.3825 -0.9882 -0.8348
  135MPD2    C5 2060   1.094   0.291   9.562 -0.1887  0.5313 -0.1625
  135MPD2     H 2061   1.370   0.122   9.753 -1.1526 -1.4094  0.9695
  135MPD2    H1 2062   1.250   0.386   9.454 -2.4885 -0.5587 -1.0911
  135MPD2    H2 2063   0.949   0.194   9.684 -0.1433  0.5001 -3.3220
  135MPD2    H3 2064   1.019   0.328   9.493 -0.1938 -2.0698 -1.5302
  135MPD2     N 2065   1.459   0.292   9.568  0.0847 -0.7270 -0.0812
  135MPD2    H5 2066   1.475   0.348   9.484 -1.0659 -0.4833 -0.1422
  135MPD2    N1 2067   1.130   0.050   9.843  0.4462 -0.6563  0.4089
  135MPD2    H7 2068   1.209   0.018   9.899  0.7881 -0.5308 -0.0036
  136TCq2    C1 2069   1.014   4.695   9.852 -0.0047 -0.0908  0.2494
  136TCq2    O2 2070   0.924   4.683   9.768 -0.3734 -0.3147 -0.2817
  136TCq2    C2 2071   1.023   4.588   9.945  0.3947  0.1866 -0.7165
  136TCq2    C3 2072   0.981   4.466   9.906  0.1198 -0.0994 -0.3927
  136TCq2    C4 2073   1.026   4.350   9.967  0.1613 -0.5826 -0.3304
  136TCq2    C5 2074   1.109   4.358  10.077  0.0803 -0.5170  0.3442
  136TCq2    C6 2075   1.140   4.487  10.119  0.0278 -0.0299 -0.4953
  136TCq2    C7 2076   1.117   4.595  10.044  0.1341  0.3549 -0.1163
  136TCq2    C8 2077   1.211   4.511  10.242 -0.4165 -0.3060 -0.3533
  136TCq2    O4 2078   1.179   4.612  10.306 -0.0415  0.3800 -0.1441
  136TCq2    C9 2079   0.969   4.216   9.930 -0.6951  0.2983 -0.1677
  136TCq2    O5 2080   1.037   4.114   9.961 -0.4116  0.7231  0.1594
  136TCq2    O6 2081   0.860   4.228   9.866  0.1597  0.0192  0.3747
  136TCq2    H2 2082   0.914   4.448   9.823  1.2593  0.5176 -1.4425
  136TCq2    H3 2083   1.151   4.273  10.128  2.2876  0.7787  0.6857
  136TCq2    H4 2084   1.153   4.686  10.089  1.3464 -0.0176 -0.3286
  137MPD2     C 2085   1.204   3.448   9.153  0.1961 -0.2241  0.2771
  137MPD2    C1 2086   1.202   3.570   9.220 -0.1818  1.0580 -0.6207
  137MPD2    C2 2087   1.245   3.568   9.354 -0.0355  0.0149 -0.2573
  137MPD2    C3 2088   1.288   3.448   9.414  0.1907  0.7784  0.5147
  137MPD2    C4 2089   1.283   3.327   9.343  0.0352 -0.0079 -0.1030
  137MPD2    C5 2090   1.240   3.330   9.214  0.2282  0.4071 -0.1098
  137MPD2     H 2091   1.249   3.654   9.420 -0.3521  0.2104 -0.4939
  137MPD2    H1 2092   1.315   3.232   9.384  1.7258  0.7047  0.2691
  137MPD2    H2 2093   1.169   3.443   9.051 -1.5658 -0.1289  0.8748
  137MPD2    H3 2094   1.238   3.236   9.160  3.1103  0.4718 -0.3280
  137MPD2     N 2095   1.330   3.463   9.546  0.3628  0.3772 -0.1107
  137MPD2    H5 2096   1.321   3.559   9.578 -1.3346  0.3001 -0.3460
  137MPD2    N1 2097   1.146   3.683   9.161  0.3481  0.7560  0.5041
  137MPD2    H7 2098   1.120   3.669   9.064  1.8358  1.8399 -0.0721
  138TCq2    C1 2099   1.116   3.795   9.227  0.2111 -0.0678 -0.5300
  138TCq2    O2 2100   1.149   3.836   9.338 -0.5413 -0.8603 -0.2975
  138TCq2    C2 2101   0.993   3.858   9.176 -0.2376 -0.7147  0.2774
  138TCq2    C3 2102   0.978   3.890   9.045  0.1163  0.6152 -0.0830
  138TCq2    C4 2103   0.870   3.970   9.011  0.2110 -0.0954  0.4195
  138TCq2    C5 2104   0.769   3.995   9.105 -0.5498 -0.4087  0.4236
  138TCq2    C6 2105   0.784   3.953   9.236  0.0947 -1.0321 -1.0762
  138TCq2    C7 2106   0.905   3.908   9.275  0.4839 -0.0226 -0.4949
  138TCq2    C8 2107   0.696   4.011   9.337  0.6978 -0.5348  0.1935
  138TCq2    O4 2108   0.623   4.108   9.311 -0.4445 -0.3546 -0.4348
  138TCq2    C9 2109   0.857   4.019   8.880  0.0076 -0.3438 -0.5286
  138TCq2    O5 2110   0.746   4.076   8.859 -0.4894  0.0615 -0.0836
  138TCq2    O6 2111   0.932   3.959   8.796  0.1385 -0.2418  0.2980
  138TCq2    H2 2112   1.060   3.877   8.975  1.3688  1.3884  1.2512
  138TCq2    H3 2113   0.680   4.043   9.066  0.0447  0.2300 -0.1405
  138TCq2    H4 2114   0.927   3.909   9.381 -0.9888 -0.5442 -0.1793
  139TMC2    C1 2115   1.451   2.192  13.658 -0.2674 -0.3966  0.5204
  139TMC2    C2 2116   1.553   2.281  13.623 -0.0667 -0.2010  0.6452
  139TMC2    C3 2117   1.527   2.410  13.588  0.2023  0.7031 -0.0266
  139TMC2    C4 2118   1.320   2.231  13.673 -0.6863 -0.8204 -1.0041
  139TMC2    C5 2119   1.300   2.368  13.636  0.1885  0.6018 -0.0367
  139TMC2    C6 2120   1.397   2.458  13.580  0.2963 -0.8508 -0.2819
  139TMC2     C 2121   1.478   2.054  13.626  0.5518 -0.3456  0.1980
  139TMC2     O 2122   1.595   2.026  13.608  0.6557  0.5971  0.0660
  139TMC2     H 2123   1.657   2.248  13.620 -0.2257 -0.4570 -2.2772
  139TMC2    H1 2124   1.235   2.172  13.705  0.8078 -2.6609 -0.4502
  139TMC2    H2 2125   1.369   2.559  13.554  1.4937 -0.4548 -0.0596
  139TMC2    C7 2126   1.169   2.427  13.628 -0.0661 -0.0023 -0.0413
  139TMC2    C8 2127   1.634   2.472  13.511  0.1100 -0.1447 -0.5071
  139TMC2    O1 2128   1.154   2.546  13.601 -0.6214  0.0795 -0.2952
  139TMC2    O2 2129   1.750   2.456  13.557 -0.2834 -0.1054 -0.3041
  139TMC2    O5 2130   1.596   2.472  13.384  0.4239  0.0119  0.6835
  139TMC2    H5 2131   1.502   2.449  13.368  0.3723  0.3575  0.5015
  140MPD2     C 2132   1.255   1.765  13.638 -0.1361 -0.1753  0.2449
  140MPD2    C1 2133   1.376   1.832  13.616 -0.3846 -0.3745 -0.0084
  140MPD2    C2 2134   1.490   1.766  13.584  0.6664 -0.2911 -0.0083
  140MPD2    C3 2135   1.484   1.627  13.579  0.0258  0.0567  0.0611
  140MPD2    C4 2136   1.366   1.561  13.606  0.6527 -0.1832  0.1678
  140MPD2    C5 2137   1.249   1.631  13.633 -0.9696 -1.1191 -0.1381
  140MPD2     H 2138   1.585   1.816  13.575  0.6746 -0.1442  0.8520
  140MPD2    H1 2139   1.362   1.453  13.610  1.7614 -0.2793 -1.5272
  140MPD2    H2 2140   1.171   1.823  13.674 -0.9526 -0.4521 -1.2109
  140MPD2    H3 2141   1.160   1.576  13.663 -0.3947 -0.9056  1.9521
  140MPD2     N 2142   1.608   1.564  13.543 -0.2787 -0.9440 -0.1297
  140MPD2    H5 2143   1.682   1.626  13.512  0.0551 -1.2159  0.1116
  140MPD2    N1 2144   1.371   1.974  13.622 -0.0149 -0.4929 -0.2277
  140MPD2    H7 2145   1.280   2.017  13.638  0.8714  1.8376 -1.3536
  141TCq2    C1 2146   1.770   3.505  14.683 -0.4825 -0.1749 -0.1127
  141TCq2    O2 2147   1.713   3.602  14.624 -0.0853  0.3118 -0.6150
  141TCq2    C2 2148   1.876   3.544  14.771  0.2949 -0.2698 -0.4264
  141TCq2    C3 2149   1.938   3.450  14.853 -0.0189 -0.4352  0.0517
  141TCq2    C4 2150   2.041   3.501  14.923  1.1434  0.6463  0.0017
  141TCq2    C5 2151   2.085   3.628  14.912 -0.2545  0.0754 -0.7393
  141TCq2    C6 2152   2.029   3.713  14.828 -0.4528 -0.5742  0.7991
  141TCq2    C7 2153   1.914   3.680  14.762 -0.0785 -0.2386  1.3926
  141TCq2    C8 2154   2.105   3.833  14.787 -0.2358  0.5571 -0.2989
  141TCq2    O4 2155   2.079   3.886  14.680  0.0618  0.7456  0.5098
  141TCq2    C9 2156   2.110   3.418  15.016 -0.3802  0.4654 -0.3354
  141TCq2    O5 2157   2.196   3.476  15.092 -0.0100  0.3798 -0.2174
  141TCq2    O6 2158   2.095   3.288  14.995 -0.4201  0.2283  0.4330
  141TCq2    H2 2159   1.910   3.347  14.872 -0.1160 -0.7647 -1.9495
  141TCq2    H3 2160   2.175   3.650  14.967 -1.4939 -1.1716  1.7792
  141TCq2    H4 2161   1.882   3.751  14.688  2.0422  0.8817  1.5543
  142MPD2     C 2162   4.196   1.425   9.839  0.1515  0.5444  0.1878
  142MPD2    C1 2163   4.078   1.486   9.805 -0.0686  0.1445 -0.4738
  142MPD2    C2 2164   4.080   1.615   9.759  0.3977 -0.1098  0.0586
  142MPD2    C3 2165   4.202   1.685   9.743  0.4721 -0.2378 -0.6226
  142MPD2    C4 2166   4.313   1.610   9.759 -0.2484  0.6647  0.0919
  142MPD2    C5 2167   4.313   1.488   9.805 -0.4807  0.2133  0.1092
  142MPD2     H 2168   3.988   1.669   9.738 -0.0896 -0.5171  1.1339
  142MPD2    H1 2169   4.411   1.658   9.753  0.0966 -0.3589 -2.3680
  142MPD2    H2 2170   4.192   1.320   9.863  3.1828  0.6185  0.9740
  142MPD2    H3 2171   4.405   1.434   9.823 -1.2543 -1.1002  0.1826
  142MPD2     N 2172   4.218   1.816   9.701  0.4837  0.7701  0.5611
  142MPD2    H5 2173   4.310   1.859   9.702  0.9013 -0.1131 -0.2628
  142MPD2    N1 2174   3.954   1.416   9.828  0.4555  0.4010 -0.1168
  142MPD2    H7 2175   3.966   1.330   9.881 -2.0232 -1.2336 -2.2323
  143TCq2    C1 2176   4.113   1.895   9.663 -0.2209  0.2574 -0.6254
  143TCq2    O2 2177   3.996   1.864   9.631 -0.1920 -0.0473  0.2608
  143TCq2    C2 2178   4.163   2.026   9.619  0.1497 -0.3193  0.5486
  143TCq2    C3 2179   4.090   2.093   9.522  0.0351  0.2122  0.5665
  143TCq2    C4 2180   4.135   2.221   9.482  0.0847  0.4076 -0.8927
  143TCq2    C5 2181   4.255   2.266   9.524 -0.2268  0.2988 -0.1381
  143TCq2    C6 2182   4.323   2.198   9.626  0.1943 -0.2114  0.4499
  143TCq2    C7 2183   4.283   2.076   9.674 -0.2735 -0.0263 -0.5228
  143TCq2    C8 2184   4.467   2.221   9.658 -0.1388 -0.3569 -0.0259
  143TCq2    O4 2185   4.526   2.125   9.706  0.2312 -0.5882 -0.2381
  143TCq2    C9 2186   4.052   2.289   9.389  0.2378  0.2938  0.9038
  143TCq2    O5 2187   3.950   2.227   9.352 -0.0612  0.2860 -0.4112
  143TCq2    O6 2188   4.093   2.400   9.344 -0.3999 -0.0082  0.2678
  143TCq2    H2 2189   3.991   2.059   9.495  1.9799 -1.5314 -4.4570
  143TCq2    H3 2190   4.293   2.355   9.474  0.1811 -0.2660 -0.8316
  143TCq2    H4 2191   4.320   2.030   9.765 -1.5526  1.0518  0.5328
  144MPD2     C 2192   2.121   1.021   1.078  0.3794  0.2504 -0.8831
  144MPD2    C1 2193   2.162   0.954   0.966 -0.3701  0.1816 -0.6095
  144MPD2    C2 2194   2.301   0.937   0.949  0.1403 -0.0599 -0.0343
  144MPD2    C3 2195   2.390   0.993   1.033  0.4442  0.3955  0.1134
  144MPD2    C4 2196   2.343   1.063   1.143  0.3395 -0.3717 -0.6074
  144MPD2    C5 2197   2.210   1.079   1.165 -0.7563  0.5400 -0.1818
  144MPD2     H 2198   2.326   0.899   0.850 -0.7407  1.8750 -0.9790
  144MPD2    H1 2199   2.413   1.111   1.211  0.7950  0.6264 -1.7990
  144MPD2    H2 2200   2.017   1.045   1.095  1.5555  3.4460  1.8204
  144MPD2    H3 2201   2.168   1.138   1.245 -0.2840  1.5689 -0.6798
  144MPD2     N 2202   2.530   0.993   1.013  0.1929  0.4713 -0.0713
  144MPD2    H5 2203   2.585   1.060   1.066 -1.1448  0.1776  1.6974
  144MPD2    N1 2204   2.072   0.909   0.867 -0.1852  0.2065  0.1730
  144MPD2    H7 2205   2.124   0.876   0.785  1.7003  1.2414  0.9518
  145TCq2    C1 2206   2.593   0.913   0.920  0.1926 -0.4645 -0.5033
  145TCq2    O2 2207   2.548   0.852   0.826 -0.1759  0.1284 -0.0647
  145TCq2    C2 2208   2.736   0.947   0.919  0.2131 -0.4406 -0.3714
  145TCq2    C3 2209   2.801   0.922   0.799 -0.1085  0.5467  0.1937
  145TCq2    C4 2210   2.924   0.967   0.796  0.2926 -0.0763  0.4065
  145TCq2    C5 2211   2.995   1.021   0.901 -0.3601  0.4150  0.7789
  145TCq2    C6 2212   2.932   1.038   1.018  0.5422  0.3315  0.1727
  145TCq2    C7 2213   2.800   1.010   1.026  1.2170 -0.3173  0.5192
  145TCq2    C8 2214   3.009   1.064   1.143  0.5183  0.5720 -0.2150
  145TCq2    O4 2215   3.129   1.062   1.134  0.0370  0.2476 -0.2374
  145TCq2    C9 2216   3.001   0.937   0.686 -0.8916 -0.0203 -0.6794
  145TCq2    O5 2217   2.960   0.842   0.607 -0.6448  0.4127 -0.0728
  145TCq2    O6 2218   3.120   0.966   0.683  0.3768  0.2104 -0.4103
  145TCq2    H2 2219   2.762   0.891   0.703  0.3929 -1.0218  0.4899
  145TCq2    H3 2220   3.100   1.046   0.888 -0.3697  0.2490  0.3788
  145TCq2    H4 2221   2.758   0.994   1.125 -0.9778  4.2759  0.3047
  146TMC2    C1 2222   3.079   4.501  12.734  0.4297  0.4589  0.7112
  146TMC2    C2 2223   2.997   4.571  12.644 -0.4390  0.0607  0.1756
  146TMC2    C3 2224   3.005   4.534  12.514 -0.2664 -0.2103  0.3121
  146TMC2    C4 2225   3.172   4.403  12.694  1.2245  0.3181  0.2971
  146TMC2    C5 2226   3.171   4.374  12.560 -0.0695 -0.8218 -0.1018
  146TMC2    C6 2227   3.088   4.435  12.468  0.3167  0.3481 -0.0296
  146TMC2     C 2228   3.069   4.543  12.877 -0.0169  0.0583 -0.4142
  146TMC2     O 2229   3.001   4.646  12.896  0.2811  0.0491 -0.0936
  146TMC2     H 2230   2.936   4.654  12.677 -2.4925 -0.9858 -0.9861
  146TMC2    H1 2231   3.248   4.360  12.758  1.9197  1.0950  0.0011
  146TMC2    H2 2232   3.090   4.420  12.361 -0.8197  2.3428 -0.3453
  146TMC2    C7 2233   3.278   4.294  12.502 -0.1604 -0.2847  0.3930
  146TMC2    C8 2234   2.948   4.622  12.418 -0.4528 -0.7614  0.3113
  146TMC2    O1 2235   3.294   4.307  12.380 -0.3785 -1.1058 -0.4710
  146TMC2    O2 2236   3.015   4.665  12.327  0.3716 -0.1152  0.0365
  146TMC2    O5 2237   2.827   4.673  12.449  0.1705  0.2648 -0.1775
  146TMC2    H5 2238   2.784   4.642  12.532  0.9460 -0.9755 -0.2307
  147MPD2     C 2239   3.700   3.984  12.516 -0.1697  0.2030 -0.8795
  147MPD2    C1 2240   3.637   3.981  12.637 -0.4989  0.2743  0.0751
  147MPD2    C2 2241   3.523   4.057  12.661  0.0609  0.1592 -0.8311
  147MPD2    C3 2242   3.464   4.128  12.561 -0.0546  0.1118 -0.0156
  147MPD2    C4 2243   3.523   4.130  12.440  0.5538 -0.1830  0.0566
  147MPD2    C5 2244   3.640   4.059  12.419  0.4774 -0.2554  0.0979
  147MPD2     H 2245   3.470   4.050  12.755  2.0741 -2.2061  0.1292
  147MPD2    H1 2246   3.494   4.192  12.356  3.0027  0.4542 -0.3196
  147MPD2    H2 2247   3.787   3.923  12.496 -0.6185  0.0393 -2.3342
  147MPD2    H3 2248   3.693   4.074  12.325 -0.6476  0.5718 -0.3955
  147MPD2     N 2249   3.344   4.200  12.586 -1.0653  0.4746 -0.2776
  147MPD2    H5 2250   3.301   4.190  12.677  2.9139 -1.7702  1.3663
  147MPD2    N1 2251   3.696   3.894  12.728 -0.1461 -0.0931 -0.2324
  147MPD2    H7 2252   3.784   3.853  12.699 -0.4248  0.0458 -1.2743
  148MPD2     C 2253   4.346   1.687  10.779 -0.4344  0.2901 -0.0865
  148MPD2    C1 2254   4.330   1.794  10.690  0.3655 -0.6231  0.0052
  148MPD2    C2 2255   4.220   1.877  10.688 -0.4851  0.7982  0.0863
  148MPD2    C3 2256   4.131   1.864  10.793  0.5295  0.1784  0.2111
  148MPD2    C4 2257   4.138   1.748  10.871 -0.2359 -0.6700 -1.1847
  148MPD2    C5 2258   4.238   1.659  10.861 -0.4965  0.2862 -0.2914
  148MPD2     H 2259   4.215   1.958  10.616  0.5962  1.7192  1.0689
  148MPD2    H1 2260   4.050   1.724  10.930  1.0874  2.4581  2.1205
  148MPD2    H2 2261   4.433   1.623  10.781  0.9652  2.1586 -1.6322
  148MPD2    H3 2262   4.244   1.571  10.924 -0.1197 -0.5657 -1.5069
  148MPD2     N 2263   4.014   1.945  10.807 -0.6195 -0.5822  0.2172
  148MPD2    H5 2264   3.957   1.924  10.888  2.2102 -0.9437  2.0849
  148MPD2    N1 2265   4.442   1.829  10.609 -0.1523 -0.4801  0.1678
  148MPD2    H7 2266   4.421   1.909  10.551  2.3927 -1.6925 -2.4333
  149TCq2    C1 2267   4.564   1.764  10.599 -0.3603  0.7670  0.2434
  149TCq2    O2 2268   4.608   1.670  10.663 -0.1267 -0.2213 -0.2313
  149TCq2    C2 2269   4.658   1.830  10.506 -0.1803 -0.5576  0.0997
  149TCq2    C3 2270   0.060   1.870  10.553 -0.6533 -0.6217 -0.1555
  149TCq2    C4 2271   0.130   1.966  10.482 -0.1738  0.0259 -0.2924
  149TCq2    C5 2272   0.072   2.058  10.397  0.9289  0.2684  0.4764
  149TCq2    C6 2273   4.662   2.026  10.359  0.7242  0.3204 -0.3076
  149TCq2    C7 2274   4.602   1.907  10.403  0.0793 -0.2562 -0.2970
  149TCq2    C8 2275   4.574   2.134  10.322 -0.4824  0.1864 -0.5169
  149TCq2    O4 2276   4.463   2.095  10.293 -0.8106  0.1063 -0.3003
  149TCq2    C9 2277   0.267   1.997  10.536 -0.4163  0.8136  0.2854
  149TCq2    O5 2278   0.331   2.090  10.483 -0.5032  0.3323  0.2157
  149TCq2    O6 2279   0.304   1.932  10.637  0.6774 -0.3238 -0.0091
  149TCq2    H2 2280   0.112   1.814  10.630 -1.4065 -0.6227  0.3536
  149TCq2    H3 2281   0.137   2.134  10.355 -1.6615  1.7957 -0.7919
  149TCq2    H4 2282   4.503   1.879  10.369  0.7424 -3.2564  0.2785
  150MPD2     C 2283   0.916   1.851  12.073 -0.8321  0.2859 -0.1961
  150MPD2    C1 2284   0.898   1.942  11.972 -0.1703 -0.1009  0.4833
  150MPD2    C2 2285   0.937   2.070  11.993  0.6287  0.8062 -0.2665
  150MPD2    C3 2286   1.014   2.109  12.100 -0.0286  0.4790 -0.1625
  150MPD2    C4 2287   1.034   2.011  12.199  0.2691 -0.9729 -0.1534
  150MPD2    C5 2288   0.990   1.881  12.180  0.0427  0.2988 -0.1631
  150MPD2     H 2289   0.935   2.144  11.913 -0.3130  2.7774  1.5891
  150MPD2    H1 2290   1.088   2.030  12.291 -2.7415  2.1483  0.9518
  150MPD2    H2 2291   0.880   1.750  12.064  1.5829 -0.8074  2.3875
  150MPD2    H3 2292   0.988   1.805  12.257 -0.8674  0.4575 -0.0290
  150MPD2     N 2293   1.059   2.241  12.111  0.6782  0.2672  0.5129
  150MPD2    H5 2294   1.039   2.305  12.035  0.5775  2.8168  2.7008
  150MPD2    N1 2295   0.812   1.895  11.865 -0.0792  0.2359  0.0881
  150MPD2    H7 2296   0.787   1.797  11.872 -0.1668  0.1751 -1.1801
  151TCq2    C1 2297   1.143   2.295  12.212 -0.4419 -0.4378 -0.6986
  151TCq2    O2 2298   1.207   2.240  12.301 -0.0548 -0.1842  0.1910
  151TCq2    C2 2299   1.191   2.434  12.186  0.3619 -0.3094 -0.5303
  151TCq2    C3 2300   1.103   2.532  12.136 -0.5320  0.2037  0.4279
  151TCq2    C4 2301   1.125   2.665  12.158  0.8521 -0.5804  0.9351
  151TCq2    C5 2302   1.237   2.709  12.225 -0.0533  0.1239 -0.1703
  151TCq2    C6 2303   1.323   2.611  12.270 -0.0897 -0.1696  0.0585
  151TCq2    C7 2304   1.301   2.475  12.255 -0.0966  0.0649  0.7229
  151TCq2    C8 2305   1.428   2.660  12.351  0.4762 -0.3701  0.4599
  151TCq2    O4 2306   1.455   2.781  12.350 -0.1810 -0.4186  0.8005
  151TCq2    C9 2307   1.017   2.760  12.111 -0.4810 -0.3811 -0.2762
  151TCq2    O5 2308   1.041   2.881  12.134  0.1160 -0.1872 -0.2304
  151TCq2    O6 2309   0.906   2.717  12.079 -0.3722 -0.1842 -0.1625
  151TCq2    H2 2310   1.010   2.502  12.088  0.1625 -1.3720  0.0906
  151TCq2    H3 2311   1.256   2.809  12.261  1.4690  1.1637 -3.8811
  151TCq2    H4 2312   1.382   2.406  12.277  1.3175  1.5102 -0.0094
  152MPD2     C 2313   0.358   1.601  12.678  0.3846  0.4648  0.6105
  152MPD2    C1 2314   0.385   1.706  12.588  0.0992  0.5470 -0.0952
  152MPD2    C2 2315   0.271   1.769  12.534 -0.1989 -0.4371 -1.3448
  152MPD2    C3 2316   0.147   1.712  12.542 -0.3036  0.0256  0.9911
  152MPD2    C4 2317   0.122   1.609  12.625  0.0383  0.3138 -0.0672
  152MPD2    C5 2318   0.227   1.552  12.692  0.7247  0.8587 -0.0923
  152MPD2     H 2319   0.288   1.857  12.473 -2.7795  2.0350  1.4965
  152MPD2    H1 2320   0.027   1.558  12.638  0.5850 -0.1242  2.3346
  152MPD2    H2 2321   0.439   1.544  12.722 -1.2959 -1.6137  1.0051
  152MPD2    H3 2322   0.207   1.474  12.764 -1.8921 -0.9861 -2.7867
  152MPD2     N 2323   0.044   1.781  12.475 -0.5144  0.4568  0.4868
  152MPD2    H5 2324   0.075   1.859  12.418  2.1317 -1.0095 -0.0799
  152MPD2    N1 2325   0.520   1.754  12.574 -0.1529  0.2850  0.0715
  152MPD2    H7 2326   0.597   1.695  12.605  1.2707  1.0257 -2.0735
  153TCq2    C1 2327   0.556   1.867  12.500 -0.9929 -0.9297 -0.3533
  153TCq2    O2 2328   0.477   1.934  12.432 -0.3546 -0.4511  0.7814
  153TCq2    C2 2329   0.703   1.912  12.500  0.0752  0.2153  0.5058
  153TCq2    C3 2330   0.793   1.825  12.545  0.2992 -0.4557 -0.2253
  153TCq2    C4 2331   0.920   1.869  12.565  0.3221 -0.4766  0.5251
  153TCq2    C5 2332   0.959   1.996  12.530  0.4019  0.7346  0.1845
  153TCq2    C6 2333   0.862   2.080  12.483  0.0967  0.3174 -0.5726
  153TCq2    C7 2334   0.731   2.045  12.472  0.0204 -0.1983  0.6440
  153TCq2    C8 2335   0.878   2.225  12.479 -0.1614 -0.2109  0.6741
  153TCq2    O4 2336   0.784   2.281  12.431 -0.1267  0.0475 -0.2454
  153TCq2    C9 2337   1.011   1.779  12.634  0.3253 -0.9157 -0.6373
  153TCq2    O5 2338   0.981   1.655  12.623 -0.1283 -0.0656  0.2188
  153TCq2    O6 2339   1.122   1.821  12.671  0.6601 -0.0929  0.4832
  153TCq2    H2 2340   0.773   1.722  12.575  1.3389 -0.8342 -0.8247
  153TCq2    H3 2341   1.063   2.021  12.547  0.1976  0.7185  1.4770
  153TCq2    H4 2342   0.648   2.107  12.440 -1.5139 -1.2427  2.5681
  154MPD2     C 2343   2.714   2.257   0.441 -0.2023  0.1411 -0.2245
  154MPD2    C1 2344   2.702   2.166   0.540  0.4017 -0.0952 -0.0116
  154MPD2    C2 2345   2.605   2.186   0.642  0.3282 -0.5005  0.1560
  154MPD2    C3 2346   2.523   2.294   0.644 -1.1580 -0.3790  0.3508
  154MPD2    C4 2347   2.538   2.382   0.544 -0.2763  0.3663 -0.1929
  154MPD2    C5 2348   2.629   2.365   0.443 -0.0009  0.1174  0.2387
  154MPD2     H 2349   2.602   2.114   0.723 -1.6042 -0.2738  0.2689
  154MPD2    H1 2350   2.483   2.475   0.545 -1.6322 -0.4503  0.6462
  154MPD2    H2 2351   2.781   2.238   0.357 -1.5778 -2.4422 -0.7158
  154MPD2    H3 2352   2.643   2.449   0.376  2.4562 -0.5841 -0.1231
  154MPD2     N 2353   2.436   2.306   0.754 -0.3677 -0.0175 -0.1347
  154MPD2    H5 2354   2.447   2.240   0.831  1.0713  0.6554  0.2404
  154MPD2    N1 2355   2.782   2.050   0.538  0.6365 -0.4787 -0.3912
  154MPD2    H7 2356   2.834   2.052   0.450  0.8164 -1.0883 -0.3010
  155TCq2    C1 2357   2.811   1.962   0.641  0.0067  0.5454  0.1019
  155TCq2    O2 2358   2.800   1.976   0.759 -0.5647 -0.5322  0.1316
  155TCq2    C2 2359   2.883   1.847   0.590  0.5789  0.5909  0.3192
  155TCq2    C3 2360   2.951   1.778   0.684  0.2859 -0.1942  0.1771
  155TCq2    C4 2361   3.048   1.689   0.643  0.3537 -0.1635  0.1392
  155TCq2    C5 2362   3.052   1.646   0.511 -0.0555 -0.4777 -0.1569
  155TCq2    C6 2363   2.961   1.699   0.420  0.3066 -0.2298 -0.0164
  155TCq2    C7 2364   2.885   1.807   0.455 -0.3211 -0.7529 -0.0665
  155TCq2    C8 2365   2.975   1.658   0.284 -0.3876  0.2103 -0.0095
  155TCq2    O4 2366   3.086   1.614   0.253 -0.1079 -0.1965 -0.2124
  155TCq2    C9 2367   3.152   1.659   0.730 -0.1317  0.6976 -0.1639
  155TCq2    O5 2368   3.144   1.685   0.852 -0.2012 -0.6569  0.1165
  155TCq2    O6 2369   3.265   1.643   0.677  0.0929  0.0133  0.5845
  155TCq2    H2 2370   2.960   1.814   0.786 -2.6790  2.2050 -0.4082
  155TCq2    H3 2371   3.125   1.570   0.485  1.8056  0.9553  0.8481
  155TCq2    H4 2372   2.827   1.863   0.383  1.6123  0.5733 -0.5939
  156MPD2     C 2373   1.850   4.175  12.152 -0.0269 -0.1379 -0.2765
  156MPD2    C1 2374   1.743   4.176  12.069  0.3661  0.6935 -0.0144
  156MPD2    C2 2375   1.633   4.237  12.122 -0.3422  0.5986  0.0939
  156MPD2    C3 2376   1.640   4.324  12.227 -0.6863 -0.0894 -0.2221
  156MPD2    C4 2377   1.757   4.330  12.300 -0.0654 -0.8230  0.8395
  156MPD2    C5 2378   1.868   4.264  12.262  0.0035  0.5247  0.0503
  156MPD2     H 2379   1.533   4.230  12.081 -0.8991  1.5964  1.3007
  156MPD2    H1 2380   1.763   4.391  12.389  0.9946  0.9263 -0.4213
  156MPD2    H2 2381   1.939   4.118  12.127  0.8131  1.9623 -2.0693
  156MPD2    H3 2382   1.961   4.269  12.317  0.0545  1.9648 -0.1813
  156MPD2     N 2383   1.523   4.393  12.268  0.5940  0.1614  0.0310
  156MPD2    H5 2384   1.443   4.396  12.205  1.3684  2.7836 -0.8093
  156MPD2    N1 2385   1.735   4.093  11.961  0.0645  0.3909 -0.0032
  156MPD2    H7 2386   1.818   4.038  11.940 -0.0788  0.5039 -0.8796
  157TCq2    C1 2387   1.624   4.080  11.875 -0.2273  0.2475 -0.5525
  157TCq2    O2 2388   1.529   4.160  11.868  0.9221 -0.0825 -0.1720
  157TCq2    C2 2389   1.609   3.972  11.784 -0.2320  0.0249 -0.2622
  157TCq2    C3 2390   1.594   3.846  11.827  0.1518  0.0499  0.0701
  157TCq2    C4 2391   1.515   3.768  11.745 -0.3009 -0.4926 -0.6831
  157TCq2    C5 2392   1.446   3.823  11.643 -0.1539 -0.7973 -0.0913
  157TCq2    C6 2393   1.462   3.948  11.605 -0.0041 -0.3529 -0.0366
  157TCq2    C7 2394   1.558   4.024  11.666  0.1114  0.0785 -0.3310
  157TCq2    C8 2395   1.345   4.012  11.567 -0.8885 -1.2113 -0.1653
  157TCq2    O4 2396   1.355   4.136  11.555 -0.2350  0.2170  0.2153
  157TCq2    C9 2397   1.501   3.625  11.777 -1.1071  0.1777  0.7334
  157TCq2    O5 2398   1.591   3.577  11.847  0.5619 -0.7363 -0.6170
  157TCq2    O6 2399   1.433   3.556  11.695  0.3062 -0.7607  0.1974
  157TCq2    H2 2400   1.648   3.808  11.913 -0.0942  0.5714  0.4560
  157TCq2    H3 2401   1.390   3.750  11.585 -2.3743 -1.0064  2.3292
  157TCq2    H4 2402   1.566   4.130  11.645 -0.6216  0.3184  0.5897
  158TMC2    C1 2403   1.212   3.767  13.500 -0.3782 -0.1542 -0.0831
  158TMC2    C2 2404   1.281   3.769  13.385 -0.3476 -0.6692 -0.3205
  158TMC2    C3 2405   1.217   3.741  13.265 -0.3726 -0.2564  0.2096
  158TMC2    C4 2406   1.077   3.721  13.501  0.2760 -0.8160  0.1164
  158TMC2    C5 2407   1.023   3.681  13.384  0.3550  0.6489  0.0265
  158TMC2    C6 2408   1.084   3.709  13.262  0.3641 -0.1057  0.0097
  158TMC2     C 2409   1.275   3.808  13.630  0.6581 -0.0249 -0.4451
  158TMC2     O 2410   1.383   3.865  13.620  0.1658  0.3793 -0.2422
  158TMC2     H 2411   1.382   3.810  13.390 -0.1195 -1.3483  0.7806
  158TMC2    H1 2412   1.018   3.712  13.591  2.1735  2.3690  1.6522
  158TMC2    H2 2413   1.039   3.676  13.169 -2.6193 -0.7566  1.6952
  158TMC2    C7 2414   0.883   3.644  13.378  0.0744 -0.3340 -0.2957
  158TMC2    C8 2415   1.282   3.723  13.135 -0.3951  0.2087 -0.6326
  158TMC2    O1 2416   0.822   3.675  13.273 -0.1986 -0.4831  0.4701
  158TMC2    O2 2417   1.212   3.697  13.037  0.1185  0.2525 -0.7964
  158TMC2    O5 2418   1.405   3.781  13.137  0.2892 -0.1255 -0.3061
  158TMC2    H5 2419   1.458   3.779  13.220 -0.4552 -0.7310  0.1515
  159MPD2     C 2420   1.316   3.895  14.120  0.3793 -0.0338  0.0832
  159MPD2    C1 2421   1.259   3.770  14.103 -0.4676 -0.0091 -0.1298
  159MPD2    C2 2422   1.219   3.733  13.975  0.2721 -0.6386  0.1698
  159MPD2    C3 2423   1.237   3.816  13.868 -0.3897  0.2020  0.1492
  159MPD2    C4 2424   1.294   3.941  13.885  0.2225 -0.0031  0.2642
  159MPD2    C5 2425   1.332   3.973  14.011 -0.5724  0.2134  0.5862
  159MPD2     H 2426   1.163   3.641  13.961  1.7228 -1.4388 -0.3939
  159MPD2    H1 2427   1.296   4.006  13.798 -0.7137 -1.4212 -0.8365
  159MPD2    H2 2428   1.347   3.927  14.219 -0.1631  2.5772 -0.5849
  159MPD2    H3 2429   1.359   4.076  14.032  1.4061  0.0562 -1.1432
  159MPD2     N 2430   1.194   3.782  13.739 -0.2711  0.1185 -0.1640
  159MPD2    H5 2431   1.114   3.721  13.727 -1.6065  2.2551 -2.0776
  159MPD2    N1 2432   1.244   3.696  14.227  0.7010 -0.0911  0.5527
  159MPD2    H7 2433   1.258   3.740  14.317 -1.0521 -0.9304  1.2301
  160TMC2    C1 2434   1.082   1.817   1.784 -0.5735 -1.6569  0.2052
  160TMC2    C2 2435   1.165   1.720   1.839  0.0231 -0.0540 -0.1310
  160TMC2    C3 2436   1.296   1.715   1.787  0.6105 -1.1201  0.2687
  160TMC2    C4 2437   1.119   1.888   1.671 -0.7075 -0.5278 -0.5288
  160TMC2    C5 2438   1.249   1.872   1.626  0.6260  0.4207 -0.3527
  160TMC2    C6 2439   1.336   1.790   1.687 -0.4447 -0.0133  0.1221
  160TMC2     C 2440   0.950   1.822   1.856 -0.6155 -0.0680  0.7451
  160TMC2     O 2441   0.933   1.750   1.953 -0.0583  0.6682  0.0124
  160TMC2     H 2442   1.140   1.662   1.927 -0.5638  1.6517  0.8230
  160TMC2    H1 2443   1.051   1.954   1.619  0.1338 -0.2897 -1.3137
  160TMC2    H2 2444   1.433   1.761   1.646 -0.4845 -0.6032  0.4384
  160TMC2    C7 2445   1.291   1.957   1.520  0.9351  0.0637 -0.7641
  160TMC2    C8 2446   1.392   1.649   1.866 -0.1851 -0.9109 -0.2703
  160TMC2    O1 2447   1.205   1.991   1.440 -0.4224  0.3318 -0.0055
  160TMC2    O2 2448   1.512   1.665   1.852 -0.0331 -0.8382  0.2537
  160TMC2    O5 2449   1.346   1.521   1.861  0.0580  0.3812 -0.4613
  160TMC2    H5 2450   1.251   1.511   1.839 -0.0592  1.8308 -0.5555
  161MPD2     C 2451   0.652   1.835   1.921 -0.0683 -0.7967  1.0157
  161MPD2    C1 2452   0.721   1.915   1.824 -0.5593  0.1217 -0.2146
  161MPD2    C2 2453   0.649   2.012   1.757 -0.7368 -0.0163 -0.1790
  161MPD2    C3 2454   0.514   2.034   1.782  0.6136  0.6390 -0.3020
  161MPD2    C4 2455   0.455   1.948   1.871 -0.0021 -0.2238 -0.9433
  161MPD2    C5 2456   0.520   1.850   1.944 -0.5964 -0.2071  0.6483
  161MPD2     H 2457   0.704   2.079   1.693 -0.6274  1.6093  1.6317
  161MPD2    H1 2458   0.348   1.947   1.887  0.1168 -0.2088 -0.1671
  161MPD2    H2 2459   0.699   1.763   1.988  1.6433  0.1629  0.8468
  161MPD2    H3 2460   0.464   1.797   2.021 -1.1405  0.7008  0.8743
  161MPD2     N 2461   0.434   2.132   1.717  0.2406  0.3444 -0.4077
  161MPD2    H5 2462   0.337   2.129   1.746  0.3025 -2.2374 -0.4381
  161MPD2    N1 2463   0.863   1.908   1.793 -0.1897 -0.3078 -0.3473
  161MPD2    H7 2464   0.893   1.971   1.718  1.3074 -0.1874  0.3594
  162TMC2    C1 2465   3.471   3.548   0.996  0.1912  0.0149  0.2267
  162TMC2    C2 2466   3.380   3.620   0.921  0.6580 -0.0463  0.3258
  162TMC2    C3 2467   3.256   3.641   0.981  0.1306  0.6941 -0.8630
  162TMC2    C4 2468   3.429   3.478   1.111  0.0917  0.6129  0.9723
  162TMC2    C5 2469   3.304   3.495   1.155  1.3969 -0.3282  0.4478
  162TMC2    C6 2470   3.217   3.577   1.092 -0.4849 -0.2478 -0.2439
  162TMC2     C 2471   3.595   3.524   0.943  0.1500 -0.0955 -0.1556
  162TMC2     O 2472   3.602   3.534   0.822  0.2202 -0.1372  0.1156
  162TMC2     H 2473   3.408   3.665   0.827 -0.7375 -2.8957 -1.4223
  162TMC2    H1 2474   3.480   3.386   1.136 -1.0859  0.0559  1.3425
  162TMC2    H2 2475   3.118   3.600   1.130 -1.3310  0.6811 -2.9710
  162TMC2    C7 2476   3.250   3.420   1.270  0.0410  0.6285 -0.1381
  162TMC2    C8 2477   3.169   3.753   0.937 -0.5751  0.0707 -0.2182
  162TMC2    O1 2478   3.127   3.403   1.269 -0.2914 -0.3608  0.1390
  162TMC2    O2 2479   3.111   3.832   1.014 -0.2459  0.4207  0.3242
  162TMC2    O5 2480   3.217   3.780   0.818  0.0362 -0.1992 -0.0519
  162TMC2    H5 2481   3.240   3.693   0.778  3.0827  0.0342  1.1848
  163MPD2     C 2482   4.092   3.481   0.967  0.5075 -0.8793  0.1177
  163MPD2    C1 2483   4.011   3.525   0.862 -0.4258  0.7948 -0.0686
  163MPD2    C2 2484   3.879   3.519   0.885  0.0191  0.3921 -0.8707
  163MPD2    C3 2485   3.826   3.483   1.008 -0.9341 -0.4024 -0.4085
  163MPD2    C4 2486   3.908   3.461   1.113  0.2989  0.0932 -0.2920
  163MPD2    C5 2487   4.041   3.455   1.090 -0.2400 -0.7106 -1.0765
  163MPD2     H 2488   3.818   3.533   0.796  0.1236  3.4878 -0.4426
  163MPD2    H1 2489   3.857   3.448   1.208  0.8052 -1.8848 -0.2998
  163MPD2    H2 2490   4.199   3.474   0.952  0.4134  1.4452 -1.5621
  163MPD2    H3 2491   4.117   3.437   1.166  0.1411 -1.6274 -1.6693
  163MPD2     N 2492   3.691   3.486   1.031  0.0399 -0.0728 -0.5238
  163MPD2    H5 2493   3.660   3.467   1.126  0.2146  1.1477 -0.2263
  163MPD2    N1 2494   4.071   3.569   0.740  0.2953 -0.0716 -0.5732
  163MPD2    H7 2495   4.171   3.552   0.734  0.5000  0.9801 -0.2339
  164TCq2    C1 2496   4.002   2.766  11.835 -0.5142  0.4477  0.4338
  164TCq2    O2 2497   3.968   2.771  11.956  0.0334 -0.1910  0.1696
  164TCq2    C2 2498   3.973   2.885  11.756 -0.5216  0.9286 -0.2219
  164TCq2    C3 2499   4.055   2.912  11.643  0.4984 -0.2219  0.9426
  164TCq2    C4 2500   4.015   3.006  11.551  0.4737 -0.1450  0.3664
  164TCq2    C5 2501   3.896   3.069  11.568  0.0738 -0.0766 -0.1803
  164TCq2    C6 2502   3.814   3.045  11.674  0.4928 -0.5719 -1.3555
  164TCq2    C7 2503   3.855   2.953  11.765 -0.0642 -0.7361  0.5044
  164TCq2    C8 2504   3.711   3.143  11.708 -0.2421  0.2377  0.6880
  164TCq2    O4 2505   3.698   3.235  11.628  0.0136 -0.1024  0.0078
  164TCq2    C9 2506   4.093   3.021  11.422  0.5041  0.1630 -0.4891
  164TCq2    O5 2507   4.172   2.930  11.392  0.3974 -0.1398 -0.4223
  164TCq2    O6 2508   4.069   3.124  11.350  0.1810 -0.0713  0.1412
  164TCq2    H2 2509   4.156   2.875  11.633  0.6468  0.5293 -0.2409
  164TCq2    H3 2510   3.867   3.144  11.496 -0.6708 -1.2482 -1.1073
  164TCq2    H4 2511   3.803   2.931  11.858 -1.3853  3.8038  0.8180
  165MPD2     C 2512   0.058   0.477   2.471 -0.2733 -0.2505 -0.3906
  165MPD2    C1 2513   0.116   0.459   2.346  0.1731 -0.3744 -0.1289
  165MPD2    C2 2514   0.207   0.556   2.299  0.7139 -0.2534 -0.0344
  165MPD2    C3 2515   0.240   0.667   2.380  0.0939 -0.3904  0.3683
  165MPD2    C4 2516   0.173   0.682   2.503 -0.0503  0.3175 -0.3057
  165MPD2    C5 2517   0.075   0.596   2.541 -0.2338 -0.9859 -0.0011
  165MPD2     H 2518   0.248   0.559   2.199  1.1997  0.4196  0.1801
  165MPD2    H1 2519   0.185   0.762   2.575  0.9066  0.4183 -0.5695
  165MPD2    H2 2520   4.709   0.407   2.513 -0.6624  0.7005  0.5368
  165MPD2    H3 2521   0.028   0.610   2.638  2.2583  1.6470  0.8478
  165MPD2     N 2522   0.345   0.760   2.344  0.2720 -0.3413  0.0138
  165MPD2    H5 2523   0.357   0.839   2.407  1.3717 -2.3303  2.3152
  165MPD2    N1 2524   0.083   0.348   2.271 -0.4772 -0.5447  0.3080
  165MPD2    H7 2525   0.009   0.287   2.304  0.1868 -1.0574  0.8424
  166TCq2    C1 2526   0.436   0.744   2.244 -0.0148 -0.1360  0.0407
  166TCq2    O2 2527   0.447   0.651   2.165 -0.0584  0.0167  0.2751
  166TCq2    C2 2528   0.524   0.860   2.223 -1.2666  0.3378 -0.0781
  166TCq2    C3 2529   0.502   0.987   2.276 -0.2758  0.1811 -0.2757
  166TCq2    C4 2530   0.604   1.077   2.279  0.9402 -0.6567  0.2198
  166TCq2    C5 2531   0.727   1.047   2.218 -0.0824 -0.5612 -0.0715
  166TCq2    C6 2532   0.746   0.920   2.166  0.2403  0.0067 -0.3603
  166TCq2    C7 2533   0.649   0.826   2.166  0.3401 -0.0632  0.2325
  166TCq2    C8 2534   0.869   0.896   2.089 -0.3676  0.4984  0.2301
  166TCq2    O4 2535   0.936   0.997   2.060  0.5670 -0.4109 -0.3200
  166TCq2    C9 2536   0.576   1.207   2.343  0.3628  0.3680 -0.2643
  166TCq2    O5 2537   0.672   1.288   2.366  0.2667  0.4229 -0.2667
  166TCq2    O6 2538   0.455   1.231   2.381 -0.4338  0.7541 -0.5166
  166TCq2    H2 2539   0.411   1.011   2.329 -0.6990  0.6461 -1.2157
  166TCq2    H3 2540   0.801   1.126   2.216 -0.9205  0.1869 -2.3641
  166TCq2    H4 2541   0.654   0.737   2.103 -1.6544 -1.0999  1.5420
  167TMC2    C1 2542   3.048   2.876  12.768  1.0780 -0.0566  0.2673
  167TMC2    C2 2543   2.980   2.926  12.882  0.4305  0.4053  0.4067
  167TMC2    C3 2544   2.990   2.849  12.997 -0.4037 -0.1726 -0.5693
  167TMC2    C4 2545   3.137   2.773  12.771  0.0182  0.7622 -0.2262
  167TMC2    C5 2546   3.135   2.712  12.890  0.6232 -0.3964  0.8674
  167TMC2    C6 2547   3.062   2.738  13.000 -0.6283  0.1291 -0.0333
  167TMC2     C 2548   3.017   2.937  12.640  0.0835 -0.2570 -0.4485
  167TMC2     O 2549   3.007   3.059  12.633  0.7393 -0.2491 -0.0252
  167TMC2     H 2550   2.895   2.993  12.866  0.5253 -0.0177 -1.8264
  167TMC2    H1 2551   3.191   2.744  12.681  0.2700  1.9074 -0.4501
  167TMC2    H2 2552   3.078   2.683  13.093  1.9527  0.5724 -0.2119
  167TMC2    C7 2553   3.230   2.598  12.912 -0.5696 -0.5223 -0.1785
  167TMC2    C8 2554   2.957   2.905  13.128  0.4769 -0.0416  0.7663
  167TMC2    O1 2555   3.213   2.527  13.008 -0.1988 -0.2980 -0.3703
  167TMC2    O2 2556   3.023   2.882  13.229  0.2698  0.4529 -0.1979
  167TMC2    O5 2557   2.865   3.000  13.114  0.0498 -0.0186  0.2226
  167TMC2    H5 2558   2.803   2.983  13.040  0.2612  1.3860 -0.2903
  168MPD2     C 2559   2.942   3.002  12.354  0.4563  0.4473  0.5301
  168MPD2    C1 2560   2.947   2.874  12.415 -0.5212  0.0626  0.4712
  168MPD2    C2 2561   2.927   2.773  12.328  1.0371 -0.0627  0.0362
  168MPD2    C3 2562   2.910   2.785  12.195  1.0958  0.1073 -0.2601
  168MPD2    C4 2563   2.902   2.914  12.143  0.0230  0.4876 -0.5344
  168MPD2    C5 2564   2.909   3.019  12.227 -0.2062  0.1633  0.1275
  168MPD2     H 2565   2.938   2.678  12.379 -1.4644 -0.4476 -0.1066
  168MPD2    H1 2566   2.884   2.930  12.037  0.7735 -1.0667 -0.8844
  168MPD2    H2 2567   2.946   3.092  12.415  0.1582  0.2753  0.8056
  168MPD2    H3 2568   2.898   3.116  12.179 -0.7808 -1.0313 -2.1284
  168MPD2     N 2569   2.891   2.676  12.109 -0.6432  0.0854  0.2034
  168MPD2    H5 2570   2.905   2.686  12.009  1.2392  1.7899  0.6483
  168MPD2    N1 2571   2.988   2.846  12.544  0.2193 -0.5205 -0.0977
  168MPD2    H7 2572   2.976   2.752  12.581 -0.3460 -0.5859 -0.4423
  169MPD1     C 2573   0.679   2.536   9.159  0.3482 -0.0233  0.1972
  169MPD1    C1 2574   0.795   2.542   9.089  0.1076 -0.2646 -0.4178
  169MPD1    C2 2575   0.908   2.489   9.150  0.1913 -0.5875  0.2724
  169MPD1    C3 2576   0.911   2.432   9.276  0.3115 -0.0798  0.0446
  169MPD1    C4 2577   0.793   2.428   9.346  0.0374  0.5707 -0.3106
  169MPD1    C5 2578   0.685   2.486   9.285 -0.5799 -0.6351  0.3239
  169MPD1     H 2579   1.007   2.510   9.110 -0.1211  1.0602  0.3722
  169MPD1    H1 2580   0.785   2.389   9.446  2.0420 -1.2280 -0.8524
  169MPD1    H2 2581   0.586   2.565   9.111  0.6720  1.3872  0.4036
  169MPD1    H3 2582   0.590   2.488   9.337 -2.0320  1.8217 -2.4195
  169MPD1     N 2583   1.037   2.393   9.332  0.8293  0.0856 -0.5029
  169MPD1    H5 2584   1.115   2.421   9.273  1.2781  1.4422  0.7439
  169MPD1    N1 2585   0.791   2.631   8.981  1.0171  0.9056 -0.2106
  169MPD1    H6 2586   0.878   2.629   8.929  0.1257  1.3386 -1.7124
  169MPD1    H7 2587   0.699   2.637   8.939  1.0845  2.2210 -0.1783
  170MPD1     C 2588   3.854   0.207  13.361 -0.4215  0.2232 -0.0325
  170MPD1    C1 2589   3.827   0.228  13.491  0.3461 -0.2736 -0.4828
  170MPD1    C2 2590   3.901   0.336  13.550  0.4712  0.6834 -0.9767
  170MPD1    C3 2591   3.993   0.411  13.480  0.2481  0.2201  0.6762
  170MPD1    C4 2592   4.024   0.374  13.353 -0.4805 -0.3713 -0.5283
  170MPD1    C5 2593   3.956   0.273  13.299  0.2446 -0.6084  0.1465
  170MPD1     H 2594   3.869   0.364  13.649 -0.4166 -1.0793 -0.7564
  170MPD1    H1 2595   4.097   0.430  13.296 -0.5243 -0.9375 -1.1477
  170MPD1    H2 2596   3.785   0.149  13.300  0.2880  0.3132 -0.9199
  170MPD1    H3 2597   3.971   0.243  13.197 -1.8381 -1.0479 -0.0439
  170MPD1     N 2598   4.040   0.527  13.544  0.1760  0.0661 -0.6188
  170MPD1    H5 2599   4.022   0.535  13.644  4.8821  2.5421  0.0316
  170MPD1    N1 2600   3.712   0.181  13.549  0.1048  0.4452 -0.4213
  170MPD1    H6 2601   3.689   0.087  13.516 -1.0617  0.3452  0.6715
  170MPD1    H7 2602   3.704   0.190  13.650  0.8571  0.6698 -0.3765
  171MPD1     C 2603   3.364   2.057  15.358 -0.5135 -0.0298  0.1326
  171MPD1    C1 2604   3.373   1.941  15.288 -0.0704  0.0613 -0.2735
  171MPD1    C2 2605   3.417   1.828  15.348  0.2581 -0.1009 -0.9404
  171MPD1    C3 2606   3.487   1.838  15.469  0.6262 -0.6197 -0.2369
  171MPD1    C4 2607   3.496   1.959  15.531  0.0237 -0.3745  0.6206
  171MPD1    C5 2608   3.438   2.069  15.471 -0.6868  0.0320  0.1380
  171MPD1     H 2609   3.391   1.738  15.293  0.8719 -2.3036  2.3667
  171MPD1    H1 2610   3.524   1.974  15.635  1.7073 -2.2604  0.4348
  171MPD1    H2 2611   3.309   2.139  15.314 -1.1904 -1.5346 -1.8263
  171MPD1    H3 2612   3.446   2.165  15.519 -1.7525  0.4213 -0.4791
  171MPD1     N 2613   3.543   1.732  15.540  0.1025 -0.1512 -0.5541
  171MPD1    H5 2614   3.593   1.756  15.625 -0.7545 -0.1975 -0.0409
  171MPD1    N1 2615   3.294   1.924  15.171 -0.0879  0.0470  0.0678
  171MPD1    H6 2616   3.337   1.850  15.115 -1.2216 -0.5126 -0.0577
  171MPD1    H7 2617   3.288   2.002  15.106 -1.3672 -0.0630  0.0690
  172MPD1     C 2618   3.375   0.426   0.073 -0.2593 -0.1868 -0.1828
  172MPD1    C1 2619   3.314   0.469   0.191 -0.3020 -0.2523  0.6380
  172MPD1    C2 2620   3.269   0.596   0.199 -0.1302  0.4465 -0.2733
  172MPD1    C3 2621   3.311   0.694   0.107  0.0452 -0.2518 -1.0774
  172MPD1    C4 2622   3.382   0.649  17.684  0.4230  0.2319  0.1208
  172MPD1    C5 2623   3.406   0.518  17.659 -0.5222  0.3193  0.1841
  172MPD1     H 2624   3.201   0.610   0.282 -0.7457 -0.7051 -0.5790
  172MPD1    H1 2625   3.416   0.711  17.601  0.0230  0.8548  0.4238
  172MPD1    H2 2626   3.399   0.321   0.062  1.6026  0.2210 -0.1230
  172MPD1    H3 2627   3.464   0.485  17.573  0.7235  1.6686  0.5053
  172MPD1     N 2628   3.275   0.829   0.120 -0.6342  0.9979  0.2030
  172MPD1    H5 2629   3.286   0.884   0.036  0.4179  0.6378  0.0964
  172MPD1    N1 2630   3.259   0.372   0.271  0.0983  0.5210  0.4205
  172MPD1    H6 2631   3.315   0.288   0.284  0.6915  0.6605 -1.2985
  172MPD1    H7 2632   3.231   0.406   0.363  1.3027  1.3369  0.4855
  173MPD1     C 2633   3.954   1.463  14.145 -0.6014 -0.4170 -0.3074
  173MPD1    C1 2634   4.017   1.394  14.243 -0.5702  0.5771  0.1076
  173MPD1    C2 2635   3.935   1.320  14.331  0.2085  0.4014 -0.1918
  173MPD1    C3 2636   3.791   1.319  14.314 -0.7153  0.2052  0.0389
  173MPD1    C4 2637   3.736   1.397  14.208  0.0442 -0.1686  0.1662
  173MPD1    C5 2638   3.821   1.465  14.133 -0.5991  1.0879 -0.0778
  173MPD1     H 2639   3.979   1.255  14.407 -1.2147  0.0706  0.3511
  173MPD1    H1 2640   3.630   1.395  14.189  0.0728  2.6114 -0.3256
  173MPD1    H2 2641   4.010   1.523  14.074 -0.8009 -0.3929 -0.4438
  173MPD1    H3 2642   3.782   1.521  14.049  1.7795 -0.7537 -2.4077
  173MPD1     N 2643   3.704   1.240  14.395 -0.3100  0.0574 -0.3712
  173MPD1    H5 2644   3.745   1.197  14.478  0.1865  2.7157  0.7405
  173MPD1    N1 2645   4.154   1.384  14.244 -0.2024 -0.0818 -0.0994
  173MPD1    H6 2646   4.191   1.357  14.335 -2.2534 -1.0831  0.4393
  173MPD1    H7 2647   4.204   1.460  14.199 -0.4885  0.3965  0.3996
  174MPD1     C 2648   3.236   0.445  14.146  0.1899 -0.2689 -0.3617
  174MPD1    C1 2649   3.170   0.483  14.260 -0.4954  0.2512  0.4295
  174MPD1    C2 2650   3.205   0.594  14.331 -0.5112  0.1380 -0.7490
  174MPD1    C3 2651   3.305   0.674  14.286 -0.0624 -0.1024 -0.4101
  174MPD1    C4 2652   3.370   0.645  14.169  0.3258 -0.4259 -0.1583
  174MPD1    C5 2653   3.338   0.530  14.097  1.1217  0.4062 -0.3188
  174MPD1     H 2654   3.146   0.612  14.421  0.5614 -0.1005  0.0049
  174MPD1    H1 2655   3.458   0.702  14.139 -0.3000  0.7564  0.2496
  174MPD1    H2 2656   3.215   0.351  14.097 -1.6931  0.1341 -0.3304
  174MPD1    H3 2657   3.399   0.499  14.013 -0.9454  1.1206 -2.0835
  174MPD1     N 2658   3.350   0.787  14.358  0.3293  0.4386  0.4047
  174MPD1    H5 2659   3.400   0.861  14.309  0.6057  1.4904  2.3020
  174MPD1    N1 2660   3.084   0.382  14.307 -0.0317  1.0869 -0.4238
  174MPD1    H6 2661   3.008   0.424  14.360  1.0611  1.4690  0.8489
  174MPD1    H7 2662   3.030   0.333  14.237 -0.9180  0.3943  0.7320
  175MPD1     C 2663   1.610   1.648  15.479 -0.9141 -0.1539 -0.4791
  175MPD1    C1 2664   1.704   1.747  15.503  0.7173 -0.0615  0.5661
  175MPD1    C2 2665   1.781   1.738  15.623  0.1011  0.6065 -0.6397
  175MPD1    C3 2666   1.747   1.650  15.725  0.0860  0.4489 -0.0693
  175MPD1    C4 2667   1.647   1.562  15.699 -0.1075  0.5029  1.0323
  175MPD1    C5 2668   1.584   1.556  15.578 -0.3126 -0.3549 -0.7096
  175MPD1     H 2669   1.869   1.799  15.643  1.4435 -1.7916  0.9016
  175MPD1    H1 2670   1.606   1.496  15.775  1.8511 -0.6688  1.0521
  175MPD1    H2 2671   1.561   1.654  15.383  1.2221  3.6098 -1.3400
  175MPD1    H3 2672   1.512   1.481  15.550 -1.5540  0.6346 -0.1481
  175MPD1     N 2673   1.815   1.628  15.851 -0.5854  0.4355 -0.1825
  175MPD1    H5 2674   1.788   1.543  15.899  1.0932 -0.2954 -0.5181
  175MPD1    N1 2675   1.731   1.841  15.408 -0.0917  0.1609  0.6380
  175MPD1    H6 2676   1.729   1.933  15.452 -0.0859  0.8762 -0.8244
  175MPD1    H7 2677   1.650   1.856  15.348 -0.0718 -0.0128  0.5677
  176MPD1     C 2678   3.556   3.412  16.661 -0.5009 -0.0188 -0.8830
  176MPD1    C1 2679   3.582   3.553  16.663 -0.3094  0.5467 -0.7337
  176MPD1    C2 2680   3.584   3.608  16.789  0.0440 -0.4424  0.0204
  176MPD1    C3 2681   3.542   3.540  16.904  0.3109 -0.3517  0.6628
  176MPD1    C4 2682   3.499   3.409  16.889 -0.0670 -0.8415 -0.1821
  176MPD1    C5 2683   3.502   3.349  16.769 -0.1940  0.0336 -0.2086
  176MPD1     H 2684   3.619   3.710  16.789 -0.2007 -0.3557 -0.4827
  176MPD1    H1 2685   3.464   3.351  16.973  0.3359 -0.5764  0.1661
  176MPD1    H2 2686   3.570   3.366  16.564 -2.0857 -1.1426 -0.5778
  176MPD1    H3 2687   3.469   3.246  16.757  1.5004 -0.6292  0.9011
  176MPD1     N 2688   3.561   3.606  17.028  0.0438  0.2724 -0.0304
  176MPD1    H5 2689   3.580   3.705  17.017 -2.1978  0.7674  0.6761
  176MPD1    N1 2690   3.633   3.613  16.546 -0.0196 -0.1693 -0.4503
  176MPD1    H6 2691   3.614   3.713  16.542  0.7514  0.0574  1.5557
  176MPD1    H7 2692   3.611   3.575  16.455  1.4144  2.2977 -1.8227
  177MPD1     C 2693   2.677   3.025  10.629 -0.4266  0.1513  0.2246
  177MPD1    C1 2694   2.604   2.999  10.517 -0.6486 -0.4318 -0.5116
  177MPD1    C2 2695   2.547   3.106  10.455 -0.6282  0.2207 -0.1543
  177MPD1    C3 2696   2.565   3.234  10.507  0.0318 -0.1291  0.3135
  177MPD1    C4 2697   2.622   3.257  10.628 -0.1878 -0.0728  0.5881
  177MPD1    C5 2698   2.678   3.149  10.692  0.4907 -0.6451  0.4525
  177MPD1     H 2699   2.505   3.096  10.356  0.1041  0.4588 -0.4862
  177MPD1    H1 2700   2.625   3.351  10.683  1.4325 -0.8642  1.8780
  177MPD1    H2 2701   2.731   2.948  10.682 -0.3422  1.4823  2.0660
  177MPD1    H3 2702   2.729   3.156  10.787  1.8340  0.2369 -0.3287
  177MPD1     N 2703   2.518   3.339  10.426 -0.5608 -0.4488  0.4012
  177MPD1    H5 2704   2.478   3.308  10.338  0.1383 -2.2475  0.7160
  177MPD1    N1 2705   2.613   2.882  10.441  0.3130  0.1504  0.1806
  177MPD1    H6 2706   2.628   2.801  10.501  0.6212 -0.5294 -0.8284
  177MPD1    H7 2707   2.537   2.875  10.374 -1.0455 -0.4944  1.7976
  178MPD1     C 2708   4.125   0.476  17.086 -0.3349 -0.4878  0.2511
  178MPD1    C1 2709   4.029   0.399  17.027 -0.5011 -1.0441  0.1332
  178MPD1    C2 2710   4.076   0.312  16.930 -0.4937  0.6162  0.2000
  178MPD1    C3 2711   4.216   0.296  16.898 -0.0293  0.7099  0.0476
  178MPD1    C4 2712   4.301   0.383  16.955  0.3156 -0.0449 -0.9304
  178MPD1    C5 2713   4.258   0.471  17.046 -0.5086  0.0217 -0.0305
  178MPD1     H 2714   3.999   0.271  16.867 -1.2814 -0.2063  1.6998
  178MPD1    H1 2715   4.407   0.377  16.934 -0.0834 -1.4745 -2.5543
  178MPD1    H2 2716   4.097   0.555  17.155 -1.1075  0.7350 -1.4710
  178MPD1    H3 2717   4.333   0.538  17.087 -1.3569  0.8974  0.0747
  178MPD1     N 2718   4.265   0.192  16.814 -0.9109 -0.5634 -0.0832
  178MPD1    H5 2719   4.364   0.190  16.793 -0.2950 -0.8743  2.7629
  178MPD1    N1 2720   3.895   0.430  17.044 -0.0407 -0.2283 -0.0323
  178MPD1    H6 2721   3.887   0.467  17.138 -0.8966  0.1858 -0.2675
  178MPD1    H7 2722   3.825   0.360  17.022  0.0046 -0.3074  0.0771
  179MPD1     C 2723   0.237   2.140  15.627 -0.2340  0.2816  0.4102
  179MPD1    C1 2724   0.150   2.210  15.544  0.0774  0.0018 -0.0700
  179MPD1    C2 2725   0.059   2.297  15.600 -0.0857 -0.1819 -0.1432
  179MPD1    C3 2726   0.036   2.303  15.738  0.2247 -0.4746 -0.3087
  179MPD1    C4 2727   0.119   2.222  15.812 -0.1229 -0.9940 -0.0301
  179MPD1    C5 2728   0.216   2.140  15.757 -0.0583  0.2880  0.0937
  179MPD1     H 2729   4.711   2.348  15.534  0.4249  0.5334 -0.1227
  179MPD1    H1 2730   0.115   2.230  15.920  1.1939 -1.3415  0.0452
  179MPD1    H2 2731   0.320   2.076  15.599 -0.5438 -0.4460  1.1587
  179MPD1    H3 2732   0.279   2.088  15.828  1.9534 -1.3496 -2.9015
  179MPD1     N 2733   4.655   2.377  15.802 -0.8567  0.1166  0.6462
  179MPD1    H5 2734   4.655   2.383  15.903  3.3022  0.6529  0.6389
  179MPD1    N1 2735   0.168   2.199  15.405 -0.2285 -0.1491 -0.0274
  179MPD1    H6 2736   0.078   2.209  15.359  0.3355  0.2057 -1.0626
  179MPD1    H7 2737   0.215   2.111  15.382 -0.5571 -0.3808  0.1975
  180MPD1     C 2738   4.517   4.629  14.846  0.6543 -0.1823  0.2652
  180MPD1    C1 2739   4.559   4.626  14.719  0.5333 -0.0664 -0.3275
  180MPD1    C2 2740   4.481   4.557  14.631 -0.2742 -0.7961 -0.4067
  180MPD1    C3 2741   4.372   4.486  14.674 -0.2681  0.4373 -0.1162
  180MPD1    C4 2742   4.350   4.468  14.811 -1.0401 -0.1322 -0.1824
  180MPD1    C5 2743   4.425   4.546  14.898  0.3865  0.0996 -0.8157
  180MPD1     H 2744   4.507   4.554  14.526 -0.3119 -0.1467 -0.4345
  180MPD1    H1 2745   4.279   4.404  14.862 -1.8386 -0.7403 -2.0488
  180MPD1    H2 2746   4.571   4.683  14.923  0.2832  1.0353 -0.3287
  180MPD1    H3 2747   4.408   4.540  15.005 -0.7743  0.4544 -0.9829
  180MPD1     N 2748   4.288   4.420  14.579 -0.2928 -0.1482 -0.2439
  180MPD1    H5 2749   4.314   4.404  14.482 -0.4001  1.9738 -0.6242
  180MPD1    N1 2750   4.667   4.712  14.688  0.3593  0.2036  0.4221
  180MPD1    H6 2751   0.000   4.674  14.610 -1.3361 -0.2977 -0.5131
  180MPD1    H7 2752   0.013   0.003  14.763  0.4898 -0.8305  0.4701
  181MPD1     C 2753   0.268   0.189  10.093  0.1962 -0.0417  0.2137
  181MPD1    C1 2754   0.319   0.284  10.012  0.3788  0.5755  0.3761
  181MPD1    C2 2755   0.385   0.389  10.074  0.5509 -0.5163  0.3806
  181MPD1    C3 2756   0.402   0.400  10.207 -0.9464 -0.6981 -1.2549
  181MPD1    C4 2757   0.369   0.295  10.283  0.2270  0.3389 -0.0211
  181MPD1    C5 2758   0.300   0.191  10.223 -0.1109  0.7231 -0.4107
  181MPD1     H 2759   0.427   0.460  10.004 -2.2194  1.2364  0.5172
  181MPD1    H1 2760   0.387   0.294  10.390 -0.6846  2.0084  0.1473
  181MPD1    H2 2761   0.211   0.106  10.054 -0.4472 -0.9551  3.1068
  181MPD1    H3 2762   0.255   0.118  10.289 -2.0000  2.3334  0.1061
  181MPD1     N 2763   0.459   0.515  10.265 -0.3822  0.4636  0.0182
  181MPD1    H5 2764   0.473   0.506  10.365  0.2862 -0.8994 -0.1983
  181MPD1    N1 2765   0.327   0.267   9.874  0.3952 -0.0745  0.3031
  181MPD1    H6 2766   0.362   0.351   9.828 -1.7905 -0.3740 -1.9232
  181MPD1    H7 2767   0.245   0.228   9.828 -0.2165  0.4369  0.9606
  182MPD1     C 2768   2.695   0.197   1.821  0.0800  0.1068 -0.6215
  182MPD1    C1 2769   2.715   0.167   1.688 -1.0424 -0.0625  0.7976
  182MPD1    C2 2770   2.607   0.184   1.606 -0.2694  0.2342 -0.0060
  182MPD1    C3 2771   2.478   0.211   1.653 -0.1614 -0.2309 -0.3304
  182MPD1    C4 2772   2.461   0.227   1.790  0.1457  0.4008  0.6837
  182MPD1    C5 2773   2.573   0.219   1.872  0.4174 -0.6141  0.8063
  182MPD1     H 2774   2.618   0.171   1.499 -1.7554 -2.0797  0.0981
  182MPD1    H1 2775   2.363   0.243   1.832  0.9376  0.9355  2.3289
  182MPD1    H2 2776   2.775   0.189   1.894 -0.9720 -0.7598  0.4451
  182MPD1    H3 2777   2.571   0.226   1.980 -3.2565  2.9672  0.4602
  182MPD1     N 2778   2.362   0.227   1.576 -0.2599 -0.0173 -0.1895
  182MPD1    H5 2779   2.271   0.244   1.617  0.2655  2.9876 -0.2300
  182MPD1    N1 2780   2.839   0.151   1.629  0.4240 -0.0387 -0.4329
  182MPD1    H6 2781   2.823   0.115   1.535  1.9245  0.0458 -0.7229
  182MPD1    H7 2782   2.920   0.117   1.682 -1.3302 -3.8545 -0.1982
  183MPD1     C 2783   2.477   0.524   8.678  0.6908  0.0265 -0.1111
  183MPD1    C1 2784   2.350   0.519   8.729  0.1257  0.1023  0.2023
  183MPD1    C2 2785   2.329   0.484   8.866 -0.5270  0.5171 -0.0453
  183MPD1    C3 2786   2.441   0.457   8.936  0.0595  0.0532 -0.1338
  183MPD1    C4 2787   2.570   0.464   8.874 -0.6795  0.0766 -1.3940
  183MPD1    C5 2788   2.588   0.501   8.749 -0.2559 -0.3451 -0.1900
  183MPD1     H 2789   2.232   0.501   8.911 -2.1033 -2.6619 -2.1919
  183MPD1    H1 2790   2.663   0.447   8.926 -2.6705 -2.4956  1.3602
  183MPD1    H2 2791   2.487   0.554   8.574 -0.3114 -0.7089 -0.4183
  183MPD1    H3 2792   2.686   0.490   8.704  0.0307  0.2191  0.3027
  183MPD1     N 2793   2.430   0.426   9.074  0.3506 -0.6225 -0.3054
  183MPD1    H5 2794   2.337   0.412   9.111 -0.6730  0.3442 -2.5438
  183MPD1    N1 2795   2.242   0.563   8.646 -0.3679  0.0357  0.0481
  183MPD1    H6 2796   2.257   0.519   8.555 -1.7645  1.1480 -0.7247
  183MPD1    H7 2797   2.151   0.541   8.685 -0.2538  0.7855  0.7276
  184MPD1     C 2798   1.443   2.568  10.230 -0.0681  0.0755 -0.0620
  184MPD1    C1 2799   1.572   2.605  10.261  0.8777  0.0861 -0.5195
  184MPD1    C2 2800   1.627   2.723  10.212 -0.5245  0.3378 -0.2541
  184MPD1    C3 2801   1.551   2.803  10.126  0.1857  0.3697  0.1026
  184MPD1    C4 2802   1.424   2.768  10.096 -0.1184 -0.6521  0.2765
  184MPD1    C5 2803   1.371   2.651  10.147 -0.1294  0.6572 -0.0151
  184MPD1     H 2804   1.729   2.749  10.237 -0.7413  0.8196  0.1319
  184MPD1    H1 2805   1.357   2.817  10.026  0.1013 -2.4544 -1.2117
  184MPD1    H2 2806   1.407   2.473  10.269 -1.3342 -0.5161 -2.7134
  184MPD1    H3 2807   1.273   2.616  10.115 -0.8581  0.4465  2.4163
  184MPD1     N 2808   1.599   2.918  10.064  0.5974  0.5041  0.0392
  184MPD1    H5 2809   1.544   2.956   9.988 -1.2588 -0.2530  1.0270
  184MPD1    N1 2810   1.650   2.527  10.349 -0.1055  0.6180  0.1117
  184MPD1    H6 2811   1.612   2.438  10.380 -1.2711  1.4715  1.1589
  184MPD1    H7 2812   1.735   2.501  10.300 -1.0475 -1.2868 -0.4944
  185MPD1     C 2813   1.610   2.985   9.187 -0.1177  0.2822  0.1849
  185MPD1    C1 2814   1.592   3.114   9.233 -0.0297 -0.5428  0.1459
  185MPD1    C2 2815   1.626   3.137   9.366  0.3957 -0.3612  0.4421
  185MPD1    C3 2816   1.669   3.035   9.454 -0.4672 -0.0519  0.8190
  185MPD1    C4 2817   1.670   2.902   9.408  0.4367 -0.3782  0.0852
  185MPD1    C5 2818   1.647   2.888   9.273  0.0374 -0.3875 -0.1838
  185MPD1     H 2819   1.632   3.239   9.401  0.3793  0.0019 -0.6217
  185MPD1    H1 2820   1.707   2.828   9.477 -0.7157 -1.3234 -0.2987
  185MPD1    H2 2821   1.603   2.965   9.080  0.8289  2.2572 -0.2682
  185MPD1    H3 2822   1.672   2.788   9.240 -1.1962 -0.2327 -1.5771
  185MPD1     N 2823   1.710   3.059   9.588 -0.4294  0.0447 -0.4258
  185MPD1    H5 2824   1.743   2.980   9.643  1.4170  1.8092  1.0256
  185MPD1    N1 2825   1.560   3.213   9.139 -0.0108 -0.1350  0.3874
  185MPD1    H6 2826   1.503   3.291   9.173  0.8911  0.7287 -0.0654
  185MPD1    H7 2827   1.513   3.187   9.053  1.4039  1.4189 -0.8661
  186MPD1     C 2828   0.239   2.555  15.746  0.0185  0.3374 -0.0547
  186MPD1    C1 2829   0.282   2.516  15.877  0.6262  0.2981 -0.3320
  186MPD1    C2 2830   0.222   2.574  15.984  1.0060  0.7399  0.4403
  186MPD1    C3 2831   0.126   2.663  15.972  0.2647  0.3238 -0.2803
  186MPD1    C4 2832   0.090   2.713  15.846 -0.0432 -0.7649 -0.2257
  186MPD1    C5 2833   0.141   2.653  15.731 -0.0296  0.2241 -0.5066
  186MPD1     H 2834   0.265   2.551  16.081 -0.2790  1.0253  1.0781
  186MPD1    H1 2835   0.013   2.790  15.842  0.5333 -0.2099 -0.7098
  186MPD1    H2 2836   0.299   2.526  15.661  1.1828  0.1057  0.8520
  186MPD1    H3 2837   0.116   2.692  15.634 -1.6282  0.2352 -0.1053
  186MPD1     N 2838   0.074   2.741  16.085  0.3935 -0.2226 -0.5250
  186MPD1    H5 2839   0.025   2.827  16.064  1.2825  0.2521 -0.6983
  186MPD1    N1 2840   0.400   2.445  15.889 -0.1071  1.0276 -0.8301
  186MPD1    H6 2841   0.405   2.385  15.972 -0.3831  1.9040 -0.1829
  186MPD1    H7 2842   0.420   2.382  15.812 -0.7122 -2.1666  1.6223
  187MPD1     C 2843   3.087   3.523   0.099  0.4052  0.0808 -0.0810
  187MPD1    C1 2844   3.209   3.586   0.113  0.7409  1.0965 -0.5444
  187MPD1    C2 2845   3.221   3.703   0.050  0.5846  0.0496 -0.5142
  187MPD1    C3 2846   3.120   3.777  17.684 -0.3567  0.4732 -0.4393
  187MPD1    C4 2847   2.995   3.718  17.678 -0.1814  0.2728 -0.7744
  187MPD1    C5 2848   2.983   3.595   0.044 -0.0338  1.0013 -0.5323
  187MPD1     H 2849   3.321   3.741   0.033 -0.2108  1.7021 -1.4812
  187MPD1    H1 2850   2.909   3.769  17.635 -1.8452 -0.4020  1.7444
  187MPD1    H2 2851   3.066   3.422   0.133 -0.0699  0.6985  1.4188
  187MPD1    H3 2852   2.886   3.547   0.050  0.2588  0.1667 -2.4318
  187MPD1     N 2853   3.135   3.902  17.631 -0.4465 -0.1934 -0.5212
  187MPD1    H5 2854   3.053   3.933  17.580 -0.3467  1.4120  0.3014
  187MPD1    N1 2855   3.322   3.529   0.173 -0.1712 -0.8975 -0.7671
  187MPD1    H6 2856   3.302   3.468   0.252 -1.4418  0.0820 -0.3355
  187MPD1    H7 2857   3.396   3.596   0.188 -0.3484 -1.0133  0.6295
  188MPD1     C 2858   3.794   0.332   9.567  0.2060  0.8093  0.0522
  188MPD1    C1 2859   3.887   0.259   9.647  0.1494 -0.3136 -0.5737
  188MPD1    C2 2860   3.850   0.121   9.664 -0.0805 -1.0061 -0.1709
  188MPD1    C3 2861   3.748   0.062   9.597  0.0632 -0.2038 -0.1847
  188MPD1    C4 2862   3.680   0.134   9.504 -0.2433 -0.4650 -0.3393
  188MPD1    C5 2863   3.696   0.270   9.493 -0.3157  0.2143  0.1312
  188MPD1     H 2864   3.905   0.065   9.738 -0.9828 -0.4746  0.9015
  188MPD1    H1 2865   3.600   0.103   9.438 -1.9282 -2.0920  2.5100
  188MPD1    H2 2866   3.801   0.439   9.546 -0.4112  0.5851 -1.2539
  188MPD1    H3 2867   3.634   0.321   9.419 -3.2788 -3.4084  0.0851
  188MPD1     N 2868   3.711   4.642   9.623 -0.2371  0.1338  0.1214
  188MPD1    H5 2869   3.619   4.612   9.593 -1.0768  2.0635  0.8008
  188MPD1    N1 2870   3.971   0.330   9.724 -0.3592  0.8071  0.1185
  188MPD1    H6 2871   3.993   0.407   9.661  0.2882  1.0216  0.5986
  188MPD1    H7 2872   4.057   0.274   9.727  0.0856  1.6628  3.1517
  189MPD1     C 2873   0.785   4.541   0.716 -0.1782  0.7397  0.5724
  189MPD1    C1 2874   0.676   4.461   0.694  0.0316 -0.3097 -0.0598
  189MPD1    C2 2875   0.557   4.523   0.681  0.6145  1.0080 -0.5763
  189MPD1    C3 2876   0.545   4.662   0.682  0.2796 -0.2366  0.0175
  189MPD1    C4 2877   0.658   0.013   0.692  0.4196  0.2158  0.3028
  189MPD1    C5 2878   0.779   4.677   0.715 -0.1990 -0.7948 -0.0796
  189MPD1     H 2879   0.466   4.465   0.675  1.0970  0.0644  1.1927
  189MPD1    H1 2880   0.658   0.122   0.697 -0.6023  0.3605 -2.7353
  189MPD1    H2 2881   0.883   4.499   0.732 -0.5339 -0.3998 -0.3028
  189MPD1    H3 2882   0.866   0.015   0.740 -0.4311  0.0773 -1.3011
  189MPD1     N 2883   0.418   0.000   0.656 -0.6304  0.0647 -0.2559
  189MPD1    H5 2884   0.341   4.657   0.640 -2.3971  2.2275 -0.4090
  189MPD1    N1 2885   0.684   4.320   0.698  0.6040  0.2086 -0.4735
  189MPD1    H6 2886   0.772   4.286   0.659  2.0514  1.2793  1.7720
  189MPD1    H7 2887   0.610   4.264   0.656  0.5926 -0.8998  0.9980
  190MPD1     C 2888   4.186   4.392  15.255 -0.5356 -0.4522 -0.2572
  190MPD1    C1 2889   4.212   4.404  15.393  0.1174 -0.2403  0.8228
  190MPD1    C2 2890   4.213   4.291  15.476  0.1122  0.1768 -1.0488
  190MPD1    C3 2891   4.183   4.165  15.416 -0.0006 -0.4818  0.4937
  190MPD1    C4 2892   4.152   4.153  15.281 -0.9348 -0.0256  0.1331
  190MPD1    C5 2893   4.153   4.266  15.201 -0.5007 -0.2226 -0.5141
  190MPD1     H 2894   4.227   4.285  15.583 -4.6877  0.0333 -0.4362
  190MPD1    H1 2895   4.146   4.056  15.233  1.6389 -1.0798  1.9814
  190MPD1    H2 2896   4.198   4.469  15.179  0.9553  0.1517  0.5898
  190MPD1    H3 2897   4.138   4.257  15.095 -2.1838  0.0658 -0.3011
  190MPD1     N 2898   4.198   4.049  15.496 -0.2789  0.3146  0.7792
  190MPD1    H5 2899   4.212   4.054  15.596 -0.6160 -0.4093  0.8660
  190MPD1    N1 2900   4.269   4.527  15.432 -0.1962 -0.2703 -0.3745
  190MPD1    H6 2901   4.251   4.617  15.389  1.4061 -0.7847 -2.1672
  190MPD1    H7 2902   4.261   4.528  15.533  1.3413  0.0778 -0.2549
  191MPD1     C 2903   4.039   0.072  12.913  0.1780  0.1852 -0.2428
  191MPD1    C1 2904   4.087   0.164  12.818 -0.9646  0.6736 -0.0852
  191MPD1    C2 2905   3.993   0.246  12.759 -0.3633  0.4497  0.0643
  191MPD1    C3 2906   3.854   0.239  12.781  1.4412  0.5973 -0.4574
  191MPD1    C4 2907   3.810   0.148  12.876  0.3373  0.0190 -0.3843
  191MPD1    C5 2908   3.902   0.069  12.947 -0.0896 -0.0480  0.8054
  191MPD1     H 2909   4.013   0.321  12.683  0.6670  0.0768 -0.0276
  191MPD1    H1 2910   3.705   0.150  12.903 -0.2578 -0.2160 -2.6648
  191MPD1    H2 2911   4.103   0.003  12.966 -0.2733  0.1593  0.2732
  191MPD1    H3 2912   3.872   4.717  13.021 -0.5501  0.8579  1.4990
  191MPD1     N 2913   3.778   0.338  12.716  0.4932  0.2303 -0.1453
  191MPD1    H5 2914   3.818   0.388  12.637 -0.0285  1.3147  0.2808
  191MPD1    N1 2915   4.226   0.162  12.789  0.1496 -0.0165  0.3588
  191MPD1    H6 2916   4.288   0.135  12.865 -0.8308  1.4544  1.6802
  191MPD1    H7 2917   4.259   0.252  12.754 -0.6591  0.1504  0.0341
  192MPD1     C 2918   2.795   0.791  12.481  0.3866 -0.2503  0.3406
  192MPD1    C1 2919   2.821   0.665  12.517 -0.5987 -0.3727  0.1412
  192MPD1    C2 2920   2.951   0.618  12.540  0.5429 -0.2567 -0.1692
  192MPD1    C3 2921   3.059   0.704  12.512  0.1481  0.0325 -0.0422
  192MPD1    C4 2922   3.031   0.830  12.480  0.2315 -0.6864 -0.2128
  192MPD1    C5 2923   2.903   0.868  12.464 -0.2942  0.2939 -1.4156
  192MPD1     H 2924   2.974   0.523  12.586  0.5395 -0.5004 -0.6760
  192MPD1    H1 2925   3.109   0.904  12.483  0.5515 -0.9231 -3.0721
  192MPD1    H2 2926   2.696   0.820  12.448  0.1378  0.3250  1.5562
  192MPD1    H3 2927   2.904   0.968  12.422  3.0939  0.7446 -0.2757
  192MPD1     N 2928   3.197   0.672  12.538  0.3883  0.2242 -0.3199
  192MPD1    H5 2929   3.266   0.746  12.532 -0.2228  0.9402  1.2872
  192MPD1    N1 2930   2.721   0.572  12.514  0.0037 -0.2021  0.8242
  192MPD1    H6 2931   2.750   0.485  12.558 -2.0956 -0.5021  1.6528
  192MPD1    H7 2932   2.633   0.609  12.551  0.2208 -0.0363  1.1704
  193MPD1     C 2933   3.015   1.887  16.445  0.5936  0.5261  0.6243
  193MPD1    C1 2934   3.147   1.903  16.406  1.1066 -0.6811  0.6514
  193MPD1    C2 2935   3.243   1.925  16.505 -0.8923 -0.3925  0.4031
  193MPD1    C3 2936   3.210   1.936  16.642 -0.3742 -0.2103 -0.7046
  193MPD1    C4 2937   3.076   1.921  16.673 -0.1369  0.1975  0.7179
  193MPD1    C5 2938   2.977   1.903  16.578 -0.3701  0.0322  0.7281
  193MPD1     H 2939   3.347   1.932  16.474 -0.1622 -2.6767  2.3775
  193MPD1    H1 2940   3.045   1.914  16.777  0.5211  2.1516  1.0438
  193MPD1    H2 2941   2.936   1.860  16.375  1.2024  1.4522 -0.4185
  193MPD1    H3 2942   2.874   1.897  16.613 -0.0729 -0.3355  1.5326
  193MPD1     N 2943   3.305   1.965  16.746  0.3205 -0.2222  0.1444
  193MPD1    H5 2944   3.272   1.964  16.842  0.1954  1.3796  0.1174
  193MPD1    N1 2945   3.182   1.862  16.278  0.5686 -0.3047  0.0951
  193MPD1    H6 2946   3.271   1.902  16.250 -0.3378  1.8054  0.2389
  193MPD1    H7 2947   3.119   1.875  16.199  2.0541 -0.6779 -1.1439
  194MPD1     C 2948   1.075   2.941  16.631 -0.0155  0.3239  0.2413
  194MPD1    C1 2949   1.041   2.805  16.633 -0.1447  0.0030 -0.0983
  194MPD1    C2 2950   1.036   2.741  16.757  0.3184  0.5303 -0.5243
  194MPD1    C3 2951   1.082   2.802  16.867 -1.0616  0.9380  0.5155
  194MPD1    C4 2952   1.116   2.932  16.861  0.6576 -0.8679 -0.3221
  194MPD1    C5 2953   1.115   3.003  16.743 -0.6346 -0.3887  0.5338
  194MPD1     H 2954   0.989   2.644  16.770  1.0981  0.5007  2.2385
  194MPD1    H1 2955   1.143   2.983  16.953  1.6814 -0.8057 -0.6511
  194MPD1    H2 2956   1.084   2.990  16.534 -0.9348  0.4448  0.2186
  194MPD1    H3 2957   1.147   3.107  16.740 -0.7459 -0.3737 -0.2312
  194MPD1     N 2958   1.088   2.734  16.992  0.3776  0.0332 -0.5421
  194MPD1    H5 2959   1.150   2.775  17.062  1.5475 -1.8829 -0.4609
  194MPD1    N1 2960   0.994   2.747  16.520  0.4456 -0.2768  0.1258
  194MPD1    H6 2961   1.031   2.795  16.438 -0.7918  1.1864  0.4149
  194MPD1    H7 2962   1.031   2.653  16.509 -0.5874 -0.5231 -1.2196
  195MPD1     C 2963   3.435   4.677   1.150  0.2943  0.5853  0.5880
  195MPD1    C1 2964   3.535   4.582   1.122  0.2409  0.0121 -1.0901
  195MPD1    C2 2965   3.504   4.483   1.028 -0.3908 -0.8709 -0.1953
  195MPD1    C3 2966   3.379   4.464   0.971  0.3991 -0.5907 -0.3529
  195MPD1    C4 2967   3.281   4.566   1.001 -0.2955  0.4616  0.3280
  195MPD1    C5 2968   3.317   4.679   1.074 -0.8527 -0.6643  0.9306
  195MPD1     H 2969   3.582   4.423   0.983  0.1883 -0.5867  0.4424
  195MPD1    H1 2970   3.179   4.558   0.966  1.1498 -1.0640 -3.5127
  195MPD1    H2 2971   3.451   0.041   1.215 -0.7361  1.0391  0.2445
  195MPD1    H3 2972   3.248   0.039   1.096  1.0589  1.0323  0.7402
  195MPD1     N 2973   3.346   4.353   0.892  0.5761 -0.0014 -0.6416
  195MPD1    H5 2974   3.256   4.361   0.846 -0.2208  0.3716  0.9644
  195MPD1    N1 2975   3.666   4.612   1.166 -0.0096  0.1063 -0.1748
  195MPD1    H6 2976   3.734   4.538   1.181 -0.7546 -0.2770  1.3869
  195MPD1    H7 2977   3.678   4.683   1.238  1.3878 -0.1633 -0.1457
  196MPD1     C 2978   2.835   4.524   1.023 -0.2813  0.5127  0.0562
  196MPD1    C1 2979   2.858   4.390   1.033 -0.1737  0.3500 -0.3018
  196MPD1    C2 2980   2.961   4.346   1.116 -0.2689 -0.3758  1.2416
  196MPD1    C3 2981   3.036   4.443   1.184  0.1561  0.4090 -0.2578
  196MPD1    C4 2982   3.001   4.578   1.179 -0.0199  0.8235 -0.1332
  196MPD1    C5 2983   2.908   4.616   1.097 -0.6049 -0.1553 -0.3902
  196MPD1     H 2984   2.981   4.240   1.122 -0.3096 -0.6032 -2.4132
  196MPD1    H1 2985   3.049   4.648   1.246  1.5552 -0.2259 -0.1599
  196MPD1    H2 2986   2.750   4.571   0.974 -0.4249 -1.2065 -1.3097
  196MPD1    H3 2987   2.890   0.001   1.101  1.9434  0.2605  0.0286
  196MPD1     N 2988   3.141   4.420   1.273 -0.4672  0.2979 -0.5863
  196MPD1    H5 2989   3.194   4.490   1.323 -1.1835  1.8156 -1.9606
  196MPD1    N1 2990   2.772   4.292   0.981 -0.1199  0.4692  0.5610
  196MPD1    H6 2991   2.826   4.207   0.961  1.5435  1.2794  1.5477
  196MPD1    H7 2992   2.739   4.328   0.892  0.5908  1.7256  0.8151
  197MPD1     C 2993   1.423   1.989  17.203  0.3788 -0.4447  0.4339
  197MPD1    C1 2994   1.529   1.965  17.289 -0.0933 -0.6968 -0.0942
  197MPD1    C2 2995   1.658   1.968  17.241  0.4706 -0.0705  0.0241
  197MPD1    C3 2996   1.685   1.981  17.105 -0.1031 -0.7513 -0.1973
  197MPD1    C4 2997   1.577   1.993  17.020 -0.7564  0.2494  0.5933
  197MPD1    C5 2998   1.449   2.001  17.070 -0.4908 -0.0193  0.4123
  197MPD1     H 2999   1.734   1.951  17.317 -1.5564 -1.9555  1.6193
  197MPD1    H1 3000   1.592   2.011  16.914 -0.6968 -2.0585  0.2240
  197MPD1    H2 3001   1.317   1.986  17.228  0.5277 -2.1843  0.8880
  197MPD1    H3 3002   1.369   2.015  16.999  0.4741 -0.2257 -0.7101
  197MPD1     N 3003   1.813   1.995  17.064 -0.2122 -0.0093 -0.0701
  197MPD1    H5 3004   1.828   2.011  16.965 -0.6269 -1.7874 -0.4217
  197MPD1    N1 3005   1.507   1.960  17.425 -0.1267  0.1792  0.0292
  197MPD1    H6 3006   1.428   1.897  17.439  1.2251 -1.2198  1.4624
  197MPD1    H7 3007   1.581   1.918  17.481 -0.6088 -0.7684 -0.0450
  198MPD1     C 3008   3.325   0.574  16.147  0.8831  0.8536  0.7963
  198MPD1    C1 3009   3.427   0.606  16.237  0.0581 -0.3825 -0.3973
  198MPD1    C2 3010   3.545   0.629  16.178 -0.2891  0.4658  0.2450
  198MPD1    C3 3011   3.573   0.599  16.043 -0.1164  0.1627 -0.1872
  198MPD1    C4 3012   3.469   0.572  15.959  0.4176 -0.2553  0.4370
  198MPD1    C5 3013   3.343   0.551  16.010 -0.1475 -0.3996 -0.2121
  198MPD1     H 3014   3.627   0.665  16.238  1.8206 -0.5577 -2.0206
  198MPD1    H1 3015   3.485   0.552  15.854  0.3697 -0.5291  0.4818
  198MPD1    H2 3016   3.225   0.544  16.176  1.9397 -3.9597 -0.4563
  198MPD1    H3 3017   3.266   0.521  15.940 -1.2297 -0.7434  1.1482
  198MPD1     N 3018   3.712   0.605  16.008 -0.4463  0.0539  0.0481
  198MPD1    H5 3019   3.762   0.653  16.082 -0.3352  1.7965 -1.1491
  198MPD1    N1 3020   3.406   0.626  16.377  0.2444 -0.5652 -0.1615
  198MPD1    H6 3021   3.332   0.566  16.414  2.3272 -2.1262  1.4814
  198MPD1    H7 3022   3.491   0.603  16.427  1.0192  3.7104  0.5241
  199MPD1     C 3023   1.631   0.912   9.924 -0.4725 -0.1599  0.1012
  199MPD1    C1 3024   1.509   0.844   9.946  0.3884 -0.3163 -0.8526
  199MPD1    C2 3025   1.390   0.903   9.917  0.3154 -0.0669 -0.1426
  199MPD1    C3 3026   1.384   1.031   9.874 -0.4994  0.2652 -0.3934
  199MPD1    C4 3027   1.500   1.101   9.858  0.8006  0.3258 -0.4142
  199MPD1    C5 3028   1.625   1.038   9.880  0.3843 -0.1971 -0.6860
  199MPD1     H 3029   1.297   0.848   9.926  0.9072 -1.2153 -1.0099
  199MPD1    H1 3030   1.500   1.204   9.824  1.3472  0.4362 -0.0778
  199MPD1    H2 3031   1.728   0.863   9.922 -0.8075 -0.8260 -0.0290
  199MPD1    H3 3032   1.719   1.089   9.864  0.0282  0.0593 -1.9260
  199MPD1     N 3033   1.264   1.101   9.856  0.4344 -0.2317 -0.3542
  199MPD1    H5 3034   1.265   1.194   9.816  1.3638  0.3998  1.1030
  199MPD1    N1 3035   1.516   0.704   9.961  0.1365  0.0012  0.0062
  199MPD1    H6 3036   1.597   0.684  10.020  0.9516  1.0225 -0.7569
  199MPD1    H7 3037   1.436   0.652   9.995  0.0254 -1.1520 -2.0005
  200MPD1     C 3038   0.560   1.942  14.712 -0.0794  0.6514  0.9415
  200MPD1    C1 3039   0.454   1.889  14.637 -0.0969 -0.3668 -0.1321
  200MPD1    C2 3040   0.464   1.757  14.597 -0.3352  0.0507 -0.1613
  200MPD1    C3 3041   0.584   1.684  14.615 -0.2254  0.4983 -0.0581
  200MPD1    C4 3042   0.690   1.742  14.691 -0.1029 -0.4200 -0.1452
  200MPD1    C5 3043   0.681   1.873  14.737  0.0543 -0.4627  0.0741
  200MPD1     H 3044   0.382   1.711  14.542  0.0577 -0.1237 -0.6044
  200MPD1    H1 3045   0.789   1.698  14.688 -0.1777 -0.3067 -4.9784
  200MPD1    H2 3046   0.549   2.036  14.766 -0.4044  1.1416  0.0065
  200MPD1    H3 3047   0.768   1.924  14.778  0.3015 -1.4391  0.7643
  200MPD1     N 3048   0.591   1.568  14.537 -0.5359  0.4228 -0.3747
  200MPD1    H5 3049   0.532   1.548  14.457  0.2329 -0.2127 -0.7841
  200MPD1    N1 3050   0.330   1.952  14.635 -0.2238  0.3358 -0.1371
  200MPD1    H6 3051   0.333   2.053  14.627  1.1448  0.2548 -0.5931
  200MPD1    H7 3052   0.261   1.914  14.570  1.3547  1.0795 -2.2380
  201MPD1     C 3053   2.610   0.729  12.790  0.7345 -0.5860 -0.2257
  201MPD1    C1 3054   2.549   0.612  12.760 -0.5322 -0.4442  0.6942
  201MPD1    C2 3055   2.580   0.500  12.834  0.2256 -0.8572  0.2146
  201MPD1    C3 3056   2.671   0.507  12.938  0.1039  0.1970 -0.1277
  201MPD1    C4 3057   2.724   0.632  12.980  0.3152  1.1155  0.2659
  201MPD1    C5 3058   2.692   0.740  12.900 -0.1027  0.1416  0.3185
  201MPD1     H 3059   2.528   0.407  12.818 -1.7252  0.6198 -1.9608
  201MPD1    H1 3060   2.791   0.653  13.063  2.0297  2.5237 -1.4866
  201MPD1    H2 3061   2.601   0.824  12.738  2.4917 -0.1040  0.3551
  201MPD1    H3 3062   2.729   0.840  12.922 -0.9947  0.0835  2.0958
  201MPD1     N 3063   2.701   0.382  13.001 -0.1769  0.1143 -0.2052
  201MPD1    H5 3064   2.660   0.304  12.951 -2.1892  1.5333 -0.7497
  201MPD1    N1 3065   2.457   0.601  12.651  0.6219  0.0432 -0.3355
  201MPD1    H6 3066   2.402   0.515  12.656  0.0964  0.2309 -2.5641
  201MPD1    H7 3067   2.398   0.681  12.630 -0.8816 -0.3316  2.5396
  202MPD1     C 3068   2.524   3.754   9.561  0.1389  0.0410 -0.6491
  202MPD1    C1 3069   2.511   3.889   9.555  0.0396 -0.4040 -0.0825
  202MPD1    C2 3070   2.588   3.960   9.644 -0.1393  0.5633  0.1501
  202MPD1    C3 3071   2.702   3.904   9.706  1.0308  0.5584 -0.1696
  202MPD1    C4 3072   2.714   3.767   9.708  0.3691 -0.0951  0.2805
  202MPD1    C5 3073   2.624   3.693   9.635  0.3601 -0.5419 -0.5603
  202MPD1     H 3074   2.571   4.067   9.645 -1.9534  0.2975 -1.3945
  202MPD1    H1 3075   2.788   3.719   9.771  1.0464 -0.3185 -0.6782
  202MPD1    H2 3076   2.447   3.689   9.521  0.2817  0.6138 -1.8198
  202MPD1    H3 3077   2.627   3.585   9.643  0.2646 -0.4722  0.4885
  202MPD1     N 3078   2.788   3.993   9.783  0.1666 -0.6483  0.1575
  202MPD1    H5 3079   2.854   3.948   9.845  1.2239 -0.7104 -1.0116
  202MPD1    N1 3080   2.385   3.949   9.522  0.0150 -0.4701  0.1492
  202MPD1    H6 3081   2.389   4.048   9.500  0.0430 -0.8234 -1.4930
  202MPD1    H7 3082   2.352   3.913   9.432 -0.6140 -1.5496  0.8103
  203MPD1     C 3083   1.289   1.257  12.519 -0.8091 -0.3626 -0.4773
  203MPD1    C1 3084   1.264   1.146  12.442 -0.7291  0.5770  0.7448
  203MPD1    C2 3085   1.341   1.040  12.469  0.4360  0.5090  0.6139
  203MPD1    C3 3086   1.435   1.030  12.568 -0.6395 -0.4454 -0.2547
  203MPD1    C4 3087   1.450   1.144  12.649 -0.0183  0.0581  0.2720
  203MPD1    C5 3088   1.382   1.257  12.614  0.1549 -0.2219 -0.1555
  203MPD1     H 3089   1.320   0.944  12.422  1.7117 -0.9322  2.9898
  203MPD1    H1 3090   1.521   1.153  12.730 -0.6662  0.7218  0.7581
  203MPD1    H2 3091   1.241   1.353  12.505 -2.2343 -0.6738  2.3001
  203MPD1    H3 3092   1.403   1.341  12.679 -1.2073  0.3809 -0.5083
  203MPD1     N 3093   1.501   0.907  12.592  0.4584 -0.0567  0.7163
  203MPD1    H5 3094   1.472   0.825  12.541  0.0188  1.1184 -0.9029
  203MPD1    N1 3095   1.182   1.158  12.332  0.2868  0.2572 -0.3642
  203MPD1    H6 3096   1.130   1.242  12.356 -0.0821  0.3237 -1.3962
  203MPD1    H7 3097   1.107   1.090  12.324 -1.0095  1.6576 -0.0883
  204MPD1     C 3098   0.118   1.844   0.206 -0.0325  0.1814 -0.3872
  204MPD1    C1 3099   0.187   1.856   0.086  0.0333  0.4901  0.6447
  204MPD1    C2 3100   0.270   1.750   0.048 -0.4791  0.2453 -0.3554
  204MPD1    C3 3101   0.291   1.641   0.131 -0.5480  0.1185 -0.2934
  204MPD1    C4 3102   0.240   1.640   0.261  0.0330  0.1386  0.5854
  204MPD1    C5 3103   0.157   1.745   0.288  0.0397 -0.4315 -0.9004
  204MPD1     H 3104   0.335   1.754  17.648 -1.4695  0.2898 -1.0940
  204MPD1    H1 3105   0.263   1.561   0.332 -0.1693  0.5052  1.0523
  204MPD1    H2 3106   0.044   1.909   0.252  0.5777 -1.5733  3.0260
  204MPD1    H3 3107   0.112   1.751   0.386 -1.8535  0.5736 -1.8299
  204MPD1     N 3108   0.390   1.551   0.088  0.1042  0.4316  0.0720
  204MPD1    H5 3109   0.401   1.556  17.674  2.5423 -0.7058  0.2951
  204MPD1    N1 3110   0.163   1.959  17.673  0.5358  0.1706  0.1476
  204MPD1    H6 3111   0.122   2.041   0.029 -1.5472  0.0825 -1.6895
  204MPD1    H7 3112   0.246   1.988  17.620  0.9774 -0.2440  0.6079
  205MPD1     C 3113   0.393   4.537  16.924 -0.7101  0.0806  0.1114
  205MPD1    C1 3114   0.364   4.670  16.955 -0.1043 -0.9211 -0.2203
  205MPD1    C2 3115   0.434   0.008  17.057 -0.1689 -0.8008 -0.6555
  205MPD1    C3 3116   0.542   4.665  17.120 -0.0267  0.4556  0.3520
  205MPD1    C4 3117   0.567   4.529  17.086  0.4933  0.0256 -0.0746
  205MPD1    C5 3118   0.495   4.470  16.993  0.6024 -0.1166 -0.5827
  205MPD1     H 3119   0.419   0.110  17.089  1.2784 -1.1065  0.9829
  205MPD1    H1 3120   0.654   4.475  17.120  0.2015 -0.2414  0.2466
  205MPD1    H2 3121   0.346   4.480  16.844  1.5347 -0.2628 -0.9558
  205MPD1    H3 3122   0.530   4.371  16.965  0.0570 -0.0341 -1.5628
  205MPD1     N 3123   0.611   4.721  17.233 -0.4253 -0.4457 -0.2430
  205MPD1    H5 3124   0.694   4.674  17.268  0.2411  2.2055  1.7656
  205MPD1    N1 3125   0.279   0.023  16.878 -0.3091 -0.3200  0.2861
  205MPD1    H6 3126   0.192   4.693  16.863 -0.5170 -0.3636  1.6415
  205MPD1    H7 3127   0.243   0.107  16.923 -0.0707  0.2664 -0.6225
  206MPD1     C 3128   1.580   2.806  16.778  0.6991 -0.0949 -0.3123
  206MPD1    C1 3129   1.627   2.932  16.726 -0.1548  0.3048 -0.1078
  206MPD1    C2 3130   1.571   2.967  16.601 -0.7715  0.7437 -0.4210
  206MPD1    C3 3131   1.468   2.898  16.533  0.7759 -0.1412  0.3305
  206MPD1    C4 3132   1.419   2.786  16.598 -0.4830 -0.4456 -0.0483
  206MPD1    C5 3133   1.481   2.740  16.717 -0.7460  0.1449  0.5483
  206MPD1     H 3134   1.614   3.053  16.552  0.5272  0.8267  0.8550
  206MPD1    H1 3135   1.344   2.726  16.548 -0.3981 -0.6541  0.0747
  206MPD1    H2 3136   1.633   2.775  16.868  0.1758  0.2096  0.1032
  206MPD1    H3 3137   1.444   2.655  16.774 -0.1044 -0.1413  0.5355
  206MPD1     N 3138   1.417   2.930  16.404 -0.3400  0.5906 -0.7697
  206MPD1    H5 3139   1.363   2.856  16.361 -1.4091  1.4548 -0.9247
  206MPD1    N1 3140   1.733   3.010  16.779  0.3532 -0.6244  0.1731
  206MPD1    H6 3141   1.735   3.108  16.749  1.7488 -0.5809  0.4111
  206MPD1    H7 3142   1.724   3.002  16.880 -0.4285  2.0422  0.3350
  207MPD1     C 3143   2.929   1.552   9.712 -0.4263 -0.1471  0.0521
  207MPD1    C1 3144   2.956   1.434   9.777  0.1496 -0.3676  0.3327
  207MPD1    C2 3145   3.089   1.389   9.809 -0.1374  0.1231 -0.2498
  207MPD1    C3 3146   3.193   1.468   9.759 -0.7827 -0.3082 -0.1263
  207MPD1    C4 3147   3.166   1.577   9.673  0.3133  0.4909 -0.4276
  207MPD1    C5 3148   3.040   1.623   9.661  0.4428  0.3039 -0.4124
  207MPD1     H 3149   3.109   1.298   9.865 -1.6005 -1.0960 -1.6855
  207MPD1    H1 3150   3.241   1.623   9.610 -0.4489  1.9275 -0.2773
  207MPD1    H2 3151   2.833   1.596   9.687 -1.2398 -1.0440  1.6365
  207MPD1    H3 3152   3.024   1.711   9.600 -1.7592  0.4051  0.3243
  207MPD1     N 3153   3.329   1.430   9.777  0.0748 -0.4880  0.7020
  207MPD1    H5 3154   3.400   1.482   9.727 -1.1584  0.4833 -0.0475
  207MPD1    N1 3155   2.850   1.356   9.822 -0.3368  0.2391 -0.5113
  207MPD1    H6 3156   2.872   1.260   9.796  0.1407  0.4866 -1.0246
  207MPD1    H7 3157   2.758   1.377   9.784 -1.5763 -1.7509  1.4062
  208MPD1     C 3158   1.557   0.832  17.591  0.5002  0.6460 -0.8525
  208MPD1    C1 3159   1.458   0.733  17.608  0.2420 -0.0989  0.4711
  208MPD1    C2 3160   1.495   0.619   0.002 -1.4661  0.7891 -0.0689
  208MPD1    C3 3161   1.619   0.609   0.067  0.6863 -0.8650  0.2567
  208MPD1    C4 3162   1.708   0.715   0.053  0.5228  0.2631  0.4360
  208MPD1    C5 3163   1.678   0.826  17.661 -0.1856  0.1695 -0.0475
  208MPD1     H 3164   1.434   0.530   0.013  0.5607 -0.4982  0.8138
  208MPD1    H1 3165   1.797   0.726   0.114  2.1809 -2.8935 -1.4100
  208MPD1    H2 3166   1.542   0.918  17.527  1.7395 -0.9430 -3.2418
  208MPD1    H3 3167   1.752   0.902  17.638 -0.8147  0.0820 -2.3663
  208MPD1     N 3168   1.649   0.489   0.138  0.4134  0.5055 -0.0988
  208MPD1    H5 3169   1.575   0.421   0.154  1.0470 -0.7354 -2.5345
  208MPD1    N1 3170   1.338   0.729  17.531  0.4011 -0.0851 -1.3099
  208MPD1    H6 3171   1.267   0.670  17.574 -1.0237  1.1449 -1.9853
  208MPD1    H7 3172   1.294   0.818  17.509 -0.9316 -0.4891 -0.2766
  209MPD1     C 3173   4.071   1.031  11.321  0.7335 -0.0826  0.6211
  209MPD1    C1 3174   4.199   1.006  11.280 -0.5101  0.7875  0.5432
  209MPD1    C2 3175   4.223   0.967  11.154 -0.2274  0.8917  0.0027
  209MPD1    C3 3176   4.120   0.958  11.055 -0.2546  0.2564 -0.3069
  209MPD1    C4 3177   3.993   0.986  11.100  0.2992 -0.4413  0.2656
  209MPD1    C5 3178   3.970   1.014  11.230  0.5935 -0.5626  0.0468
  209MPD1     H 3179   4.326   0.956  11.123 -0.1783 -1.3640  0.9277
  209MPD1    H1 3180   3.908   0.977  11.033  1.2064 -0.9257 -0.8281
  209MPD1    H2 3181   4.051   1.075  11.418  0.0195 -0.1917  0.5274
  209MPD1    H3 3182   3.867   1.034  11.257  0.9890 -0.9934  1.8844
  209MPD1     N 3183   4.156   0.911  10.925  0.2746 -0.1648 -0.7627
  209MPD1    H5 3184   4.254   0.885  10.919  1.0846  2.3724  1.7646
  209MPD1    N1 3185   4.310   1.046  11.355  0.3613 -0.1975  0.2295
  209MPD1    H6 3186   4.283   1.049  11.453  1.3026 -3.7123  0.5808
  209MPD1    H7 3187   4.390   0.986  11.339  0.5292  0.0449  0.1666
  210MPD1     C 3188   0.115   0.914  10.198  0.1071 -0.1890 -0.3906
  210MPD1    C1 3189   0.099   0.964  10.327 -0.0137  0.1316  0.0230
  210MPD1    C2 3190   4.710   0.929  10.395  0.5548 -0.0584 -0.4930
  210MPD1    C3 3191   4.613   0.852  10.336  0.5117  0.1075 -0.2807
  210MPD1    C4 3192   4.632   0.799  10.213  0.3872 -0.2719 -0.5131
  210MPD1    C5 3193   0.019   0.841  10.139  0.8531  0.4859 -0.4555
  210MPD1     H 3194   4.700   0.968  10.495  0.2792  0.9732 -0.9147
  210MPD1    H1 3195   4.558   0.732  10.171  3.2959 -2.8869 -1.5170
  210MPD1    H2 3196   0.200   0.946  10.139  0.3988  0.1667  0.2221
  210MPD1    H3 3197   0.019   0.812  10.034  1.7684  0.1279 -0.3618
  210MPD1     N 3198   4.498   0.812  10.407  0.7340 -0.0421 -0.5881
  210MPD1    H5 3199   4.432   0.750  10.360 -0.5519 -0.1978  1.4148
  210MPD1    N1 3200   0.214   1.025  10.388 -0.2691  0.6680  0.3916
  210MPD1    H6 3201   0.283   1.054  10.319 -0.0199  0.3026  0.4917
  210MPD1    H7 3202   0.197   1.102  10.452 -1.1370  0.9686 -0.1980
  211MPD1     C 3203   1.418   4.329  16.660  0.1438 -0.3519 -0.5058
  211MPD1    C1 3204   1.392   4.379  16.535  0.0710  0.0834  0.2254
  211MPD1    C2 3205   1.328   4.504  16.525 -0.0640 -0.4063 -0.3566
  211MPD1    C3 3206   1.273   4.567  16.631 -0.4646  0.2751  1.1874
  211MPD1    C4 3207   1.266   4.493  16.751  0.2003 -0.3882  0.2178
  211MPD1    C5 3208   1.356   4.389  16.768  0.4230  1.3755 -0.4861
  211MPD1     H 3209   1.325   4.562  16.434 -0.2454  2.1697  1.2841
  211MPD1    H1 3210   1.214   4.522  16.841 -1.5304 -2.7696 -0.0266
  211MPD1    H2 3211   1.487   4.246  16.669 -0.2866 -0.6598 -0.0087
  211MPD1    H3 3212   1.365   4.344  16.866  0.0320  1.3770 -0.4467
  211MPD1     N 3213   1.209   4.688  16.619  0.3748 -0.0774 -0.2237
  211MPD1    H5 3214   1.208   0.003  16.525 -0.2246  0.0254 -0.1761
  211MPD1    N1 3215   1.465   4.329  16.425  0.4489  0.2459  0.7603
  211MPD1    H6 3216   1.425   4.351  16.334  0.0180 -2.0922  0.3711
  211MPD1    H7 3217   1.479   4.230  16.442 -1.4158 -0.3921 -1.3991
  212MPD1     C 3218   0.629   3.875  16.232  0.7284  0.5750  0.2311
  212MPD1    C1 3219   0.566   3.964  16.319  0.1743  0.0304 -0.1830
  212MPD1    C2 3220   0.498   3.912  16.429  0.1024  0.1422 -0.4435
  212MPD1    C3 3221   0.511   3.776  16.462 -0.7729 -0.8122 -0.5060
  212MPD1    C4 3222   0.593   3.696  16.382 -0.1274  0.0281  0.3219
  212MPD1    C5 3223   0.645   3.743  16.263  0.0697  0.2859 -0.2778
  212MPD1     H 3224   0.435   3.973  16.493  2.0021 -0.7725  2.2892
  212MPD1    H1 3225   0.615   3.592  16.403  0.1308  0.5056  2.4023
  212MPD1    H2 3226   0.678   3.911  16.142 -0.7926 -1.4150 -1.3688
  212MPD1    H3 3227   0.692   3.679  16.189 -0.2673 -0.4883  0.1817
  212MPD1     N 3228   0.460   3.715  16.575 -0.9650 -0.5646 -0.3367
  212MPD1    H5 3229   0.476   3.615  16.579  0.4431 -0.3739 -1.2430
  212MPD1    N1 3230   0.545   4.094  16.273 -0.0541  0.4676 -0.4908
  212MPD1    H6 3231   0.513   4.160  16.343  1.8977  1.0551 -0.1613
  212MPD1    H7 3232   0.626   4.135  16.227  1.1912 -1.1063  0.2985
  213MPD1     C 3233   3.414   0.215  15.878 -1.0015  0.5298 -0.0109
  213MPD1    C1 3234   3.329   0.106  15.877 -0.0702  0.6906  0.2575
  213MPD1    C2 3235   3.342   0.033  15.763 -0.2845 -0.6155 -1.3560
  213MPD1    C3 3236   3.412   0.080  15.653 -0.1347  0.3742 -1.4446
  213MPD1    C4 3237   3.476   0.198  15.653 -0.6610 -0.2393  0.7048
  213MPD1    C5 3238   3.487   0.260  15.771  0.2032  0.1223 -0.2164
  213MPD1     H 3239   3.309   4.650  15.763 -1.1095 -0.3526 -0.0675
  213MPD1    H1 3240   3.511   0.248  15.563 -2.4746  0.2187  0.2565
  213MPD1    H2 3241   3.455   0.259  15.969 -1.1547  2.6040 -0.9327
  213MPD1    H3 3242   3.553   0.346  15.777 -1.7341  1.6197 -0.2576
  213MPD1     N 3243   3.423   4.715  15.543 -0.3764 -0.1010  0.0635
  213MPD1    H5 3244   3.361   4.634  15.548 -0.4709 -0.1170 -1.5352
  213MPD1    N1 3245   3.306   0.046  15.998 -0.2676 -0.0623 -0.4905
  213MPD1    H6 3246   3.300   0.111  16.076  1.0958 -0.6768  0.1318
  213MPD1    H7 3247   3.229   4.701  15.997 -0.8918  0.6527  1.7489
  214MPD1     C 3248   3.018   3.989  15.470 -0.5607 -0.1281  0.0710
  214MPD1    C1 3249   3.043   4.009  15.336 -0.5151  0.3058  1.0366
  214MPD1    C2 3250   3.122   4.116  15.300  0.4964 -0.2906 -0.6429
  214MPD1    C3 3251   3.159   4.214  15.394  0.2269 -0.5544 -0.3973
  214MPD1    C4 3252   3.118   4.194  15.525 -0.3449 -0.2359 -0.5295
  214MPD1    C5 3253   3.047   4.082  15.561  0.0611  0.8794  0.8823
  214MPD1     H 3254   3.159   4.120  15.198 -0.3280  3.7854 -0.7712
  214MPD1    H1 3255   3.146   4.267  15.599  0.3165 -1.1444  0.1123
  214MPD1    H2 3256   2.976   3.893  15.498  0.7034 -0.3189  1.2758
  214MPD1    H3 3257   3.014   4.067  15.663  1.6162 -0.1121  1.2491
  214MPD1     N 3258   3.249   4.325  15.364 -0.3135 -0.7514 -0.2110
  214MPD1    H5 3259   3.272   4.388  15.441  0.1557 -0.8872 -0.2433
  214MPD1    N1 3260   3.014   3.899  15.246 -0.0111 -0.0181 -0.1797
  214MPD1    H6 3261   2.921   3.861  15.260 -0.8132  0.4647 -4.2801
  214MPD1    H7 3262   3.008   3.933  15.151  1.8925 -1.1296 -0.7126
  215MPD1     C 3263   2.882   0.670  10.380 -0.0632  0.4434  0.2320
  215MPD1    C1 3264   2.897   0.812  10.389 -0.1361 -0.1801  0.0875
  215MPD1    C2 3265   3.019   0.869  10.408  0.3934  0.2516 -0.1183
  215MPD1    C3 3266   3.137   0.789  10.421 -0.2268 -0.5221  0.0664
  215MPD1    C4 3267   3.123   0.649  10.407  0.5340  0.2020  0.0917
  215MPD1    C5 3268   2.999   0.595  10.389 -0.2420  0.8781  0.5379
  215MPD1     H 3269   3.031   0.974  10.432 -0.5472  0.5652 -1.0432
  215MPD1    H1 3270   3.207   0.584  10.430 -0.6559 -1.4388 -0.1711
  215MPD1    H2 3271   2.788   0.618  10.372  0.5912 -0.2419 -2.9936
  215MPD1    H3 3272   2.992   0.487  10.395 -2.5977  0.9920 -0.0561
  215MPD1     N 3273   3.261   0.844  10.463 -0.0645  0.4700  0.7051
  215MPD1    H5 3274   3.269   0.944  10.475  0.0425  0.4916  0.4598
  215MPD1    N1 3275   2.788   0.897  10.392 -0.3663 -0.1390  0.3054
  215MPD1    H6 3276   2.710   0.850  10.345 -1.6647  1.4487  0.8922
  215MPD1    H7 3277   2.800   0.982  10.338  0.6287 -0.3949  0.1177
  216MPD1     C 3278   0.924   2.934   0.256 -0.4257 -0.1966  0.0022
  216MPD1    C1 3279   1.009   2.903   0.360  0.5147  0.8039  0.1841
  216MPD1    C2 3280   0.982   2.784   0.426 -0.4165 -0.5106  0.9872
  216MPD1    C3 3281   0.872   2.695   0.394 -0.7160 -0.1551  0.5154
  216MPD1    C4 3282   0.785   2.740   0.291  0.6972  0.2272  0.0890
  216MPD1    C5 3283   0.818   2.853   0.225 -0.2381  1.1822  0.3844
  216MPD1     H 3284   1.056   2.753   0.499  0.5970 -0.1189  0.1276
  216MPD1    H1 3285   0.697   2.686   0.259  0.5812  0.8459 -0.6493
  216MPD1    H2 3286   0.950   3.023   0.200  1.5996  0.1762  1.5520
  216MPD1    H3 3287   0.759   2.881   0.138  1.5607 -2.5806 -2.0482
  216MPD1     N 3288   0.849   2.566   0.446  0.7121 -0.5427  0.0326
  216MPD1    H5 3289   0.773   2.515   0.404 -1.7562  2.2943  1.0525
  216MPD1    N1 3290   1.129   2.966   0.380 -0.5085 -0.4926 -0.0058
  216MPD1    H6 3291   1.158   2.936   0.472 -1.0516 -1.3467 -0.1097
  216MPD1    H7 3292   1.133   3.066   0.360  0.7982 -0.5170  0.1135
  217MPD1     C 3293   1.727   0.975   9.151 -0.4507  0.3089 -0.3699
  217MPD1    C1 3294   1.843   0.916   9.173  0.4417  0.2619  0.0495
  217MPD1    C2 3295   1.845   0.780   9.214 -0.4073  0.3063 -0.6396
  217MPD1    C3 3296   1.728   0.716   9.249 -0.1366  0.2000  0.3958
  217MPD1    C4 3297   1.603   0.774   9.230  0.6175 -0.0464  0.0630
  217MPD1    C5 3298   1.608   0.903   9.182  0.5268 -0.3389  0.3369
  217MPD1     H 3299   1.937   0.723   9.217  1.2749  2.9187 -2.7427
  217MPD1    H1 3300   1.511   0.724   9.258 -0.7791  1.7657 -1.2950
  217MPD1    H2 3301   1.730   1.076   9.112 -1.7411  0.9442  1.1808
  217MPD1    H3 3302   1.515   0.954   9.160  0.0337 -0.7613  1.4633
  217MPD1     N 3303   1.728   0.588   9.317  0.4711  0.0341  0.3618
  217MPD1    H5 3304   1.636   0.550   9.338  1.0826 -0.6561  1.7392
  217MPD1    N1 3305   1.962   0.987   9.152  0.1419 -0.8307 -0.2032
  217MPD1    H6 3306   1.945   1.087   9.153 -0.1443 -0.8699 -0.8786
  217MPD1    H7 3307   2.034   0.954   9.217 -1.2134 -2.8090  0.2932
  218MPD1     C 3308   2.480   0.157  12.538 -0.1888  0.2162 -1.2189
  218MPD1    C1 3309   2.570   0.144  12.639 -0.0531  0.5316  0.7595
  218MPD1    C2 3310   2.694   0.198  12.624 -0.2932 -0.7429 -0.5046
  218MPD1    C3 3311   2.739   0.256  12.505 -0.3520  0.8990  0.2893
  218MPD1    C4 3312   2.640   0.267  12.406  0.2076 -0.4558  0.2810
  218MPD1    C5 3313   2.512   0.225  12.427 -0.3797  0.7538  0.2749
  218MPD1     H 3314   2.764   0.188  12.706 -0.0960 -1.3471 -0.7507
  218MPD1    H1 3315   2.659   0.322  12.314 -1.1826 -2.4774 -1.2136
  218MPD1    H2 3316   2.380   0.115  12.541 -0.4963  1.1170  1.4312
  218MPD1    H3 3317   2.437   0.245  12.351 -0.4095  0.1786  0.1516
  218MPD1     N 3318   2.874   0.286  12.479  0.1637  0.6107  0.0060
  218MPD1    H5 3319   2.936   0.246  12.549 -0.6679 -1.2832 -0.3200
  218MPD1    N1 3320   2.524   0.100  12.764  0.1452 -0.2020 -0.2572
  218MPD1    H6 3321   2.453   0.027  12.765  1.7461 -1.7253  1.6074
  218MPD1    H7 3322   2.590   0.069  12.835 -0.9148 -1.4217  0.1918
  219MPD1     C 3323   3.770   0.515  11.904 -0.0951  0.3496 -0.7058
  219MPD1    C1 3324   3.681   0.599  11.962 -1.0624  0.0937  0.7673
  219MPD1    C2 3325   3.559   0.548  12.002  0.0715  0.1818 -0.0352
  219MPD1    C3 3326   3.532   0.415  11.990  0.1475  0.4978  0.6794
  219MPD1    C4 3327   3.621   0.327  11.937  0.0885  0.3757 -0.3414
  219MPD1    C5 3328   3.738   0.383  11.890  0.3079  0.0890 -0.8116
  219MPD1     H 3329   3.484   0.615  12.043  1.3289  1.3212  0.3799
  219MPD1    H1 3330   3.613   0.220  11.926 -1.3359  0.3046  1.4020
  219MPD1    H2 3331   3.866   0.543  11.864  0.8550 -2.5959 -0.4887
  219MPD1    H3 3332   3.799   0.323  11.824 -1.0924 -1.3909 -0.7465
  219MPD1     N 3333   3.421   0.357  12.049  0.0139 -0.1417 -0.0528
  219MPD1    H5 3334   3.423   0.256  12.046  1.9867 -0.0673 -1.4282
  219MPD1    N1 3335   3.699   0.738  11.969  0.5127  0.8217  0.2137
  219MPD1    H6 3336   3.799   0.756  11.976  0.4719  1.6189 -1.1583
  219MPD1    H7 3337   3.646   0.774  12.048 -0.1432  1.3410 -0.4607
  220MPD1     C 3338   2.861   2.170   9.502 -0.0275 -0.4437 -0.5417
  220MPD1    C1 3339   2.977   2.161   9.580  0.0897 -0.0962  0.5013
  220MPD1    C2 3340   2.986   2.069   9.679  0.1127 -0.0177  0.0437
  220MPD1    C3 3341   2.884   1.989   9.710 -0.0969 -0.6257 -0.0146
  220MPD1    C4 3342   2.772   1.985   9.628  0.1765  0.1078  0.5196
  220MPD1    C5 3343   2.763   2.075   9.526 -0.2060  0.4301  0.2072
  220MPD1     H 3344   3.071   2.061   9.745 -0.3577 -1.9341  0.4219
  220MPD1    H1 3345   2.691   1.917   9.651  0.5710 -0.4550  0.2505
  220MPD1    H2 3346   2.852   2.242   9.422  0.9266 -1.7922 -1.8687
  220MPD1    H3 3347   2.675   2.080   9.464 -1.6013 -0.0233  2.1461
  220MPD1     N 3348   2.902   1.900   9.818 -0.4344  0.2932 -0.3354
  220MPD1    H5 3349   2.990   1.901   9.868 -0.5411 -1.3932 -0.1278
  220MPD1    N1 3350   3.084   2.249   9.550 -0.2331  0.2334 -0.5881
  220MPD1    H6 3351   3.105   2.303   9.634  1.5534 -0.2565 -0.7181
  220MPD1    H7 3352   3.052   2.327   9.493  0.7591  0.7317 -0.4536
  221MPD1     C 3353   1.016   4.106  16.582  0.2333 -0.0581  0.1714
  221MPD1    C1 3354   0.909   4.070  16.511 -0.2273 -0.1973 -0.1238
  221MPD1    C2 3355   0.882   4.135  16.392  0.0910 -0.1713  0.8154
  221MPD1    C3 3356   0.956   4.238  16.339 -0.2044  0.0449 -0.1109
  221MPD1    C4 3357   1.070   4.270  16.408  0.2822  0.6718 -0.5330
  221MPD1    C5 3358   1.103   4.197  16.526  0.2054  0.6563  0.0924
  221MPD1     H 3359   0.785   4.105  16.355  0.1880 -1.4459  1.6125
  221MPD1    H1 3360   1.148   4.333  16.366  0.1526  1.4835  0.4386
  221MPD1    H2 3361   1.039   4.076  16.684 -1.0879 -1.8066 -0.0477
  221MPD1    H3 3362   1.197   4.222  16.575  0.3205  0.0758  0.1705
  221MPD1     N 3363   0.926   4.303  16.221 -0.2130 -0.3144  1.0255
  221MPD1    H5 3364   0.981   4.387  16.207  0.6855 -0.7281  2.0732
  221MPD1    N1 3365   0.816   3.972  16.565 -0.5206 -0.0370  0.4814
  221MPD1    H6 3366   0.761   3.933  16.489  0.8639  0.3936 -0.7385
  221MPD1    H7 3367   0.852   3.900  16.626 -2.0879 -0.2559  1.1597
  222MPD1     C 3368   0.050   4.022  16.312  0.2692  0.8807 -0.1032
  222MPD1    C1 3369   4.649   4.074  16.364  0.2498  0.1120  0.8005
  222MPD1    C2 3370   4.648   4.137  16.486  1.0059 -0.4160  0.4483
  222MPD1    C3 3371   0.046   4.180  16.540 -0.1415  0.0372 -0.0054
  222MPD1    C4 3372   0.167   4.141  16.481  0.0766  0.6640  0.6169
  222MPD1    C5 3373   0.169   4.061  16.373  0.5910  0.6936  0.2358
  222MPD1     H 3374   4.550   4.160  16.526  0.5342 -0.0149 -0.9689
  222MPD1    H1 3375   0.262   4.168  16.526  0.5980 -1.1253  0.5677
  222MPD1    H2 3376   0.054   3.966  16.219  0.0214  0.1987  0.2939
  222MPD1    H3 3377   0.262   4.021  16.334  0.0578 -2.6860  2.3622
  222MPD1     N 3378   0.060   4.264  16.651 -0.3719 -0.3828  1.0325
  222MPD1    H5 3379   0.154   4.275  16.687  0.7423 -0.8877 -1.7166
  222MPD1    N1 3380   4.522   4.024  16.312  0.4696 -0.2098 -0.4996
  222MPD1    H6 3381   4.438   4.067  16.349  0.4176 -1.4136  0.7991
  222MPD1    H7 3382   4.515   4.008  16.212  2.1861 -1.0535 -0.4911
  223MPD1     C 3383   4.246   0.168  17.374 -0.3516  0.0100 -0.3231
  223MPD1    C1 3384   4.353   0.113  17.447  0.4288 -0.0909 -0.5781
  223MPD1    C2 3385   4.454   0.038  17.388  0.0759  1.1796 -0.0178
  223MPD1    C3 3386   4.455   0.032  17.246  0.7901  0.7058  0.6591
  223MPD1    C4 3387   4.357   0.103  17.183  0.3104 -0.6912 -0.2050
  223MPD1    C5 3388   4.255   0.167  17.238  0.0098  0.0725 -0.0337
  223MPD1     H 3389   4.536   4.719  17.447 -2.2871 -1.7370  1.2516
  223MPD1    H1 3390   4.340   0.084  17.078  1.4108  0.7176 -0.6444
  223MPD1    H2 3391   4.162   0.212  17.428 -1.2558 -0.1441 -1.6014
  223MPD1    H3 3392   4.174   0.207  17.178  0.6964  2.3595  0.5612
  223MPD1     N 3393   4.540   4.670  17.173  0.0323  0.4939  0.2425
  223MPD1    H5 3394   4.612   4.622  17.227  0.8252  1.8354  0.3647
  223MPD1    N1 3395   4.352   0.123  17.584  0.1174 -0.6834 -0.7541
  223MPD1    H6 3396   4.436   0.112  17.639  1.1471  0.5020 -2.0952
  223MPD1    H7 3397   4.302   0.207  17.615 -1.4577 -1.0993 -2.1353
  224MPD1     C 3398   2.125   0.823   9.978 -0.4626 -0.1581 -0.4489
  224MPD1    C1 3399   2.021   0.873  10.052 -0.7558 -0.8225  0.8178
  224MPD1    C2 3400   1.939   0.780  10.110 -0.4653 -0.1729  0.3121
  224MPD1    C3 3401   1.962   0.642  10.101  0.5064  0.0630  0.9548
  224MPD1    C4 3402   2.070   0.596  10.031  0.2569  0.2469 -0.2386
  224MPD1    C5 3403   2.151   0.690   9.978  0.6003  0.4840  0.2926
  224MPD1     H 3404   1.855   0.813  10.170 -1.2088 -2.2435  0.4437
  224MPD1    H1 3405   2.101   0.492  10.026  0.6472  0.5004 -3.0003
  224MPD1    H2 3406   2.197   0.883   9.923 -1.8172  1.7312 -0.1280
  224MPD1    H3 3407   2.242   0.650   9.933  0.6697 -0.3787  1.1988
  224MPD1     N 3408   1.875   0.550  10.166  0.0118 -0.0452  0.1512
  224MPD1    H5 3409   1.896   0.451  10.161  2.5800  0.5177  0.0725
  224MPD1    N1 3410   1.973   1.007  10.038  0.5797 -0.0402  0.7715
  224MPD1    H6 3411   1.918   1.034  10.120  0.3913  1.2452  0.2115
  224MPD1    H7 3412   2.048   1.075  10.037  0.1980  0.3703  0.3919
  225MPD1     C 3413   2.850   1.514  13.221 -0.4327  0.2780 -0.2002
  225MPD1    C1 3414   2.833   1.402  13.152  0.5833  0.2680  0.5033
  225MPD1    C2 3415   2.827   1.406  13.017  0.5163 -0.6343 -0.0467
  225MPD1    C3 3416   2.834   1.531  12.949 -0.0111  0.9256 -0.2540
  225MPD1    C4 3417   2.848   1.649  13.027 -0.6219  0.0670  0.2689
  225MPD1    C5 3418   2.857   1.635  13.159 -0.4796  0.6972  0.2010
  225MPD1     H 3419   2.824   1.311  12.964 -0.6887  0.0065 -1.1249
  225MPD1    H1 3420   2.857   1.748  12.983 -2.5714  0.8170  1.5500
  225MPD1    H2 3421   2.854   1.525  13.329  0.6120  1.4378 -0.3493
  225MPD1    H3 3422   2.875   1.725  13.216 -1.4494  0.4775  0.8417
  225MPD1     N 3423   2.810   1.552  12.809  0.5047  0.0164  0.3857
  225MPD1    H5 3424   2.796   1.647  12.776  1.6936 -0.0220 -0.2399
  225MPD1    N1 3425   2.813   1.279  13.222 -0.2367  0.1956 -0.3382
  225MPD1    H6 3426   2.748   1.286  13.300  0.5564 -0.2683  0.3673
  225MPD1    H7 3427   2.758   1.209  13.172 -1.8764  0.5850  0.9410
  226MPD1     C 3428   2.035   1.556   9.681 -1.0829 -0.4882 -0.4560
  226MPD1    C1 3429   2.085   1.428   9.661  0.2631  0.3273  0.0485
  226MPD1    C2 3430   2.006   1.318   9.635  0.1967 -0.3644 -0.1209
  226MPD1    C3 3431   1.870   1.329   9.601  0.2410  0.1550  0.1999
  226MPD1    C4 3432   1.829   1.460   9.613 -0.1373 -0.2509  0.0321
  226MPD1    C5 3433   1.903   1.564   9.663  0.0803 -0.0745 -0.8598
  226MPD1     H 3434   2.048   1.219   9.651  3.2672  1.3428  2.2126
  226MPD1    H1 3435   1.725   1.486   9.594 -0.4524 -1.7741 -0.3773
  226MPD1    H2 3436   2.098   1.639   9.708 -1.6847 -0.6271  1.3356
  226MPD1    H3 3437   1.851   1.659   9.668  0.6150  0.0982  1.5487
  226MPD1     N 3438   1.807   1.210   9.565  0.5506 -0.0779 -0.8304
  226MPD1    H5 3439   1.867   1.130   9.548  0.1689 -0.8696  1.6493
  226MPD1    N1 3440   2.216   1.408   9.710  0.6372  0.0894 -0.1942
  226MPD1    H6 3441   2.272   1.492   9.702 -0.4933  0.9566  1.0575
  226MPD1    H7 3442   2.257   1.334   9.653 -0.9863 -0.1070 -1.1175
  227MPD1     C 3443   0.768   0.871   9.561 -0.7511 -0.5713 -0.1262
  227MPD1    C1 3444   0.856   0.786   9.629 -0.1222 -0.4591 -0.6101
  227MPD1    C2 3445   0.993   0.810   9.626 -0.6416 -0.0097  0.2956
  227MPD1    C3 3446   1.045   0.893   9.531 -0.2461  0.5538  0.0533
  227MPD1    C4 3447   0.962   0.967   9.448  0.7734 -0.1391 -0.3084
  227MPD1    C5 3448   0.823   0.954   9.464  0.1517  0.4419  0.9495
  227MPD1     H 3449   1.055   0.755   9.696  0.1585  1.1281  0.4848
  227MPD1    H1 3450   0.996   1.030   9.366 -2.8176  1.4223 -0.6273
  227MPD1    H2 3451   0.661   0.855   9.558 -1.0585  0.7912  2.8951
  227MPD1    H3 3452   0.764   1.013   9.394  0.0200  1.4531  1.9118
  227MPD1     N 3453   1.188   0.910   9.539  0.6222 -0.1529 -0.2469
  227MPD1    H5 3454   1.231   0.870   9.622  1.3284  1.4586  0.1557
  227MPD1    N1 3455   0.802   0.711   9.732  0.4056  0.1296 -0.4811
  227MPD1    H6 3456   0.876   0.646   9.760 -2.1439 -1.0781  3.5228
  227MPD1    H7 3457   0.718   0.656   9.713  0.6858 -0.9792  1.4845
  228MPD1     C 3458   4.538   3.998  12.809 -0.2918  0.3671 -0.1104
  228MPD1    C1 3459   4.450   3.982  12.701  0.0336 -0.9038  0.5456
  228MPD1    C2 3460   4.330   3.915  12.713 -0.0959 -0.9017  0.3944
  228MPD1    C3 3461   4.284   3.880  12.840  0.4271  0.5229 -0.1147
  228MPD1    C4 3462   4.353   3.924  12.945  0.7133  0.5137 -0.3618
  228MPD1    C5 3463   4.483   3.971  12.932 -0.0371 -0.1073  1.0911
  228MPD1     H 3464   4.266   3.891  12.629 -0.1701  1.9389 -0.3624
  228MPD1    H1 3465   4.320   3.894  13.044  1.2213  0.2565 -0.2708
  228MPD1    H2 3466   4.636   4.042  12.798  0.5581 -1.3128  0.6571
  228MPD1    H3 3467   4.537   3.998  13.022  0.8031 -0.5272  0.7197
  228MPD1     N 3468   4.157   3.816  12.854 -0.2360  0.7608  0.2294
  228MPD1    H5 3469   4.088   3.819  12.780 -0.2630  0.8658  0.2592
  228MPD1    N1 3470   4.480   4.042  12.574 -0.5490  0.6213  0.1390
  228MPD1    H6 3471   4.581   4.051  12.566 -0.7655  0.5388 -2.9550
  228MPD1    H7 3472   4.461   3.969  12.505 -1.3601 -0.2363  1.2815
  229MPD1     C 3473   4.152   3.092  14.957  0.7186 -0.0807 -0.1063
  229MPD1    C1 3474   4.193   3.027  14.847 -0.1182  0.3609 -0.3799
  229MPD1    C2 3475   4.278   2.916  14.852 -0.4355 -0.1405  0.3615
  229MPD1    C3 3476   4.320   2.866  14.972 -0.1119  0.5623  0.3552
  229MPD1    C4 3477   4.267   2.925  15.082  0.1905  0.9195 -0.4649
  229MPD1    C5 3478   4.198   3.044  15.080  0.4159  0.3194  0.3034
  229MPD1     H 3479   4.306   2.867  14.760 -1.8202  1.4673 -0.9113
  229MPD1    H1 3480   4.301   2.885  15.177 -1.8976 -2.0319 -0.9462
  229MPD1    H2 3481   4.091   3.181  14.967  0.0938 -0.3818 -1.2782
  229MPD1    H3 3482   4.175   3.082  15.179 -3.1004 -1.2330  0.0706
  229MPD1     N 3483   4.408   2.755  14.992 -0.1315 -0.0553  0.4292
  229MPD1    H5 3484   4.399   2.709  15.083  0.7663 -0.9279  0.0827
  229MPD1    N1 3485   4.164   3.093  14.723 -0.2889 -0.1866  0.1105
  229MPD1    H6 3486   4.153   3.029  14.645 -0.8709  0.2091 -0.1319
  229MPD1    H7 3487   4.077   3.145  14.737  0.4732  1.1023  0.0620
  230MPD1     C 3488   4.669   1.927  15.485  0.5189 -0.3065 -0.1333
  230MPD1    C1 3489   4.692   1.875  15.361 -0.0942 -0.0051 -0.0964
  230MPD1    C2 3490   4.683   1.960  15.257 -0.0810 -0.5309  0.1557
  230MPD1    C3 3491   4.608   2.081  15.269  0.5046 -0.7970 -0.4484
  230MPD1    C4 3492   4.552   2.113  15.395  0.1533  0.6018  0.0723
  230MPD1    C5 3493   4.597   2.043  15.498 -0.5505 -0.5866  0.0221
  230MPD1     H 3494   0.019   1.940  15.168 -0.8679 -1.2357 -0.1946
  230MPD1    H1 3495   4.501   2.206  15.416 -1.0730 -0.0834  0.1275
  230MPD1    H2 3496   4.710   1.879  15.574 -0.6546  0.4942  0.8430
  230MPD1    H3 3497   4.580   2.077  15.600 -2.4502  0.6489 -0.7088
  230MPD1     N 3498   4.598   2.163  15.156 -0.1845 -0.1267  0.3233
  230MPD1    H5 3499   4.632   2.123  15.069 -1.2172 -1.2405  0.4426
  230MPD1    N1 3500   0.044   1.760  15.347 -0.5242 -0.3956 -0.2031
  230MPD1    H6 3501   0.145   1.767  15.344 -0.5948  0.2334 -1.0602
  230MPD1    H7 3502   0.028   1.714  15.258  0.5401  0.4405 -0.8181
  231MPD1     C 3503   2.696   0.245  15.940 -0.7320  0.5544  0.8658
  231MPD1    C1 3504   2.672   0.244  15.802  0.5021  0.5090 -0.0071
  231MPD1    C2 3505   2.776   0.280  15.711 -0.5576  0.3808 -0.1580
  231MPD1    C3 3506   2.899   0.335  15.757  0.7324 -0.5045  0.1370
  231MPD1    C4 3507   2.909   0.349  15.897  0.7882 -0.0014 -0.3876
  231MPD1    C5 3508   2.815   0.301  15.986  0.3464 -0.3141 -0.2043
  231MPD1     H 3509   2.764   0.276  15.604 -1.3635 -0.1612 -0.0553
  231MPD1    H1 3510   2.991   0.405  15.940  1.3237 -2.0643  1.2589
  231MPD1    H2 3511   2.618   0.211  16.006 -1.6217 -1.3612 -1.1511
  231MPD1    H3 3512   2.837   0.313  16.091 -1.0739  0.6458 -0.0193
  231MPD1     N 3513   2.998   0.378  15.673 -0.0708 -0.9330  0.4747
  231MPD1    H5 3514   2.993   0.354  15.574 -0.6287  0.3626  0.1809
  231MPD1    N1 3515   2.552   0.189  15.759  0.1897  0.1245  0.6187
  231MPD1    H6 3516   2.478   0.205  15.827 -1.5454  0.9938 -1.4738
  231MPD1    H7 3517   2.525   0.202  15.662 -1.2944  0.8699  1.1360
  232MPD1     C 3518   0.830   2.620   0.847 -0.3247 -0.0008  0.2094
  232MPD1    C1 3519   0.813   2.497   0.900 -0.4325  0.0939 -0.0494
  232MPD1    C2 3520   0.690   2.435   0.884  0.0738  0.3673 -0.1638
  232MPD1    C3 3521   0.588   2.501   0.817  0.3590  0.1149 -1.2621
  232MPD1    C4 3522   0.612   2.624   0.758 -0.2238 -0.7170  0.4638
  232MPD1    C5 3523   0.730   2.684   0.787  0.6285 -0.0124  0.4603
  232MPD1     H 3524   0.684   2.341   0.939  0.7954  0.5317  0.2043
  232MPD1    H1 3525   0.534   2.675   0.701  0.7275 -0.9471 -1.0411
  232MPD1    H2 3526   0.924   2.672   0.856 -0.7897  1.1108 -1.3832
  232MPD1    H3 3527   0.742   2.783   0.747 -1.9663  0.0016 -0.3226
  232MPD1     N 3528   0.458   2.433   0.814  0.6052  0.2500  0.3806
  232MPD1    H5 3529   0.449   2.340   0.854  0.1052  1.1206  2.2824
  232MPD1    N1 3530   0.915   2.434   0.971 -0.2361 -0.2109  0.1692
  232MPD1    H6 3531   1.002   2.453   0.921 -0.6055  0.0286 -0.3777
  232MPD1    H7 3532   0.919   2.334   0.984  1.5521 -0.4346 -2.0460
  233MPD1     C 3533   0.681   0.778   1.421 -0.5025 -0.1684 -0.0262
  233MPD1    C1 3534   0.678   0.644   1.433  0.8244  0.0228  0.8828
  233MPD1    C2 3535   0.797   0.580   1.472  0.0415 -0.0194  0.7764
  233MPD1    C3 3536   0.914   0.650   1.508 -0.8231 -0.4494  0.0013
  233MPD1    C4 3537   0.918   0.783   1.488  0.0387 -0.2000  0.1641
  233MPD1    C5 3538   0.802   0.843   1.446  0.5204  0.1153 -0.4799
  233MPD1     H 3539   0.789   0.475   1.495  2.3880 -0.2926  0.3237
  233MPD1    H1 3540   1.002   0.845   1.519  0.6203 -0.0217 -1.8116
  233MPD1    H2 3541   0.593   0.826   1.379  0.3330 -0.1617 -1.7675
  233MPD1    H3 3542   0.810   0.950   1.430 -1.0715  0.2575 -0.2476
  233MPD1     N 3543   1.027   0.593   1.567 -0.8802  0.7294 -0.0823
  233MPD1    H5 3544   1.103   0.658   1.581  0.0816  0.0340 -2.0549
  233MPD1    N1 3545   0.551   0.574   1.442 -0.1319  0.4808 -0.1389
  233MPD1    H6 3546   0.559   0.475   1.417  0.1143  0.3537  0.4607
  233MPD1    H7 3547   0.478   0.614   1.383 -0.1688 -0.6709 -0.8865
  234MPD1     C 3548   2.732   3.782  10.200 -0.0378 -0.0733 -0.3908
  234MPD1    C1 3549   2.769   3.873  10.291 -0.0327  0.2345  0.6304
  234MPD1    C2 3550   2.739   4.008  10.264 -0.4308  0.1445 -0.3359
  234MPD1    C3 3551   2.682   4.047  10.152  0.5579  0.1645 -0.1096
  234MPD1    C4 3552   2.645   3.949  10.058  0.0075 -0.2191  0.5191
  234MPD1    C5 3553   2.672   3.821  10.087  0.2395 -0.5051 -0.4171
  234MPD1     H 3554   2.772   4.082  10.335 -2.1457 -1.0187  1.6816
  234MPD1    H1 3555   2.585   3.970   9.970  1.4808  0.8130 -0.2498
  234MPD1    H2 3556   2.747   3.678  10.227 -1.7657 -0.1615  0.2286
  234MPD1    H3 3557   2.654   3.743  10.014 -0.2063 -0.5551 -0.2543
  234MPD1     N 3558   2.665   4.183  10.129 -0.1646  0.6611 -0.3501
  234MPD1    H5 3559   2.708   4.245  10.198 -0.9422  0.4479  0.3324
  234MPD1    N1 3560   2.848   3.839  10.399 -0.7112  0.6522 -0.2793
  234MPD1    H6 3561   2.897   3.917  10.442 -0.9613 -0.0519  1.2858
  234MPD1    H7 3562   2.798   3.805  10.481  0.4911 -0.3514  0.0398
  235MPD1     C 3563   3.759   1.157  10.268 -0.2114 -0.0367 -0.8602
  235MPD1    C1 3564   3.890   1.190  10.299  0.8630  0.5285 -0.8756
  235MPD1    C2 3565   3.930   1.318  10.280  0.2028  0.2021 -0.1485
  235MPD1    C3 3566   3.857   1.410  10.207  0.0986  0.6494 -0.3586
  235MPD1    C4 3567   3.732   1.368  10.161  0.3254  0.7288 -0.0812
  235MPD1    C5 3568   3.678   1.249  10.206  0.1523 -0.5321  0.4019
  235MPD1     H 3569   4.024   1.352  10.323 -0.0424 -0.0218  0.5470
  235MPD1    H1 3570   3.668   1.436  10.105 -0.0236 -1.0947 -1.8838
  235MPD1    H2 3571   3.714   1.061  10.291 -1.3438 -0.0352 -3.1028
  235MPD1    H3 3572   3.581   1.216  10.171  0.3749 -0.4062 -0.3274
  235MPD1     N 3573   3.913   1.541  10.188  0.1482 -0.3315 -0.4265
  235MPD1    H5 3574   4.003   1.560  10.231 -0.7960  0.5208  1.1796
  235MPD1    N1 3575   3.968   1.101  10.375  0.0673 -0.1075 -0.8939
  235MPD1    H6 3576   4.068   1.116  10.365 -0.3084  1.4926 -2.4694
  235MPD1    H7 3577   3.945   1.007  10.343  0.5236 -0.7375  0.6528
  236MPD1     C 3578   3.907   2.841  10.457  0.0066  0.0761 -0.0895
  236MPD1    C1 3579   3.785   2.788  10.433  0.0244  0.6713 -1.1007
  236MPD1    C2 3580   3.752   2.673  10.482  0.2075 -0.6722  0.0412
  236MPD1    C3 3581   3.832   2.608  10.572 -0.4210 -0.9034 -0.3508
  236MPD1    C4 3582   3.952   2.669  10.606 -0.1096 -0.4968  0.5014
  236MPD1    C5 3583   3.998   2.778  10.534  0.0618  0.4090 -0.6639
  236MPD1     H 3584   3.658   2.622  10.469 -0.4000 -0.0131  1.8478
  236MPD1    H1 3585   4.012   2.631  10.688  4.5801  2.1609 -1.6993
  236MPD1    H2 3586   3.943   2.936  10.418  0.9284 -0.4212 -0.4596
  236MPD1    H3 3587   4.091   2.828  10.554  0.9167 -2.0602  1.5493
  236MPD1     N 3588   3.800   2.486  10.633  0.2056  0.1171 -0.7164
  236MPD1    H5 3589   3.868   2.451  10.700  0.2491  1.5622  0.0044
  236MPD1    N1 3590   3.700   2.855  10.347  0.3899  0.0241  0.2168
  236MPD1    H6 3591   3.702   2.813  10.254 -0.1635 -0.9122  0.6298
  236MPD1    H7 3592   3.729   2.950  10.327  1.3646  0.2301  2.5622
  237MPD1     C 3593   2.718   0.939  16.065  0.3720  0.3744 -0.0544
  237MPD1    C1 3594   2.734   1.045  15.974 -0.3408 -0.2871 -0.1990
  237MPD1    C2 3595   2.633   1.066  15.886  0.1329  0.4231 -0.2482
  237MPD1    C3 3596   2.513   0.995  15.894  0.4176 -0.1478 -0.5945
  237MPD1    C4 3597   2.497   0.896  15.989 -0.4324  0.4318  0.9819
  237MPD1    C5 3598   2.605   0.870  16.072 -0.1461  0.9474 -0.5521
  237MPD1     H 3599   2.658   1.130  15.802  1.0571  1.7080  0.9848
  237MPD1    H1 3600   2.408   0.835  15.983  0.7905 -1.3058  0.7242
  237MPD1    H2 3601   2.801   0.914  16.130  3.0245  0.0478 -3.5016
  237MPD1    H3 3602   2.595   0.782  16.133  2.4750  1.8103  1.1343
  237MPD1     N 3603   2.404   1.024  15.807  0.2128 -0.0728 -1.0665
  237MPD1    H5 3604   2.320   0.976  15.838  0.5599 -1.2204 -1.8876
  237MPD1    N1 3605   2.860   1.108  15.974  0.2452  0.5228 -0.0547
  237MPD1    H6 3606   2.877   1.197  15.929 -0.5002  1.8381  2.2455
  237MPD1    H7 3607   2.913   1.092  16.060 -0.1477  0.3806  0.1609
  238MPD1     C 3608   0.035   0.564  14.960  0.5853 -0.6951 -0.1767
  238MPD1    C1 3609   4.668   0.529  15.063  0.8755  0.0468  0.2017
  238MPD1    C2 3610   4.558   0.451  15.034  0.1935  0.7032  0.4826
  238MPD1    C3 3611   4.554   0.391  14.909  0.5464  0.4499  0.4189
  238MPD1    C4 3612   4.642   0.425  14.811  0.6237  0.2032 -0.6494
  238MPD1    C5 3613   0.031   0.508  14.835  0.0707 -0.0845 -0.2378
  238MPD1     H 3614   4.488   0.433  15.115 -1.4056  2.4690 -0.5186
  238MPD1    H1 3615   4.635   0.378  14.714 -0.7671 -2.0840  0.5597
  238MPD1    H2 3616   0.107   0.642  14.983 -0.2584  0.8236 -2.6913
  238MPD1    H3 3617   0.093   0.540  14.753 -2.3771 -1.3085 -2.5566
  238MPD1     N 3618   4.463   0.294  14.880 -0.3560 -0.2344  0.2818
  238MPD1    H5 3619   4.457   0.261  14.784  2.4012 -0.2572  0.1150
  238MPD1    N1 3620   4.673   0.605  15.178 -0.5530 -0.5296  0.6241
  238MPD1    H6 3621   4.623   0.565  15.257 -1.6713 -3.2019 -1.4472
  238MPD1    H7 3622   0.051   0.617  15.195 -1.2724  1.0951  3.7430
  239MPD1     C 3623   0.245   0.855  14.880  0.2829  1.2384 -0.0409
  239MPD1    C1 3624   0.313   0.794  14.785 -0.2792  0.0302  0.4553
  239MPD1    C2 3625   0.257   0.801  14.660  0.1413  0.3117 -0.0369
  239MPD1    C3 3626   0.131   0.843  14.624  0.0756 -0.0585  1.1879
  239MPD1    C4 3627   0.062   0.900  14.730  0.1832  0.0075 -0.2074
  239MPD1    C5 3628   0.120   0.904  14.857  0.4554  0.4943  0.3848
  239MPD1     H 3629   0.309   0.744  14.584 -0.2962  0.3825 -0.3940
  239MPD1    H1 3630   4.687   0.949  14.722  0.3634  0.0449 -2.0627
  239MPD1    H2 3631   0.280   0.842  14.982 -0.0926  0.4368 -0.0149
  239MPD1    H3 3632   0.077   0.961  14.939  0.2264  0.8423  0.0245
  239MPD1     N 3633   0.075   0.839  14.494  0.6366  0.4089  0.3141
  239MPD1    H5 3634   4.701   0.875  14.488  0.8565  1.0643  0.7328
  239MPD1    N1 3635   0.442   0.743  14.810  0.7820  0.3607  0.0728
  239MPD1    H6 3636   0.452   0.693  14.898  1.1564 -1.7703 -1.1823
  239MPD1    H7 3637   0.456   0.678  14.733 -0.3917  0.0736  0.1064
  240MPD1     C 3638   4.445   0.223  13.645 -0.2372 -0.8016  0.2736
  240MPD1    C1 3639   4.481   0.259  13.773  0.0219 -0.5793  0.3875
  240MPD1    C2 3640   4.382   0.312  13.861 -0.8147 -0.2665 -0.7211
  240MPD1    C3 3641   4.248   0.300  13.822 -0.1126  0.2220  0.2805
  240MPD1    C4 3642   4.219   0.238  13.700  0.1735  0.7523  0.3682
  240MPD1    C5 3643   4.321   0.208  13.612  0.6081  0.4049 -0.1935
  240MPD1     H 3644   4.403   0.346  13.961  0.1016  1.5908 -1.5382
  240MPD1    H1 3645   4.120   0.217  13.660  0.1219 -0.5911  1.1937
  240MPD1    H2 3646   4.522   0.200  13.572  0.1491  0.9684  0.1317
  240MPD1    H3 3647   4.296   0.162  13.517 -0.5732 -0.2002  0.4099
  240MPD1     N 3648   4.159   0.345  13.921  0.1188 -0.5790 -0.1591
  240MPD1    H5 3649   4.197   0.395  14.001  0.6200  0.9553 -1.3517
  240MPD1    N1 3650   4.615   0.280  13.793 -0.7601 -0.5875  0.4666
  240MPD1    H6 3651   4.663   0.209  13.737  0.9066  2.7208 -2.2979
  240MPD1    H7 3652   4.633   0.273  13.893 -1.5812 -2.2086  0.4995
  241MPD1     C 3653   4.077   0.484  14.882 -0.2152 -0.1969 -0.1234
  241MPD1    C1 3654   4.127   0.545  14.770  0.0233 -0.3006  0.2157
  241MPD1    C2 3655   4.094   0.502  14.644  0.4162  0.0864  0.4020
  241MPD1    C3 3656   4.003   0.397  14.629 -0.1446 -0.6983 -0.6612
  241MPD1    C4 3657   3.960   0.329  14.741  0.0552  0.6125 -0.3533
  241MPD1    C5 3658   3.999   0.371  14.866  0.5781 -0.7595  0.0684
  241MPD1     H 3659   4.129   0.553  14.555 -2.7566 -1.1516 -1.5447
  241MPD1    H1 3660   3.901   0.239  14.731  1.2016 -0.4162  2.0172
  241MPD1    H2 3661   4.095   0.516  14.984 -0.4542 -0.7545  0.0938
  241MPD1    H3 3662   3.952   0.330  14.954  2.4784  1.8057  2.2759
  241MPD1     N 3663   3.970   0.345  14.504 -0.3310  0.2187  0.2936
  241MPD1    H5 3664   3.925   0.254  14.496 -0.7142  0.4810 -0.5172
  241MPD1    N1 3665   4.221   0.648  14.787  1.1625  0.0312 -0.3926
  241MPD1    H6 3666   4.240   0.668  14.885 -2.7794 -2.9768  0.9580
  241MPD1    H7 3667   4.203   0.733  14.735  1.1606  0.0012 -0.4407
  242MPD1     C 3668   3.813   4.044  15.731 -0.4181  0.7737  0.1269
  242MPD1    C1 3669   3.836   4.102  15.608 -0.2368 -0.3388  0.8219
  242MPD1    C2 3670   3.863   4.026  15.493  0.3056 -0.0206 -0.3609
  242MPD1    C3 3671   3.847   3.889  15.500  0.5107 -0.3877  0.2982
  242MPD1    C4 3672   3.816   3.831  15.624  0.4490  0.5495  0.9348
  242MPD1    C5 3673   3.788   3.908  15.734  0.5285  0.0250  0.4546
  242MPD1     H 3674   3.896   4.076  15.403  3.4545 -0.9575  0.2650
  242MPD1    H1 3675   3.806   3.723  15.633  4.4254  0.0564 -0.5082
  242MPD1    H2 3676   3.815   4.093  15.828 -1.7848 -0.5820  0.8503
  242MPD1    H3 3677   3.764   3.862  15.830 -0.4697 -0.3895  0.0038
  242MPD1     N 3678   3.876   3.804  15.392  0.6728 -0.4293  0.2255
  242MPD1    H5 3679   3.903   3.711  15.421  1.2891 -0.2242  0.3130
  242MPD1    N1 3680   3.879   4.230  15.608 -0.2577 -0.9609  0.0317
  242MPD1    H6 3681   3.866   4.279  15.520 -0.6327 -0.6137  0.2801
  242MPD1    H7 3682   3.833   4.294  15.673  0.4015 -0.9994  0.5382
  243MPD1     C 3683   1.106   0.980   0.085 -0.6170  0.1139 -0.1903
  243MPD1    C1 3684   1.052   0.986  17.653  0.2327  0.3517  0.1643
  243MPD1    C2 3685   1.000   1.104  17.604 -0.3094  0.2943  0.2530
  243MPD1    C3 3686   1.015   1.218  17.677 -0.0643  0.4520 -0.1418
  243MPD1    C4 3687   1.059   1.213   0.121 -0.6183 -0.6256 -0.1730
  243MPD1    C5 3688   1.108   1.091   0.163 -0.5737 -0.2770 -0.2213
  243MPD1     H 3689   0.945   1.112  17.511 -0.2338 -0.2477  0.1617
  243MPD1    H1 3690   1.067   1.299   0.186 -1.0637  0.1305 -1.1131
  243MPD1    H2 3691   1.146   0.892   0.135 -0.2420  0.6515  0.4551
  243MPD1    H3 3692   1.148   1.080   0.263 -1.1711  1.3255  0.2053
  243MPD1     N 3693   0.957   1.339  17.628 -0.2368  0.2465  0.0759
  243MPD1    H5 3694   0.922   1.344  17.533  0.7849  0.1439 -0.3107
  243MPD1    N1 3695   1.063   0.868  17.572 -0.6854  0.0898  0.3835
  243MPD1    H6 3696   1.069   0.785  17.632 -1.0066 -0.0076  0.2792
  243MPD1    H7 3697   0.978   0.864  17.517 -0.5261  1.1674  0.0687
  244MPD1     C 3698   0.379   2.260  17.631 -0.3059 -1.3004 -0.3945
  244MPD1    C1 3699   0.413   2.226  17.504  0.4551  1.0061 -0.6605
  244MPD1    C2 3700   0.494   2.112  17.484  0.1831  0.3147 -0.3256
  244MPD1    C3 3701   0.535   2.032  17.586 -0.1982  0.4050 -0.1839
  244MPD1    C4 3702   0.500   2.064   0.029  0.3389  0.1064 -0.2821
  244MPD1    C5 3703   0.413   2.171   0.044  0.0790  0.7766 -0.1488
  244MPD1     H 3704   0.526   2.094  17.382  1.4391  3.3637 -0.4765
  244MPD1    H1 3705   0.525   2.007   0.118 -0.3889 -0.4958 -0.4670
  244MPD1    H2 3706   0.323   2.350  17.657 -1.0319 -1.6726 -0.6865
  244MPD1    H3 3707   0.373   2.193   0.142  1.1352  1.1855  0.1851
  244MPD1     N 3708   0.622   1.924  17.553  0.3277 -0.5279 -0.3277
  244MPD1    H5 3709   0.655   1.916  17.457  0.2836 -1.9620 -0.2227
  244MPD1    N1 3710   0.375   2.309  17.399 -0.6767 -0.0821  0.1243
  244MPD1    H6 3711   0.344   2.240  17.330  1.7531  0.4869 -1.5199
  244MPD1    H7 3712   0.293   2.364  17.426 -1.1250  0.3154 -2.0072
  245MPD1     C 3713   2.166   2.652  13.309  0.0477 -0.0254 -0.4257
  245MPD1    C1 3714   2.288   2.586  13.326  0.1635  0.7069 -0.1304
  245MPD1    C2 3715   2.399   2.667  13.348  0.0116 -0.0133  0.1274
  245MPD1    C3 3716   2.392   2.807  13.351 -0.2449  0.0510  0.1438
  245MPD1    C4 3717   2.268   2.866  13.332  0.2837 -0.5438  0.7062
  245MPD1    C5 3718   2.161   2.790  13.299  0.2631  0.1679  0.1811
  245MPD1     H 3719   2.495   2.618  13.361  0.5649  0.9229 -0.4718
  245MPD1    H1 3720   2.272   2.974  13.326  2.1101 -0.7132 -1.0150
  245MPD1    H2 3721   2.069   2.607  13.293 -0.5313  0.6130  1.3271
  245MPD1    H3 3722   2.060   2.825  13.284  0.4027  0.0813 -0.9380
  245MPD1     N 3723   2.500   2.891  13.386  0.8465 -0.3855 -0.2281
  245MPD1    H5 3724   2.475   2.987  13.405  3.9950  0.8642 -2.5281
  245MPD1    N1 3725   2.290   2.447  13.340  0.5042 -0.0780  1.0890
  245MPD1    H6 3726   2.249   2.397  13.262  1.7641 -0.2979  0.5666
  245MPD1    H7 3727   2.387   2.416  13.345  0.6551  0.2004 -0.1088
  246MPD1     C 3728   1.924   2.630   8.710 -0.1203 -0.0649 -0.5049
  246MPD1    C1 3729   2.010   2.683   8.804 -0.2103  1.4107  0.0952
  246MPD1    C2 3730   2.033   2.610   8.922 -0.0405  1.0534 -0.4398
  246MPD1    C3 3731   1.983   2.474   8.928  0.2298  0.4904  0.3369
  246MPD1    C4 3732   1.896   2.423   8.835 -0.4692  0.5382  0.4882
  246MPD1    C5 3733   1.875   2.507   8.730 -0.0868 -0.1229  0.0474
  246MPD1     H 3734   2.093   2.649   9.003 -0.8801 -0.2576  0.8193
  246MPD1    H1 3735   1.875   2.317   8.822  1.7840 -0.0378  1.3569
  246MPD1    H2 3736   1.894   2.680   8.619 -0.1957  1.1721  0.1899
  246MPD1    H3 3737   1.822   2.457   8.650  0.3900 -0.8216  0.1684
  246MPD1     N 3738   2.014   2.403   9.047 -0.8085 -0.3348  0.0319
  246MPD1    H5 3739   2.099   2.427   9.097 -1.8949  1.8800  0.8468
  246MPD1    N1 3740   2.062   2.818   8.794 -0.2084 -0.4268 -0.1497
  246MPD1    H6 3741   2.068   2.855   8.700 -0.8282 -2.1685 -0.8795
  246MPD1    H7 3742   2.146   2.847   8.844  0.0420  1.6891 -1.7988
  247MPD1     C 3743   2.240   2.662  16.702 -0.1775  0.2491  0.2917
  247MPD1    C1 3744   2.143   2.580  16.754 -0.4567 -0.1833  0.1034
  247MPD1    C2 3745   2.108   2.466  16.679  0.5919  0.1415 -0.9374
  247MPD1    C3 3746   2.160   2.447  16.551 -0.1320  0.7947 -0.0214
  247MPD1    C4 3747   2.240   2.537  16.495 -0.1027 -0.0163  0.2479
  247MPD1    C5 3748   2.286   2.638  16.577 -0.2003 -0.2811  0.1096
  247MPD1     H 3749   2.030   2.402  16.720  0.7245  0.1048 -0.7425
  247MPD1    H1 3750   2.291   2.513  16.403 -0.4646  2.2040 -0.5344
  247MPD1    H2 3751   2.285   2.744  16.758  1.6227  1.6226 -3.1750
  247MPD1    H3 3752   2.355   2.712  16.537  0.8614 -0.9371  0.7170
  247MPD1     N 3753   2.138   2.334  16.467 -0.1381  0.0712  0.2592
  247MPD1    H5 3754   2.161   2.345  16.369  0.7661  0.3206  0.5041
  247MPD1    N1 3755   2.096   2.597  16.888  0.5738  0.0892 -0.1303
  247MPD1    H6 3756   2.003   2.561  16.909  0.9572  0.6648  2.5821
  247MPD1    H7 3757   2.109   2.692  16.921 -0.8511  0.1018  0.3895
  248MPD1     C 3758   2.807   1.611  17.498 -0.6332 -0.6069  0.8145
  248MPD1    C1 3759   2.696   1.626  17.574  0.2093  0.3819 -0.1111
  248MPD1    C2 3760   2.716   1.651   0.027  0.0935  0.4438  0.9397
  248MPD1    C3 3761   2.849   1.678   0.071  0.3733  0.8750 -0.3441
  248MPD1    C4 3762   2.957   1.653  17.677  0.0861  0.3294  0.2864
  248MPD1    C5 3763   2.931   1.634  17.545  0.0190  0.9565 -0.8721
  248MPD1     H 3764   2.631   1.664   0.092 -1.1618 -2.4822 -0.1323
  248MPD1    H1 3765   3.060   1.656   0.025  0.0603  1.1528  0.2683
  248MPD1    H2 3766   2.787   1.589  17.394 -0.9588 -1.4059  1.0436
  248MPD1    H3 3767   3.011   1.635  17.473  1.1428 -2.0815  0.3325
  248MPD1     N 3768   2.860   1.689   0.209 -0.5612  0.1024 -0.5714
  248MPD1    H5 3769   2.783   1.729   0.263 -0.1686  1.4019 -0.9675
  248MPD1    N1 3770   2.563   1.597  17.537  0.1096 -0.6977 -0.3216
  248MPD1    H6 3771   2.502   1.662  17.587  1.5720  0.8365 -0.5283
  248MPD1    H7 3772   2.542   1.613  17.439  1.5398 -1.4356 -0.7438
  249MPD1     C 3773   3.947   4.657  10.235 -0.6069  0.3146 -0.5504
  249MPD1    C1 3774   3.922   4.670  10.104  0.8802  0.6432  0.0044
  249MPD1    C2 3775   3.906   0.078  10.043 -0.4710 -0.2874 -0.7364
  249MPD1    C3 3776   3.946   0.183  10.121  0.4751  0.3980 -0.1848
  249MPD1    C4 3777   3.989   0.164  10.247 -0.0779 -0.2033 -0.2153
  249MPD1    C5 3778   4.002   0.040  10.305 -0.1711  0.2486 -0.2963
  249MPD1     H 3779   3.865   0.100   9.945  0.4083  2.2153 -0.5434
  249MPD1    H1 3780   4.023   0.250  10.304 -0.7129 -0.9360  1.2576
  249MPD1    H2 3781   3.952   4.560  10.283  0.9875  1.4763  1.6481
  249MPD1    H3 3782   4.025   0.020  10.409  2.6202 -0.2071 -0.9860
  249MPD1     N 3783   3.928   0.310  10.059  0.0236  1.1955  0.1365
  249MPD1    H5 3784   3.900   0.310   9.962 -3.1315 -1.5792  1.0597
  249MPD1    N1 3785   3.876   4.558  10.036 -0.1132 -0.0793 -0.7527
  249MPD1    H6 3786   3.926   4.472  10.059 -0.5457 -0.5530 -1.5751
  249MPD1    H7 3787   3.881   4.567   9.935 -3.5724 -1.0399 -1.0029
  250MPD2     C 3788   1.173   1.146  12.901  0.3812 -0.2090  0.5300
  250MPD2    C1 3789   1.090   1.144  13.011  0.5313  0.0261 -0.2415
  250MPD2    C2 3790   0.990   1.050  13.035  0.2053  1.1135 -0.0311
  250MPD2    C3 3791   0.976   0.937  12.954 -0.7367 -0.0808 -0.2162
  250MPD2    C4 3792   1.055   0.941  12.837 -0.3271 -0.5515  0.2614
  250MPD2    C5 3793   1.153   1.038  12.818  0.3086  0.5711 -0.6181
  250MPD2     H 3794   0.939   1.040  13.130  1.6121 -1.8127  0.4154
  250MPD2    H1 3795   1.039   0.860  12.766  0.2424  0.2478 -0.7713
  250MPD2    H2 3796   1.255   1.215  12.886  0.6426 -0.5537  0.3823
  250MPD2    H3 3797   1.223   1.021  12.738  1.3506  2.1761 -0.0578
  250MPD2     N 3798   0.902   0.824  12.988  0.2280 -0.6296  0.0609
  250MPD2    H5 3799   0.906   0.745  12.925 -0.2630 -0.2381 -0.4656
  250MPD2    N1 3800   1.118   1.247  13.097  0.1718  0.0363 -0.6227
  250MPD2    H7 3801   1.197   1.308  13.077 -0.0883  1.0773  1.5127
  251TMC3    C1 3802   1.120   1.410  13.260 -0.1120  0.7994 -0.9475
  251TMC3    C2 3803   1.038   1.510  13.296 -0.0618 -0.2171 -0.4315
  251TMC3    C3 3804   1.087   1.634  13.312 -0.2978 -0.4952  0.1279
  251TMC3    C4 3805   1.253   1.433  13.240  0.6246  0.4917  0.2356
  251TMC3    C5 3806   1.297   1.557  13.266 -0.6191 -0.3867 -0.4616
  251TMC3    C6 3807   1.216   1.660  13.304 -0.3214  0.2989  0.5294
  251TMC3     C 3808   1.048   1.289  13.208 -0.1677  0.1838 -0.2585
  251TMC3     O 3809   0.931   1.272  13.240  0.8438 -0.2077  0.3316
  251TMC3     H 3810   0.930   1.495  13.298 -0.1931  0.6529 -0.7946
  251TMC3    H1 3811   1.326   1.357  13.214 -0.3012  0.0729 -1.1517
  251TMC3    H2 3812   1.259   1.759  13.311 -1.7522  0.9491 -0.0248
  251TMC3    C7 3813   1.440   1.586  13.234  0.9214  0.2015 -0.3007
  251TMC3    C8 3814   0.991   1.733  13.351 -0.3689 -0.4769  0.2225
  251TMC3    O1 3815   1.508   1.488  13.208 -0.0785 -0.1742 -0.2144
  251TMC3    O2 3816   0.886   1.693  13.396 -0.3585  0.6740 -0.2608
  252TMC3    C1 3817   1.193   2.272   9.470  0.2344 -0.7031  0.1987
  252TMC3    C2 3818   1.299   2.347   9.422 -0.0311 -0.0010 -0.8251
  252TMC3    C3 3819   1.424   2.312   9.451 -0.2677 -0.2791 -0.1087
  252TMC3    C4 3820   1.201   2.150   9.529  0.0328 -0.4729 -0.6402
  252TMC3    C5 3821   1.330   2.103   9.548 -0.1873 -0.1112 -0.1781
  252TMC3    C6 3822   1.438   2.182   9.509 -0.2723 -0.5645 -0.2489
  252TMC3     C 3823   1.056   2.322   9.454 -0.1186  0.1257  0.8803
  252TMC3     O 3824   0.969   2.274   9.524  0.3527 -0.0772 -0.1586
  252TMC3     H 3825   1.281   2.445   9.380  0.9541  0.2181 -0.7433
  252TMC3    H1 3826   1.113   2.090   9.553 -1.4127  1.9039  0.0128
  252TMC3    H2 3827   1.539   2.142   9.517  0.1352 -0.0277 -2.5054
  252TMC3    C7 3828   1.368   2.004   9.651  0.0834 -0.2619  0.2419
  252TMC3    C8 3829   1.536   2.391   9.406  0.8052 -0.1277  0.7855
  252TMC3    O1 3830   1.485   1.993   9.679 -0.3892 -0.0645 -0.3301
  252TMC3    O2 3831   1.510   2.476   9.321 -0.1568  0.3738  0.1994
  253MPD2     C 3832   2.254   1.478  15.712  0.4741 -0.3767  0.2880
  253MPD2    C1 3833   2.118   1.468  15.704 -0.1888  0.1421  0.1322
  253MPD2    C2 3834   2.042   1.398  15.797  0.6006  0.2998  0.0365
  253MPD2    C3 3835   2.110   1.329  15.897 -0.4975 -0.0422  0.4170
  253MPD2    C4 3836   2.250   1.331  15.902 -0.3414 -0.6366 -0.2442
  253MPD2    C5 3837   2.318   1.412  15.813 -0.1216  0.6182 -0.1709
  253MPD2     H 3838   1.935   1.396  15.785  0.4068  0.9274  1.7796
  253MPD2    H1 3839   2.298   1.270  15.977 -0.6317  0.6417  0.9817
  253MPD2    H2 3840   2.313   1.519  15.631 -0.2716 -0.9708 -0.5621
  253MPD2    H3 3841   2.425   1.407  15.804  0.0078  2.1647  0.5130
  253MPD2     N 3842   2.039   1.244  15.987  0.0848  0.4496 -0.2488
  253MPD2    H5 3843   2.095   1.184  16.046 -0.7839 -0.6745 -0.5653
  253MPD2    N1 3844   2.043   1.510  15.593  0.3266 -0.0497 -0.6635
  253MPD2    H7 3845   1.952   1.466  15.593 -1.2273  3.1798  0.2367
  254TMC3    C1 3846   1.862   1.125  16.083 -0.3591  0.2524 -0.1240
  254TMC3    C2 3847   1.739   1.080  16.071  0.4503 -1.0185 -0.2079
  254TMC3    C3 3848   1.686   1.006  16.173  0.2063 -0.7676 -0.7709
  254TMC3    C4 3849   1.940   1.105  16.188  0.3993 -0.2344 -0.1504
  254TMC3    C5 3850   1.892   1.012  16.276 -0.1712 -0.2058  0.1897
  254TMC3    C6 3851   1.767   0.957  16.271 -0.0463  0.5547  0.0423
  254TMC3     C 3852   1.904   1.225  15.986  0.0606 -0.3628  0.3859
  254TMC3     O 3853   1.816   1.278  15.922  0.0157  0.3705 -0.0926
  254TMC3     H 3854   1.681   1.096  15.981  0.3060  1.2993  0.3113
  254TMC3    H1 3855   2.042   1.138  16.204 -0.0828  1.5267 -0.7100
  254TMC3    H2 3856   1.727   0.902  16.355  0.8238 -0.0977  0.0291
  254TMC3    C7 3857   1.977   0.978  16.387 -0.2859  0.3670 -0.2166
  254TMC3    C8 3858   1.547   1.017  16.206 -0.1183  0.1546 -0.1569
  254TMC3    O1 3859   2.050   1.070  16.430 -0.0758  0.8578 -0.4609
  254TMC3    O2 3860   1.504   0.934  16.290 -0.0715 -0.1799  0.4687
  255MPD2     C 3861   1.782   3.250  10.499  0.6454 -0.7354  0.3389
  255MPD2    C1 3862   1.755   3.387  10.497  0.5900  0.0635 -0.2894
  255MPD2    C2 3863   1.682   3.434  10.389  0.4814 -0.4925 -0.4598
  255MPD2    C3 3864   1.617   3.342  10.306  0.0248 -0.3179 -0.3163
  255MPD2    C4 3865   1.623   3.210  10.318 -0.1797  0.0702 -0.3142
  255MPD2    C5 3866   1.706   3.163  10.422  0.4234  0.3592  0.1308
  255MPD2     H 3867   1.655   3.537  10.370 -3.0085 -1.2244  0.6279
  255MPD2    H1 3868   1.559   3.147  10.257  0.9744 -0.4517 -0.9764
  255MPD2    H2 3869   1.852   3.204  10.567 -0.9983 -1.4879  1.5268
  255MPD2    H3 3870   1.712   3.055  10.426 -0.0629  0.1515 -4.8568
  255MPD2     N 3871   1.570   3.405  10.189 -0.3063  0.0117  0.4900
  255MPD2    H5 3872   1.586   3.504  10.173  0.2254 -0.2450 -0.6016
  255MPD2    N1 3873   1.825   3.473  10.587  0.2497  1.0591  0.0530
  255MPD2    H7 3874   1.905   3.431  10.634 -0.6730  0.5308  1.1636
  256TMC3    C1 3875   1.682   3.679  10.567 -0.6393 -0.3501 -0.1486
  256TMC3    C2 3876   1.687   3.813  10.540  0.2557 -0.5593  0.1170
  256TMC3    C3 3877   1.573   3.891  10.543 -0.1517  0.3263 -0.2774
  256TMC3    C4 3878   1.564   3.619  10.602  0.9830 -0.2214 -1.2692
  256TMC3    C5 3879   1.443   3.690  10.582 -0.4324  0.3236  0.4547
  256TMC3    C6 3880   1.449   3.822  10.556  0.1967  0.0911  0.1861
  256TMC3     C 3881   1.803   3.609  10.611 -0.2053  0.3159  0.3353
  256TMC3     O 3882   1.857   3.678  10.697 -0.1131 -0.3702 -0.0580
  256TMC3     H 3883   1.779   3.871  10.531 -1.0210  1.2110 -1.5086
  256TMC3    H1 3884   1.569   3.522  10.650 -0.8822  0.9338  1.2584
  256TMC3    H2 3885   1.356   3.877  10.544 -0.2969 -0.3467  1.9202
  256TMC3    C7 3886   1.337   3.630  10.504 -0.7031 -0.4105  0.1381
  256TMC3    C8 3887   1.573   4.024  10.488 -0.2525  0.1055 -0.1437
  256TMC3    O1 3888   1.248   3.696  10.452 -0.2662 -0.1132 -0.1039
  256TMC3    O2 3889   1.618   4.045  10.375 -0.2170 -0.3691 -0.1623
  257MPD2     C 3890   0.013   1.166  13.199 -0.0199  0.4161 -0.2726
  257MPD2    C1 3891   4.630   1.089  13.144  0.5978  0.2966  0.2067
  257MPD2    C2 3892   4.554   1.011  13.226  0.1598  0.4857 -0.2792
  257MPD2    C3 3893   4.576   1.006  13.358  0.6019  0.1300  0.1096
  257MPD2    C4 3894   4.697   1.059  13.403 -0.3383  0.2699 -0.2138
  257MPD2    C5 3895   0.056   1.144  13.326 -0.1207  0.2899  1.2916
  257MPD2     H 3896   4.472   0.953  13.185  1.5327 -1.1200 -0.8130
  257MPD2    H1 3897   0.011   1.048  13.505  1.5400 -1.3259 -1.0040
  257MPD2    H2 3898   0.073   1.237  13.142  0.2507 -0.1496 -0.6946
  257MPD2    H3 3899   0.146   1.195  13.359  0.7508  0.6003 -1.5368
  257MPD2     N 3900   4.480   0.941  13.442 -0.1249  0.3053  0.5349
  257MPD2    H5 3901   4.397   0.906  13.395  0.6132 -0.2963 -0.3253
  257MPD2    N1 3902   4.607   1.114  13.006  0.2305  0.0939 -0.4468
  257MPD2    H7 3903   4.639   1.204  12.973  0.3988  1.1613  2.6993
  258TMC3    C1 3904   4.386   0.833  13.627  0.2167  0.5803 -0.3257
  258TMC3    C2 3905   4.294   0.782  13.536  0.3468  0.7462 -0.1480
  258TMC3    C3 3906   4.185   0.711  13.581 -0.3179 -0.5634 -0.2678
  258TMC3    C4 3907   4.362   0.818  13.755  0.6721  0.5042  0.4022
  258TMC3    C5 3908   4.256   0.745  13.792  1.2026  0.4080  0.0451
  258TMC3    C6 3909   4.163   0.692  13.717 -0.1611  0.2662  0.3700
  258TMC3     C 3910   4.495   0.915  13.577  0.5454 -0.3681 -0.4963
  258TMC3     O 3911   4.586   0.948  13.651 -0.1260  0.3990  0.3439
  258TMC3     H 3912   4.290   0.799  13.429 -1.8235 -0.0720 -0.1895
  258TMC3    H1 3913   4.425   0.867  13.828  0.5389 -1.6341  1.9702
  258TMC3    H2 3914   4.079   0.634  13.753  1.3213 -1.2879  1.3523
  258TMC3    C7 3915   4.250   0.693  13.928 -0.1218  0.0621 -0.2814
  258TMC3    C8 3916   4.125   0.617  13.488 -0.0799 -0.2847  0.0035
  258TMC3    O1 3917   4.137   0.661  13.964  0.4016  0.5719  0.0351
  258TMC3    O2 3918   4.141   0.638  13.371  0.2189 -0.4457 -0.4956
  259MPD2     C 3919   3.379   2.401   0.798 -0.1276 -0.3761  0.2071
  259MPD2    C1 3920   3.470   2.305   0.846  0.4872 -0.0644  0.4717
  259MPD2    C2 3921   3.574   2.274   0.755 -0.1785  0.2580  0.0356
  259MPD2    C3 3922   3.592   2.338   0.636 -0.1356 -0.2179  0.9526
  259MPD2    C4 3923   3.492   2.424   0.589  0.5731 -0.7411  0.6280
  259MPD2    C5 3924   3.386   2.453   0.671  1.3508  0.1479  0.3513
  259MPD2     H 3925   3.645   2.198   0.784 -0.5288  0.0039  0.2320
  259MPD2    H1 3926   3.489   2.471   0.491 -0.5844  0.5001  1.2726
  259MPD2    H2 3927   3.288   2.431   0.849  0.6336 -0.9501  1.8923
  259MPD2    H3 3928   3.311   2.522   0.636  0.1464 -1.6578 -0.6427
  259MPD2     N 3929   3.706   2.294   0.564 -0.0649  0.2473 -0.5405
  259MPD2    H5 3930   3.772   2.232   0.610 -0.6964 -0.3959 -0.5052
  259MPD2    N1 3931   3.459   2.235   0.968 -0.3715 -0.1057  0.3093
  259MPD2    H7 3932   3.506   2.149   0.992 -0.7642 -0.5950 -0.6935
  260TMC3    C1 3933   3.837   2.254   0.377  0.9492 -0.0338  0.5341
  260TMC3    C2 3934   3.911   2.316   0.280  0.5727 -0.0873  0.4338
  260TMC3    C3 3935   4.026   2.257   0.244  0.4435  0.3045 -0.4260
  260TMC3    C4 3936   3.861   2.121   0.425  0.3974 -0.1020  0.1802
  260TMC3    C5 3937   3.981   2.064   0.382  0.0986  0.1031  0.2966
  260TMC3    C6 3938   4.064   2.133   0.285  0.7390  0.3121  0.5437
  260TMC3     C 3939   3.726   2.327   0.438  0.4514 -0.5153 -0.0535
  260TMC3     O 3940   3.669   2.408   0.368 -0.4820 -0.1120  0.4940
  260TMC3     H 3941   3.904   2.421   0.254 -2.3803 -0.6484 -1.0177
  260TMC3    H1 3942   3.800   2.076   0.502 -2.4059 -0.2128 -2.0872
  260TMC3    H2 3943   4.139   2.085   0.222  0.6902 -0.3095  0.9608
  260TMC3    C7 3944   3.995   1.914   0.373  0.1621 -0.1776 -0.4970
  260TMC3    C8 3945   4.129   2.357   0.215 -0.3369 -0.4554 -0.2933
  260TMC3    O1 3946   4.056   1.879   0.274  0.6502 -0.3815 -0.8348
  260TMC3    O2 3947   4.095   2.448   0.141 -0.6052 -0.4330 -0.1858
  261MPD2     C 3948   0.304   0.636  12.637 -0.6918 -0.2424 -0.6100
  261MPD2    C1 3949   0.440   0.625  12.620  0.6239  0.0442 -0.3612
  261MPD2    C2 3950   0.489   0.650  12.498 -0.2190 -0.3314  0.2606
  261MPD2    C3 3951   0.411   0.695  12.395  0.3111  0.4027  1.1265
  261MPD2    C4 3952   0.272   0.693  12.416  0.3338  0.2772 -0.5798
  261MPD2    C5 3953   0.220   0.672  12.540 -0.0976  0.5555 -0.0649
  261MPD2     H 3954   0.596   0.649  12.480 -0.2247  1.7420  0.0818
  261MPD2    H1 3955   0.201   0.729  12.343  1.6046 -0.8547 -2.3644
  261MPD2    H2 3956   0.257   0.626  12.734 -0.0990  2.4630 -0.0521
  261MPD2    H3 3957   0.114   0.671  12.563 -0.3179  0.2812 -1.0852
  261MPD2     N 3958   0.462   0.721  12.263 -0.1765  0.9704  0.3873
  261MPD2    H5 3959   0.393   0.760  12.200 -0.1579  0.4495  0.0437
  261MPD2    N1 3960   0.527   0.583  12.726  0.0373 -0.1816  0.2842
  261MPD2    H7 3961   0.624   0.568  12.699 -0.8386 -1.2529 -2.3156
  262TMC3    C1 3962   0.610   0.765  12.092  0.2681 -0.4705 -0.1379
  262TMC3    C2 3963   0.556   0.886  12.060  0.3796  0.5597 -0.5121
  262TMC3    C3 3964   0.613   0.931  11.948 -0.6672 -0.6518  0.9803
  262TMC3    C4 3965   0.697   0.688  12.018  1.2457  0.3676 -0.0875
  262TMC3    C5 3966   0.750   0.741  11.900 -0.7111  0.4714 -0.2090
  262TMC3    C6 3967   0.706   0.865  11.871 -0.3534 -0.1370 -0.0262
  262TMC3     C 3968   0.590   0.708  12.224  0.0992 -0.7321  0.3377
  262TMC3     O 3969   0.675   0.634  12.271 -0.3158 -0.0810 -0.3172
  262TMC3     H 3970   0.492   0.945  12.125 -1.8843 -2.0423 -0.3899
  262TMC3    H1 3971   0.733   0.591  12.051  1.4113  0.4415 -0.0492
  262TMC3    H2 3972   0.745   0.913  11.781  1.4320 -0.6244  0.4761
  262TMC3    C7 3973   0.807   0.656  11.796  0.8581  0.1016 -0.2175
  262TMC3    C8 3974   0.572   1.060  11.898 -0.0570  0.0167  0.1127
  262TMC3    O1 3975   0.876   0.557  11.834 -0.2485 -0.5757  0.2586
  262TMC3    O2 3976   0.615   1.095  11.786  0.5733  0.4443 -0.0543
  263MPD2     C 3977   1.297   0.553  11.699 -0.3645 -0.5393 -0.2296
  263MPD2    C1 3978   1.399   0.536  11.608  0.2073  0.4433  0.1647
  263MPD2    C2 3979   1.393   0.604  11.485 -0.4010  0.2201 -0.2754
  263MPD2    C3 3980   1.282   0.679  11.446  0.0226  0.1020  0.3129
  263MPD2    C4 3981   1.188   0.707  11.546 -0.2331  0.4360 -0.0938
  263MPD2    C5 3982   1.193   0.638  11.665 -0.6806  0.0752  0.1974
  263MPD2     H 3983   1.474   0.583  11.416 -0.9446  1.8579 -1.3990
  263MPD2    H1 3984   1.105   0.774  11.527  0.4790  1.0297 -1.0310
  263MPD2    H2 3985   1.297   0.509  11.798 -3.0222 -2.1801 -0.9373
  263MPD2    H3 3986   1.124   0.663  11.745 -1.2168 -1.5752  0.2575
  263MPD2     N 3987   1.272   0.751  11.325 -0.5833  0.6459  0.1972
  263MPD2    H5 3988   1.212   0.833  11.325 -1.0679  0.2986 -0.3059
  263MPD2    N1 3989   1.509   0.461  11.656 -0.5665  0.0785  0.4706
  263MPD2    H7 3990   1.503   0.430  11.752 -0.0654 -0.5497  0.2994
  264TMC3    C1 3991   1.327   0.830  11.108  0.1610  0.2943  0.1963
  264TMC3    C2 3992   1.239   0.933  11.122  0.1557  1.1936  0.2408
  264TMC3    C3 3993   1.247   1.033  11.018  0.6441  0.2452 -0.3636
  264TMC3    C4 3994   1.414   0.813  11.006 -0.1557 -0.2662 -0.1113
  264TMC3    C5 3995   1.407   0.904  10.903 -0.5619  0.4776  0.4196
  264TMC3    C6 3996   1.336   1.020  10.917  0.3265  0.0042 -0.2216
  264TMC3     C 3997   1.339   0.723  11.216  0.8104  0.1144  0.6401
  264TMC3     O 3998   1.383   0.614  11.181 -0.2384 -0.2603 -0.0387
  264TMC3     H 3999   1.170   0.939  11.205 -1.6787 -0.2936 -1.1757
  264TMC3    H1 4000   1.492   0.739  11.014  0.7442  0.6616 -0.2568
  264TMC3    H2 4001   1.325   1.076  10.825  0.7418  2.3400  1.1436
  264TMC3    C7 4002   1.531   0.923  10.833 -0.2545 -0.1803  0.0169
  264TMC3    C8 4003   1.254   1.173  11.058 -0.0438 -0.5920 -0.0580
  264TMC3    O1 4004   1.602   0.834  10.788  0.7310 -0.8569 -0.6132
  264TMC3    O2 4005   1.348   1.240  11.009  0.2835 -0.3604 -0.4641
  265MPD2     C 4006   3.721   0.882  15.563 -0.7598  0.6304  0.4007
  265MPD2    C1 4007   3.742   0.988  15.479 -0.7051  0.2841 -0.5571
  265MPD2    C2 4008   3.772   0.964  15.346  0.0123 -0.4344 -0.6123
  265MPD2    C3 4009   3.780   0.838  15.294  0.1223 -0.3264 -0.2813
  265MPD2    C4 4010   3.773   0.735  15.388  0.6441  0.5450  0.0750
  265MPD2    C5 4011   3.759   0.755  15.523  0.2084 -0.1521 -0.6655
  265MPD2     H 4012   3.778   1.048  15.277 -0.1760  1.6142  1.8821
  265MPD2    H1 4013   3.798   0.637  15.347 -0.0269  0.0443  0.8626
  265MPD2    H2 4014   3.703   0.888  15.670  2.4618 -0.6509  0.9973
  265MPD2    H3 4015   3.747   0.668  15.586 -0.4798 -0.1481 -0.7958
  265MPD2     N 4016   3.800   0.811  15.158 -0.8248 -0.1788 -0.2706
  265MPD2    H5 4017   3.777   0.717  15.129  0.9063 -0.4779 -0.6722
  265MPD2    N1 4018   3.730   1.119  15.527 -0.1296  0.0327 -0.7568
  265MPD2    H7 4019   3.751   1.199  15.468 -0.1348  1.3348  0.9858
  266TMC3    C1 4020   3.656   1.302  15.661  0.1894  0.3116  0.0024
  266TMC3    C2 4021   3.645   1.334  15.797  0.4593  0.1706  0.3368
  266TMC3    C3 4022   3.614   1.458  15.833  0.2309  0.0666  0.9338
  266TMC3    C4 4023   3.620   1.388  15.561  0.4151 -0.4386  0.0631
  266TMC3    C5 4024   3.573   1.507  15.600 -0.2405  0.7382  0.1679
  266TMC3    C6 4025   3.584   1.548  15.733 -0.0863  0.2281  0.2541
  266TMC3     C 4026   3.679   1.157  15.649 -0.0446  0.0797  0.0274
  266TMC3     O 4027   3.674   1.089  15.751 -0.0375 -0.4739 -0.4292
  266TMC3     H 4028   3.676   1.268  15.878  2.1777 -0.0040 -0.4524
  266TMC3    H1 4029   3.616   1.355  15.457 -0.9003 -2.7336  0.8427
  266TMC3    H2 4030   3.557   1.651  15.749  1.7016  1.1556 -2.7793
  266TMC3    C7 4031   3.539   1.599  15.500  0.0877  0.4835 -1.1017
  266TMC3    C8 4032   3.636   1.501  15.968 -0.3220  0.5651 -0.0655
  266TMC3    O1 4033   3.514   1.541  15.394 -0.1238  0.2813  0.7661
  266TMC3    O2 4034   3.705   1.424  16.042  0.2305  0.2966 -0.3429
  267MPD2     C 4035   1.338   1.681   0.325 -0.1649  0.1123  0.1599
  267MPD2    C1 4036   1.373   1.807   0.347 -0.1457  0.4472  0.2874
  267MPD2    C2 4037   1.282   1.901   0.403 -0.5390 -0.3059 -0.7590
  267MPD2    C3 4038   1.156   1.864   0.437  0.3903 -0.3053  0.3046
  267MPD2    C4 4039   1.117   1.739   0.411 -0.0347  0.1272  0.3943
  267MPD2    C5 4040   1.207   1.644   0.361  0.2061  0.5673 -0.0936
  267MPD2     H 4041   1.309   2.004   0.425 -1.9034 -0.0032 -0.5040
  267MPD2    H1 4042   1.013   1.715   0.426  0.2735 -0.2067  2.0498
  267MPD2    H2 4043   1.406   1.617   0.270  0.1856 -0.5661  1.3788
  267MPD2    H3 4044   1.176   1.541   0.344  1.4868 -0.2342  2.4094
  267MPD2     N 4045   1.063   1.954   0.499  0.4211 -0.0018 -0.2633
  267MPD2    H5 4046   0.966   1.922   0.500  1.2788 -2.4727  1.3849
  267MPD2    N1 4047   1.496   1.855   0.299 -0.3864 -0.5015 -0.0033
  267MPD2    H7 4048   1.563   1.783   0.274  0.5343 -0.1165  1.3578
  268TMC3    C1 4049   1.649   2.011   0.232 -0.1645  0.2880  0.5217
  268TMC3    C2 4050   1.671   2.132   0.173  0.5690  0.0204  1.1391
  268TMC3    C3 4051   1.791   2.195   0.201 -0.6461  0.6884 -0.7195
  268TMC3    C4 4052   1.752   1.948   0.300 -0.5425  0.0636  0.3504
  268TMC3    C5 4053   1.874   2.016   0.319  0.1319 -1.1897 -0.0242
  268TMC3    C6 4054   1.890   2.142   0.275 -0.0953 -0.2578  0.1170
  268TMC3     C 4055   1.521   1.986   0.279  0.5170  0.8435 -0.4420
  268TMC3     O 4056   1.452   2.085   0.281 -0.1643  0.2486  0.2941
  268TMC3     H 4057   1.585   2.183   0.134  1.3272  0.3223 -0.1263
  268TMC3    H1 4058   1.741   1.850   0.344 -1.2476 -0.4405 -0.9501
  268TMC3    H2 4059   1.978   2.202   0.297  0.4448 -2.0752  2.8790
  268TMC3    C7 4060   1.960   1.983   0.432  0.2694 -0.4026  0.2900
  268TMC3    C8 4061   1.813   2.335   0.163  1.0849  0.5946 -0.0799
  268TMC3    O1 4062   1.911   1.907   0.512 -0.2604 -0.1116  0.5245
  268TMC3    O2 4063   1.889   2.406   0.228  0.1540  0.3604  0.0446
  269MPD2     C 4064   1.113   1.415  15.596 -0.5524 -0.4319 -0.0967
  269MPD2    C1 4065   1.002   1.484  15.633  0.0898 -0.3859 -0.0934
  269MPD2    C2 4066   1.001   1.622  15.610 -0.0272  0.5192  0.6690
  269MPD2    C3 4067   1.109   1.687  15.551  0.0192  0.4955  0.2985
  269MPD2    C4 4068   1.221   1.613  15.515 -0.6253 -0.1131  0.1637
  269MPD2    C5 4069   1.222   1.477  15.545 -0.1342  0.0071  0.7120
  269MPD2     H 4070   0.909   1.679  15.619  0.3678  1.0005  1.6612
  269MPD2    H1 4071   1.307   1.655  15.464 -0.9851  0.3287 -0.0782
  269MPD2    H2 4072   1.111   1.307  15.606  0.4407 -0.5447 -1.1289
  269MPD2    H3 4073   1.305   1.423  15.500 -0.1337 -0.2636  1.0436
  269MPD2     N 4074   1.103   1.827  15.529 -0.0711  0.2926  0.3671
  269MPD2    H5 4075   1.024   1.866  15.581  0.7425 -0.6318  2.2974
  269MPD2    N1 4076   0.890   1.417  15.685  0.1263  0.1404  0.1668
  269MPD2    H7 4077   0.895   1.316  15.697 -1.4295  0.1302  0.7998
  270TMC3    C1 4078   0.673   1.377  15.745 -0.0350 -0.1658 -0.4747
  270TMC3    C2 4079   0.552   1.394  15.689 -0.6072 -0.1412  0.4166
  270TMC3    C3 4080   0.454   1.305  15.709  0.0792  0.2454 -0.0248
  270TMC3    C4 4081   0.698   1.270  15.817  0.2912 -0.1824  0.3674
  270TMC3    C5 4082   0.605   1.168  15.828 -0.2501 -0.3571  0.5947
  270TMC3    C6 4083   0.484   1.185  15.764 -0.0073 -0.1669  0.0260
  270TMC3     C 4084   0.773   1.478  15.708 -0.2136  0.1466 -0.5795
  270TMC3     O 4085   0.727   1.586  15.688 -0.0101 -0.2466  0.3419
  270TMC3     H 4086   0.525   1.480  15.628  1.7249  0.6256  0.4553
  270TMC3    H1 4087   0.797   1.267  15.861 -0.8809 -2.7488  2.8320
  270TMC3    H2 4088   0.402   1.115  15.776 -0.4381  0.5979  1.5111
  270TMC3    C7 4089   0.660   1.036  15.864 -0.1501 -0.4209  0.5513
  270TMC3    C8 4090   0.369   1.303  15.593 -0.6239  0.7114  0.0511
  270TMC3    O1 4091   0.774   1.030  15.920 -0.0604 -0.6257 -0.7141
  270TMC3    O2 4092   0.252   1.341  15.602 -0.0687 -0.0681  0.6709
  271MPD2     C 4093   0.421   0.927  13.759 -0.0411 -0.1998  0.8473
  271MPD2    C1 4094   0.358   0.987  13.866  0.5554  0.2251  0.1638
  271MPD2    C2 4095   0.263   1.078  13.841 -0.0005 -0.2618  0.2116
  271MPD2    C3 4096   0.212   1.115  13.721  0.1821  0.3670  0.1543
  271MPD2    C4 4097   0.285   1.062  13.612  0.5869 -0.5219  0.1004
  271MPD2    C5 4098   0.390   0.973  13.633  0.1914 -0.1865  0.3768
  271MPD2     H 4099   0.211   1.109  13.931  1.5282 -1.1976  1.4162
  271MPD2    H1 4100   0.271   1.093  13.509 -0.9951 -3.8116 -0.6615
  271MPD2    H2 4101   0.486   0.841  13.770 -0.8136 -0.9798 -0.6480
  271MPD2    H3 4102   0.449   0.941  13.547  1.9489 -1.7230  2.1765
  271MPD2     N 4103   0.112   1.209  13.695 -0.2184  0.1047  0.0552
  271MPD2    H5 4104   0.082   1.214  13.599  0.3652  1.6113 -0.0375
  271MPD2    N1 4105   0.395   0.967  14.002  0.2890 -0.2747  0.7576
  271MPD2    H7 4106   0.345   1.016  14.076 -2.0895 -0.5887 -0.6476
  272TMC3    C1 4107   0.516   0.899  14.193  0.0853 -0.1086  0.3294
  272TMC3    C2 4108   0.605   0.818  14.255 -0.1741 -0.3851  0.7267
  272TMC3    C3 4109   0.613   0.819  14.392  0.4578 -0.7816 -0.0225
  272TMC3    C4 4110   0.435   0.981  14.275 -0.1339  0.1487  0.3223
  272TMC3    C5 4111   0.452   0.980  14.414  0.2478 -0.2599  0.2984
  272TMC3    C6 4112   0.533   0.893  14.479 -0.3542  0.2584 -0.3449
  272TMC3     C 4113   0.502   0.896  14.049 -0.0133 -0.2085 -0.8961
  272TMC3     O 4114   0.594   0.841  13.992 -0.1981  0.9959  0.7603
  272TMC3     H 4115   0.672   0.757  14.197 -1.3999 -2.7398  1.8065
  272TMC3    H1 4116   0.380   1.059  14.224  0.9305  1.0033  0.4753
  272TMC3    H2 4117   0.549   0.885  14.586 -1.7027 -0.1088 -0.1807
  272TMC3    C7 4118   0.368   1.083  14.485 -0.0972  0.8460  0.5838
  272TMC3    C8 4119   0.734   0.763  14.447 -0.2476  0.3626  0.1541
  272TMC3    O1 4120   0.279   1.134  14.419  0.7571 -0.3024 -0.2185
  272TMC3    O2 4121   0.821   0.743  14.364 -0.4148 -0.0568 -0.2341
  273MPD2     C 4122   1.896   3.675  12.203 -0.4929  0.3222 -0.0456
  273MPD2    C1 4123   1.960   3.794  12.186 -0.1213 -0.5464  0.0615
  273MPD2    C2 4124   1.992   3.840  12.063  0.1360 -0.0584 -0.0191
  273MPD2    C3 4125   1.943   3.768  11.952  0.2851  0.3286  0.7555
  273MPD2    C4 4126   1.896   3.638  11.963  0.2673  0.3609  0.6469
  273MPD2    C5 4127   1.855   3.600  12.093  0.3724 -0.0940  0.4437
  273MPD2     H 4128   2.034   3.939  12.050 -1.2838  0.3454 -1.5680
  273MPD2    H1 4129   1.865   3.576  11.880  0.4856  0.3984  0.5367
  273MPD2    H2 4130   1.869   3.644  12.303 -1.9990  1.8088  0.0088
  273MPD2    H3 4131   1.816   3.500  12.105  0.8592 -0.2367  0.8371
  273MPD2     N 4132   1.953   3.818  11.824  0.7336  0.0381 -0.0770
  273MPD2    H5 4133   1.945   3.743  11.756  0.2702  0.2480 -0.2527
  273MPD2    N1 4134   2.016   3.851  12.302  0.2617 -0.4058  0.4649
  273MPD2    H7 4135   1.993   3.803  12.388 -0.7197  1.3505  1.1744
  274TMC3    C1 4136   2.006   3.969  11.646 -0.0765  0.5644  0.1907
  274TMC3    C2 4137   1.934   3.899  11.554 -0.4046 -0.4803 -0.4751
  274TMC3    C3 4138   1.928   3.941  11.421  0.3725 -0.0629  0.4176
  274TMC3    C4 4139   2.072   4.081  11.611 -0.3646  0.0970 -0.5329
  274TMC3    C5 4140   2.062   4.122  11.487  0.5844 -0.3482 -0.1293
  274TMC3    C6 4141   1.997   4.054  11.385  0.4711 -0.3538  0.1793
  274TMC3     C 4142   1.973   3.952  11.789  0.5855 -0.0854 -0.3019
  274TMC3     O 4143   1.987   4.049  11.858  0.4840  0.3770 -0.4818
  274TMC3     H 4144   1.870   3.818  11.587 -0.4533 -0.2099  0.0776
  274TMC3    H1 4145   2.125   4.143  11.682  1.0784  1.6268 -2.9764
  274TMC3    H2 4146   1.965   4.106  11.296  2.5207  0.3968 -0.1133
  274TMC3    C7 4147   2.073   4.268  11.486 -0.1081 -0.5374  0.0294
  274TMC3    C8 4148   1.800   3.926  11.350  0.8233  0.9610  0.3124
  274TMC3    O1 4149   2.059   4.324  11.595  0.8329 -0.7158 -0.6307
  274TMC3    O2 4150   1.780   4.022  11.278  0.0247  0.4789 -0.1441
  275MPD2     C 4151   2.075   1.819  14.361  0.1177 -0.0951  0.1129
  275MPD2    C1 4152   1.968   1.907  14.381  0.0724  0.1113  0.7586
  275MPD2    C2 4153   1.840   1.867  14.354  0.1423 -0.6174 -0.3976
  275MPD2    C3 4154   1.817   1.735  14.310 -0.2272  0.0572 -0.0396
  275MPD2    C4 4155   1.923   1.654  14.277 -0.5894 -0.0802 -0.6593
  275MPD2    C5 4156   2.052   1.700  14.296  0.0053  0.2275  0.3055
  275MPD2     H 4157   1.756   1.936  14.356 -0.5796 -1.5275  0.4626
  275MPD2    H1 4158   1.908   1.551  14.246  1.6482 -1.1908  1.8925
  275MPD2    H2 4159   2.175   1.846  14.392 -0.1978  0.7665  0.3930
  275MPD2    H3 4160   2.128   1.631  14.262 -1.3382 -0.6711 -0.9165
  275MPD2     N 4161   1.685   1.683  14.303 -0.0130  0.9867 -0.1358
  275MPD2    H5 4162   1.671   1.584  14.283  0.0324  1.3330 -1.8509
  275MPD2    N1 4163   1.985   2.034  14.444  0.1387 -0.5051 -0.2485
  275MPD2    H7 4164   1.905   2.076  14.489  0.5107 -0.0201 -0.0314
  276TMC3    C1 4165   2.087   2.227  14.522  0.1184 -0.3149  0.2290
  276TMC3    C2 4166   1.959   2.264  14.528 -0.2119 -0.5001 -0.3164
  276TMC3    C3 4167   1.892   2.286  14.648  0.0923  0.1210 -0.2322
  276TMC3    C4 4168   2.171   2.242  14.626  0.2554  1.2911  0.1727
  276TMC3    C5 4169   2.103   2.284  14.741 -0.3129  0.2373 -0.7606
  276TMC3    C6 4170   1.965   2.290  14.760 -0.3434  0.5343  0.3075
  276TMC3     C 4171   2.107   2.104  14.456 -0.3746 -0.5757  0.3152
  276TMC3     O 4172   2.220   2.073  14.424 -0.5892 -0.0921  0.4784
  276TMC3     H 4173   1.898   2.260  14.438 -0.1618 -0.3836 -0.3556
  276TMC3    H1 4174   2.276   2.215  14.626 -0.3597 -1.1589  0.8823
  276TMC3    H2 4175   1.920   2.297  14.858 -0.1223  0.6791  0.3997
  276TMC3    C7 4176   2.180   2.328  14.858  0.1362 -0.1908  0.4779
  276TMC3    C8 4177   1.778   2.194  14.649 -0.3571 -0.4014 -0.3581
  276TMC3    O1 4178   2.113   2.362  14.953  0.3322  0.9637  0.7530
  276TMC3    O2 4179   1.711   2.180  14.549 -0.6519 -0.3302  0.0884
  277MPD2     C 4180   3.572   0.901  13.572 -0.4921  0.1182 -0.0737
  277MPD2    C1 4181   3.544   0.767  13.596 -0.5321  0.7162 -0.1997
  277MPD2    C2 4182   3.444   0.733  13.679  0.2393  0.0559  0.0931
  277MPD2    C3 4183   3.374   0.827  13.750  0.3202 -0.7571  0.1235
  277MPD2    C4 4184   3.408   0.961  13.730  0.2381 -0.0088 -0.7231
  277MPD2    C5 4185   3.496   0.996  13.632  0.1976 -0.3631  1.0538
  277MPD2     H 4186   3.405   0.632  13.677  2.6666 -0.8437 -1.0160
  277MPD2    H1 4187   3.359   1.046  13.777 -1.2734 -0.7247 -1.0061
  277MPD2    H2 4188   3.642   0.915  13.490  1.2234 -0.4453  1.2797
  277MPD2    H3 4189   3.497   1.099  13.600  3.4861  0.3225  3.3416
  277MPD2     N 4190   3.272   0.789  13.838 -0.8296 -0.1271 -0.0831
  277MPD2    H5 4191   3.243   0.692  13.837  0.1471 -0.4308  0.9086
  277MPD2    N1 4192   3.609   0.677  13.515 -0.1998 -0.1214  0.2612
  277MPD2    H7 4193   3.674   0.724  13.453 -0.8979  1.5686  0.8297
  278TMC3    C1 4194   3.098   0.810  13.992 -0.3759  0.1102 -1.0880
  278TMC3    C2 4195   3.054   0.680  13.960  0.1480  0.6633  0.0936
  278TMC3    C3 4196   2.940   0.639  14.020  0.1423 -0.3641 -0.1911
  278TMC3    C4 4197   3.021   0.888  14.068  0.0485 -0.5556  0.6948
  278TMC3    C5 4198   2.905   0.844  14.124 -0.1909 -0.1329  0.0015
  278TMC3    C6 4199   2.865   0.716  14.102 -0.2888  0.1795 -0.3191
  278TMC3     C 4200   3.212   0.869  13.928  0.8672  0.5499  0.5984
  278TMC3     O 4201   3.246   0.979  13.966  0.3295  0.1128  0.3710
  278TMC3     H 4202   3.119   0.614  13.903  0.0199 -0.3666  1.1293
  278TMC3    H1 4203   3.054   0.985  14.104 -0.7799  0.7216 -2.0142
  278TMC3    H2 4204   2.769   0.678  14.135 -0.1577  1.1832  1.2628
  278TMC3    C7 4205   2.832   0.947  14.197 -0.0004  0.6268 -0.3973
  278TMC3    C8 4206   2.919   0.494  14.037  0.1946  0.6178 -0.2183
  278TMC3    O1 4207   2.892   1.038  14.249  0.4240  0.7830 -0.2547
  278TMC3    O2 4208   2.857   0.445  14.131  0.1376 -0.1814 -0.3358
  279MPD2     C 4209   3.334   1.640   0.062  0.1153  0.6590  0.6932
  279MPD2    C1 4210   3.286   1.542  17.671 -0.0100 -0.2517 -0.6309
  279MPD2    C2 4211   3.291   1.560  17.528  0.1402  0.1973 -0.1911
  279MPD2    C3 4212   3.355   1.668  17.473 -1.1444  0.8416 -0.3394
  279MPD2    C4 4213   3.413   1.759  17.558 -0.3988 -0.8302  0.7492
  279MPD2    C5 4214   3.398   1.748   0.006 -0.6088  0.0947  0.2522
  279MPD2     H 4215   3.245   1.485  17.463 -2.5798  0.9135  0.9101
  279MPD2    H1 4216   3.456   1.845  17.506  0.5758 -1.7586  0.0226
  279MPD2    H2 4217   3.335   1.649   0.170 -2.0644  1.6303  0.6303
  279MPD2    H3 4218   3.452   1.817   0.069 -1.2982  1.6320 -0.8572
  279MPD2     N 4219   3.384   1.679  17.337  1.1038  0.2950  0.0068
  279MPD2    H5 4220   3.451   1.750  17.311  1.9801  0.3210  2.3668
  279MPD2    N1 4221   3.229   1.433   0.044  0.4895  0.4721  0.3559
  279MPD2    H7 4222   3.209   1.450   0.142 -0.7079 -1.4042  0.4212
  280TMC3    C1 4223   3.152   1.222   0.093  0.7324 -0.3638  0.5375
  280TMC3    C2 4224   3.193   1.091   0.100  0.2590  0.4624 -0.3491
  280TMC3    C3 4225   3.161   1.013   0.210 -0.5051  0.0959 -0.4740
  280TMC3    C4 4226   3.080   1.285   0.190 -0.4782 -0.5308  0.1727
  280TMC3    C5 4227   3.045   1.201   0.292 -0.7976 -0.0919 -0.2740
  280TMC3    C6 4228   3.083   1.069   0.305  0.5994  0.5592 -0.0574
  280TMC3     C 4229   3.195   1.313  17.672  0.1721 -0.0142 -0.2919
  280TMC3     O 4230   3.225   1.268  17.564 -0.0483 -1.2429 -0.0592
  280TMC3     H 4231   3.254   1.048   0.021  0.0663 -0.1071 -0.1868
  280TMC3    H1 4232   3.053   1.390   0.185  1.7724 -0.0026 -0.6132
  280TMC3    H2 4233   3.041   1.009   0.384  1.4912  0.4703  0.3408
  280TMC3    C7 4234   2.975   1.266   0.405  0.0937  0.3722  0.0752
  280TMC3    C8 4235   3.211   0.879   0.229 -1.3542  0.2927  0.1232
  280TMC3    O1 4236   3.025   1.254   0.517  0.4209 -0.3335  0.2404
  280TMC3    O2 4237   3.197   0.829   0.339  0.2458  0.1089  0.1557
  281TMC3    C1 4238   1.734   1.379  13.456  0.3769  0.2945  0.1418
  281TMC3    C2 4239   1.815   1.475  13.391 -0.5538 -0.3700  0.4810
  281TMC3    C3 4240   1.868   1.441  13.272  0.0324  0.0319 -0.1990
  281TMC3    C4 4241   1.721   1.254  13.398 -0.3386 -0.9663  0.2030
  281TMC3    C5 4242   1.754   1.239  13.266 -0.1147 -0.5090  0.0760
  281TMC3    C6 4243   1.835   1.328  13.208 -0.1644  0.1308  0.1828
  281TMC3     C 4244   1.619   1.427  13.534  0.2524  0.5523 -0.1931
  281TMC3     O 4245   1.546   1.336  13.573  0.0569 -0.2439 -0.1908
  281TMC3     H 4246   1.834   1.573  13.432 -0.8325  0.6015 -1.7153
  281TMC3    H1 4247   1.643   1.190  13.437 -0.3258  0.2657  2.2601
  281TMC3    H2 4248   1.864   1.326  13.104 -0.4139 -0.7954  0.1353
  281TMC3    C7 4249   1.673   1.156  13.175  0.2617  0.9138 -0.3151
  281TMC3    C8 4250   1.968   1.535  13.210 -0.3595 -0.9331  0.6773
  281TMC3    O1 4251   1.668   1.188  13.059 -0.4290  0.0713 -0.3218
  281TMC3    O2 4252   2.065   1.488  13.151  0.3818  0.6312  0.1620
  282MPD2     C 4253   3.501   2.792  15.015  1.1372  0.0683  0.1438
  282MPD2    C1 4254   3.388   2.845  15.068 -0.4887 -0.4123  0.2819
  282MPD2    C2 4255   3.275   2.824  14.998  0.3870  0.2234 -0.2709
  282MPD2    C3 4256   3.277   2.786  14.867  0.3257  0.0784  0.2208
  282MPD2    C4 4257   3.392   2.736  14.813 -0.3327  0.5740  0.0578
  282MPD2    C5 4258   3.505   2.736  14.890 -0.2379 -0.1325  0.0477
  282MPD2     H 4259   3.173   2.845  15.028  1.1015  0.7044  1.8219
  282MPD2    H1 4260   3.389   2.680  14.720  1.1544 -1.7336  1.3944
  282MPD2    H2 4261   3.600   2.783  15.059  1.4097 -1.6370 -0.7876
  282MPD2    H3 4262   3.593   2.682  14.859 -0.0469  1.1547 -1.6320
  282MPD2     N 4263   3.156   2.778  14.791  0.4816 -0.5353 -0.7002
  282MPD2    H5 4264   3.082   2.816  14.850  0.1729  0.0748 -1.4822
  282MPD2    N1 4265   3.369   2.884  15.203  0.3203 -0.0841 -0.1401
  282MPD2    H7 4266   3.271   2.901  15.226  0.9032  1.6646  1.0574
  283TMC3    C1 4267   3.422   2.923  15.427 -0.1616 -0.5367 -0.2881
  283TMC3    C2 4268   3.491   3.009  15.507 -1.0553  0.1177 -0.2883
  283TMC3    C3 4269   3.434   3.034  15.627  0.3063 -0.0308 -0.4096
  283TMC3    C4 4270   3.319   2.843  15.465 -1.7152 -0.0951  0.6860
  283TMC3    C5 4271   3.279   2.861  15.592 -0.3098 -0.1885  0.6110
  283TMC3    C6 4272   3.326   2.959  15.671  0.4545  0.2064  0.1753
  283TMC3     C 4273   3.469   2.904  15.289  0.5510  0.3431  0.1289
  283TMC3     O 4274   3.588   2.907  15.270 -0.1695  0.0198  0.3218
  283TMC3     H 4275   3.574   3.069  15.470 -0.7704  0.6408  1.2243
  283TMC3    H1 4276   3.288   2.752  15.416  0.2255 -0.4450  0.1040
  283TMC3    H2 4277   3.280   2.970  15.769 -1.7754 -2.1768 -0.6002
  283TMC3    C7 4278   3.196   2.760  15.649  0.4159 -0.2363  0.4299
  283TMC3    C8 4279   3.488   3.136  15.716 -0.1847  0.8973 -0.5335
  283TMC3    O1 4280   3.111   2.800  15.723 -0.3704 -0.6219 -0.0695
  283TMC3    O2 4281   3.482   3.122  15.838  0.4221  0.2610  0.5395
  284MPD2     C 4282   1.957   1.976  12.444 -1.0506  0.6786 -0.4794
  284MPD2    C1 4283   1.819   1.993  12.413 -0.2041 -0.5480 -0.4546
  284MPD2    C2 4284   1.732   1.882  12.416 -1.0791 -0.8321  0.1664
  284MPD2    C3 4285   1.770   1.753  12.452  0.5247 -0.1296 -0.7502
  284MPD2    C4 4286   1.904   1.746  12.482 -0.1086 -1.0078 -0.4233
  284MPD2    C5 4287   1.994   1.848  12.479 -0.1199 -0.5560  0.1010
  284MPD2     H 4288   1.630   1.893  12.382 -1.8394 -0.7275  2.4695
  284MPD2    H1 4289   1.940   1.651  12.521  1.5010 -1.4220 -2.9724
  284MPD2    H2 4290   2.033   2.053  12.446  0.3133 -0.6473 -1.6340
  284MPD2    H3 4291   2.094   1.829  12.515  0.0943  1.1712  0.3888
  284MPD2     N 4292   1.684   1.635  12.451 -0.3797 -0.3016  0.8803
  284MPD2    H5 4293   1.718   1.546  12.486 -1.2165 -0.9713 -0.0690
  284MPD2    N1 4294   1.771   2.117  12.383  0.4060 -0.7735  0.4523
  284MPD2    H7 4295   1.672   2.124  12.359  0.8829  2.1643 -0.6337
  285TMC3    C1 4296   1.770   2.327  12.267 -0.0430  0.1777  0.2413
  285TMC3    C2 4297   1.681   2.279  12.178 -0.6863  0.6956  0.7031
  285TMC3    C3 4298   1.632   2.370  12.091 -0.3893 -0.0428 -0.0256
  285TMC3    C4 4299   1.801   2.463  12.277  0.4039  0.1428 -0.5112
  285TMC3    C5 4300   1.751   2.552  12.186  0.3864  0.0059 -0.3371
  285TMC3    C6 4301   1.651   2.507  12.103  0.5911 -0.3746  0.0333
  285TMC3     C 4302   1.843   2.234  12.365  0.0912  0.8668 -0.0563
  285TMC3     O 4303   1.951   2.269  12.415 -0.9361  0.0861 -0.0410
  285TMC3     H 4304   1.672   2.173  12.159  1.2308  0.2897  2.0918
  285TMC3    H1 4305   1.870   2.497  12.353 -0.6964  1.2531 -0.0166
  285TMC3    H2 4306   1.607   2.570  12.026  0.0982 -0.1184  0.5324
  285TMC3    C7 4307   1.781   2.696  12.192 -0.2110 -0.6080 -0.4624
  285TMC3    C8 4308   1.531   2.316  11.998  0.1407  0.9074  0.6765
  285TMC3    O1 4309   1.706   2.780  12.138 -0.6746  0.3523  0.7313
  285TMC3    O2 4310   1.443   2.397  11.969  0.2593  0.4616  0.5249
  286MPD2     C 4311   2.115   0.743   2.196 -0.0819 -0.2209 -0.0243
  286MPD2    C1 4312   2.094   0.765   2.060  0.6834 -0.0274  0.1236
  286MPD2    C2 4313   2.191   0.725   1.973  0.3124  0.1066  0.8333
  286MPD2    C3 4314   2.316   0.674   2.007  0.3310 -0.1455 -0.5186
  286MPD2    C4 4315   2.337   0.672   2.143  0.3410  0.8899 -0.0583
  286MPD2    C5 4316   2.240   0.704   2.238 -0.7441  0.6305  0.3090
  286MPD2     H 4317   2.170   0.739   1.867 -4.0680 -2.6211  1.3672
  286MPD2    H1 4318   2.438   0.654   2.180  0.2176  0.5289  0.1040
  286MPD2    H2 4319   2.036   0.766   2.266  0.3272  4.0882 -0.9800
  286MPD2    H3 4320   2.259   0.708   2.345  1.7972 -2.3006 -0.0149
  286MPD2     N 4321   2.414   0.629   1.920  0.6557  0.3673  0.0349
  286MPD2    H5 4322   2.500   0.589   1.956 -0.8770 -1.3160  1.8259
  286MPD2    N1 4323   1.975   0.826   2.019  0.0267 -0.2128 -0.4551
  286MPD2    H7 4324   1.899   0.834   2.086  0.8898  2.1632  0.2483
  287TMC3    C1 4325   2.522   0.582   1.714  0.5177 -0.2220  0.1505
  287TMC3    C2 4326   2.499   0.542   1.580 -0.0177 -0.0207 -0.1242
  287TMC3    C3 4327   2.614   0.503   1.516 -0.5647  0.2517  0.2929
  287TMC3    C4 4328   2.636   0.580   1.781 -0.0554 -0.6340 -0.2457
  287TMC3    C5 4329   2.747   0.537   1.707 -0.3155  0.7734 -0.4243
  287TMC3    C6 4330   2.737   0.505   1.573  0.1413  0.2193  0.4518
  287TMC3     C 4331   2.406   0.633   1.785  0.5958 -1.1436 -0.3222
  287TMC3     O 4332   2.315   0.670   1.711 -0.0369  0.3029  0.1416
  287TMC3     H 4333   2.397   0.530   1.545 -0.5431 -0.6616  1.6083
  287TMC3    H1 4334   2.650   0.623   1.879  0.9964  0.3770 -0.8382
  287TMC3    H2 4335   2.830   0.482   1.522 -0.4090 -0.4177 -0.2675
  287TMC3    C7 4336   2.881   0.551   1.759 -0.4243 -1.0782  0.1122
  287TMC3    C8 4337   2.606   0.481   1.374 -0.7076 -0.1380 -0.6060
  287TMC3    O1 4338   2.896   0.620   1.859  0.1999  1.1519 -0.4244
  287TMC3    O2 4339   2.700   0.418   1.324 -0.1502 -0.8399  0.0625
  288TMC3    C1 4340   3.397   0.937  14.527  0.2879  0.1825 -0.1457
  288TMC3    C2 4341   3.442   0.936  14.655 -0.0763  0.8879  0.7766
  288TMC3    C3 4342   3.533   1.033  14.690  0.9751 -0.1769  0.6450
  288TMC3    C4 4343   3.436   1.032  14.440 -0.8113  0.2515  0.3133
  288TMC3    C5 4344   3.518   1.135  14.478 -0.0821  0.3401 -0.4262
  288TMC3    C6 4345   3.575   1.131  14.603  0.0897  0.1651 -0.7811
  288TMC3     C 4346   3.324   0.818  14.491 -0.0172  0.0485 -0.0498
  288TMC3     O 4347   3.272   0.752  14.578  0.1805  0.8209  0.7856
  288TMC3     H 4348   3.417   0.855  14.723  0.3324 -0.9120 -1.2038
  288TMC3    H1 4349   3.388   1.037  14.343 -0.2623 -0.8980 -0.0165
  288TMC3    H2 4350   3.643   1.212  14.624  1.5322 -1.6185  1.3533
  288TMC3    C7 4351   3.568   1.220  14.372  0.5776  0.2901 -0.5203
  288TMC3    C8 4352   3.536   1.084  14.830 -0.4624  0.1253 -0.0359
  288TMC3    O1 4353   3.497   1.242  14.276  0.5751 -0.2853  0.2152
  288TMC3    O2 4354   3.548   1.204  14.851  0.1497 -0.1274  0.0957
  289MPD2     C 4355   3.386   0.168  13.922 -0.2176  0.5331  0.0278
  289MPD2    C1 4356   3.446   0.161  14.043  0.2044 -0.1001  0.2417
  289MPD2    C2 4357   3.387   0.089  14.142 -0.3852  0.1091 -0.4162
  289MPD2    C3 4358   3.255   0.059  14.141  0.3917  0.7863  0.1766
  289MPD2    C4 4359   3.192   0.065  14.014  0.2032  0.5195  0.1061
  289MPD2    C5 4360   3.254   0.129  13.914 -0.1303  0.6803  0.2312
  289MPD2     H 4361   3.436   0.081  14.239  0.1966  1.7631 -0.5732
  289MPD2    H1 4362   3.091   0.029  13.997 -0.4322  1.7519  1.2754
  289MPD2    H2 4363   3.424   0.212  13.831 -3.2182  0.2811 -1.3540
  289MPD2    H3 4364   3.192   0.133  13.825 -0.7032  0.4580  0.6159
  289MPD2     N 4365   3.184   0.020  14.260  0.3972 -0.4165 -0.1240
  289MPD2    H5 4366   3.091   4.703  14.247 -0.2581  1.4123 -0.6818
  289MPD2    N1 4367   3.581   0.207  14.052 -0.5531  0.0412  0.2348
  289MPD2    H7 4368   3.613   0.255  13.968  0.0576 -1.5654 -0.4657
  290TMC3    C1 4369   3.127   0.024  14.489  0.1190  0.3266  0.4524
  290TMC3    C2 4370   3.084   0.132  14.558  0.4433 -0.0816 -0.3190
  290TMC3    C3 4371   2.963   0.140  14.617 -0.4963  0.2220 -0.1042
  290TMC3    C4 4372   3.048   4.633  14.473 -0.0030 -0.4516  0.1793
  290TMC3    C5 4373   2.925   4.647  14.532 -0.8030  0.8544  0.1786
  290TMC3    C6 4374   2.878   0.036  14.592 -0.8775  0.7318  0.0920
  290TMC3     C 4375   3.224   0.048  14.389 -0.1355 -0.4636 -0.7806
  290TMC3     O 4376   3.326   0.101  14.436  0.0406  0.2778  0.3245
  290TMC3     H 4377   3.148   0.218  14.570  0.4508 -0.0629 -0.5009
  290TMC3    H1 4378   3.079   4.535  14.441  1.1208 -0.4394  1.2621
  290TMC3    H2 4379   2.774   0.038  14.621 -1.6349 -1.8656 -2.4657
  290TMC3    C7 4380   2.825   4.545  14.506 -0.0521 -0.5904 -0.1894
  290TMC3    C8 4381   2.894   0.265  14.609 -0.5558  0.2306  0.0530
  290TMC3    O1 4382   2.709   4.577  14.495  0.7098 -0.1385  0.0338
  290TMC3    O2 4383   2.784   0.272  14.557 -0.0064 -0.4214 -0.0013
  291MPD2     C 4384   2.562   4.320   0.611 -0.5025 -0.1802  0.7820
  291MPD2    C1 4385   2.603   4.184   0.608 -0.2238 -0.3921 -0.6699
  291MPD2    C2 4386   2.735   4.154   0.605 -0.4401 -0.3685  0.3173
  291MPD2    C3 4387   2.831   4.247   0.630  0.2873  0.4650  0.4345
  291MPD2    C4 4388   2.796   4.378   0.648  0.1929  0.3631 -0.0189
  291MPD2    C5 4389   2.660   4.410   0.637 -0.3024  0.1280 -0.3074
  291MPD2     H 4390   2.755   4.048   0.617 -1.6664 -0.5715  0.5912
  291MPD2    H1 4391   2.866   4.458   0.668 -0.8192  1.3018 -0.2655
  291MPD2    H2 4392   2.460   4.353   0.595 -0.4480  0.6723  2.2095
  291MPD2    H3 4393   2.623   4.511   0.650  1.6535  1.1412 -2.5010
  291MPD2     N 4394   2.968   4.214   0.639 -0.2407 -0.0531  0.4602
  291MPD2    H5 4395   3.028   4.286   0.677 -1.0145  0.1723  1.2407
  291MPD2    N1 4396   2.511   4.079   0.613  0.0675 -0.3263 -0.3539
  291MPD2    H7 4397   2.543   3.985   0.589 -0.4360  0.0032 -2.2664
  292TMC3    C1 4398   2.317   3.962   0.664 -0.0518 -0.0169 -0.6058
  292TMC3    C2 4399   2.256   3.935   0.786  0.0803  0.1684 -0.4354
  292TMC3    C3 4400   2.205   3.807   0.809  0.0373  0.0436 -0.1955
  292TMC3    C4 4401   2.329   3.863   0.560  0.1941 -0.1600 -0.3987
  292TMC3    C5 4402   2.273   3.748   0.595 -0.2975  0.6461 -0.6199
  292TMC3    C6 4403   2.215   3.715   0.715  0.1915 -0.2262  0.1265
  292TMC3     C 4404   2.386   4.096   0.657 -0.4817 -0.4878 -0.1005
  292TMC3     O 4405   2.341   4.190   0.720 -0.0031 -0.1721 -0.0590
  292TMC3     H 4406   2.250   4.012   0.862 -0.4583 -0.2950 -0.0071
  292TMC3    H1 4407   2.369   3.866   0.460  1.7724 -1.1215  0.2070
  292TMC3    H2 4408   2.193   3.615   0.753  0.7494  0.7156  2.8569
  292TMC3    C7 4409   2.285   3.643   0.499 -0.8301 -0.5996 -0.1858
  292TMC3    C8 4410   2.163   3.777   0.944 -0.4129  0.8546 -1.0942
  292TMC3    O1 4411   2.369   3.633   0.410  0.0527 -0.1441 -0.0308
  292TMC3    O2 4412   2.205   3.668   0.986 -0.9838 -0.4063 -0.5318
  293MPD2     C 4413   4.604   0.956  12.317 -0.3539  0.0595 -0.2666
  293MPD2    C1 4414   4.538   0.872  12.406 -0.1008  0.1950 -0.5328
  293MPD2    C2 4415   4.585   0.844  12.537  0.1432  0.3124  0.7141
  293MPD2    C3 4416   4.706   0.902  12.572  0.2662  0.4575 -0.4340
  293MPD2    C4 4417   0.058   0.982  12.479  0.3497  0.3102 -0.4406
  293MPD2    C5 4418   0.005   1.006  12.355  0.4639 -0.2429  0.3975
  293MPD2     H 4419   4.537   0.781  12.611 -0.2823  0.8606  0.9067
  293MPD2    H1 4420   0.144   1.037  12.514 -1.1756  1.2386  1.9275
  293MPD2    H2 4421   4.577   0.976  12.214  0.2755 -1.3773 -0.7114
  293MPD2    H3 4422   0.050   1.079  12.288  0.8372 -0.1467  0.7563
  293MPD2     N 4423   0.035   0.877  12.701  0.2550  0.1545  0.2923
  293MPD2    H5 4424   4.696   0.808  12.745 -0.5627  1.3806  1.1134
  293MPD2    N1 4425   4.419   0.826  12.353 -0.3322  0.2692 -0.0149
  293MPD2    H7 4426   4.393   0.871  12.266 -2.5888  0.0767  0.5718
  294TMC3    C1 4427   4.219   0.699  12.315  0.1562 -0.1342  0.2234
  294TMC3    C2 4428   4.122   0.612  12.365  0.0025 -0.0861  0.3509
  294TMC3    C3 4429   4.021   0.577  12.285 -0.4452  0.4507  0.4665
  294TMC3    C4 4430   4.208   0.762  12.192 -0.0922 -0.4669 -0.3058
  294TMC3    C5 4431   4.097   0.727  12.117 -0.4464  0.0562 -0.3861
  294TMC3    C6 4432   4.018   0.623  12.157 -0.2645 -0.0979 -0.4105
  294TMC3     C 4433   4.332   0.733  12.406  0.1047 -0.0624  0.2247
  294TMC3     O 4434   4.351   0.657  12.503  0.4654 -0.5981  0.3609
  294TMC3     H 4435   4.139   0.568  12.463 -0.0792  0.5331  0.6415
  294TMC3    H1 4436   4.284   0.827  12.150  0.2258  0.0013  0.9972
  294TMC3    H2 4437   3.939   0.590  12.090  1.2248  0.7944 -2.5917
  294TMC3    C7 4438   4.096   0.736  11.975 -0.1978 -0.6356 -0.3472
  294TMC3    C8 4439   3.940   0.465  12.327  0.1569  0.2094  0.2545
  294TMC3    O1 4440   3.992   0.755  11.913 -0.2933 -0.5654  0.4021
  294TMC3    O2 4441   3.917   0.446  12.442 -0.0650 -0.1718 -0.0721
  295MPD2     C 4442   0.448   4.033   0.517 -0.3797 -0.1035 -0.5009
  295MPD2    C1 4443   0.422   4.158   0.467 -0.0206  0.1455 -0.7587
  295MPD2    C2 4444   0.351   4.249   0.545  0.1083  0.2481 -0.4508
  295MPD2    C3 4445   0.283   4.201   0.661  0.2617  0.0594 -0.1564
  295MPD2    C4 4446   0.296   4.069   0.696  0.1776 -0.4884  0.4761
  295MPD2    C5 4447   0.365   3.981   0.617 -0.0229  0.2032 -0.4893
  295MPD2     H 4448   0.331   4.350   0.513 -0.0504  0.3631  0.0048
  295MPD2    H1 4449   0.248   4.042   0.789  1.4819 -0.1832  1.2373
  295MPD2    H2 4450   0.510   3.958   0.469 -0.0291  1.2221 -2.1285
  295MPD2    H3 4451   0.383   3.877   0.641 -0.4557 -0.3134 -2.3962
  295MPD2     N 4452   0.214   4.285   0.752  0.2718 -0.2381 -0.1520
  295MPD2    H5 4453   0.184   4.237   0.836  1.1897 -0.4977  0.0249
  295MPD2    N1 4454   0.488   4.217   0.356 -0.1575 -0.3517 -0.2977
  295MPD2    H7 4455   0.486   4.317   0.342 -1.1476 -0.3651 -0.2640
  296TMC3    C1 4456   0.104   4.468   0.843  0.0555  1.1432 -0.2681
  296TMC3    C2 4457   0.133   4.589   0.903 -0.6379  0.1051 -0.1229
  296TMC3    C3 4458   0.066   4.632   1.014 -0.0894 -0.4464  1.3906
  296TMC3    C4 4459   4.715   4.393   0.880 -0.1688 -0.3515  0.6724
  296TMC3    C5 4460   4.642   4.442   0.987 -0.0763  0.0866 -1.0460
  296TMC3    C6 4461   4.678   4.559   1.053  0.4165 -0.3314 -0.1593
  296TMC3     C 4462   0.201   4.421   0.743 -0.6106 -0.0935 -0.0954
  296TMC3     O 4463   0.253   4.498   0.666 -0.1316 -0.0504  0.2679
  296TMC3     H 4464   0.218   4.648   0.869 -0.5690 -0.1773 -0.4480
  296TMC3    H1 4465   4.686   4.298   0.835 -0.9573 -0.1416  0.7395
  296TMC3    H2 4466   4.615   4.594   1.133 -1.0187 -1.9436 -0.5745
  296TMC3    C7 4467   4.515   4.369   1.013 -0.0030  0.2520  0.4188
  296TMC3    C8 4468   0.095   0.032   1.075 -0.5415  0.6813 -0.6058
  296TMC3    O1 4469   4.465   4.296   0.929  0.1226 -0.2012 -0.2577
  296TMC3    O2 4470   0.166   0.110   1.012 -0.3946 -0.1975 -0.1385
  297MPD2     C 4471   2.572   1.512  16.205  0.2593  0.1829 -0.4768
  297MPD2    C1 4472   2.498   1.615  16.150 -0.4112  0.4524  0.1472
  297MPD2    C2 4473   2.559   1.734  16.116 -0.1153  0.3329  0.2866
  297MPD2    C3 4474   2.696   1.753  16.136 -0.2672  0.4159 -0.2963
  297MPD2    C4 4475   2.767   1.648  16.191  0.2020 -0.3706  0.5089
  297MPD2    C5 4476   2.705   1.530  16.221  0.7087 -0.0115  0.2344
  297MPD2     H 4477   2.496   1.815  16.082  0.3006  0.4909 -0.1055
  297MPD2    H1 4478   2.865   1.652  16.235  0.7902 -0.6374 -0.7624
  297MPD2    H2 4479   2.521   1.418  16.223  1.5835 -0.3643  0.4535
  297MPD2    H3 4480   2.770   1.464  16.277  1.1961 -0.7545 -1.1981
  297MPD2     N 4481   2.766   1.874  16.100  0.1531 -0.0651 -0.1399
  297MPD2    H5 4482   2.708   1.955  16.080  0.9604  0.4812 -0.2559
  297MPD2    N1 4483   2.353   1.605  16.136  0.7435  0.1077 -0.0963
  297MPD2    H7 4484   2.308   1.678  16.081 -0.3894 -0.4194  0.1354
  298TMC3    C1 4485   2.125   1.552  16.183  0.2246 -0.0653 -0.1311
  298TMC3    C2 4486   2.090   1.612  16.068 -0.8537 -0.3656  0.2702
  298TMC3    C3 4487   1.954   1.609  16.025 -0.0645 -1.0085  0.2708
  298TMC3    C4 4488   2.030   1.509  16.264 -0.2094 -0.0756  0.4888
  298TMC3    C5 4489   1.897   1.511  16.224  0.4465 -0.2119 -0.4715
  298TMC3    C6 4490   1.859   1.563  16.102 -0.0081  0.4165 -0.8779
  298TMC3     C 4491   2.266   1.517  16.197  0.3965 -0.0437 -0.5838
  298TMC3     O 4492   2.298   1.429  16.280 -0.4458 -0.2327 -0.0347
  298TMC3     H 4493   2.162   1.618  15.987 -0.4858  0.2184  0.6435
  298TMC3    H1 4494   2.051   1.452  16.354 -0.6192  0.5430  0.9758
  298TMC3    H2 4495   1.754   1.564  16.075 -0.6061  0.5546  1.4965
  298TMC3    C7 4496   1.798   1.426  16.288 -0.3668  0.1571 -0.5057
  298TMC3    C8 4497   1.918   1.694  15.910 -1.1115 -0.1810 -0.9113
  298TMC3    O1 4498   1.716   1.371  16.221  0.5207  0.2409  0.1267
  298TMC3    O2 4499   1.980   1.797  15.885 -0.0276  0.1307 -0.8386
  299MPD2     C 4500   3.060   1.985  10.193  0.6208  0.2508 -0.6364
  299MPD2    C1 4501   3.025   1.910  10.299 -0.0504  0.3400  0.3910
  299MPD2    C2 4502   2.888   1.904  10.327  0.3857 -0.5628  0.6234
  299MPD2    C3 4503   2.801   1.991  10.266  0.1648  0.9787 -0.4463
  299MPD2    C4 4504   2.846   2.076  10.163  0.4960  0.4384  0.2114
  299MPD2    C5 4505   2.980   2.075  10.135 -0.0835  0.7122 -0.1996
  299MPD2     H 4506   2.858   1.850  10.416 -2.5147  0.3791  0.2206
  299MPD2    H1 4507   2.773   2.137  10.112 -1.2553 -1.2402  0.7185
  299MPD2    H2 4508   3.165   1.987  10.165  1.7552  0.3050  3.5859
  299MPD2    H3 4509   3.013   2.135  10.051  0.9988 -0.7532 -0.8072
  299MPD2     N 4510   2.676   2.012  10.328  0.7844  0.0609 -0.2842
  299MPD2    H5 4511   2.654   1.947  10.403  2.4413 -0.0256  0.1187
  299MPD2    N1 4512   3.116   1.838  10.382  0.2767 -0.5753 -0.7144
  299MPD2    H7 4513   3.213   1.857  10.359 -0.2941  1.1777 -1.6900
  300TMC3    C1 4514   2.497   2.133  10.417  0.2290  0.1887  0.3669
  300TMC3    C2 4515   2.519   2.213  10.522 -0.4659  0.9541  0.0945
  300TMC3    C3 4516   2.443   2.215  10.627 -0.5662  0.7102 -0.3070
  300TMC3    C4 4517   2.405   2.036  10.424  0.6063 -0.2076  0.2681
  300TMC3    C5 4518   2.319   2.041  10.531  0.7313 -0.1266 -0.4618
  300TMC3    C6 4519   2.333   2.137  10.635 -0.4028  0.3151  1.0732
  300TMC3     C 4520   2.607   2.126  10.321 -0.0159 -0.3148  0.2720
  300TMC3     O 4521   2.626   2.235  10.264 -0.4503  0.1057  0.2770
  300TMC3     H 4522   2.604   2.280  10.528  1.0593 -1.2313  3.2692
  300TMC3    H1 4523   2.394   1.964  10.344 -2.8944  0.3907  0.2203
  300TMC3    H2 4524   2.265   2.132  10.720  1.5565  0.4236  2.6322
  300TMC3    C7 4525   2.216   1.928  10.532  0.4259  0.2678  0.8116
  300TMC3    C8 4526   2.513   2.249  10.750  0.3053 -1.0270  0.2464
  300TMC3    O1 4527   2.216   1.860  10.432 -0.3017 -0.1576  0.4462
  300TMC3    O2 4528   2.629   2.222  10.766  0.2307 -0.5702  0.1274
  301MPD2     C 4529   4.594   2.742   2.033 -0.6223  0.3533  0.3296
  301MPD2    C1 4530   4.538   2.699   1.913 -0.5271  0.1542  0.0220
  301MPD2    C2 4531   4.609   2.611   1.829  0.2266  0.3296 -0.0657
  301MPD2    C3 4532   0.007   2.559   1.874  0.4584  0.0611 -0.3303
  301MPD2    C4 4533   0.064   2.599   1.988 -0.0565 -0.3733 -0.2103
  301MPD2    C5 4534   4.718   2.690   2.068  0.0044  0.9032 -0.5070
  301MPD2     H 4535   4.565   2.596   1.731  1.4150  2.6376 -0.9437
  301MPD2    H1 4536   0.161   2.573   2.029  0.4391  3.0284  0.7108
  301MPD2    H2 4537   4.542   2.808   2.101 -1.7328 -0.6137  0.4317
  301MPD2    H3 4538   0.025   2.714   2.170  1.7475 -3.0425 -0.0811
  301MPD2     N 4539   0.086   2.467   1.802 -0.0115  0.5304  0.0448
  301MPD2    H5 4540   0.173   2.435   1.843 -0.1730 -1.1285 -0.9204
  301MPD2    N1 4541   4.430   2.762   1.842 -0.1828 -0.0711  0.2317
  301MPD2    H7 4542   4.401   2.724   1.752  0.9619 -1.5656  0.4985
  302TMC3    C1 4543   0.165   2.391   1.593 -0.0969  0.3964  0.2445
  302TMC3    C2 4544   0.271   2.325   1.649 -0.1444  0.0762 -0.0476
  302TMC3    C3 4545   0.369   2.297   1.563  0.7987 -0.0870  0.0672
  302TMC3    C4 4546   0.161   2.432   1.464 -0.2401 -0.2776 -0.0864
  302TMC3    C5 4547   0.269   2.409   1.392  0.0169 -0.2891 -0.0277
  302TMC3    C6 4548   0.385   2.346   1.439 -0.5690 -0.3016 -0.0301
  302TMC3     C 4549   0.053   2.412   1.678 -0.6011  0.0458 -0.2045
  302TMC3     O 4550   4.667   2.411   1.621 -0.1820 -0.6377 -0.5166
  302TMC3     H 4551   0.265   2.297   1.753  2.1968  0.0162  0.0781
  302TMC3    H1 4552   0.072   2.487   1.438 -0.4667 -0.0366  1.2074
  302TMC3    H2 4553   0.459   2.309   1.370 -0.4907 -0.7344  0.2840
  302TMC3    C7 4554   0.269   2.474   1.261 -0.6788 -0.4303 -0.6922
  302TMC3    C8 4555   0.470   2.206   1.607 -0.0004 -1.5426  0.7683
  302TMC3    O1 4556   0.377   2.507   1.215 -0.4732  0.5891 -0.2745
  302TMC3    O2 4557   0.578   2.211   1.545 -0.6786  0.2096 -0.4347
  303MPD2     C 4558   0.310   0.572  10.695 -0.1116 -0.5017 -0.2239
  303MPD2    C1 4559   0.253   0.451  10.661 -0.4563 -0.4081 -0.3436
  303MPD2    C2 4560   0.188   0.439  10.534  0.1438  0.1977  0.8670
  303MPD2    C3 4561   0.185   0.549  10.451 -0.8094  0.6925  0.4785
  303MPD2    C4 4562   0.247   0.666  10.478  0.0643  0.2459  0.0944
  303MPD2    C5 4563   0.312   0.681  10.602  0.1685 -0.4980  0.1655
  303MPD2     H 4564   0.143   0.345  10.504 -0.0238  0.2802  0.8594
  303MPD2    H1 4565   0.249   0.754  10.415 -0.2418  0.2528  0.0968
  303MPD2    H2 4566   0.346   0.595  10.795  1.7924 -0.5822 -0.8969
  303MPD2    H3 4567   0.357   0.774  10.637 -0.8295  0.1701 -0.3267
  303MPD2     N 4568   0.122   0.551  10.323  0.5150  0.1918  0.2590
  303MPD2    H5 4569   0.132   0.633  10.264  0.0824  0.5991  0.7467
  303MPD2    N1 4570   0.250   0.351  10.761  0.0083  0.0496 -0.2142
  303MPD2    H7 4571   0.304   0.364  10.846 -1.0665 -2.9851  0.9457
  304TMC3    C1 4572   0.179   0.149  10.859 -0.1852 -0.9163  0.0493
  304TMC3    C2 4573   0.062   0.087  10.900  0.1620  0.6643 -0.5886
  304TMC3    C3 4574   0.066   4.680  10.937 -0.4222  0.6228 -0.1916
  304TMC3    C4 4575   0.298   0.085  10.865  0.4012  0.0511  0.4539
  304TMC3    C5 4576   0.303   4.677  10.911 -0.3294 -0.4007  0.5577
  304TMC3    C6 4577   0.189   4.615  10.945  1.0719 -0.3762  0.2659
  304TMC3     C 4578   0.168   0.236  10.751  0.8413  0.0893  0.0176
  304TMC3     O 4579   0.106   0.192  10.656  0.2111 -0.1920  0.9170
  304TMC3     H 4580   4.691   0.144  10.897 -0.8911 -0.8842  2.7132
  304TMC3    H1 4581   0.392   0.136  10.849 -0.1291  0.7916 -0.3117
  304TMC3    H2 4582   0.195   4.512  10.978 -1.0920 -0.9718 -1.1255
  304TMC3    C7 4583   0.387   4.595  10.820  0.1802  0.1118  0.3020
  304TMC3    C8 4584   4.692   4.591  10.874 -0.6186  0.4064  0.1068
  304TMC3    O1 4585   0.493   4.649  10.778 -0.0605  0.2836 -0.2602
  304TMC3    O2 4586   0.023   4.503  10.807 -0.0071 -0.2868  0.2915
  305MPD2     C 4587   3.237   3.289  13.949 -0.3559  0.2712 -0.0347
  305MPD2    C1 4588   3.286   3.161  13.964  0.2490  0.7986 -0.3851
  305MPD2    C2 4589   3.286   3.078  13.855 -0.7377  1.3111  0.6567
  305MPD2    C3 4590   3.224   3.107  13.734 -0.3384 -0.7830  0.2400
  305MPD2    C4 4591   3.167   3.234  13.730  0.4878 -0.5527 -0.5820
  305MPD2    C5 4592   3.176   3.325  13.834  0.1858  0.5212 -0.4559
  305MPD2     H 4593   3.317   2.975  13.868 -0.5536  1.4196  1.0664
  305MPD2    H1 4594   3.113   3.267  13.642  0.3474  3.8649  1.1809
  305MPD2    H2 4595   3.224   3.356  14.034  1.1367  0.0751  0.3437
  305MPD2    H3 4596   3.124   3.419  13.817 -3.9062 -1.3162  2.1197
  305MPD2     N 4597   3.228   3.025  13.617 -0.2193 -0.5720  0.7982
  305MPD2    H5 4598   3.172   3.060  13.539 -0.2853  0.0055  1.1002
  305MPD2    N1 4599   3.318   3.116  14.095  0.3034 -0.1912  0.3803
  305MPD2    H7 4600   3.318   3.193  14.162 -0.3281  0.8828 -0.8431
  306TMC3    C1 4601   3.388   2.971  14.276  0.3193 -0.6394 -0.2803
  306TMC3    C2 4602   3.459   2.861  14.306  0.6570  0.1925 -0.4723
  306TMC3    C3 4603   3.497   2.851  14.435  0.3651  0.3204 -0.2836
  306TMC3    C4 4604   3.345   3.061  14.366  0.3254 -0.4524  0.1912
  306TMC3    C5 4605   3.379   3.039  14.489 -0.3941  0.0521  0.2785
  306TMC3    C6 4606   3.453   2.940  14.530  0.0078  0.6126  0.6478
  306TMC3     C 4607   3.372   2.989  14.132 -0.3137  0.5987 -0.1684
  306TMC3     O 4608   3.408   2.904  14.056  0.5832 -0.2952 -0.3380
  306TMC3     H 4609   3.484   2.786  14.231  0.0158 -0.3365 -0.1619
  306TMC3    H1 4610   3.289   3.149  14.333  2.1491  1.6382  2.6616
  306TMC3    H2 4611   3.478   2.918  14.633  2.8387 -0.7856 -0.3186
  306TMC3    C7 4612   3.318   3.136  14.578  0.5415 -0.2919  0.3267
  306TMC3    C8 4613   3.640   2.827  14.439  0.5403  0.3127 -0.0113
  306TMC3    O1 4614   3.206   3.185  14.545 -0.2748  0.6059 -0.2816
  306TMC3    O2 4615   3.675   2.779  14.544  0.0169 -0.3759  0.1201
  307MPD2     C 4616   0.557   0.069   1.729  0.5644  0.3766  0.1601
  307MPD2    C1 4617   0.631   0.173   1.679 -0.5040  0.1042 -0.6224
  307MPD2    C2 4618   0.586   0.297   1.691  0.2354 -0.5930  0.2192
  307MPD2    C3 4619   0.463   0.325   1.746 -0.8319 -0.4824  0.0603
  307MPD2    C4 4620   0.387   0.224   1.802 -0.5612 -0.3382 -0.3903
  307MPD2    C5 4621   0.433   0.097   1.783 -0.2156  0.4826 -0.4164
  307MPD2     H 4622   0.647   0.378   1.653 -0.4708  0.1088  0.5812
  307MPD2    H1 4623   0.293   0.243   1.853 -0.9057  1.1807 -1.6075
  307MPD2    H2 4624   0.586   4.686   1.735 -1.6549 -0.2777 -0.4941
  307MPD2    H3 4625   0.383   0.014   1.831  0.3230  0.5640  0.2966
  307MPD2     N 4626   0.421   0.456   1.744  0.7303 -0.0481 -0.2696
  307MPD2    H5 4627   0.485   0.529   1.712  0.6947 -0.5283 -1.4236
  307MPD2    N1 4628   0.750   0.151   1.599 -0.1590 -0.1757 -0.6137
  307MPD2    H7 4629   0.790   0.228   1.547  0.7105 -0.8942 -1.0037
  308TMC3    C1 4630   0.170   0.849   1.722  0.1772  0.5602 -0.3357
  308TMC3    C2 4631   0.284   0.922   1.721  0.6590  0.2906  0.2724
  308TMC3    C3 4632   0.400   0.854   1.752  0.2500 -0.1736 -0.1857
  308TMC3    C4 4633   0.167   0.715   1.739  0.5228 -0.0941  1.0172
  308TMC3    C5 4634   0.286   0.648   1.771  0.3586  0.2623  0.2813
  308TMC3    C6 4635   0.401   0.721   1.786 -0.5551 -0.4771  0.2467
  308TMC3     C 4636   0.045   0.917   1.681  0.1594  0.8883 -0.2738
  308TMC3     O 4637   4.663   0.864   1.720 -0.5880  0.4305 -0.5901
  308TMC3     H 4638   0.287   1.031   1.723  1.1014  0.2646  1.1756
  308TMC3    H1 4639   0.083   0.649   1.720  0.8297 -0.7921  2.1122
  308TMC3    H2 4640   0.484   0.667   1.831 -1.0655 -2.6087 -1.3915
  308TMC3    C7 4641   0.294   0.506   1.761 -0.3062  0.1753  0.6355
  308TMC3    C8 4642   0.520   0.937   1.773 -0.4304 -1.1138  0.3416
  308TMC3    O1 4643   0.188   0.448   1.761 -0.4460  0.8302  0.4465
  308TMC3    O2 4644   0.604   0.891   1.854 -0.0972  0.0877  0.1615
  309MPD2     C 4645   0.286   1.160  17.378 -0.0085 -0.9790  0.0611
  309MPD2    C1 4646   0.251   1.255  17.291  0.3437 -1.1442 -0.1860
  309MPD2    C2 4647   0.188   1.367  17.336  0.1697  0.3578 -0.6288
  309MPD2    C3 4648   0.142   1.378  17.465  0.0837 -0.2013 -0.8990
  309MPD2    C4 4649   0.166   1.273  17.552  0.0040 -0.3061 -0.3908
  309MPD2    C5 4650   0.241   1.167  17.510  0.2973  0.1443  0.1014
  309MPD2     H 4651   0.155   1.436  17.258 -1.7915  2.0020  1.6728
  309MPD2    H1 4652   0.129   1.277  17.654 -0.3175 -0.9555 -0.4773
  309MPD2    H2 4653   0.354   1.081  17.347  1.6616  0.0234  1.1220
  309MPD2    H3 4654   0.285   1.100  17.584  1.8098 -1.1903 -2.0160
  309MPD2     N 4655   0.058   1.484  17.514  0.2479  0.3633 -0.2211
  309MPD2    H5 4656   0.006   1.467  17.600 -0.3345 -2.1428 -1.0608
  309MPD2    N1 4657   0.289   1.261  17.158  0.6387  0.2186 -0.3328
  309MPD2    H7 4658   0.284   1.353  17.114 -0.0105  0.6085  0.5582
  310TMC3    C1 4659   0.387   1.179  16.957  0.3256 -1.2195  0.7889
  310TMC3    C2 4660   0.345   1.286  16.886 -0.9276  0.3023  0.7894
  310TMC3    C3 4661   0.422   1.310  16.767 -0.1632  0.5562  0.0696
  310TMC3    C4 4662   0.474   1.075  16.915 -0.5993 -0.2435  0.0862
  310TMC3    C5 4663   0.527   1.101  16.792  0.1146  0.2037 -0.8056
  310TMC3    C6 4664   0.506   1.216  16.717  0.7041 -0.0555 -0.0445
  310TMC3     C 4665   0.326   1.150  17.088  0.0696  0.4972 -0.1702
  310TMC3     O 4666   0.328   1.031  17.121  0.0687 -0.5286 -0.4578
  310TMC3     H 4667   0.251   1.337  16.905  0.4960  2.7159  1.2949
  310TMC3    H1 4668   0.494   0.989  16.978  1.5837 -1.2003 -1.9073
  310TMC3    H2 4669   0.575   1.230  16.634 -0.2334 -1.2082 -1.0255
  310TMC3    C7 4670   0.647   1.027  16.773  0.1442 -0.1645  0.3684
  310TMC3    C8 4671   0.396   1.428  16.682  0.4156 -0.1419 -0.2367
  310TMC3    O1 4672   0.675   1.002  16.659 -1.0341 -0.2498  0.7365
  310TMC3    O2 4673   0.456   1.428  16.575 -0.0063  0.1357 -1.3432
  311MPD2     C 4674   2.255   2.244  13.098  0.3059  0.1545  0.3595
  311MPD2    C1 4675   2.243   2.361  13.033 -0.1440  0.0818 -0.3284
  311MPD2    C2 4676   2.120   2.421  13.030 -0.3604 -0.4929  0.5532
  311MPD2    C3 4677   2.011   2.355  13.078  0.2881  0.7199 -1.0838
  311MPD2    C4 4678   2.023   2.243  13.154 -0.3482 -0.2856  0.3547
  311MPD2    C5 4679   2.149   2.191  13.163 -0.3676  0.3472 -0.0695
  311MPD2     H 4680   2.112   2.519  12.984  0.8070 -1.2259 -1.2336
  311MPD2    H1 4681   1.936   2.208  13.208  1.3766 -2.4071  1.7705
  311MPD2    H2 4682   2.354   2.207  13.124 -0.0897 -0.9933  0.1928
  311MPD2    H3 4683   2.168   2.099  13.218 -1.9645  1.2520  2.0180
  311MPD2     N 4684   1.893   2.429  13.072 -0.0855 -0.8056  0.2825
  311MPD2    H5 4685   1.895   2.520  13.027  0.9274 -1.4887 -1.0617
  311MPD2    N1 4686   2.348   2.434  12.978 -0.3793 -0.0777  0.0235
  311MPD2    H7 4687   2.326   2.526  12.941 -0.5706  0.0172  0.3745
  312TMC3    C1 4688   1.665   2.480  13.066 -0.5410  0.5672  0.6759
  312TMC3    C2 4689   1.568   2.442  12.970  0.2420  0.2813 -0.1763
  312TMC3    C3 4690   1.487   2.536  12.910  0.3798 -0.1911 -0.8084
  312TMC3    C4 4691   1.689   2.614  13.089 -0.1616 -0.0708  0.4815
  312TMC3    C5 4692   1.610   2.704  13.022 -0.0225 -0.1674 -0.7603
  312TMC3    C6 4693   1.513   2.671  12.935 -0.0588  0.3037 -0.5538
  312TMC3     C 4694   1.767   2.377  13.094 -0.2416 -0.2258  0.2182
  312TMC3     O 4695   1.735   2.264  13.115 -0.3130 -0.2969 -0.0584
  312TMC3     H 4696   1.566   2.339  12.938  0.4612  0.2009  0.0581
  312TMC3    H1 4697   1.768   2.644  13.156  0.6277  1.1388 -0.9746
  312TMC3    H2 4698   1.456   2.754  12.895 -1.9698 -0.3994  0.7061
  312TMC3    C7 4699   1.635   2.843  13.058 -0.5720  0.3003  0.1103
  312TMC3    C8 4700   1.410   2.472  12.801  0.3655  0.2666 -0.5878
  312TMC3    O1 4701   1.631   2.929  12.970  0.3553  0.6644  0.2994
  312TMC3    O2 4702   1.416   2.351  12.788 -0.4857  0.5930  0.2514
  313MPD2     C 4703   1.496   1.690  10.972 -0.1395 -0.5147  0.4730
  313MPD2    C1 4704   1.529   1.771  10.867  0.0700 -0.3967  0.1905
  313MPD2    C2 4705   1.536   1.721  10.741 -0.8138 -0.7563  0.0315
  313MPD2    C3 4706   1.518   1.588  10.717  0.5062  0.0025 -0.7987
  313MPD2    C4 4707   1.485   1.504  10.826 -0.1183  0.6037 -0.1333
  313MPD2    C5 4708   1.480   1.553  10.953 -0.1361  0.2098  0.5086
  313MPD2     H 4709   1.559   1.791  10.662 -0.2605 -1.3221 -0.3102
  313MPD2    H1 4710   1.465   1.398  10.821  1.3964  0.3939 -1.8358
  313MPD2    H2 4711   1.471   1.737  11.066 -0.6054 -0.1993  0.1936
  313MPD2    H3 4712   1.451   1.489  11.035 -0.6425 -0.9023 -0.5496
  313MPD2     N 4713   1.558   1.544  10.589  0.2284  0.0529  0.2211
  313MPD2    H5 4714   1.583   1.621  10.527  0.7838 -0.9585 -0.8073
  313MPD2    N1 4715   1.576   1.907  10.885 -0.1202  0.5008 -0.2332
  313MPD2    H7 4716   1.619   1.954  10.805 -1.8399 -0.2953 -1.6358
  314TMC3    C1 4717   1.631   2.105  10.962 -0.1080 -0.1406  0.3163
  314TMC3    C2 4718   1.743   2.141  11.030  0.0453 -0.2397 -0.4493
  314TMC3    C3 4719   1.847   2.200  10.958  0.5585 -0.3667  0.9553
  314TMC3    C4 4720   1.621   2.139  10.828 -0.0240  0.2634  0.2039
  314TMC3    C5 4721   1.728   2.193  10.759 -0.3113  0.1202  0.0533
  314TMC3    C6 4722   1.835   2.235  10.827  0.8562 -0.2254 -0.0028
  314TMC3     C 4723   1.571   1.977  10.998  0.7073  0.8630 -0.2405
  314TMC3     O 4724   1.547   1.943  11.116  0.0784  0.1087 -0.2667
  314TMC3     H 4725   1.740   2.128  11.137 -0.9942  1.7421 -0.2455
  314TMC3    H1 4726   1.535   2.115  10.767 -0.1224 -1.2362  0.9270
  314TMC3    H2 4727   1.922   2.279  10.779  0.1846  1.5543  0.4159
  314TMC3    C7 4728   1.753   2.120  10.641 -0.2358 -0.6137  0.3833
  314TMC3    C8 4729   1.937   2.276  11.038 -0.6910  0.1159 -0.1054
  314TMC3    O1 4730   1.675   2.030  10.617 -0.2017 -0.0358  0.3785
  314TMC3    O2 4731   1.948   2.396  11.035 -0.6818 -0.1160  0.1151
  315MPD2     C 4732   1.527   1.254   0.480 -0.2095 -0.4411 -0.2305
  315MPD2    C1 4733   1.648   1.187   0.447  0.0006 -0.3126  0.2409
  315MPD2    C2 4734   1.750   1.259   0.388  0.7709  0.2207  0.1033
  315MPD2    C3 4735   1.750   1.398   0.376 -0.1551  0.3435  0.3711
  315MPD2    C4 4736   1.624   1.459   0.398  0.3010  0.3969 -0.2684
  315MPD2    C5 4737   1.523   1.382   0.455 -0.2511  0.3899  0.0162
  315MPD2     H 4738   1.844   1.206   0.376 -0.6655 -1.8845 -1.6756
  315MPD2    H1 4739   1.604   1.564   0.380  1.3027  0.6265 -0.0786
  315MPD2    H2 4740   1.445   1.206   0.533  0.4109 -0.5138  0.6532
  315MPD2    H3 4741   1.437   1.438   0.489 -1.2736 -0.4361 -1.2041
  315MPD2     N 4742   1.863   1.452   0.321  0.1654  0.0314 -0.4600
  315MPD2    H5 4743   1.947   1.396   0.316 -1.1725 -2.0662  0.8546
  315MPD2    N1 4744   1.677   1.055   0.484  0.7799 -0.2409 -0.6181
  315MPD2    H7 4745   1.761   1.011   0.448  1.6270  0.2407  0.7685
  316TMC3    C1 4746   2.011   1.624   0.248  0.3922 -0.0299  0.4076
  316TMC3    C2 4747   2.096   1.603   0.351 -0.5962  0.4228  0.0669
  316TMC3    C3 4748   2.229   1.607   0.316  0.5617 -0.0597  0.6802
  316TMC3    C4 4749   2.046   1.651   0.121 -0.1871  0.6013 -0.1530
  316TMC3    C5 4750   2.179   1.656   0.091  0.4185  0.0653  0.8579
  316TMC3    C6 4751   2.277   1.639   0.189 -0.1106  0.2898  0.4000
  316TMC3     C 4752   1.872   1.581   0.272  0.1052  0.2220  0.1952
  316TMC3     O 4753   1.781   1.651   0.235  0.0737 -0.1536  0.1252
  316TMC3     H 4754   2.062   1.586   0.452  0.4351 -2.9410 -0.1496
  316TMC3    H1 4755   1.963   1.676   0.056  0.0989 -1.0710 -1.1678
  316TMC3    H2 4756   2.383   1.662   0.179  0.1931 -2.2971 -2.4303
  316TMC3    C7 4757   2.212   1.666  17.637  0.0473 -0.4784  0.0599
  316TMC3    C8 4758   2.327   1.591   0.417  0.3851  0.2912 -0.6540
  316TMC3    O1 4759   2.321   1.715  17.617 -0.0003 -0.2874  0.5927
  316TMC3    O2 4760   2.286   1.592   0.532  0.2865  0.1500 -0.0149
  317MPD2     C 4761   3.118   4.588  13.170 -0.5135 -0.3540 -0.3223
  317MPD2    C1 4762   3.158   4.476  13.099  0.0910  0.1900  0.5830
  317MPD2    C2 4763   3.251   4.393  13.165 -0.3020 -0.1464 -0.2129
  317MPD2    C3 4764   3.293   4.420  13.291 -0.2620 -0.3873 -0.2907
  317MPD2    C4 4765   3.235   4.526  13.365 -0.1931  0.2841 -0.1028
  317MPD2    C5 4766   3.155   4.610  13.304  0.2615 -0.3579  0.0795
  317MPD2     H 4767   3.275   4.300  13.114  0.4068  0.1777 -0.4669
  317MPD2    H1 4768   3.242   4.529  13.473  0.0129 -0.5486 -0.0990
  317MPD2    H2 4769   3.039   4.651  13.130 -0.5100 -1.2081 -1.6630
  317MPD2    H3 4770   3.100   4.691  13.351  0.2200 -0.1459 -0.3376
  317MPD2     N 4771   3.369   4.319  13.362  0.4029  0.1217  0.6401
  317MPD2    H5 4772   3.393   4.236  13.309  1.4625 -0.4009  1.9369
  317MPD2    N1 4773   3.133   4.454  12.964  0.0013  0.5524  0.6098
  317MPD2    H7 4774   3.168   4.367  12.926 -3.2489 -0.3757 -0.3007
  318TMC3    C1 4775   3.506   4.223  13.526  0.1813 -0.0407 -0.0205
  318TMC3    C2 4776   3.454   4.103  13.486 -0.5029  0.4163  0.5293
  318TMC3    C3 4777   3.540   3.994  13.480  0.5133  0.2580 -0.4315
  318TMC3    C4 4778   3.637   4.243  13.554  0.1278 -0.5362 -0.4330
  318TMC3    C5 4779   3.724   4.132  13.544  0.4446  0.2102  0.1895
  318TMC3    C6 4780   3.676   4.010  13.500  0.1046  0.0618  0.2687
  318TMC3     C 4781   3.439   4.341  13.483 -0.2799 -0.0318  0.3921
  318TMC3     O 4782   3.448   4.441  13.550  0.2367  1.1315  0.3479
  318TMC3     H 4783   3.348   4.085  13.476 -0.1836 -0.3176 -1.7128
  318TMC3    H1 4784   3.680   4.341  13.568  1.2442 -0.8464 -1.8226
  318TMC3    H2 4785   3.738   3.921  13.498 -0.0047  0.0124 -0.7950
  318TMC3    C7 4786   3.865   4.158  13.570  0.8124 -0.5680 -0.3127
  318TMC3    C8 4787   3.498   3.881  13.405 -0.2341 -0.5210  0.6970
  318TMC3    O1 4788   3.882   4.267  13.625 -0.4091  0.0136  0.3716
  318TMC3    O2 4789   3.587   3.811  13.363 -0.1923 -0.3708  0.1806
  319MPD2     C 4790   4.658   1.128  17.094 -0.8053  0.5947  1.0428
  319MPD2    C1 4791   4.544   1.075  17.144 -0.2325 -0.6664 -0.3397
  319MPD2    C2 4792   4.455   1.024  17.045  0.8228 -0.0360 -0.0050
  319MPD2    C3 4793   4.485   1.034  16.908  0.5868  0.3878 -0.6217
  319MPD2    C4 4794   4.613   1.073  16.865  0.8830  0.0571  0.2131
  319MPD2    C5 4795   4.696   1.114  16.960  0.0705 -0.4881  0.6491
  319MPD2     H 4796   4.353   1.011  17.079  0.6767 -0.2375 -0.5300
  319MPD2    H1 4797   4.638   1.087  16.760 -2.3368  0.4284 -0.5036
  319MPD2    H2 4798   0.007   1.170  17.166  0.2497 -1.2898  1.1299
  319MPD2    H3 4799   0.073   1.157  16.944 -0.0455  0.6599  3.0195
  319MPD2     N 4800   4.383   1.025  16.803  0.3777 -0.3161  0.5175
  319MPD2    H5 4801   4.406   1.056  16.709 -1.4581  1.0719  0.5358
  319MPD2    N1 4802   4.511   1.074  17.281 -0.4535 -0.0224  0.0063
  319MPD2    H7 4803   4.421   1.036  17.310 -0.9932  0.5895 -0.8389
  320TMC3    C1 4804   4.197   0.945  16.693 -0.9131  0.3482 -0.4376
  320TMC3    C2 4805   4.208   1.038  16.592  0.3863  0.0463 -0.8457
  320TMC3    C3 4806   4.130   1.011  16.480 -0.1651  0.4213  1.0300
  320TMC3    C4 4807   4.102   0.839  16.693 -0.2838 -0.0944 -0.2109
  320TMC3    C5 4808   4.040   0.814  16.579 -0.4329 -0.3090 -0.1636
  320TMC3    C6 4809   4.037   0.909  16.474  0.1145 -0.2273 -0.1126
  320TMC3     C 4810   4.259   0.975  16.825  0.5114 -0.2020 -0.1934
  320TMC3     O 4811   4.207   0.925  16.923 -0.2413 -0.0724  0.1694
  320TMC3     H 4812   4.276   1.122  16.588  2.4794 -1.6805 -1.6216
  320TMC3    H1 4813   4.076   0.785  16.783 -0.6051  0.1585 -0.1533
  320TMC3    H2 4814   3.971   0.893  16.389 -0.2952  2.2254 -0.2524
  320TMC3    C7 4815   3.935   0.717  16.585  0.6263 -0.1401 -0.3439
  320TMC3    C8 4816   4.130   1.114  16.379  0.5046 -0.0291  0.1863
  320TMC3    O1 4817   3.876   0.706  16.689  0.1411 -0.3088  0.3517
  320TMC3    O2 4818   4.158   1.232  16.407  0.1226  0.6761  0.7788
  321TMC3    C1 4819   4.503   1.161  17.497  0.0076  0.0166 -0.5126
  321TMC3    C2 4820   4.456   1.039  17.536 -0.8006  0.1828  0.9347
  321TMC3    C3 4821   4.410   1.033  17.670 -0.2270 -0.1191 -0.4157
  321TMC3    C4 4822   4.524   1.268  17.585 -0.5411  0.6598  0.5070
  321TMC3    C5 4823   4.492   1.254   0.029 -0.2505 -0.7170  1.4582
  321TMC3    C6 4824   4.430   1.137   0.071 -0.4518  0.0867  0.1791
  321TMC3     C 4825   4.559   1.171  17.365 -0.1743  0.4674  0.2805
  321TMC3     O 4826   4.614   1.274  17.337  0.2843 -0.3704  0.0136
  321TMC3     H 4827   4.481   0.952  17.477  0.8668  0.2343  1.5589
  321TMC3    H1 4828   4.577   1.361  17.566  0.4866  0.2715  1.4119
  321TMC3    H2 4829   4.381   1.126   0.167 -0.1552  0.2551  0.3489
  321TMC3    C7 4830   4.598   1.297   0.121 -0.2203  0.5485  0.6144
  321TMC3    C8 4831   4.455   0.913   0.050  0.2622 -0.1396  1.2960
  321TMC3    O1 4832   4.659   1.403   0.105  0.1615  0.2098  0.7032
  321TMC3    O2 4833   4.514   0.935   0.157 -0.2864  0.4464 -0.0287
  322MPD2     C 4834   3.516   2.419  13.378  0.3427  0.3075  0.4307
  322MPD2    C1 4835   3.483   2.355  13.496  0.4393 -1.8974  0.1084
  322MPD2    C2 4836   3.472   2.216  13.492 -0.3437  0.2413 -0.1376
  322MPD2    C3 4837   3.482   2.147  13.374 -0.7560 -0.2842 -0.8901
  322MPD2    C4 4838   3.511   2.214  13.257  0.4596  0.4765  0.1202
  322MPD2    C5 4839   3.521   2.353  13.260  0.3653 -0.5561  0.0889
  322MPD2     H 4840   3.455   2.164  13.586  2.0976  0.3211  0.3505
  322MPD2    H1 4841   3.522   2.161  13.164  2.5494 -0.1865  0.7500
  322MPD2    H2 4842   3.520   2.527  13.372 -4.3700  0.4583 -0.1418
  322MPD2    H3 4843   3.547   2.413  13.173 -2.8526  1.0608  0.2470
  322MPD2     N 4844   3.480   1.999  13.380 -0.6515  0.0242  0.6827
  322MPD2    H5 4845   3.482   1.955  13.472  2.9463  0.0150  0.6226
  322MPD2    N1 4846   3.496   2.431  13.609  1.0481 -0.1557  0.1507
  322MPD2    H7 4847   3.553   2.514  13.599  1.8447 -0.8542 -1.0969
  323TMC3    C1 4848   3.499   2.490  13.841  0.8018  0.1548  0.0087
  323TMC3    C2 4849   3.524   2.620  13.809  0.4088 -0.0184 -0.0472
  323TMC3    C3 4850   3.563   2.705  13.902 -0.1324  0.6799  0.2729
  323TMC3    C4 4851   3.506   2.443  13.970  0.3452 -0.1404 -0.0760
  323TMC3    C5 4852   3.554   2.533  14.063  0.4772  0.1696 -0.6327
  323TMC3    C6 4853   3.587   2.660  14.025 -0.4097  0.0938 -0.2350
  323TMC3     C 4854   3.454   2.402  13.738 -0.4289  0.6807 -0.0195
  323TMC3     O 4855   3.388   2.307  13.778 -0.3037 -0.1448 -0.2738
  323TMC3     H 4856   3.498   2.653  13.709  2.6038  1.3603 -0.1567
  323TMC3    H1 4857   3.495   2.338  13.999  1.1495  0.1828  1.4045
  323TMC3    H2 4858   3.627   2.734  14.092 -1.6055  0.7492 -0.2459
  323TMC3    C7 4859   3.637   2.467  14.170 -0.2001  0.7322  0.6097
  323TMC3    C8 4860   3.650   2.809  13.854 -0.1251  0.4597 -0.1939
  323TMC3    O1 4861   3.605   2.352  14.192 -0.3393 -0.0714 -0.2229
  323TMC3    O2 4862   3.730   2.774  13.771 -0.2185 -0.0640 -0.2991
  324MPD2     C 4863   0.239   3.314  14.162  0.1933  0.1026  0.2633
  324MPD2    C1 4864   0.244   3.450  14.187 -0.0093  0.1236  0.2436
  324MPD2    C2 4865   0.187   3.542  14.099  0.4215 -0.6046  0.5737
  324MPD2    C3 4866   0.113   3.481  13.992 -0.3552  0.1376 -0.4052
  324MPD2    C4 4867   0.111   3.347  13.964  0.2087  0.3759  0.3554
  324MPD2    C5 4868   0.172   3.262  14.052 -0.3159 -0.0663 -0.9219
  324MPD2     H 4869   0.199   3.647  14.121  0.3521 -0.1190 -1.7299
  324MPD2    H1 4870   0.065   3.308  13.874  1.6177 -0.7614  0.1176
  324MPD2    H2 4871   0.302   3.247  14.219  0.9745  1.5264  1.0647
  324MPD2    H3 4872   0.171   3.156  14.029  0.0951 -0.7582  2.2059
  324MPD2     N 4873   0.035   3.554  13.897 -0.3054  0.6945 -0.4398
  324MPD2    H5 4874   4.706   3.501  13.827  0.0589 -0.7244  0.3854
  324MPD2    N1 4875   0.327   3.506  14.289  1.0214 -0.0615 -0.5393
  324MPD2    H7 4876   0.326   3.606  14.305 -1.4455 -0.4189  1.6525
  325TMC3    C1 4877   4.658   3.746  13.787  0.3471 -0.3380 -0.3636
  325TMC3    C2 4878   4.538   3.688  13.772 -0.2550  0.6760  0.1488
  325TMC3    C3 4879   4.426   3.770  13.752 -0.1932  0.3650  0.0066
  325TMC3    C4 4880   4.677   3.885  13.775 -0.7154 -0.1183 -0.0043
  325TMC3    C5 4881   4.566   3.964  13.752  0.4795  0.1981 -0.5742
  325TMC3    C6 4882   4.433   3.911  13.745 -0.0526  0.5784  0.3765
  325TMC3     C 4883   0.024   3.692  13.891  0.0390  0.3368 -0.0090
  325TMC3     O 4884   0.077   3.775  13.957  1.0776 -0.3665  0.1301
  325TMC3     H 4885   4.521   3.583  13.794  2.3592  0.4517  1.1195
  325TMC3    H1 4886   0.054   3.931  13.778 -0.4146 -0.4509 -4.7414
  325TMC3    H2 4887   4.355   3.974  13.704  0.5693  1.5896  0.7431
  325TMC3    C7 4888   4.581   4.111  13.759 -0.5149  0.0259  0.5952
  325TMC3    C8 4889   4.302   3.707  13.709 -0.1161 -0.1868  0.7096
  325TMC3    O1 4890   4.694   4.159  13.744 -0.0528  0.3050 -0.0406
  325TMC3    O2 4891   4.299   3.586  13.686  0.3543  0.4383 -0.2888
  326MPD2     C 4892   1.226   4.697  11.391 -0.2520 -0.2258 -0.0238
  326MPD2    C1 4893   1.292   4.657  11.280  0.2094 -0.0155 -0.5678
  326MPD2    C2 4894   1.385   0.019  11.229  0.5872 -0.3504 -0.5183
  326MPD2    C3 4895   1.424   0.135  11.298  0.0470 -0.1281 -0.2922
  326MPD2    C4 4896   1.358   0.177  11.413  0.7616  0.0804 -0.8412
  326MPD2    C5 4897   1.245   0.102  11.444  0.3524  0.7361  0.7147
  326MPD2     H 4898   1.434   4.721  11.135 -0.2028 -0.7183 -0.8453
  326MPD2    H1 4899   1.386   0.266  11.468 -0.3651  1.6175 -2.7548
  326MPD2    H2 4900   1.146   4.636  11.430 -1.9672  0.8743 -1.8303
  326MPD2    H3 4901   1.199   0.115  11.541  0.4378  2.7261  0.4846
  326MPD2     N 4902   1.531   0.218  11.256  0.2897  0.3029  0.5535
  326MPD2    H5 4903   1.550   0.305  11.305  1.5309  0.3529 -0.0236
  326MPD2    N1 4904   1.251   4.551  11.203  0.0614 -0.2031 -0.2340
  326MPD2    H7 4905   1.281   4.542  11.107  1.7789  0.7790  0.2149
  327TMC3    C1 4906   1.166   4.341  11.159  0.4997 -0.0044 -0.5674
  327TMC3    C2 4907   1.121   4.378  11.035 -0.5912  0.0436 -0.1195
  327TMC3    C3 4908   1.086   4.280  10.945 -0.0257  0.9032  0.9264
  327TMC3    C4 4909   1.184   4.211  11.194 -0.2825 -0.4250  0.3304
  327TMC3    C5 4910   1.135   4.121  11.105  0.6388 -0.6501  0.4939
  327TMC3    C6 4911   1.088   4.145  10.979 -0.7133  0.6480 -0.1055
  327TMC3     C 4912   1.189   4.443  11.255  0.7496 -0.7130 -0.3907
  327TMC3     O 4913   1.168   4.414  11.374 -0.7047  0.3821 -0.0725
  327TMC3     H 4914   1.108   4.483  11.008  1.3874 -0.1568 -1.8311
  327TMC3    H1 4915   1.214   4.181  11.294 -0.6060 -0.6721  0.3546
  327TMC3    H2 4916   1.060   4.063  10.914 -0.0199  0.2159  0.1380
  327TMC3    C7 4917   1.190   3.986  11.121  0.0603 -0.2062 -0.0864
  327TMC3    C8 4918   1.041   4.330  10.814 -0.3577 -0.2675  0.4440
  327TMC3    O1 4919   1.133   3.889  11.075 -0.4279  0.0898 -0.3359
  327TMC3    O2 4920   0.982   4.436  10.809  0.8254 -0.4239 -0.2709
  328MPD2     C 4921   3.869   4.240  17.503  0.2954  0.2386 -0.4499
  328MPD2    C1 4922   3.784   4.189  17.407  0.0713 -0.1519  0.6397
  328MPD2    C2 4923   3.722   4.274  17.312  0.3996  1.1002  0.6804
  328MPD2    C3 4924   3.755   4.406  17.308  0.5639 -0.1287  0.0823
  328MPD2    C4 4925   3.851   4.453  17.392 -0.6195 -0.6252 -0.2704
  328MPD2    C5 4926   3.904   4.372  17.492  0.3022 -0.0356 -0.0055
  328MPD2     H 4927   3.653   4.237  17.237  0.4179  2.9162 -0.2162
  328MPD2    H1 4928   3.893   4.551  17.374 -0.6428 -1.0259 -2.5092
  328MPD2    H2 4929   3.925   4.175  17.570 -2.1173 -0.8756  0.4816
  328MPD2    H3 4930   3.987   4.421  17.542  1.2745 -1.0737 -0.6040
  328MPD2     N 4931   3.704   4.502  17.218  0.2570  0.1246  0.7513
  328MPD2    H5 4932   3.734   4.598  17.231 -1.3478  0.5113  1.4840
  328MPD2    N1 4933   3.762   4.050  17.414  0.1863  0.0076 -0.2187
  328MPD2    H7 4934   3.785   3.995  17.496  0.7606  1.2776  0.4863
  329TMC3    C1 4935   3.689   3.842  17.332  0.2757 -0.7452 -0.4999
  329TMC3    C2 4936   3.706   3.791  17.460  0.0078 -0.9792 -0.2028
  329TMC3    C3 4937   3.656   3.665  17.484 -0.4295  0.1148  0.0757
  329TMC3    C4 4938   3.636   3.769  17.223  0.7070 -0.5821  0.1123
  329TMC3    C5 4939   3.607   3.641  17.255  0.0268  0.4326  0.7598
  329TMC3    C6 4940   3.617   3.586  17.382 -0.3036  0.2729 -0.6419
  329TMC3     C 4941   3.692   3.983  17.318  0.5849 -0.5627 -0.0860
  329TMC3     O 4942   3.615   4.028  17.230  0.0785  0.0827  0.1435
  329TMC3     H 4943   3.764   3.842  17.536  0.7695  0.4588 -1.7526
  329TMC3    H1 4944   3.608   3.824  17.134  0.7027 -0.8379 -0.0447
  329TMC3    H2 4945   3.578   3.489  17.414 -0.4918 -0.1229 -2.0573
  329TMC3    C7 4946   3.551   3.553  17.154  0.3914 -0.0088 -0.0274
  329TMC3    C8 4947   3.668   3.611  17.619 -0.6005  0.1268  0.3607
  329TMC3    O1 4948   3.528   3.435  17.186  0.3848  0.0167 -0.3223
  329TMC3    O2 4949   3.658   3.489  17.633 -0.0125 -0.4061 -0.1846
  330TMC3    C1 4950   2.399   3.767  10.279  0.1439 -0.3672  0.3688
  330TMC3    C2 4951   2.377   3.723  10.152 -0.5446  0.4788 -0.6456
  330TMC3    C3 4952   2.394   3.590  10.130  0.5161 -0.0530 -0.4405
  330TMC3    C4 4953   2.458   3.689  10.380  0.2488  0.9107 -0.8997
  330TMC3    C5 4954   2.488   3.562  10.344  0.0032 -0.0630 -0.2116
  330TMC3    C6 4955   2.459   3.506  10.217  0.9190  0.1067  0.5616
  330TMC3     C 4956   2.355   3.897  10.324 -0.2337 -0.1546  0.1330
  330TMC3     O 4957   2.335   3.912  10.445  0.0204 -0.2302  0.5821
  330TMC3     H 4958   2.330   3.782  10.074 -1.2611  0.8862  0.0958
  330TMC3    H1 4959   2.477   3.733  10.478  3.0449 -2.5922  0.1277
  330TMC3    H2 4960   2.482   3.406  10.181 -1.5885  0.2875 -1.5582
  330TMC3    C7 4961   2.529   3.476  10.450 -0.0631  0.4260  0.4071
  330TMC3    C8 4962   2.357   3.538   9.999 -0.1309 -0.6640  0.1438
  330TMC3    O1 4963   2.564   3.533  10.552  0.2195  0.1921 -0.4929
  330TMC3    O2 4964   2.325   3.621   9.915  0.6248 -1.0609 -0.2003
  331MPD2     C 4965   3.977   2.368  12.730  0.0048 -0.2411 -0.0729
  331MPD2    C1 4966   4.098   2.416  12.675  0.1068  0.5856 -0.2755
  331MPD2    C2 4967   4.183   2.335  12.614  0.5407  0.1962  0.0409
  331MPD2    C3 4968   4.154   2.201  12.600 -0.0250  0.1504  0.8574
  331MPD2    C4 4969   4.032   2.155  12.648  0.5039 -0.7549  0.2488
  331MPD2    C5 4970   3.951   2.237  12.713 -0.2417 -0.1592  0.0288
  331MPD2     H 4971   4.272   2.373  12.566  0.4188 -2.2498 -2.0971
  331MPD2    H1 4972   4.003   2.050  12.649  0.3783 -0.7169  0.9008
  331MPD2    H2 4973   3.917   2.434  12.791 -0.1261 -1.8679  1.5546
  331MPD2    H3 4974   3.863   2.189  12.753 -0.6311  0.5519  0.0212
  331MPD2     N 4975   4.232   2.125  12.517  0.0017  0.4361  0.0202
  331MPD2    H5 4976   4.303   2.168  12.459 -1.2294  3.6851  0.9329
  331MPD2    N1 4977   4.131   2.552  12.684  0.2883  0.6123 -0.0535
  331MPD2    H7 4978   4.064   2.625  12.704 -0.8607 -0.3579 -0.3373
  332TMC3    C1 4979   4.338   1.942  12.418  0.3561 -0.9488 -0.0542
  332TMC3    C2 4980   4.357   2.010  12.303  0.3065  0.7574  0.3511
  332TMC3    C3 4981   4.487   2.000  12.249 -0.1310  0.1215 -0.1293
  332TMC3    C4 4982   4.427   1.858  12.471 -0.3756 -0.4885 -0.5225
  332TMC3    C5 4983   4.553   1.842  12.412 -0.5550  0.1836 -0.0643
  332TMC3    C6 4984   4.583   1.922  12.306 -0.5190  0.0227  0.2446
  332TMC3     C 4985   4.230   1.988  12.507  0.8042 -0.2408 -0.0157
  332TMC3     O 4986   4.186   1.908  12.591  0.0451 -0.2331  0.1080
  332TMC3     H 4987   4.285   2.079  12.261  0.6232  0.3928 -0.7956
  332TMC3    H1 4988   4.420   1.832  12.576  2.5531  2.2241  0.3391
  332TMC3    H2 4989   4.679   1.909  12.257 -0.0793  1.7923  0.6315
  332TMC3    C7 4990   4.634   1.745  12.482 -0.6361 -0.2450 -0.2700
  332TMC3    C8 4991   4.517   2.090  12.143  0.3328 -0.0842  0.1393
  332TMC3    O1 4992   4.581   1.668  12.558  0.4473  0.5583 -0.2006
  332TMC3    O2 4993   4.415   2.136  12.091 -0.6815  0.4105  0.1060
  333MPD2     C 4994   0.564   2.269  11.798 -0.4820  0.5913  0.3947
  333MPD2    C1 4995   0.488   2.300  11.692  0.1776 -0.3064 -0.2147
  333MPD2    C2 4996   0.367   2.239  11.684  0.1695  0.2375 -0.2342
  333MPD2    C3 4997   0.322   2.152  11.775  0.3932  0.4219 -0.3669
  333MPD2    C4 4998   0.389   2.144  11.896 -0.3985 -0.5159  0.1871
  333MPD2    C5 4999   0.510   2.204  11.903 -0.5794  0.0833 -0.1349
  333MPD2     H 5000   0.296   2.266  11.606 -0.1663  0.7423  0.2446
  333MPD2    H1 5001   0.351   2.094  11.984 -0.1019 -0.3045  0.4344
  333MPD2    H2 5002   0.661   2.310  11.822  0.0203 -0.5793  0.3896
  333MPD2    H3 5003   0.557   2.186  11.999  1.3970  1.5505 -0.8235
  333MPD2     N 5004   0.206   2.081  11.741 -0.1512  0.2360 -0.0676
  333MPD2    H5 5005   0.160   2.099  11.652  0.2897  0.7079 -0.1997
  333MPD2    N1 5006   0.536   2.381  11.581 -0.2340  0.9340  0.0258
  333MPD2    H7 5007   0.630   2.418  11.587 -1.0082  3.1738 -1.7094
  334TMC3    C1 5008   0.554   2.481  11.368 -0.1896  0.0669 -0.8170
  334TMC3    C2 5009   0.680   2.436  11.362  0.7467 -0.2819  0.2129
  334TMC3    C3 5010   0.765   2.480  11.259  0.5554  0.2707  0.2521
  334TMC3    C4 5011   0.511   2.579  11.287 -0.1147  0.2992  0.3389
  334TMC3    C5 5012   0.598   2.632  11.196 -0.2950 -0.6617  0.1669
  334TMC3    C6 5013   0.731   2.590  11.182  0.1254 -0.0766  0.6771
  334TMC3     C 5014   0.467   2.419  11.463  0.3236  0.0702 -0.5751
  334TMC3     O 5015   0.346   2.419  11.441 -0.2525 -0.3589  0.4527
  334TMC3     H 5016   0.725   2.354  11.417 -1.3186 -0.9122  0.9606
  334TMC3    H1 5017   0.411   2.617  11.302 -0.0335  0.2880  0.9421
  334TMC3    H2 5018   0.796   2.647  11.115  1.2279 -2.2288 -0.0837
  334TMC3    C7 5019   0.548   2.734  11.104  0.6774  0.3539 -0.2196
  334TMC3    C8 5020   0.898   2.422  11.259 -0.8686 -0.0113  0.0338
  334TMC3    O1 5021   0.440   2.783  11.143 -0.7479 -0.3648 -0.1968
  334TMC3    O2 5022   0.939   2.388  11.367 -0.7901  0.1273 -0.1654
  335TMC3    C1 5023   4.261   4.713  16.701  0.7975 -0.0594  0.8298
  335TMC3    C2 5024   4.195   4.595  16.665  0.1818 -0.3769 -0.0319
  335TMC3    C3 5025   4.257   4.514  16.574 -0.1272 -0.8811  0.1202
  335TMC3    C4 5026   4.378   0.033  16.642 -0.0122 -0.0281 -0.1254
  335TMC3    C5 5027   4.430   4.673  16.544  0.5292  0.1997 -0.2815
  335TMC3    C6 5028   4.370   4.551  16.518  0.5934 -0.0284  0.2592
  335TMC3     C 5029   4.180   0.092  16.766  0.1673 -0.1423 -0.4676
  335TMC3     O 5030   4.060   0.071  16.775  0.4122 -0.0300  0.3722
  335TMC3     H 5031   4.102   4.549  16.698  0.0250 -1.4636 -1.9550
  335TMC3    H1 5032   4.428   0.129  16.654  0.1940  0.2339 -3.1205
  335TMC3    H2 5033   4.412   4.481  16.446  2.1701 -0.1459  1.2894
  335TMC3    C7 5034   4.572   4.662  16.560  0.3472 -0.1337 -0.3294
  335TMC3    C8 5035   4.210   4.384  16.527 -0.2521 -0.2186  0.0070
  335TMC3    O1 5036   4.628   0.006  16.649 -0.0332  0.6846 -0.3904
  335TMC3    O2 5037   4.211   4.363  16.408 -0.2699 -0.0825 -0.2595
  336MPD2     C 5038   4.450   2.531  16.466 -0.1916  0.1982  0.1279
  336MPD2    C1 5039   4.494   2.451  16.362  0.2934  0.1155  0.2003
  336MPD2    C2 5040   4.523   2.322  16.389 -0.0519 -0.6390 -0.7593
  336MPD2    C3 5041   4.513   2.263  16.515 -0.2277 -0.0904 -0.2404
  336MPD2    C4 5042   4.475   2.346  16.620 -0.1070 -0.2732 -0.7026
  336MPD2    C5 5043   4.449   2.482  16.595 -0.4135  0.1589  0.6568
  336MPD2     H 5044   4.552   2.269  16.299  0.0048 -2.7116  0.4759
  336MPD2    H1 5045   4.459   2.311  16.721 -3.0470  0.7671 -0.8143
  336MPD2    H2 5046   4.422   2.635  16.454  2.3141  0.7449 -1.0742
  336MPD2    H3 5047   4.407   2.538  16.678  1.4002  1.3505  0.7611
  336MPD2     N 5048   4.521   2.128  16.543 -0.0629 -0.0813 -0.1388
  336MPD2    H5 5049   4.514   2.096  16.640 -0.4947 -0.7835 -0.4005
  336MPD2    N1 5050   4.492   2.488  16.223 -0.5412 -0.0314  0.3838
  336MPD2    H7 5051   4.514   2.416  16.155 -1.1352  0.0436  0.1134
  337TMC3    C1 5052   4.421   2.604  16.041 -0.2751  0.2924  0.7339
  337TMC3    C2 5053   4.303   2.666  16.006 -0.1004 -0.6149  0.4884
  337TMC3    C3 5054   4.265   2.636  15.875  0.0607  0.0784 -0.5132
  337TMC3    C4 5055   4.498   2.520  15.962  0.3787  0.8730  0.9184
  337TMC3    C5 5056   4.460   2.518  15.834  0.2822 -0.4143 -0.0421
  337TMC3    C6 5057   4.339   2.561  15.790 -0.9606 -0.1631 -0.3635
  337TMC3     C 5058   4.450   2.610  16.183 -0.1023  0.3018  0.1666
  337TMC3     O 5059   4.431   2.718  16.243 -0.7976 -0.3960 -0.2085
  337TMC3     H 5060   4.240   2.732  16.064  0.2660  0.0641  0.1106
  337TMC3    H1 5061   4.597   2.488  15.993 -0.1371 -1.5006  0.0594
  337TMC3    H2 5062   4.302   2.548  15.688  0.5233 -0.1721 -0.8957
  337TMC3    C7 5063   4.546   2.441  15.739  0.1178 -0.4837 -0.3202
  337TMC3    C8 5064   4.156   2.707  15.831 -0.4837 -0.2162  0.4758
  337TMC3    O1 5065   4.535   2.453  15.617 -0.1744  0.1764 -0.1015
  337TMC3    O2 5066   4.125   2.809  15.895  0.3903 -0.1575 -0.5436
  338MPD2     C 5067   0.741   1.401   0.822 -0.5397 -0.1121  0.0031
  338MPD2    C1 5068   0.635   1.467   0.893 -0.0577 -0.0820  0.0435
  338MPD2    C2 5069   0.676   1.547   0.995  0.4463 -0.1493  0.2519
  338MPD2    C3 5070   0.804   1.544   1.047  0.0946  0.1048 -0.1591
  338MPD2    C4 5071   0.901   1.481   0.980 -0.1431 -0.0847  0.9324
  338MPD2    C5 5072   0.869   1.407   0.868 -0.6880 -0.4258 -0.7958
  338MPD2     H 5073   0.608   1.593   1.066 -0.1857  2.1634 -1.8685
  338MPD2    H1 5074   1.005   1.502   1.002 -0.3039  2.9460 -1.1528
  338MPD2    H2 5075   0.708   1.361   0.726 -0.1553  2.5867 -1.2391
  338MPD2    H3 5076   0.950   1.358   0.814 -0.0629  1.2391 -1.3937
  338MPD2     N 5077   0.832   1.637   1.149  0.3677 -0.2755 -0.1210
  338MPD2    H5 5078   0.749   1.673   1.196  0.5441  1.3984 -1.1018
  338MPD2    N1 5079   0.502   1.444   0.864 -0.2991  0.8597 -0.4690
  338MPD2    H7 5080   0.494   1.406   0.771  0.4625 -0.4268 -0.0061
  339TMC3    C1 5081   0.907   1.717   1.341 -0.2780 -0.3115  0.3032
  339TMC3    C2 5082   0.896   1.637   1.448  0.1815  0.0718 -0.0754
  339TMC3    C3 5083   0.790   1.663   1.534 -0.1791 -0.6065 -0.5577
  339TMC3    C4 5084   0.816   1.821   1.321  0.1528  1.1559 -0.4866
  339TMC3    C5 5085   0.711   1.831   1.402 -0.2570 -0.2793 -0.4525
  339TMC3    C6 5086   0.683   1.754   1.512  0.0555 -0.0301  0.0475
  339TMC3     C 5087   0.950   1.645   1.226  0.3937 -0.5093  1.0365
  339TMC3     O 5088   1.044   1.564   1.220  0.1314 -0.0138  0.2345
  339TMC3     H 5089   0.955   1.547   1.466  0.6226  0.9748  3.0230
  339TMC3    H1 5090   0.830   1.888   1.237  2.0980  0.0778 -1.0347
  339TMC3    H2 5091   0.607   1.776   1.586 -0.9319 -0.9282 -0.7096
  339TMC3    C7 5092   0.607   1.925   1.361  0.1765 -0.0202 -0.5059
  339TMC3    C8 5093   0.774   1.570   1.642  0.0890  0.3294 -0.1314
  339TMC3    O1 5094   0.632   1.986   1.256  0.5367 -0.0083  0.5394
  339TMC3    O2 5095   0.880   1.523   1.682 -0.1790  0.1080 -0.3275
  340MPD2     C 5096   1.125   3.194  10.304  0.3281  0.8512 -0.2512
  340MPD2    C1 5097   1.083   3.329  10.292  0.1939  0.5371  0.2092
  340MPD2    C2 5098   1.156   3.430  10.358 -0.0700 -0.0200  0.0711
  340MPD2    C3 5099   1.271   3.399  10.428 -0.3755  0.1900 -0.1128
  340MPD2    C4 5100   1.305   3.268  10.436  0.1498  0.2245  0.5118
  340MPD2    C5 5101   1.235   3.164  10.379  0.3438  0.0440  0.4512
  340MPD2     H 5102   1.126   3.534  10.349 -1.2321 -0.4503 -1.1746
  340MPD2    H1 5103   1.395   3.243  10.491 -0.1104  1.0811  1.3260
  340MPD2    H2 5104   1.060   3.112  10.276  0.2463  0.0919  2.1362
  340MPD2    H3 5105   1.254   3.059  10.398 -0.5321  0.0393  1.2702
  340MPD2     N 5106   1.358   3.493  10.492  0.7432 -0.1560 -0.1799
  340MPD2    H5 5107   1.448   3.466  10.530 -1.3768 -2.5964  3.0575
  340MPD2    N1 5108   0.964   3.352  10.212 -0.3004  0.6554  0.2163
  340MPD2    H7 5109   0.917   3.270  10.176  0.0804 -0.6309  2.6019
  341TMC3    C1 5110   0.766   3.463  10.142 -0.2292  0.6689  0.6041
  341TMC3    C2 5111   0.684   3.357  10.189  0.2630 -0.0228 -0.1026
  341TMC3    C3 5112   0.551   3.372  10.161 -0.1348  0.3313  0.4082
  341TMC3    C4 5113   0.720   3.577  10.077 -0.4031 -0.0571 -0.0546
  341TMC3    C5 5114   0.582   3.590  10.063  0.0332 -0.4159 -0.0803
  341TMC3    C6 5115   0.496   3.485  10.098  0.1908  0.0046 -0.3165
  341TMC3     C 5116   0.904   3.476  10.195  0.5559 -0.7601  0.0286
  341TMC3     O 5117   0.948   3.590  10.205 -0.0474  0.3525  0.0358
  341TMC3     H 5118   0.730   3.267  10.228  0.2453 -0.6435 -1.5008
  341TMC3    H1 5119   0.793   3.652  10.049  0.5981 -1.8279 -2.1451
  341TMC3    H2 5120   0.395   3.490  10.060 -0.1749  1.8774  0.9156
  341TMC3    C7 5121   0.539   3.694   9.978  0.0146  0.7538  0.6316
  341TMC3    C8 5122   0.467   3.250  10.166  0.3769  0.1989  0.5870
  341TMC3    O1 5123   0.426   3.727  10.011  0.6803 -0.0367 -0.5639
  341TMC3    O2 5124   0.352   3.266  10.123 -0.3488  0.0495 -0.5545
  342MPD2     C 5125   2.179   2.287  17.520  0.2021 -0.1966 -0.7049
  342MPD2    C1 5126   2.311   2.304  17.540 -0.2733 -0.6460  0.2037
  342MPD2    C2 5127   2.357   2.402  17.624  0.1719 -1.5971  0.0407
  342MPD2    C3 5128   2.270   2.486   0.006 -0.6609  0.3139  0.4652
  342MPD2    C4 5129   2.135   2.476  17.661  0.8574 -0.7984  0.3525
  342MPD2    C5 5130   2.094   2.372  17.582 -0.2910  0.1363 -0.6811
  342MPD2     H 5131   2.464   2.397  17.643  0.1119  2.9892  1.4567
  342MPD2    H1 5132   2.062   2.535   0.028  0.3838  0.4594 -1.6913
  342MPD2    H2 5133   2.144   2.208  17.454 -0.6741 -1.8388  1.7366
  342MPD2    H3 5134   1.987   2.368  17.568 -0.3933  1.4700 -0.2608
  342MPD2     N 5135   2.312   2.575   0.106  0.3481  0.1594 -0.5666
  342MPD2    H5 5136   2.237   2.632   0.145 -0.6926 -2.0123  0.6190
  342MPD2    N1 5137   2.402   2.211  17.483  0.0282 -0.1665 -0.4567
  342MPD2    H7 5138   2.499   2.236  17.498  0.1852 -0.0514 -1.6598
  343TMC3    C1 5139   2.497   2.029  17.365  1.2861 -0.3168  0.5967
  343TMC3    C2 5140   2.601   2.031  17.454 -0.2756 -0.3312  0.0234
  343TMC3    C3 5141   2.708   1.954  17.425  0.1561 -0.5060 -0.6392
  343TMC3    C4 5142   2.501   1.949  17.249  0.2009 -0.0288  0.0485
  343TMC3    C5 5143   2.608   1.870  17.219  0.2153 -0.5726  0.0805
  343TMC3    C6 5144   2.711   1.868  17.313  0.2231  0.3509 -0.4169
  343TMC3     C 5145   2.378   2.096  17.400 -0.0592  0.4286 -0.6248
  343TMC3     O 5146   2.274   2.060  17.347 -0.0841 -0.0742 -0.3218
  343TMC3     H 5147   2.599   2.082  17.549 -2.6318  0.7034 -0.5914
  343TMC3    H1 5148   2.413   1.948  17.185  0.1418 -0.0949  0.1307
  343TMC3    H2 5149   2.792   1.798  17.300 -1.4450 -1.4370 -1.1626
  343TMC3    C7 5150   2.573   1.737  17.175 -0.2856  0.3652 -0.5782
  343TMC3    C8 5151   2.830   1.968  17.495  0.6520 -0.6201  0.4776
  343TMC3    O1 5152   2.579   1.642  17.253  0.2220 -0.9126 -0.0960
  343TMC3    O2 5153   2.834   2.024  17.603  0.2961 -0.2829  0.0167
  344MPD2     C 5154   3.814   1.812  10.455  0.3487  0.5691  0.2275
  344MPD2    C1 5155   3.700   1.882  10.431  0.2409 -0.4727  1.1025
  344MPD2    C2 5156   3.717   2.004  10.366 -0.3272 -0.4099 -0.2803
  344MPD2    C3 5157   3.843   2.048  10.326 -0.1526 -0.7858  0.2796
  344MPD2    C4 5158   3.953   1.966  10.347  0.0285  0.3444 -0.1095
  344MPD2    C5 5159   3.938   1.847  10.415  0.2411 -0.4696  0.0707
  344MPD2     H 5160   3.633   2.067  10.340 -0.4059 -0.6294 -0.5524
  344MPD2    H1 5161   4.048   1.999  10.306 -0.7023  0.8728 -1.3634
  344MPD2    H2 5162   3.819   1.717  10.507  1.6772 -0.0746 -1.0672
  344MPD2    H3 5163   4.013   1.777  10.450  0.3610  0.0220  0.7984
  344MPD2     N 5164   3.868   2.175  10.275 -0.5740  0.0607  0.6911
  344MPD2    H5 5165   3.965   2.190  10.247 -1.8070  2.9444 -2.0037
  344MPD2    N1 5166   3.580   1.847  10.492 -0.0088  0.1462 -0.1036
  344MPD2    H7 5167   3.500   1.899  10.459  0.9736  1.6050 -0.1928
  345TMC3    C1 5168   3.830   2.402  10.204  0.9028  0.2784 -0.0496
  345TMC3    C2 5169   3.955   2.437  10.249  0.3240  0.5395  0.1496
  345TMC3    C3 5170   4.000   2.555  10.199 -0.5209  0.1050 -0.2099
  345TMC3    C4 5171   3.754   2.479  10.120  0.1865  0.1930 -0.4923
  345TMC3    C5 5172   3.815   2.586  10.069 -0.2767  0.5990 -0.4503
  345TMC3    C6 5173   3.936   2.634  10.113  0.1141 -0.5197 -0.6574
  345TMC3     C 5174   3.775   2.274  10.239 -0.8125  0.2860  0.1912
  345TMC3     O 5175   3.652   2.268  10.230  0.2711  0.0967 -0.5711
  345TMC3     H 5176   4.011   2.372  10.316  0.3841  0.1645 -0.2609
  345TMC3    H1 5177   3.655   2.451  10.085 -0.2747 -0.5906  1.4516
  345TMC3    H2 5178   3.971   2.725  10.065 -1.8212  0.8288  0.4874
  345TMC3    C7 5179   3.720   2.685  10.017  0.0984  0.2634  0.0320
  345TMC3    C8 5180   4.134   2.598  10.227 -0.2259  0.5294  0.0698
  345TMC3    O1 5181   3.745   2.803  10.031 -0.8041 -0.3957  0.7555
  345TMC3    O2 5182   4.167   2.714  10.194  0.6390  0.1288 -0.2101
  346MPD2     C 5183   3.673   3.643  14.202  0.5604  0.0243 -0.5920
  346MPD2    C1 5184   3.632   3.750  14.134  0.8082 -0.5956 -0.1007
  346MPD2    C2 5185   3.686   3.872  14.165 -0.7118  0.6826  0.0776
  346MPD2    C3 5186   3.769   3.887  14.273  0.0376  0.4348  0.1679
  346MPD2    C4 5187   3.805   3.776  14.344 -0.0633 -0.1469 -0.2518
  346MPD2    C5 5188   3.762   3.655  14.307 -0.0945  0.1137 -0.0336
  346MPD2     H 5189   3.663   3.962  14.109 -0.1037  0.3491 -0.7078
  346MPD2    H1 5190   3.867   3.780  14.432 -0.7073 -2.8478  0.3348
  346MPD2    H2 5191   3.651   3.540  14.176  0.6280 -0.9304  3.1895
  346MPD2    H3 5192   3.806   3.569  14.356  1.5579  0.5319 -0.7753
  346MPD2     N 5193   3.818   4.014  14.308  0.2944  0.2989  0.1108
  346MPD2    H5 5194   3.792   4.094  14.250  0.2865 -0.9869 -1.6652
  346MPD2    N1 5195   3.548   3.745  14.025  0.3815 -0.0070 -0.0573
  346MPD2    H7 5196   3.531   3.826  13.967 -0.0031  0.3081  0.4979
  347TMC3    C1 5197   3.934   4.179  14.408 -0.1221 -0.6089  0.3963
  347TMC3    C2 5198   3.965   4.234  14.284  0.5530 -0.3304 -0.5395
  347TMC3    C3 5199   4.056   4.335  14.260 -0.1428 -0.4291 -0.3582
  347TMC3    C4 5200   4.006   4.218  14.518 -0.2167 -0.0288  0.9088
  347TMC3    C5 5201   4.091   4.315  14.500  0.1523 -0.3026 -0.4227
  347TMC3    C6 5202   4.115   4.378  14.378 -0.3552  0.3362 -0.0001
  347TMC3     C 5203   3.889   4.045  14.419 -0.7749  0.1647  0.5675
  347TMC3     O 5204   3.927   3.977  14.514 -0.5160  0.9933  0.2529
  347TMC3     H 5205   3.922   4.194  14.193 -2.2624 -3.0044  1.9425
  347TMC3    H1 5206   3.982   4.176  14.615 -0.4529 -0.1608  0.7934
  347TMC3    H2 5207   4.180   4.465  14.377 -0.5604  0.4335 -2.7804
  347TMC3    C7 5208   4.169   4.358  14.613 -0.0852  0.7664  0.1623
  347TMC3    C8 5209   4.120   4.339  14.132 -0.1551 -0.8237  0.2330
  347TMC3    O1 5210   4.117   4.321  14.714  0.0658  0.0866  0.1798
  347TMC3    O2 5211   4.075   4.265  14.049 -0.0415 -0.0605 -0.5696
  348MPD2     C 5212   2.661   3.245  12.463 -0.1566 -0.2889  0.4874
  348MPD2    C1 5213   2.600   3.198  12.346 -0.1279 -0.1711 -0.2824
  348MPD2    C2 5214   2.579   3.282  12.244  0.1374 -0.2532 -0.8589
  348MPD2    C3 5215   2.607   3.416  12.258  0.5082  0.2469  0.8030
  348MPD2    C4 5216   2.671   3.462  12.368 -0.0697 -0.4924 -0.3098
  348MPD2    C5 5217   2.698   3.376  12.464  0.0369 -0.4974 -0.3203
  348MPD2     H 5218   2.546   3.237  12.152  0.0567  0.0975 -0.9999
  348MPD2    H1 5219   2.697   3.566  12.383 -0.5070 -0.5159  0.6030
  348MPD2    H2 5220   2.683   3.190  12.554  2.6340  1.5374  0.9211
  348MPD2    H3 5221   2.750   3.413  12.551 -2.1685 -1.5911  1.4644
  348MPD2     N 5222   2.578   3.498  12.148 -0.2289 -0.2953 -0.5174
  348MPD2    H5 5223   2.553   3.437  12.071 -3.1077  0.6356 -0.3357
  348MPD2    N1 5224   2.571   3.062  12.327  0.1324 -0.1934  0.1932
  348MPD2    H7 5225   2.540   3.036  12.234  0.9303 -2.7798  0.6358
  349TMC3    C1 5226   2.568   2.828  12.386 -0.0074  0.3897 -0.3523
  349TMC3    C2 5227   2.524   2.732  12.471 -0.1133 -0.2831  1.0218
  349TMC3    C3 5228   2.501   2.606  12.427 -0.4055 -0.8744  0.3218
  349TMC3    C4 5229   2.583   2.795  12.251  0.8665  0.2519 -0.5383
  349TMC3    C5 5230   2.559   2.670  12.207 -0.1485  0.5746  0.0731
  349TMC3    C6 5231   2.529   2.573  12.295  0.3149 -0.6290  0.2532
  349TMC3     C 5232   2.585   2.971  12.434  0.6902 -0.2523 -0.2519
  349TMC3     O 5233   2.617   2.981  12.552 -0.3892 -0.0456  0.3443
  349TMC3     H 5234   2.501   2.763  12.572 -2.8557  2.4004 -0.4073
  349TMC3    H1 5235   2.609   2.874  12.182  2.4605  0.0490 -0.1570
  349TMC3    H2 5236   2.527   2.469  12.264  0.5628 -1.0317  1.6066
  349TMC3    C7 5237   2.491   2.678  12.077 -0.3845 -1.0127 -0.0113
  349TMC3    C8 5238   2.529   2.497  12.524  0.0303 -0.2267  0.6580
  349TMC3    O1 5239   2.474   2.787  12.023 -0.6342 -0.2053  0.3868
  349TMC3    O2 5240   2.474   2.495  12.635  0.5562 -0.0101  0.5633
  350MPD2     C 5241   0.803   1.343  10.262 -1.1747 -0.6344  0.7303
  350MPD2    C1 5242   0.882   1.232  10.264 -0.2137  0.4302  0.0547
  350MPD2    C2 5243   1.020   1.248  10.267 -0.0006 -0.2492 -1.0015
  350MPD2    C3 5244   1.084   1.373  10.272 -0.1639  0.2240 -0.2491
  350MPD2    C4 5245   0.997   1.483  10.272 -0.6905 -0.7727  0.5101
  350MPD2    C5 5246   0.862   1.468  10.263 -0.4444  0.2331  0.2734
  350MPD2     H 5247   1.071   1.155  10.289  0.9376  0.6462  0.6770
  350MPD2    H1 5248   1.037   1.582  10.286 -0.0965 -0.8936 -0.3582
  350MPD2    H2 5249   0.696   1.331  10.255 -1.2436  1.4805 -1.5217
  350MPD2    H3 5250   0.808   1.562  10.262  1.4568  1.3297  0.3027
  350MPD2     N 5251   1.224   1.385  10.282 -0.4688 -0.2018 -0.3974
  350MPD2    H5 5252   1.269   1.473  10.304 -2.2624  0.2698  1.4004
  350MPD2    N1 5253   0.831   1.103  10.254 -0.0999 -0.9906  0.0761
  350MPD2    H7 5254   0.906   1.036  10.249  0.1144 -0.6774 -1.0402
  351TMC3    C1 5255   0.698   0.910  10.254 -0.1663 -0.1958  0.2391
  351TMC3    C2 5256   0.802   0.841  10.313  0.5972  0.3118  0.4619
  351TMC3    C3 5257   0.775   0.719  10.367 -0.0240 -0.4406  0.0806
  351TMC3    C4 5258   0.581   0.841  10.238  0.4665 -1.4354 -0.7823
  351TMC3    C5 5259   0.555   0.720  10.291  0.2821  0.1935  0.1320
  351TMC3    C6 5260   0.658   0.653  10.360 -0.8879 -0.3995 -0.1471
  351TMC3     C 5261   0.702   1.054  10.238  0.8230  0.0012  0.0870
  351TMC3     O 5262   0.593   1.110  10.239 -0.3015  0.8240  0.3542
  351TMC3     H 5263   0.901   0.880  10.333 -0.2444  1.0821  3.1388
  351TMC3    H1 5264   0.510   0.891  10.174 -0.2497 -0.4508  0.7799
  351TMC3    H2 5265   0.656   0.551  10.397 -1.1424 -0.2577  0.2286
  351TMC3    C7 5266   0.465   0.641  10.202  0.4499 -0.0875 -0.2441
  351TMC3    C8 5267   0.889   0.639  10.401 -0.5147 -0.3682  0.3114
  351TMC3    O1 5268   0.432   0.686  10.092  0.0013  0.0688  0.3125
  351TMC3    O2 5269   0.993   0.671  10.343 -0.7149 -0.2556 -0.2928
  352MPD2     C 5270   4.357   3.673   1.526 -0.4976  0.2674  0.6367
  352MPD2    C1 5271   4.273   3.603   1.456  0.2510  0.0013 -0.5152
  352MPD2    C2 5272   4.226   3.481   1.500  0.0997  0.2650  1.1120
  352MPD2    C3 5273   4.288   3.423   1.616  0.5254 -0.1633  0.4424
  352MPD2    C4 5274   4.382   3.499   1.680  0.4562 -0.1636  0.3349
  352MPD2    C5 5275   4.423   3.620   1.632  0.4604 -0.2401  0.3964
  352MPD2     H 5276   4.162   3.423   1.434  0.5790 -0.3143  1.1559
  352MPD2    H1 5277   4.451   3.454   1.751  0.0971  1.0478  1.4470
  352MPD2    H2 5278   4.375   3.776   1.497  2.9137 -0.2863  0.7996
  352MPD2    H3 5279   4.505   3.674   1.677  1.2166 -1.6912  0.7501
  352MPD2     N 5280   4.266   3.289   1.657  0.0085  0.3634  0.9939
  352MPD2    H5 5281   4.331   3.250   1.725  2.9621  1.2266 -1.3210
  352MPD2    N1 5282   4.204   3.652   1.340 -0.5629 -1.1063  0.0051
  352MPD2    H7 5283   4.124   3.600   1.306 -1.8365 -1.0856  3.0266
  353TMC3    C1 5284   4.165   3.079   1.671  0.5914 -0.0184 -0.8600
  353TMC3    C2 5285   4.253   3.045   1.774  0.2628  0.6633 -0.2128
  353TMC3    C3 5286   4.252   2.914   1.814 -0.1756  0.0034  0.3476
  353TMC3    C4 5287   4.075   2.982   1.624  0.9136 -0.4800 -0.1647
  353TMC3    C5 5288   4.083   2.849   1.668  0.0427  0.0864 -0.1360
  353TMC3    C6 5289   4.170   2.814   1.760 -0.8467  0.2348  0.5174
  353TMC3     C 5290   4.171   3.205   1.599  0.1482  0.3756 -0.2064
  353TMC3     O 5291   4.078   3.230   1.524  0.1305  0.7273 -0.5481
  353TMC3     H 5292   4.327   3.113   1.815  0.0088  0.2959  0.8710
  353TMC3    H1 5293   4.013   3.002   1.537 -1.2667 -0.5136  1.3969
  353TMC3    H2 5294   4.177   2.709   1.787  0.5774  0.1035 -0.3538
  353TMC3    C7 5295   4.023   2.745   1.597 -0.7382 -1.6585  0.2124
  353TMC3    C8 5296   4.362   2.870   1.898 -0.0143  0.6446 -0.2029
  353TMC3    O1 5297   3.981   2.661   1.670  0.5968 -0.3992  0.3581
  353TMC3    O2 5298   4.387   2.946   1.989 -0.2390 -0.0947 -0.1607
  354TMC3    C1 5299   1.386   4.629  13.603 -0.2096  0.8118  0.2952
  354TMC3    C2 5300   1.449   0.028  13.620 -0.1155  0.1827 -0.0141
  354TMC3    C3 5301   1.507   0.090  13.515 -0.8499 -0.2327  0.1005
  354TMC3    C4 5302   1.387   4.567  13.480  0.9711 -0.4623  0.3356
  354TMC3    C5 5303   1.450   4.630  13.377 -0.0806 -0.5105  0.2331
  354TMC3    C6 5304   1.509   0.032  13.391  0.1535 -0.2916  0.0470
  354TMC3     C 5305   1.343   4.554  13.722 -0.0196 -0.2007  0.3185
  354TMC3     O 5306   1.230   4.504  13.729  0.2796 -0.1749 -0.2724
  354TMC3     H 5307   1.452   0.072  13.719  0.7770  1.5734 -0.6599
  354TMC3    H1 5308   1.351   4.465  13.473  2.1113 -0.6781 -2.7181
  354TMC3    H2 5309   1.545   0.080  13.301 -0.8016 -3.3972 -2.0220
  354TMC3    C7 5310   1.490   4.544  13.265 -0.5269  0.3928 -0.4944
  354TMC3    C8 5311   1.555   0.223  13.528  0.2006  0.3499  0.5059
  354TMC3    O1 5312   1.415   4.452  13.228  0.9501  0.2312  0.0691
  354TMC3    O2 5313   1.614   0.250  13.631 -0.2460  0.3531 -0.0462
  355MPD2     C 5314   1.444   0.762  11.901  0.1524 -0.5162 -0.2059
  355MPD2    C1 5315   1.470   0.873  11.821 -0.1959 -0.6133 -0.7768
  355MPD2    C2 5316   1.597   0.885  11.766  0.0669  0.0305  0.4705
  355MPD2    C3 5317   1.700   0.801  11.813 -0.1317  0.1724 -0.4278
  355MPD2    C4 5318   1.674   0.697  11.902 -0.5743 -0.1988 -0.1088
  355MPD2    C5 5319   1.542   0.679  11.940 -0.7282 -0.1350 -0.2023
  355MPD2     H 5320   1.625   0.959  11.692  3.4099 -2.4348 -0.7390
  355MPD2    H1 5321   1.751   0.636  11.948  0.3177  1.5008  0.6913
  355MPD2    H2 5322   1.346   0.742  11.944  0.3638  1.1305  1.0397
  355MPD2    H3 5323   1.517   0.604  12.014  1.3793 -0.3169  0.3245
  355MPD2     N 5324   1.838   0.820  11.768  0.4897  0.0176 -0.2373
  355MPD2    H5 5325   1.907   0.762  11.814 -0.8675 -1.2231  0.2547
  355MPD2    N1 5326   1.362   0.954  11.787  0.6348 -0.3809  1.0817
  355MPD2    H7 5327   1.268   0.921  11.809 -0.8622  1.3013 -2.7315
  356TMC3    C1 5328   2.025   0.948  11.712  0.0078  0.0173 -0.7374
  356TMC3    C2 5329   2.068   1.057  11.643 -0.2618  0.2113 -0.1669
  356TMC3    C3 5330   2.182   1.110  11.692  0.1679  0.4647  0.5102
  356TMC3    C4 5331   2.099   0.882  11.798  0.2829  0.2560 -0.1284
  356TMC3    C5 5332   2.221   0.928  11.826  0.4987  0.6271  0.5336
  356TMC3    C6 5333   2.267   1.044  11.776 -0.0321  0.1201  0.1244
  356TMC3     C 5334   1.883   0.933  11.701  0.2741  0.4555  0.2584
  356TMC3     O 5335   1.828   1.020  11.637  0.2350 -0.2993 -0.3428
  356TMC3     H 5336   2.017   1.118  11.569  1.0424  0.8012 -0.5754
  356TMC3    H1 5337   2.064   0.791  11.846 -3.6838  1.4831 -0.6715
  356TMC3    H2 5338   2.372   1.068  11.784 -0.1146  0.2966  0.6555
  356TMC3    C7 5339   2.278   0.874  11.953 -0.2484 -0.0606  0.3585
  356TMC3    C8 5340   2.245   1.221  11.608 -0.4892 -0.6668  0.3146
  356TMC3    O1 5341   2.257   0.760  11.986 -0.3621  0.4194  0.0356
  356TMC3    O2 5342   2.200   1.225  11.495  0.0864 -0.2147 -0.2318
  357MPD2     C 5343   1.784   0.793   1.289  0.0027 -0.6381 -0.2742
  357MPD2    C1 5344   1.803   0.665   1.350 -0.3437  0.2522 -0.1216
  357MPD2    C2 5345   1.713   0.617   1.443  0.3229 -0.9001 -0.3663
  357MPD2    C3 5346   1.610   0.694   1.491  0.0500 -0.5790 -0.2438
  357MPD2    C4 5347   1.596   0.819   1.436  0.2330 -0.3394 -0.3604
  357MPD2    C5 5348   1.679   0.867   1.335 -1.1627  0.1682 -0.1128
  357MPD2     H 5349   1.716   0.514   1.475 -3.6667 -1.2531 -1.0587
  357MPD2    H1 5350   1.518   0.890   1.460  2.4547  1.8563  0.4336
  357MPD2    H2 5351   1.848   0.827   1.209  1.2626 -0.8904  0.6270
  357MPD2    H3 5352   1.662   0.964   1.291 -0.7380 -0.6560 -2.0641
  357MPD2     N 5353   1.505   0.644   1.580 -0.5562 -0.3345 -0.3005
  357MPD2    H5 5354   1.421   0.699   1.598  0.1894  0.9643 -0.8162
  357MPD2    N1 5355   1.920   0.596   1.322  0.1000  0.3439 -0.1395
  357MPD2    H7 5356   1.953   0.598   1.226 -2.5305 -2.6713 -1.0935
  358TMC3    C1 5357   2.086   0.419   1.335  0.1649 -0.7369 -0.6980
  358TMC3    C2 5358   2.068   0.376   1.201  0.2095 -0.1162  0.3091
  358TMC3    C3 5359   2.144   0.270   1.156  0.1427  0.1511 -0.0157
  358TMC3    C4 5360   2.165   0.348   1.419  0.1011 -0.3034 -0.1965
  358TMC3    C5 5361   2.232   0.236   1.370  0.4618 -0.2334  0.5180
  358TMC3    C6 5362   2.237   0.203   1.235 -0.0808  0.6177 -0.3871
  358TMC3     C 5363   1.977   0.494   1.396  0.1910 -0.3915 -0.0285
  358TMC3     O 5364   1.946   0.462   1.511 -1.0159  0.2657 -0.2187
  358TMC3     H 5365   1.994   0.423   1.136  1.1709 -0.3351 -0.9295
  358TMC3    H1 5366   2.166   0.371   1.525 -1.8416  0.4797 -0.3417
  358TMC3    H2 5367   2.285   0.114   1.198 -2.0293 -1.3249  1.7945
  358TMC3    C7 5368   2.360   0.206   1.438  0.1383  0.8181 -0.3305
  358TMC3    C8 5369   2.101   0.214   1.028  0.2960  0.1068  0.4047
  358TMC3    O1 5370   2.440   0.159   1.357  0.6718 -0.0984  0.0505
  358TMC3    O2 5371   2.023   0.292   0.967 -0.0507  0.3085 -0.0141
  359MPD2     C 5372   1.782   3.951  12.890 -0.3610 -0.2599  0.6550
  359MPD2    C1 5373   1.780   3.999  12.762  0.6037 -0.0499  0.1866
  359MPD2    C2 5374   1.664   4.001  12.693 -0.6602  0.2894  0.2227
  359MPD2    C3 5375   1.551   3.946  12.746 -0.0873  0.7272  0.5013
  359MPD2    C4 5376   1.557   3.883  12.867  0.2200 -0.2656  0.4290
  359MPD2    C5 5377   1.671   3.894  12.939 -0.0186  0.1618 -0.3336
  359MPD2     H 5378   1.665   4.047  12.595  0.1852 -1.2845 -0.5155
  359MPD2    H1 5379   1.473   3.825  12.905  0.0999 -0.9262 -0.8459
  359MPD2    H2 5380   1.872   3.949  12.950  0.3297  1.5964 -0.3181
  359MPD2    H3 5381   1.668   3.860  13.042 -2.8121 -2.7062 -1.3537
  359MPD2     N 5382   1.433   3.951  12.672 -0.3479  0.6725 -0.4745
  359MPD2    H5 5383   1.362   3.884  12.701  0.3576  0.9152  1.8125
  359MPD2    N1 5384   1.893   4.038  12.689 -0.9109  0.9799  0.3725
  359MPD2    H7 5385   1.872   4.064  12.594  2.4922 -0.9409 -0.9234
  360TMC3    C1 5386   2.119   4.060  12.634 -0.0433  0.2645 -0.5867
  360TMC3    C2 5387   2.246   4.099  12.654  1.3903  0.3699 -0.3256
  360TMC3    C3 5388   2.332   4.085  12.550  0.2061  0.3171  0.2807
  360TMC3    C4 5389   2.078   3.992  12.524  0.4030 -0.6005  0.3061
  360TMC3    C5 5390   2.173   3.970  12.431 -0.0314  0.5141  0.4275
  360TMC3    C6 5391   2.300   4.021  12.440  0.1812 -0.1891 -0.0628
  360TMC3     C 5392   2.022   4.054  12.742  0.3909  0.4131 -0.0116
  360TMC3     O 5393   2.053   4.087  12.855 -0.2949  0.0297 -0.3652
  360TMC3     H 5394   2.253   4.190  12.712 -1.1044 -0.5319  1.4265
  360TMC3    H1 5395   1.973   3.966  12.511  0.1401  0.0848  1.0246
  360TMC3    H2 5396   2.362   4.022  12.351  0.4717  0.4007  0.1447
  360TMC3    C7 5397   2.123   3.935  12.298  0.6548  0.3717  0.4184
  360TMC3    C8 5398   2.413   4.204  12.526 -0.1506 -0.3101 -0.4320
  360TMC3    O1 5399   2.188   3.986  12.209 -0.2662 -0.0099 -0.0184
  360TMC3    O2 5400   2.387   4.311  12.580 -0.0789  0.2758  0.7214
  361MPD2     C 5401   3.276   2.734  17.102 -0.1746 -0.5840 -0.0633
  361MPD2    C1 5402   3.308   2.819  17.212 -0.0529  0.1884  0.0533
  361MPD2    C2 5403   3.441   2.835  17.248 -0.4641  0.7176  0.3913
  361MPD2    C3 5404   3.537   2.783  17.167  0.4299 -0.4420  0.7436
  361MPD2    C4 5405   3.505   2.712  17.049 -0.0460  0.0800 -0.0236
  361MPD2    C5 5406   3.373   2.684  17.021 -1.2737 -0.0056  0.1871
  361MPD2     H 5407   3.460   2.904  17.329  1.2327 -0.2538  0.8077
  361MPD2    H1 5408   3.581   2.654  16.998 -0.1111  0.4362 -0.5252
  361MPD2    H2 5409   3.175   2.703  17.078 -0.7403  1.0770  0.2205
  361MPD2    H3 5410   3.341   2.612  16.946 -1.7183  1.2887 -0.8715
  361MPD2     N 5411   3.671   2.794  17.200  0.0192 -0.1424  0.3067
  361MPD2    H5 5412   3.735   2.783  17.122 -1.0653  1.4786 -0.8186
  361MPD2    N1 5413   3.210   2.879  17.295 -0.0581 -0.3778  0.2862
  361MPD2    H7 5414   3.237   2.938  17.374  0.8096  0.5455 -0.7077
  362TMC3    C1 5415   2.998   2.915  17.403 -0.0179  0.0281  0.1857
  362TMC3    C2 5416   2.891   2.857  17.456 -0.1688  0.0131  0.8773
  362TMC3    C3 5417   2.812   2.933  17.544  0.8229  0.5373  0.3838
  362TMC3    C4 5418   3.038   3.041  17.426 -0.3624 -0.2994  0.1206
  362TMC3    C5 5419   2.961   3.114  17.514 -0.9012  0.0019  0.5739
  362TMC3    C6 5420   2.850   3.060  17.573 -0.4019 -0.4839 -0.3753
  362TMC3     C 5421   3.079   2.840  17.305 -0.4415  0.2531  0.0612
  362TMC3     O 5422   3.025   2.750  17.240  0.0498  0.3129  0.4711
  362TMC3     H 5423   2.869   2.753  17.431  1.0996  0.1216 -0.6586
  362TMC3    H1 5424   3.114   3.086  17.364  1.4519 -1.5862  1.4305
  362TMC3    H2 5425   2.809   3.115  17.657 -0.6049 -1.3977  0.1287
  362TMC3    C7 5426   2.951   3.260  17.493  0.4180  0.2837  0.4100
  362TMC3    C8 5427   2.674   2.885  17.555 -0.2750  0.2209 -0.5587
  362TMC3    O1 5428   2.837   3.308  17.497  0.5011 -0.1779  0.5555
  362TMC3    O2 5429   2.650   2.766  17.525 -0.0101 -0.2483  0.2305
  363TMC3    C1 5430   2.484   0.369   9.294  0.1743 -0.0899  0.1561
  363TMC3    C2 5431   2.564   0.298   9.381  0.0219  0.2927  0.0874
  363TMC3    C3 5432   2.537   0.286   9.516  0.0247  0.0845 -1.0840
  363TMC3    C4 5433   2.374   0.438   9.345 -0.7699  0.7484  0.0515
  363TMC3    C5 5434   2.344   0.415   9.475 -0.7954  0.0079 -0.4034
  363TMC3    C6 5435   2.423   0.349   9.567  0.4825  0.6230 -0.6434
  363TMC3     C 5436   2.529   0.377   9.160  0.0676  0.2200 -0.3756
  363TMC3     O 5437   2.644   0.340   9.126 -0.2714  0.2188 -0.5973
  363TMC3     H 5438   2.650   0.241   9.347 -0.5948 -0.0572 -0.8812
  363TMC3    H1 5439   2.308   0.491   9.277 -1.3199 -1.1394 -0.8910
  363TMC3    H2 5440   2.403   0.353   9.674 -1.9341 -0.5686 -1.0494
  363TMC3    C7 5441   2.229   0.485   9.515 -1.0408 -0.4723  0.3657
  363TMC3    C8 5442   2.623   0.208   9.604 -0.1980 -0.0346  0.0901
  363TMC3    O1 5443   2.208   0.592   9.460  0.2875 -0.0523  0.0408
  363TMC3    O2 5444   2.691   0.121   9.544  0.3026 -0.2591 -0.0888
  364MPD2     C 5445   0.910   4.258  10.327  0.7376  0.4481 -0.4709
  364MPD2    C1 5446   0.903   4.375  10.405 -0.1146 -0.9726  0.2894
  364MPD2    C2 5447   0.970   4.369  10.526 -0.0116 -0.2075  0.3854
  364MPD2    C3 5448   1.021   4.250  10.579  0.3337  0.4121  0.2596
  364MPD2    C4 5449   1.036   4.139  10.503  0.0403 -0.2597  0.2749
  364MPD2    C5 5450   0.985   4.151  10.374  0.1780  0.3950  0.7290
  364MPD2     H 5451   0.975   4.456  10.592 -0.8233  0.3579 -0.3025
  364MPD2    H1 5452   1.079   4.046  10.541  1.3201  0.5134  0.7249
  364MPD2    H2 5453   0.866   4.258  10.228  1.0233 -0.8285 -0.5920
  364MPD2    H3 5454   0.986   4.068  10.305  2.7412  0.2838  0.9026
  364MPD2     N 5455   1.057   4.238  10.715  0.3569  0.5003 -0.6560
  364MPD2    H5 5456   1.110   4.153  10.735 -1.1020 -0.1106  0.6514
  364MPD2    N1 5457   0.840   4.492  10.366  0.8445 -0.2364  0.0905
  364MPD2    H7 5458   0.799   4.500  10.273 -0.2262  1.7815  0.7354
  365TMC3    C1 5459   0.747   4.708  10.410 -0.2296  0.7060  0.6657
  365TMC3    C2 5460   0.840   0.045  10.332 -0.1608  0.0253  0.9238
  365TMC3    C3 5461   0.832   0.178  10.307 -0.9384 -0.2736 -0.4519
  365TMC3    C4 5462   0.654   0.055  10.478 -1.0107 -0.0569 -0.5866
  365TMC3    C5 5463   0.651   0.188  10.455 -0.1505 -0.5214  0.0253
  365TMC3    C6 5464   0.731   0.252  10.364 -0.4295 -0.5095 -0.2383
  365TMC3     C 5465   0.794   4.578  10.467 -0.2005  0.0378  0.2753
  365TMC3     O 5466   0.760   4.552  10.581  0.5055  0.0424 -0.7442
  365TMC3     H 5467   0.911   4.704  10.278 -0.5007  2.2614 -2.0894
  365TMC3    H1 5468   0.584   4.720  10.539 -0.6396  0.1998  0.0787
  365TMC3    H2 5469   0.713   0.354  10.334  1.2971  0.0244  0.5413
  365TMC3    C7 5470   0.598   0.280  10.560  0.1176  0.3876  0.0824
  365TMC3    C8 5471   0.924   0.240  10.220  0.1022 -0.2776 -0.4741
  365TMC3    O1 5472   0.580   0.399  10.537  0.5262  0.4907  0.5742
  365TMC3    O2 5473   0.894   0.340  10.161 -0.5308 -0.2319 -0.8352
  366MPD2     C 5474   4.092   1.112  15.277 -0.4868 -0.3178  0.5431
  366MPD2    C1 5475   4.156   1.198  15.371 -0.2630  1.3092 -0.1839
  366MPD2    C2 5476   4.292   1.175  15.394 -0.1015 -0.6718  0.1577
  366MPD2    C3 5477   4.371   1.077  15.340 -0.7083  1.2434  0.5293
  366MPD2    C4 5478   4.308   0.993  15.257  0.0443 -0.0726  0.2800
  366MPD2    C5 5479   4.176   1.017  15.223  0.2634  0.2964 -0.0230
  366MPD2     H 5480   4.334   1.222  15.482 -1.8293 -0.3088  0.7837
  366MPD2    H1 5481   4.359   0.915  15.201 -0.9523 -0.8549  0.4541
  366MPD2    H2 5482   3.986   1.125  15.256 -0.1949  0.4299 -0.4381
  366MPD2    H3 5483   4.138   0.953  15.144  0.8595  0.0915 -0.1458
  366MPD2     N 5484   4.515   1.058  15.348  0.0466 -0.1722  0.0575
  366MPD2    H5 5485   4.550   0.971  15.309 -1.2248 -0.5934 -0.1223
  366MPD2    N1 5486   4.090   1.316  15.420 -0.3042 -0.0007 -0.6186
  366MPD2    H7 5487   4.157   1.382  15.458  0.5445 -0.9986 -0.3772
  367TMC3    C1 5488   3.951   1.491  15.451 -0.1567 -0.3564 -0.2976
  367TMC3    C2 5489   4.047   1.540  15.533  0.6075  0.0523  0.2612
  367TMC3    C3 5490   4.077   1.674  15.532 -0.0364 -0.0436 -0.3844
  367TMC3    C4 5491   3.875   1.571  15.371  0.6517 -0.6557  0.7631
  367TMC3    C5 5492   3.909   1.704  15.366  0.6467  0.0599 -0.2306
  367TMC3    C6 5493   3.997   1.759  15.458  0.0717  0.4307  0.1227
  367TMC3     C 5494   3.960   1.357  15.405  0.1244 -0.1600  1.3316
  367TMC3     O 5495   3.863   1.295  15.372 -0.1355 -0.9114  0.1515
  367TMC3     H 5496   4.093   1.472  15.603 -0.0000  1.3076  1.9064
  367TMC3    H1 5497   3.787   1.528  15.324  0.8756  1.5251 -1.6271
  367TMC3    H2 5498   4.009   1.867  15.468 -1.7285  0.5156  1.4321
  367TMC3    C7 5499   3.838   1.799  15.292  0.0581  0.0126 -0.5904
  367TMC3    C8 5500   4.194   1.713  15.600  0.0086  0.4617  0.2341
  367TMC3    O1 5501   3.860   1.917  15.313 -0.3669 -0.6037 -0.1584
  367TMC3    O2 5502   4.272   1.625  15.635  0.1319  0.3876 -0.6200
  368MPD2     C 5503   4.705   3.143  13.159  0.5127 -0.7240  0.1817
  368MPD2    C1 5504   4.684   3.276  13.120  0.0832 -0.1044 -0.2769
  368MPD2    C2 5505   0.072   3.361  13.117 -0.0443  0.1589  0.2223
  368MPD2    C3 5506   0.199   3.319  13.159 -0.2616 -0.3331 -0.2288
  368MPD2    C4 5507   0.219   3.189  13.192 -0.2811  0.2230 -0.1290
  368MPD2    C5 5508   0.111   3.104  13.193 -0.0294  0.2584  0.2931
  368MPD2     H 5509   0.067   3.463  13.079 -0.2578  0.4215  0.9582
  368MPD2    H1 5510   0.308   3.142  13.232  0.0903 -0.1095 -1.3266
  368MPD2    H2 5511   4.632   3.062  13.161  0.3594 -0.5521  1.2650
  368MPD2    H3 5512   0.119   3.000  13.222 -1.5734 -0.4515 -1.7982
  368MPD2     N 5513   0.309   3.407  13.155  0.2741  0.3246 -0.4963
  368MPD2    H5 5514   0.400   3.369  13.180  0.4386  1.4885  0.6878
  368MPD2    N1 5515   4.559   3.317  13.076 -0.4258 -0.2085 -0.3516
  368MPD2    H7 5516   4.487   3.246  13.074  1.5182 -2.1610 -0.5127
  369TMC3    C1 5517   4.376   3.451  12.984 -0.0325 -0.4594  0.0837
  369TMC3    C2 5518   4.363   3.519  12.862  0.2487  0.1944 -0.0473
  369TMC3    C3 5519   4.249   3.490  12.789  0.9408  0.0096 -0.1582
  369TMC3    C4 5520   4.279   3.358  13.026  0.2765  0.4864  0.8710
  369TMC3    C5 5521   4.163   3.353  12.955 -0.3651 -0.0858 -0.1501
  369TMC3    C6 5522   4.148   3.408  12.833  0.2947  0.0273  0.7165
  369TMC3     C 5523   4.513   3.445  13.031  0.0020  0.9286  0.1737
  369TMC3     O 5524   4.582   3.549  13.022  0.4101  0.0299 -0.3431
  369TMC3     H 5525   4.443   3.589  12.841  1.3922 -1.7110 -2.1235
  369TMC3    H1 5526   4.300   3.305  13.118 -1.9143 -1.3878  0.3063
  369TMC3    H2 5527   4.050   3.396  12.787  1.5201  1.6608 -2.2993
  369TMC3    C7 5528   4.048   3.305  13.027  0.6729  0.0917  0.8200
  369TMC3    C8 5529   4.231   3.544  12.660  0.9704 -0.5030 -0.4105
  369TMC3    O1 5530   4.060   3.321  13.145  0.6808 -0.3198  0.6410
  369TMC3    O2 5531   4.115   3.562  12.628 -0.0559  0.4106  0.2503
  370TMC3    C1 5532   4.586   3.800  16.005  0.2568 -0.3683  0.3040
  370TMC3    C2 5533   4.521   3.748  16.116  0.3017  0.3010  0.4226
  370TMC3    C3 5534   4.542   3.615  16.151  0.9628  0.5653  0.2234
  370TMC3    C4 5535   4.674   3.723  15.931 -0.1595  0.4812 -0.1012
  370TMC3    C5 5536   4.692   3.589  15.962 -0.1062 -0.1620 -0.5387
  370TMC3    C6 5537   4.629   3.535  16.074  0.6578  0.1639 -0.1535
  370TMC3     C 5538   4.587   3.945  15.991  0.0761  0.1298 -0.0736
  370TMC3     O 5539   4.502   4.002  16.054 -0.0501  0.1917  0.0586
  370TMC3     H 5540   4.458   3.813  16.175  0.2714  0.4782  0.1931
  370TMC3    H1 5541   0.005   3.765  15.846 -0.1797  0.5490 -0.0799
  370TMC3    H2 5542   4.655   3.434  16.104  1.8525  0.9130  1.3402
  370TMC3    C7 5543   0.070   3.511  15.893 -0.3467  0.1747  0.2925
  370TMC3    C8 5544   4.537   3.578  16.288 -0.1408  0.4751  0.0678
  370TMC3    O1 5545   0.183   3.553  15.860  0.2027 -0.2171 -0.2312
  370TMC3    O2 5546   4.556   3.460  16.315  0.3482  0.1390  0.2550
  371TMC3    C1 5547   1.156   2.050  15.502 -0.4711  0.0119 -0.1652
  371TMC3    C2 5548   1.112   2.069  15.633  0.6832  0.6332  0.7388
  371TMC3    C3 5549   1.060   2.193  15.663 -0.0533  1.0297  0.6687
  371TMC3    C4 5550   1.163   2.159  15.410 -0.2249 -0.3884 -0.3366
  371TMC3    C5 5551   1.109   2.274  15.452  0.2285  0.1352  0.1478
  371TMC3    C6 5552   1.068   2.293  15.577 -0.1738 -0.2325  0.2955
  371TMC3     C 5553   1.186   1.912  15.467  0.1061  0.8651  0.0564
  371TMC3     O 5554   1.277   1.898  15.389 -0.4413 -0.0986 -0.3272
  371TMC3     H 5555   1.125   1.992  15.708 -0.1558  0.2441  0.4822
  371TMC3    H1 5556   1.207   2.149  15.311 -1.1634 -1.7102 -0.6187
  371TMC3    H2 5557   1.057   2.398  15.599  1.0507 -0.4521  1.9604
  371TMC3    C7 5558   1.144   2.399  15.386  0.3039  0.2980  0.0806
  371TMC3    C8 5559   1.054   2.221  15.803  0.3839  0.3604 -0.1328
  371TMC3    O1 5560   1.052   2.475  15.376  0.3389  0.1941  1.2783
  371TMC3    O2 5561   1.067   2.120  15.874  0.2193  0.7398 -0.6752
  372MPD2     C 5562   0.610   3.523  13.411 -0.2325  0.4314 -0.0075
  372MPD2    C1 5563   0.728   3.480  13.469  0.7675 -0.6994  0.4654
  372MPD2    C2 5564   0.721   3.365  13.550  0.0333  0.3179  0.4418
  372MPD2    C3 5565   0.601   3.298  13.558 -0.4760 -0.2305  0.1015
  372MPD2    C4 5566   0.478   3.352  13.505 -0.3415  1.1951  0.6349
  372MPD2    C5 5567   0.492   3.464  13.433 -0.8187 -0.1638  0.9302
  372MPD2     H 5568   0.804   3.309  13.593 -0.6009 -0.5894  0.4890
  372MPD2    H1 5569   0.380   3.307  13.515  0.8363 -0.7974  3.3625
  372MPD2    H2 5570   0.610   3.617  13.358  1.1345  0.3673 -0.1300
  372MPD2    H3 5571   0.398   3.507  13.400 -0.0287  1.4289  0.7604
  372MPD2     N 5572   0.591   3.188  13.645 -0.3774 -0.4233  0.1127
  372MPD2    H5 5573   0.681   3.153  13.677 -0.7106  0.5210  2.1060
  372MPD2    N1 5574   0.850   3.548  13.467  0.5343 -0.8137 -0.0312
  372MPD2    H7 5575   0.923   3.520  13.530  0.9670 -1.4294 -0.8180
  373TMC3    C1 5576   0.506   2.999  13.772  0.3050 -0.4778  0.6268
  373TMC3    C2 5577   0.448   2.973  13.889 -0.2454 -0.2650  0.1238
  373TMC3    C3 5578   0.478   2.852  13.947 -0.5548 -0.4997  0.6839
  373TMC3    C4 5579   0.603   2.925  13.714  0.0230  0.6895  0.4278
  373TMC3    C5 5580   0.629   2.810  13.782 -0.5444  0.2480 -0.4099
  373TMC3    C6 5581   0.555   2.763  13.886 -0.8759  0.1931  0.5363
  373TMC3     C 5582   0.477   3.132  13.705 -0.5810 -0.2961  0.3377
  373TMC3     O 5583   0.370   3.189  13.719 -0.2778  0.7543  0.3349
  373TMC3     H 5584   0.384   3.047  13.936  0.6744 -0.2051  1.2762
  373TMC3    H1 5585   0.647   2.947  13.617 -1.4667  0.7205 -0.2346
  373TMC3    H2 5586   0.571   2.668  13.936  0.5245 -0.5074 -1.2326
  373TMC3    C7 5587   0.711   2.714  13.707  0.1005  0.6266  0.5443
  373TMC3    C8 5588   0.498   2.843  14.091  0.2271 -0.3778  0.1556
  373TMC3    O1 5589   0.792   2.752  13.624  0.5511  0.0574  0.0309
  373TMC3    O2 5590   0.511   2.731  14.133  0.3043  0.7706  0.2910
  374TMC3    C1 5591   1.755   3.080   9.988  0.1775  0.6719 -0.8940
  374TMC3    C2 5592   1.835   3.182  10.047  0.2770  0.8285  0.3626
  374TMC3    C3 5593   1.863   3.283   9.964  0.0707  0.3199 -0.9522
  374TMC3    C4 5594   1.718   3.076   9.857 -0.2999  0.0687  0.2840
  374TMC3    C5 5595   1.758   3.181   9.781  0.2108 -0.0286  0.7116
  374TMC3    C6 5596   1.831   3.284   9.831  0.5758  0.1487 -0.3359
  374TMC3     C 5597   1.726   2.968  10.077 -0.0366 -0.3790  0.6117
  374TMC3     O 5598   1.808   2.944  10.168  0.5253  0.2393 -0.7113
  374TMC3     H 5599   1.869   3.185  10.150  1.3633  2.7501 -0.0580
  374TMC3    H1 5600   1.652   2.999   9.820 -1.2356  1.4089 -0.8225
  374TMC3    H2 5601   1.843   3.369   9.765  0.3371 -0.0671 -0.6580
  374TMC3    C7 5602   1.737   3.186   9.637  0.1324  0.5052 -0.2579
  374TMC3    C8 5603   1.935   3.400  10.009 -0.2162  0.2935  0.1658
  374TMC3    O1 5604   1.753   3.293   9.583  0.9034  0.0101 -0.0989
  374TMC3    O2 5605   1.919   3.490   9.929 -0.1731 -0.2575 -0.0737
  375MPD2     C 5606   0.999   4.619  17.178  0.7420 -0.1891 -0.3915
  375MPD2    C1 5607   0.952   4.555  17.068  1.0502  0.3842  0.5337
  375MPD2    C2 5608   0.991   4.427  17.042  0.1960 -0.5066  0.5936
  375MPD2    C3 5609   1.090   4.366  17.115 -0.2715  0.5401 -0.0067
  375MPD2    C4 5610   1.141   4.434  17.227 -0.5000 -0.5061  0.4608
  375MPD2    C5 5611   1.085   4.553  17.265 -0.4445 -0.4071  0.7638
  375MPD2     H 5612   0.939   4.388  16.955 -0.0940  0.3026  0.4052
  375MPD2    H1 5613   1.206   4.382  17.296  1.7819  0.1244 -1.2323
  375MPD2    H2 5614   0.971   4.718  17.210 -1.1453 -0.1422 -2.2006
  375MPD2    H3 5615   1.115   4.610  17.353 -1.5905  0.5538  0.5298
  375MPD2     N 5616   1.149   4.241  17.090  0.0749  0.2869  0.3535
  375MPD2    H5 5617   1.215   4.198  17.154  0.0871  0.3177  0.3617
  375MPD2    N1 5618   0.874   4.615  16.964 -0.1359  0.0916 -0.1914
  375MPD2    H7 5619   0.842   4.553  16.891 -0.8551 -0.9145  0.9693
  376TMC3    C1 5620   1.229   4.070  16.964  0.4193  0.8371 -0.2940
  376TMC3    C2 5621   1.354   4.112  16.996 -0.1127  0.0463 -0.0121
  376TMC3    C3 5622   1.460   4.032  16.958 -0.1631  0.3394 -0.1808
  376TMC3    C4 5623   1.205   3.961  16.882  0.2370 -0.1078  0.1293
  376TMC3    C5 5624   1.310   3.892  16.824 -0.2800 -0.3609 -0.0646
  376TMC3    C6 5625   1.436   3.929  16.868 -0.0931  0.2796  0.2578
  376TMC3     C 5626   1.116   4.163  16.985  0.4308  0.4671  0.0961
  376TMC3     O 5627   1.012   4.139  16.923 -0.0019 -0.0706  0.6013
  376TMC3     H 5628   1.374   4.195  17.063 -0.3115  0.8087 -0.8898
  376TMC3    H1 5629   1.114   3.962  16.823  2.2277 -1.2248 -2.9679
  376TMC3    H2 5630   1.523   3.880  16.825 -0.4296 -0.8044  0.8196
  376TMC3    C7 5631   1.299   3.875  16.683  0.6431  0.0312  0.1356
  376TMC3    C8 5632   1.582   4.110  16.941 -0.3631  0.7793 -0.0633
  376TMC3    O1 5633   1.392   3.914  16.616 -0.2158 -0.1876 -0.1783
  376TMC3    O2 5634   1.649   4.076  16.848 -0.0379 -0.1048 -0.7553
  377MPD2     C 5635   3.659   3.677  12.089 -0.5202  0.1484  0.8961
  377MPD2    C1 5636   3.728   3.636  12.202  0.1609  0.4521  0.7893
  377MPD2    C2 5637   3.677   3.670  12.320 -0.6350 -0.7003 -0.2655
  377MPD2    C3 5638   3.555   3.725  12.332  0.4380 -0.0725 -0.1436
  377MPD2    C4 5639   3.488   3.769  12.220  0.2947 -0.6159  0.3164
  377MPD2    C5 5640   3.538   3.745  12.094  0.5487 -0.0355 -0.4062
  377MPD2     H 5641   3.732   3.645  12.411  0.0924  1.5924 -0.0537
  377MPD2    H1 5642   3.388   3.809  12.236  0.2982 -0.6163  0.3392
  377MPD2    H2 5643   3.708   3.662  11.993  0.6870  3.5785  0.9843
  377MPD2    H3 5644   3.482   3.761  12.002  0.5731  1.0273 -0.2364
  377MPD2     N 5645   3.481   3.726  12.446 -0.4960 -0.1164  1.1854
  377MPD2    H5 5646   3.393   3.776  12.438 -0.4446 -0.1892  0.1526
  377MPD2    N1 5647   3.853   3.568  12.173 -0.4673 -0.5801 -0.5640
  377MPD2    H7 5648   3.876   3.555  12.075  0.8399  1.4190 -0.5111
  378TMC3    C1 5649   4.244   3.504  12.108  0.1188 -0.0355  0.1626
  378TMC3    C2 5650   4.109   3.502  12.114 -0.3752  0.3379  1.2077
  378TMC3    C3 5651   4.052   3.449  12.225 -0.0585 -0.1210 -0.1126
  378TMC3    C4 5652   4.320   3.442  12.209 -0.4317 -0.2227 -0.5665
  378TMC3    C5 5653   4.253   3.374  12.311  0.3799  0.1203 -0.5419
  378TMC3    C6 5654   4.121   3.385  12.326  0.5349  0.7286 -0.6537
  378TMC3     C 5655   4.299   3.560  11.985 -0.0796 -0.5510 -0.4744
  378TMC3     O 5656   4.219   3.606  11.904  0.1723 -0.1738 -0.7112
  378TMC3     H 5657   4.061   3.572  12.047 -1.0342 -0.0161  1.3126
  378TMC3    H1 5658   4.428   3.443  12.203 -0.4084  0.3549 -0.0771
  378TMC3    H2 5659   4.068   3.343  12.411  1.0202 -1.5227 -1.4621
  378TMC3    C7 5660   4.316   3.322  12.428  0.4007 -0.0715 -0.1349
  378TMC3    C8 5661   3.924   3.491  12.265 -0.0834  0.2895 -0.5153
  378TMC3    O1 5662   4.245   3.278  12.520  0.4843  0.1380  0.3524
  378TMC3    O2 5663   3.889   3.468  12.381 -0.3994 -0.5652 -0.1445
  379MPD2     C 5664   0.188   1.882  16.558 -0.0080 -0.1323 -0.4952
  379MPD2    C1 5665   0.249   1.784  16.483  0.0613  0.0069  0.1031
  379MPD2    C2 5666   0.288   1.672  16.541  0.2985  0.6299  0.2672
  379MPD2    C3 5667   0.264   1.642  16.673  0.5909  0.8000 -0.3204
  379MPD2    C4 5668   0.194   1.738  16.745  0.1692 -0.1246 -0.5242
  379MPD2    C5 5669   0.160   1.859  16.693  0.1965 -0.3451 -0.3190
  379MPD2     H 5670   0.336   1.596  16.480 -0.7334 -0.4971  0.8508
  379MPD2    H1 5671   0.168   1.729  16.850  1.3838 -1.4427 -0.3395
  379MPD2    H2 5672   0.144   1.971  16.514 -0.5714  0.1970  0.7323
  379MPD2    H3 5673   0.115   1.935  16.757  1.1524 -0.3907  0.4050
  379MPD2     N 5674   0.307   1.524  16.733  0.5878 -0.4374  0.3556
  379MPD2    H5 5675   0.281   1.514  16.831 -1.4354  3.1318  0.1558
  379MPD2    N1 5676   0.257   1.811  16.341 -0.2805 -0.2137 -0.4231
  379MPD2    H7 5677   0.209   1.895  16.311  0.4417 -0.6242 -2.6763
  380TMC3    C1 5678   0.272   1.778  16.112 -0.6965  0.3900 -0.1698
  380TMC3    C2 5679   0.343   1.713  16.013  0.2715 -0.5783 -0.7584
  380TMC3    C3 5680   0.278   1.691  15.894 -0.6221 -0.1466 -0.1971
  380TMC3    C4 5681   0.156   1.839  16.096  0.8709 -0.5929  0.3065
  380TMC3    C5 5682   0.100   1.812  15.977 -0.4890  0.3681  0.2652
  380TMC3    C6 5683   0.158   1.747  15.868  0.0627  1.2607 -0.2798
  380TMC3     C 5684   0.299   1.725  16.244 -0.2208 -0.0728 -0.1355
  380TMC3     O 5685   0.373   1.630  16.262  0.0648 -0.2903  0.2806
  380TMC3     H 5686   0.439   1.663  16.020  0.9817  0.8746 -0.1243
  380TMC3    H1 5687   0.115   1.891  16.182 -0.9482  2.1128 -2.1657
  380TMC3    H2 5688   0.104   1.737  15.775 -0.5169 -0.6263  0.2695
  380TMC3    C7 5689   4.713   1.904  15.953 -0.0088  0.2920  0.1831
  380TMC3    C8 5690   0.368   1.697  15.781 -0.0297  0.8764  0.4833
  380TMC3    O1 5691   4.709   2.004  16.029  0.0205  0.0739  0.5814
  380TMC3    O2 5692   0.484   1.733  15.802  0.3865 -0.1730  0.3763
  381TMC3    C1 5693   0.096   2.837  16.299  0.1306  0.8442  0.1586
  381TMC3    C2 5694   0.119   2.956  16.241 -0.7754  0.2137  0.4276
  381TMC3    C3 5695   0.089   3.073  16.311 -0.0539  0.4410 -0.1523
  381TMC3    C4 5696   0.040   2.825  16.422 -0.5399 -0.2026 -0.5009
  381TMC3    C5 5697   0.010   2.938  16.490  0.1756 -0.5463  0.1236
  381TMC3    C6 5698   0.042   3.061  16.441 -0.2109 -0.1768 -0.3728
  381TMC3     C 5699   0.105   2.723  16.216 -0.1032 -0.3187  0.0959
  381TMC3     O 5700   0.143   2.623  16.281  0.3609  0.3432 -0.0961
  381TMC3     H 5701   0.169   2.961  16.145  0.2440  0.6132  0.9840
  381TMC3    H1 5702   0.005   2.729  16.459 -1.4330  0.0462 -0.6975
  381TMC3    H2 5703   0.015   3.149  16.497  3.6186  0.9303 -0.2791
  381TMC3    C7 5704   4.700   2.926  16.631  0.3560 -0.0445 -0.0562
  381TMC3    C8 5705   0.177   3.181  16.268  0.1181  0.3997  0.3470
  381TMC3    O1 5706   0.015   2.825  16.680  1.1061  0.8707 -0.4746
  381TMC3    O2 5707   0.269   3.151  16.195  0.1593  0.7799  0.0565
  382MPD2     C 5708   3.613   0.167  17.489 -0.3663  0.0943 -0.5912
  382MPD2    C1 5709   3.667   0.051  17.538 -0.1556 -0.0866  0.1129
  382MPD2    C2 5710   3.608   4.646  17.534  0.4239  0.4811  0.1745
  382MPD2    C3 5711   3.480   4.647  17.471  0.6151 -0.5316 -0.3907
  382MPD2    C4 5712   3.426   0.035  17.414 -0.0539 -0.6478  0.6706
  382MPD2    C5 5713   3.490   0.158  17.427  0.5172 -0.3244 -0.2547
  382MPD2     H 5714   3.653   4.552  17.564  0.0814  0.2216 -0.1176
  382MPD2    H1 5715   3.326   0.032  17.372 -0.0590  1.4227  0.5197
  382MPD2    H2 5716   3.652   0.267  17.505 -1.9537  0.7003 -0.4841
  382MPD2    H3 5717   3.441   0.247  17.392  1.1107  0.4173  0.8062
  382MPD2     N 5718   3.398   4.528  17.480 -0.0249  0.1721  0.0659
  382MPD2    H5 5719   3.309   4.528  17.430  0.1876  1.1912 -0.3146
  382MPD2    N1 5720   3.793   0.044  17.603  0.0453 -0.1920 -0.5113
  382MPD2    H7 5721   3.805   4.680  17.657  0.6495  0.2853  0.0961
  383TMC3    C1 5722   3.307   4.321  17.535  0.4779  0.0082 -1.0886
  383TMC3    C2 5723   3.182   4.377  17.534 -0.5768  0.0652  0.5213
  383TMC3    C3 5724   3.072   4.291  17.545 -0.3461 -0.0644  0.3629
  383TMC3    C4 5725   3.330   4.185  17.544  0.3162  0.5020 -0.4875
  383TMC3    C5 5726   3.220   4.101  17.548 -0.6584  0.6175  0.1904
  383TMC3    C6 5727   3.093   4.150  17.551  0.0994 -0.0780 -0.6910
  383TMC3     C 5728   3.420   4.407  17.551  0.8525  0.7735  0.3645
  383TMC3     O 5729   3.523   4.353  17.588 -0.2537 -0.0766 -0.2227
  383TMC3     H 5730   3.172   4.485  17.540  0.1254  0.3186 -2.6776
  383TMC3    H1 5731   3.430   4.144  17.551  0.2633  0.4802  0.1813
  383TMC3    H2 5732   3.004   4.090  17.564 -0.5626  1.1797  0.5405
  383TMC3    C7 5733   3.244   3.986  17.634 -0.2343 -0.2317  1.0714
  383TMC3    C8 5734   2.935   4.334  17.514  0.0966 -0.4566  0.1594
  383TMC3    O1 5735   3.355   3.966  17.682 -0.0252 -0.4373 -0.9144
  383TMC3    O2 5736   2.851   4.248  17.491 -0.1705 -0.1553  0.0696
  384MPD2     C 5737   0.890   1.320  11.855 -0.5217  0.6306  0.4150
  384MPD2    C1 5738   0.858   1.291  11.989  0.6841  0.2787  0.1416
  384MPD2    C2 5739   0.913   1.179  12.050  0.2463 -0.3168 -0.8394
  384MPD2    C3 5740   0.973   1.081  11.980  0.7817 -0.8521 -0.2194
  384MPD2    C4 5741   0.991   1.099  11.843  0.3126  0.0413  0.2667
  384MPD2    C5 5742   0.961   1.224  11.787  0.0885 -0.5941  0.5069
  384MPD2     H 5743   0.901   1.160  12.157 -1.3186 -0.7607 -1.0996
  384MPD2    H1 5744   1.036   1.030  11.773  0.7442  0.0953  0.4956
  384MPD2    H2 5745   0.865   1.420  11.822  0.0466  0.3191 -0.9296
  384MPD2    H3 5746   0.999   1.242  11.687  2.9282  0.6410  1.8024
  384MPD2     N 5747   1.014   0.969  12.055 -0.4894 -0.3756  0.1263
  384MPD2    H5 5748   1.000   0.969  12.155  1.7599  0.3782  0.4424
  384MPD2    N1 5749   0.787   1.379  12.073  0.4202  0.0251  0.1650
  384MPD2    H7 5750   0.782   1.354  12.171 -2.0544  1.1011  0.3077
  385TMC3    C1 5751   1.119   0.766  12.100  0.0192 -0.1519  0.2871
  385TMC3    C2 5752   1.055   0.650  12.065 -0.1886 -0.2267  0.2488
  385TMC3    C3 5753   0.985   0.579  12.156  0.0913  0.7960 -0.1036
  385TMC3    C4 5754   1.114   0.811  12.227  0.4200 -0.2072 -0.0137
  385TMC3    C5 5755   1.021   0.751  12.313  1.1648 -0.2645 -0.0614
  385TMC3    C6 5756   0.967   0.634  12.282  0.5363  0.4073 -0.0523
  385TMC3     C 5757   1.100   0.875  12.008 -0.0929  0.3704 -0.2995
  385TMC3     O 5758   1.128   0.841  11.893 -0.7481 -0.3089  0.2016
  385TMC3     H 5759   1.061   0.617  11.961  3.0600  0.5045  0.2180
  385TMC3    H1 5760   1.182   0.890  12.255 -0.7650  0.8848 -0.2365
  385TMC3    H2 5761   0.910   0.582  12.359 -2.1832  2.0781 -0.9359
  385TMC3    C7 5762   0.951   0.858  12.383  0.0527  0.2622 -0.1261
  385TMC3    C8 5763   0.982   0.439  12.147  0.0709  0.1863 -0.0105
  385TMC3    O1 5764   0.991   0.965  12.335  0.2433  0.3859 -0.3177
  385TMC3    O2 5765   0.961   0.377  12.253 -0.3043 -0.1605  0.2235
  386TMC3    C1 5766   0.158   4.075  11.665 -1.3612  0.5216  0.3629
  386TMC3    C2 5767   0.219   4.105  11.544  0.6305  0.0655  0.1675
  386TMC3    C3 5768   0.142   4.143  11.442  0.5776 -0.1732 -0.4257
  386TMC3    C4 5769   0.022   4.090  11.684 -0.1716  0.0396 -0.7274
  386TMC3    C5 5770   4.675   4.128  11.577 -0.0988  0.4833 -0.1866
  386TMC3    C6 5771   0.009   4.165  11.451  0.2730 -0.1998  0.8318
  386TMC3     C 5772   0.240   4.062  11.780  0.0239  0.0849  0.1085
  386TMC3     O 5773   0.191   4.107  11.882  0.0643 -0.0300 -0.0818
  386TMC3     H 5774   0.326   4.084  11.538  0.7543  0.7030  0.1191
  386TMC3    H1 5775   4.700   4.078  11.782 -3.1168 -0.5283 -2.0964
  386TMC3    H2 5776   4.676   4.198  11.363  2.2100  1.6415  0.3218
  386TMC3    C7 5777   4.534   4.104  11.594  0.2701  0.1203  0.4589
  386TMC3    C8 5778   0.193   4.102  11.318 -0.1040 -0.1333  0.4776
  386TMC3    O1 5779   4.496   4.070  11.705  0.5614  0.3394  0.4745
  386TMC3    O2 5780   0.110   4.080  11.227 -0.2708 -0.4886 -0.2260
  387MPD2     C 5781   3.190   4.055   9.596  0.4502  0.2487  0.4455
  387MPD2    C1 5782   3.266   4.037   9.710 -0.2504 -0.3297  0.0825
  387MPD2    C2 5783   3.264   3.914   9.778 -0.5556  0.2059 -0.1968
  387MPD2    C3 5784   3.186   3.806   9.738 -1.3437 -0.0555 -0.4137
  387MPD2    C4 5785   3.104   3.829   9.629 -0.2893  0.4585  0.2866
  387MPD2    C5 5786   3.105   3.949   9.566  0.1860  0.1152  0.0334
  387MPD2     H 5787   3.340   3.907   9.855 -1.3551  3.1235  0.8829
  387MPD2    H1 5788   3.020   3.763   9.610 -0.0098  0.0469  0.4794
  387MPD2    H2 5789   3.200   4.135   9.524 -0.0146  1.0346  1.2497
  387MPD2    H3 5790   3.019   3.962   9.502  0.2733 -3.3531 -0.7984
  387MPD2     N 5791   3.208   3.685   9.805 -0.1361  0.0339  1.5319
  387MPD2    H5 5792   3.286   3.679   9.869 -0.4638 -0.3856  1.8976
  387MPD2    N1 5793   3.350   4.143   9.757  0.7972 -0.6304 -0.2750
  387MPD2    H7 5794   3.411   4.112   9.833 -1.5595 -0.5285  1.6425
  388TMC3    C1 5795   3.528   4.287   9.718 -0.2295 -0.0247 -0.1016
  388TMC3    C2 5796   3.588   4.404   9.683 -0.2895  0.1679 -1.0886
  388TMC3    C3 5797   3.717   4.431   9.722  0.0106 -0.0174 -0.2776
  388TMC3    C4 5798   3.600   4.184   9.775 -0.4448  0.4877 -0.4885
  388TMC3    C5 5799   3.730   4.213   9.803 -0.7917 -0.1445  0.0321
  388TMC3    C6 5800   3.785   4.335   9.785  0.3305  0.2916  0.4940
  388TMC3     C 5801   3.391   4.255   9.687 -0.2188 -0.1979 -0.2968
  388TMC3     O 5802   3.334   4.302   9.589 -0.0220  0.9682  0.5933
  388TMC3     H 5803   3.526   4.478   9.633 -0.3720 -2.2948 -4.6678
  388TMC3    H1 5804   3.576   4.083   9.743  2.2312 -0.5149  0.6561
  388TMC3    H2 5805   3.887   4.347   9.818 -0.1201 -0.1072  2.0424
  388TMC3    C7 5806   3.815   4.107   9.855 -0.5320  0.5829 -0.9089
  388TMC3    C8 5807   3.787   4.560   9.703 -0.0706  0.5698  0.1773
  388TMC3    O1 5808   3.925   4.103   9.802 -0.3682  0.0600  0.3425
  388TMC3    O2 5809   3.901   4.562   9.741  0.1990 -0.1655 -0.0761
  389MPD2     C 5810   3.044   2.054  11.957  0.2446  0.2493 -0.7792
  389MPD2    C1 5811   2.944   2.085  11.868  0.0157 -0.5214 -0.0528
  389MPD2    C2 5812   2.811   2.062  11.903  0.8090  0.2389 -0.4306
  389MPD2    C3 5813   2.775   2.010  12.026  0.1140 -0.2265  0.3232
  389MPD2    C4 5814   2.877   1.984  12.119 -0.5492  0.1735 -0.8808
  389MPD2    C5 5815   3.007   2.006  12.081  0.6604  0.5437 -0.4807
  389MPD2     H 5816   2.738   2.089  11.828  1.3693 -1.6248 -1.6410
  389MPD2    H1 5817   2.866   1.938  12.216  1.3999  1.0534 -0.2436
  389MPD2    H2 5818   3.142   2.091  11.927  0.5084 -0.0209 -0.2442
  389MPD2    H3 5819   3.084   1.981  12.152  0.3347  0.4883 -0.1520
  389MPD2     N 5820   2.647   1.960  12.053  0.8890 -0.5990  0.3435
  389MPD2    H5 5821   2.632   1.896  12.130 -1.2313 -0.1433  0.3220
  389MPD2    N1 5822   2.988   2.153  11.753  0.8057 -0.7711  0.4568
  389MPD2    H7 5823   3.086   2.157  11.725  0.6387  0.1685  0.0113
  390TMC3    C1 5824   2.418   1.905  12.049  0.8214  0.1198  0.0611
  390TMC3    C2 5825   2.433   1.769  12.067  0.7078 -0.2029 -0.4396
  390TMC3    C3 5826   2.335   1.707  12.138 -0.0386  0.2343  0.0807
  390TMC3    C4 5827   2.298   1.971  12.067 -0.1621  0.4917  0.5774
  390TMC3    C5 5828   2.196   1.898  12.125  1.0843 -0.3429 -0.1856
  390TMC3    C6 5829   2.219   1.773  12.172  0.0241 -0.6275 -0.2938
  390TMC3     C 5830   2.529   1.981  11.984 -0.4699 -0.7071  0.2507
  390TMC3     O 5831   2.503   2.080  11.915  0.1105  0.7261 -0.3518
  390TMC3     H 5832   2.531   1.724  12.059  0.2866 -1.4170  1.3459
  390TMC3    H1 5833   2.288   2.077  12.043  0.0642  0.4502  0.2969
  390TMC3    H2 5834   2.159   1.730  12.251  1.5082 -1.2237  0.5157
  390TMC3    C7 5835   2.076   1.916  12.060  0.4273 -0.2126 -0.5025
  390TMC3    C8 5836   2.282   1.599  12.068 -0.4010 -0.0679  0.0388
  390TMC3    O1 5837   2.058   2.005  11.976  0.2704  0.0905  0.3162
  390TMC3    O2 5838   2.253   1.615  11.955  0.0941  0.4666 -0.1934
  391MPD2     C 5839   2.382   3.280  11.566  0.3949 -0.8554 -0.0394
  391MPD2    C1 5840   2.430   3.405  11.546  0.1382 -0.3496  0.1388
  391MPD2    C2 5841   2.421   3.460  11.415 -0.4936  0.3936  0.6036
  391MPD2    C3 5842   2.376   3.389  11.310  0.2019  0.8525  0.3347
  391MPD2    C4 5843   2.332   3.264  11.333  0.0380 -0.0700 -0.2632
  391MPD2    C5 5844   2.325   3.210  11.457  0.8092  0.6460  0.6318
  391MPD2     H 5845   2.467   3.553  11.386  1.0570 -0.8937 -1.0676
  391MPD2    H1 5846   2.309   3.200  11.249  2.6321 -0.0943 -0.9728
  391MPD2    H2 5847   2.376   3.237  11.665 -2.8689  0.9925  0.5754
  391MPD2    H3 5848   2.282   3.113  11.478 -0.2295  0.2654 -3.1753
  391MPD2     N 5849   2.379   3.450  11.179 -0.4250  0.0627 -0.0610
  391MPD2    H5 5850   2.412   3.546  11.187  0.3174 -0.4189  2.9104
  391MPD2    N1 5851   2.477   3.484  11.659  0.2682  0.1924 -1.0045
  391MPD2    H7 5852   2.474   3.434  11.747 -3.1038  2.1486 -0.0016
  392TMC3    C1 5853   2.350   3.481  10.947 -0.2787  0.7007  0.5207
  392TMC3    C2 5854   2.267   3.457  10.842 -0.4909 -0.4599 -0.0541
  392TMC3    C3 5855   2.246   3.549  10.748 -0.2944  0.0662 -0.4853
  392TMC3    C4 5856   2.409   3.608  10.956 -0.3009 -0.6773  0.2644
  392TMC3    C5 5857   2.389   3.695  10.852 -0.1053 -0.2003  0.2298
  392TMC3    C6 5858   2.301   3.672  10.759  0.3636  0.4915  0.3931
  392TMC3     C 5859   2.337   3.390  11.061  0.1617 -0.0337 -0.2515
  392TMC3     O 5860   2.275   3.289  11.049 -0.3388  0.3259  0.2251
  392TMC3     H 5861   2.230   3.356  10.825  0.0445 -0.5696 -0.5674
  392TMC3    H1 5862   2.483   3.622  11.033 -0.6575 -1.0096  0.6689
  392TMC3    H2 5863   2.297   3.740  10.675  1.4628  1.1767  0.8950
  392TMC3    C7 5864   2.434   3.830  10.885  0.3634 -0.1998  0.4770
  392TMC3    C8 5865   2.181   3.500  10.621  0.3843  0.4210 -0.9428
  392TMC3    O1 5866   2.532   3.839  10.959  0.0227  0.6613 -0.3622
  392TMC3    O2 5867   2.168   3.383  10.585 -0.4364 -0.3209 -0.0921
  393TMC3    C1 5868   1.163   1.470  10.768 -0.3902 -0.2858  0.4709
  393TMC3    C2 5869   1.062   1.472  10.857 -0.2126 -0.0505  0.0605
  393TMC3    C3 5870   0.982   1.362  10.868  0.0883 -0.5414  0.3969
  393TMC3    C4 5871   1.189   1.363  10.687 -0.2361  0.3982 -0.7733
  393TMC3    C5 5872   1.101   1.257  10.696  0.3622 -0.4071 -0.3490
  393TMC3    C6 5873   1.002   1.252  10.789 -0.2540 -0.4766 -0.7083
  393TMC3     C 5874   1.188   1.596  10.703 -0.0012 -0.4707 -0.2024
  393TMC3     O 5875   1.182   1.603  10.585  0.3696  0.2156 -0.6354
  393TMC3     H 5876   1.035   1.564  10.907  0.9446 -0.2353  1.0234
  393TMC3    H1 5877   1.263   1.373  10.608  1.1194  1.4884  0.6497
  393TMC3    H2 5878   0.954   1.157  10.811 -0.1415 -0.1871  0.7831
  393TMC3    C7 5879   1.123   1.134  10.616  0.3015 -0.1361 -0.3525
  393TMC3    C8 5880   0.884   1.342  10.976  0.1141  1.0081  0.1077
  393TMC3    O1 5881   1.019   1.072  10.583 -0.3302 -0.0527 -0.5042
  393TMC3    O2 5882   0.835   1.232  10.990  0.0363 -0.3784 -0.2793
  394TMC3    C1 5883   2.985   2.274  11.547 -0.5329  0.1308 -0.1357
  394TMC3    C2 5884   2.916   2.378  11.497 -0.4587  0.4732 -0.2984
  394TMC3    C3 5885   2.901   2.384  11.364 -0.0173  0.0390 -0.0740
  394TMC3    C4 5886   3.055   2.181  11.476 -0.4822  0.3382 -1.3397
  394TMC3    C5 5887   3.043   2.197  11.342  0.3156  0.0259 -0.6245
  394TMC3    C6 5888   2.963   2.288  11.281  0.1053 -0.1080  0.2054
  394TMC3     C 5889   2.913   2.224  11.663  0.3316 -0.0177  0.2902
  394TMC3     O 5890   2.796   2.259  11.676  0.6872  0.3050 -0.2756
  394TMC3     H 5891   2.846   2.439  11.554 -1.7881 -2.0587  0.7578
  394TMC3    H1 5892   3.111   2.099  11.520 -1.2214  0.0046 -1.0155
  394TMC3    H2 5893   2.952   2.285  11.173 -0.6672 -2.2729  0.3507
  394TMC3    C7 5894   3.108   2.109  11.243 -0.7081 -0.5009 -0.0478
  394TMC3    C8 5895   2.788   2.464  11.301  0.2354  0.4224  0.4481
  394TMC3    O1 5896   3.091   2.130  11.123 -0.2279 -0.9108  0.1948
  394TMC3    O2 5897   2.716   2.520  11.384  0.2413 -0.2095  0.0659
  395TMC3    C1 5898   2.743   4.185  15.407  0.0548  0.7232 -0.6076
  395TMC3    C2 5899   2.695   4.133  15.285 -0.5533 -0.7799  0.5800
  395TMC3    C3 5900   2.749   4.188  15.170  0.4382 -0.8367 -0.1430
  395TMC3    C4 5901   2.822   4.300  15.404 -0.8280 -0.0565  0.1278
  395TMC3    C5 5902   2.847   4.365  15.285 -0.1567 -0.4767 -0.1467
  395TMC3    C6 5903   2.822   4.303  15.165 -0.3136 -0.3669  0.6830
  395TMC3     C 5904   2.698   4.129  15.539  0.1464 -0.6808  0.9341
  395TMC3     O 5905   2.689   4.217  15.627  0.3829 -0.1857  0.3086
  395TMC3     H 5906   2.633   4.045  15.280  1.6189 -2.2414 -0.4506
  395TMC3    H1 5907   2.864   4.335  15.498 -0.1404  0.4375 -0.3641
  395TMC3    H2 5908   2.836   4.356  15.072 -1.7481  1.4637  1.5062
  395TMC3    C7 5909   2.944   4.476  15.293  0.3748 -0.4167  0.2038
  395TMC3    C8 5910   2.712   4.143  15.037 -0.2280  0.3583  0.3694
  395TMC3    O1 5911   2.964   4.518  15.408  0.5083 -0.2043  0.4944
  395TMC3    O2 5912   2.778   4.184  14.946 -0.7215  0.2651 -0.8902
  396MPD2     C 5913   2.347   0.730  17.654  0.4068 -1.2276 -1.0835
  396MPD2    C1 5914   2.246   0.729  17.561  0.3295  0.0239 -0.3101
  396MPD2    C2 5915   2.252   0.812  17.454 -0.3993  0.1158  0.1327
  396MPD2    C3 5916   2.359   0.889  17.433  0.0855  0.9186 -0.6540
  396MPD2    C4 5917   2.461   0.896  17.530 -0.3257 -0.4034  0.1416
  396MPD2    C5 5918   2.448   0.818  17.641 -0.1364  0.2576 -0.3621
  396MPD2     H 5919   2.171   0.825  17.383 -0.6044 -1.3087  0.1000
  396MPD2    H1 5920   2.554   0.951  17.527  0.4276 -1.7504 -1.4770
  396MPD2    H2 5921   2.343   0.671   0.059 -0.2924 -1.0328 -0.9883
  396MPD2    H3 5922   2.528   0.827   0.027  1.5944 -1.8897 -2.0227
  396MPD2     N 5923   2.366   0.959  17.312  0.4538 -0.0962  0.0595
  396MPD2    H5 5924   2.299   0.946  17.236 -0.2091 -0.1948  0.6606
  396MPD2    N1 5925   2.139   0.634  17.576  0.7262  0.0255  0.0945
  396MPD2    H7 5926   2.146   0.576  17.659  1.0983 -1.2514 -0.8297
  397TMC3    C1 5927   1.925   0.535  17.553  0.7570 -0.2457  0.1892
  397TMC3    C2 5928   1.821   0.539  17.465 -0.3248 -0.2452 -0.1725
  397TMC3    C3 5929   1.769   0.433  17.409 -0.6014  0.1773  0.0482
  397TMC3    C4 5930   1.976   0.406  17.576  0.1342  0.4286  0.7504
  397TMC3    C5 5931   1.916   0.299  17.527 -0.1896  0.1019 -0.3707
  397TMC3    C6 5932   1.804   0.308  17.450  0.4479 -0.2067  0.4392
  397TMC3     C 5933   2.018   0.640  17.515  0.9605  0.0540  0.0413
  397TMC3     O 5934   1.987   0.716  17.423  0.0504  0.0240 -0.6480
  397TMC3     H 5935   1.789   0.640  17.443 -2.5884 -1.1319 -0.8752
  397TMC3    H1 5936   2.075   0.399  17.620  0.6412  0.1092 -0.4268
  397TMC3    H2 5937   1.781   0.220  17.391  0.9420  0.3106 -0.5217
  397TMC3    C7 5938   1.924   0.168  17.601  0.3280  0.6255 -0.5343
  397TMC3    C8 5939   1.690   0.445  17.290 -0.5049  0.2513 -0.6418
  397TMC3    O1 5940   1.858   0.078  17.553  0.2794 -0.1257  0.0439
  397TMC3    O2 5941   1.663   0.342  17.237 -0.6177 -0.4975  0.2044
  398MPD2     C 5942   0.068   0.736   0.795  1.0511 -0.6940 -0.1690
  398MPD2    C1 5943   0.166   0.660   0.834 -0.8710 -0.3781 -0.1450
  398MPD2    C2 5944   0.287   0.705   0.872  0.0334  0.8266 -0.3567
  398MPD2    C3 5945   0.308   0.839   0.872  0.8813  0.5138  0.1580
  398MPD2    C4 5946   0.203   0.918   0.829 -0.9521  0.6076 -0.0750
  398MPD2    C5 5947   0.084   0.869   0.787  0.6569  0.2989 -0.0262
  398MPD2     H 5948   0.360   0.627   0.893 -2.2661 -0.8561  1.4578
  398MPD2    H1 5949   0.209   1.024   0.810 -1.0890  0.5953 -0.1912
  398MPD2    H2 5950   4.692   0.698   0.765  0.4392 -1.2332  2.5317
  398MPD2    H3 5951   0.020   0.931   0.725 -0.9242 -1.0073  0.3038
  398MPD2     N 5952   0.432   0.888   0.930  0.3249 -0.3987 -1.0746
  398MPD2    H5 5953   0.501   0.819   0.958  0.0920 -0.8187 -1.5426
  398MPD2    N1 5954   0.155   0.519   0.815  0.0316  0.4592  0.0884
  398MPD2    H7 5955   0.238   0.465   0.837 -0.0845  0.3192  0.1900
  399TMC3    C1 5956   0.086   0.312   0.710  0.0740  0.4816  0.0583
  399TMC3    C2 5957   0.218   0.287   0.694 -0.3801 -0.9913  0.0237
  399TMC3    C3 5958   0.248   0.163   0.639  0.3986  0.0836 -0.3946
  399TMC3    C4 5959   4.711   0.224   0.675  0.0785  0.1467 -0.5547
  399TMC3    C5 5960   0.029   0.106   0.618 -0.0074 -0.7566  0.2997
  399TMC3    C6 5961   0.162   0.070   0.600  0.0757  0.2146  0.4059
  399TMC3     C 5962   0.049   0.443   0.754 -0.3229 -0.0865 -0.2090
  399TMC3     O 5963   4.657   0.477   0.729  0.5064 -0.2298  0.2898
  399TMC3     H 5964   0.291   0.366   0.702  0.4838 -1.7187 -0.6953
  399TMC3    H1 5965   4.605   0.248   0.677 -0.5455 -2.6220 -0.1000
  399TMC3    H2 5966   0.193   4.695   0.559  1.5577  0.5706  0.6783
  399TMC3    C7 5967   4.647   0.005   0.618 -0.6261  1.0801  0.0654
  399TMC3    C8 5968   0.392   0.138   0.648  0.2376 -0.2188  0.3552
  399TMC3    O1 5969   4.545   0.025   0.684  0.3394  0.1487 -0.6186
  399TMC3    O2 5970   0.467   0.234   0.660 -0.1049  0.0332 -0.4934
  400TMC3    C1 5971   3.549   4.601  17.066 -0.3484  0.2372  0.4604
  400TMC3    C2 5972   3.439   4.578  16.984  0.6820 -0.3832  0.2314
  400TMC3    C3 5973   3.376   4.687  16.928  0.6546  0.9244  0.0863
  400TMC3    C4 5974   3.599   0.005  17.088 -0.3558 -0.4350 -0.4840
  400TMC3    C5 5975   3.533   0.112  17.035 -0.3156  0.1932 -0.2184
  400TMC3    C6 5976   3.432   0.094  16.948 -0.4885 -0.7281  0.6023
  400TMC3     C 5977   3.597   4.484  17.131  0.2332  0.4324  0.6834
  400TMC3     O 5978   3.542   4.375  17.103  0.7036  0.9278 -0.2112
  400TMC3     H 5979   3.419   4.475  16.953 -0.3720 -0.3560  0.8128
  400TMC3    H1 5980   3.678   0.026  17.159 -3.3978  2.1628  2.1344
  400TMC3    H2 5981   3.390   0.178  16.893 -0.1444 -1.6787 -1.1082
  400TMC3    C7 5982   3.558   0.246  17.084  0.1635 -0.9785  0.5158
  400TMC3    C8 5983   3.232   4.686  16.906  0.8852 -0.6015 -0.2507
  400TMC3    O1 5984   3.667   0.276  17.119 -0.1921  0.0222 -0.1617
  400TMC3    O2 5985   3.168   0.068  16.874  1.0752  0.5357  0.6025
  401MPD2     C 5986   1.771   2.934   1.314 -0.2185 -0.2693  0.2993
  401MPD2    C1 5987   1.903   2.932   1.362  0.4770  0.0271  0.0051
  401MPD2    C2 5988   1.979   2.823   1.338 -0.4584  0.1671  0.5015
  401MPD2    C3 5989   1.930   2.722   1.251  0.6138 -0.6294  0.0582
  401MPD2    C4 5990   1.795   2.725   1.208  0.1611 -0.2432  0.3586
  401MPD2    C5 5991   1.719   2.832   1.242  0.2500 -0.1174  0.1085
  401MPD2     H 5992   2.082   2.818   1.372  0.1993  0.8921 -1.3893
  401MPD2    H1 5993   1.744   2.652   1.146 -0.7495 -0.4833  1.3966
  401MPD2    H2 5994   1.701   3.008   1.350 -0.4276  0.1990 -1.0887
  401MPD2    H3 5995   1.616   2.843   1.210 -0.3019 -1.8759  1.3019
  401MPD2     N 5996   2.031   2.630   1.208  0.0336 -0.0599 -0.6735
  401MPD2    H5 5997   2.127   2.639   1.242 -1.2172 -2.2862  3.3838
  401MPD2    N1 5998   1.946   3.026   1.455 -0.7015  0.4532  0.4712
  401MPD2    H7 5999   2.036   3.013   1.499  0.5659  1.2887 -1.8526
  402TMC3    C1 6000   2.149   2.479   1.079  0.6792 -0.9172  0.6863
  402TMC3    C2 6001   2.238   2.458   1.182 -0.5618  0.4477 -0.0182
  402TMC3    C3 6002   2.354   2.396   1.138  0.4358  0.5464 -0.5363
  402TMC3    C4 6003   2.177   2.450   0.948 -0.1271  0.6331  0.6391
  402TMC3    C5 6004   2.297   2.393   0.912  0.1526 -0.2356  0.4447
  402TMC3    C6 6005   2.385   2.361   1.014  0.0588 -0.5994  0.3078
  402TMC3     C 6006   2.017   2.535   1.103 -0.5190  0.1706  0.0252
  402TMC3     O 6007   1.935   2.523   1.016 -0.7366 -0.4227 -0.6459
  402TMC3     H 6008   2.212   2.473   1.286 -1.3435 -4.5424  0.4897
  402TMC3    H1 6009   2.101   2.476   0.875 -1.5595 -1.9628  1.2195
  402TMC3    H2 6010   2.486   2.328   0.992  0.0751 -0.9219  0.8580
  402TMC3    C7 6011   2.342   2.403   0.771  0.7582 -0.3322  0.5350
  402TMC3    C8 6012   2.445   2.333   1.239 -0.1634  0.5908 -0.4411
  402TMC3    O1 6013   2.289   2.480   0.687 -0.0980  0.4099 -0.2593
  402TMC3    O2 6014   2.509   2.243   1.198  0.1952  0.0321 -0.4602
  403MPD2     C 6015   0.334   1.425  13.055  0.3700  0.1360 -0.1287
  403MPD2    C1 6016   0.369   1.316  13.132  0.3997 -0.0983  0.2413
  403MPD2    C2 6017   0.448   1.340  13.239 -0.5935  0.0879  0.0961
  403MPD2    C3 6018   0.452   1.472  13.293  0.1686 -0.1644  0.5253
  403MPD2    C4 6019   0.394   1.577  13.230 -0.3004  0.5114  0.3412
  403MPD2    C5 6020   0.344   1.549  13.103 -0.5461 -0.2624 -0.2277
  403MPD2     H 6021   0.499   1.259  13.291 -1.5181  0.4449  1.5701
  403MPD2    H1 6022   0.414   1.679  13.262  1.0642  0.1840  0.5202
  403MPD2    H2 6023   0.292   1.411  12.956  0.8797  0.0651 -0.3353
  403MPD2    H3 6024   0.322   1.635  13.041  0.4806 -0.2202 -0.5208
  403MPD2     N 6025   0.528   1.495  13.415  0.5114 -0.3637  0.1754
  403MPD2    H5 6026   0.567   1.407  13.449 -0.1774 -0.6322  0.2797
  403MPD2    N1 6027   0.338   1.190  13.085  0.8119  0.0963  0.0860
  403MPD2    H7 6028   0.296   1.190  12.993  2.4734  1.5697 -0.6656
  404TMC3    C1 6029   0.315   0.956  13.071 -0.1902 -0.7348 -0.4609
  404TMC3    C2 6030   0.260   0.865  13.148 -0.9945  0.2368  0.6400
  404TMC3    C3 6031   0.154   0.800  13.099 -0.9491 -0.4396  0.6360
  404TMC3    C4 6032   0.287   0.969  12.945 -0.0725  0.1891 -0.1992
  404TMC3    C5 6033   0.179   0.896  12.891  0.2371 -0.3347 -0.1824
  404TMC3    C6 6034   0.113   0.807  12.973 -0.1268  0.0531  0.2836
  404TMC3     C 6035   0.365   1.068  13.144  0.1234 -0.4434  0.0825
  404TMC3     O 6036   0.393   1.048  13.261  0.1811  0.3615 -0.0991
  404TMC3     H 6037   0.285   0.871  13.254 -0.2614 -0.3791  0.4993
  404TMC3    H1 6038   0.352   1.034  12.887 -0.0842 -0.2327 -0.6829
  404TMC3    H2 6039   0.029   0.744  12.946 -0.6149  1.0869 -0.6197
  404TMC3    C7 6040   0.163   0.915  12.749 -0.0746  0.2450  0.7210
  404TMC3    C8 6041   0.093   0.699  13.184 -0.2681 -0.0151 -0.2972
  404TMC3    O1 6042   0.258   0.975  12.699  0.5254  0.3471 -0.4026
  404TMC3    O2 6043   0.064   0.586  13.142  0.5813 -0.1183 -0.1948
  405MPD2     C 6044   0.866   1.875  14.399  0.1293 -0.5386 -0.3278
  405MPD2    C1 6045   0.843   1.799  14.286 -0.9489  0.4635 -0.2900
  405MPD2    C2 6046   0.801   1.874  14.169  0.2383 -0.5967 -0.3673
  405MPD2    C3 6047   0.786   2.011  14.176  0.5877  0.7110 -0.4961
  405MPD2    C4 6048   0.821   2.078  14.290  0.0194 -0.0123  0.1897
  405MPD2    C5 6049   0.853   2.009  14.402  0.2480 -0.6842 -0.6691
  405MPD2     H 6050   0.773   1.824  14.077 -3.2192 -1.2450  1.0730
  405MPD2    H1 6051   0.810   2.186  14.293  0.4625  0.0074  1.1258
  405MPD2    H2 6052   0.902   1.831  14.490 -0.6871  1.5455  1.0035
  405MPD2    H3 6053   0.857   2.060  14.498  0.5244  1.1329 -1.6611
  405MPD2     N 6054   0.701   2.067  14.071 -0.3383 -0.7710  0.2593
  405MPD2    H5 6055   0.663   2.008  13.998  0.6299 -2.3642  1.0491
  405MPD2    N1 6056   0.844   1.663  14.298 -0.4014  0.3149 -0.2212
  405MPD2    H7 6057   0.863   1.623  14.390 -1.4843  0.5145  0.0870
  406TMC3    C1 6058   0.350   2.324  13.998 -0.3973  0.1972  0.1900
  406TMC3    C2 6059   0.283   2.216  13.953  0.0636  0.0219 -0.2530
  406TMC3    C3 6060   0.356   2.105  13.923 -0.7303  0.6470  0.1586
  406TMC3    C4 6061   0.486   2.333  14.002 -0.1163 -0.0609 -0.0260
  406TMC3    C5 6062   0.551   2.219  13.981  0.2079 -0.2925  0.2668
  406TMC3    C6 6063   0.488   2.108  13.938  0.2310 -0.0720  0.4478
  406TMC3     C 6064   0.276   2.441  14.027 -0.2028 -0.1181  0.5600
  406TMC3     O 6065   0.332   2.533  13.975 -0.3534 -0.6202  0.0146
  406TMC3     H 6066   0.175   2.206  13.957  0.0915 -0.8332 -1.4267
  406TMC3    H1 6067   0.533   2.422  14.042  0.7812  0.5835 -2.5541
  406TMC3    H2 6068   0.547   2.023  13.907 -1.9637 -1.2536 -0.4540
  406TMC3    C7 6069   0.678   2.194  14.054 -0.5091 -0.2163  0.0207
  406TMC3    C8 6070   0.288   1.982  13.890 -0.1008 -0.1669 -0.1323
  406TMC3    O1 6071   0.745   2.291  14.091  0.3295  0.2903  0.1878
  406TMC3    O2 6072   0.209   1.971  13.800 -0.1136  0.0115  0.0992
  407MPD2     C 6073   3.250   2.740  10.136 -0.2398  0.4026 -0.0775
  407MPD2    C1 6074   3.190   2.854  10.099  0.0306  0.1403 -0.0359
  407MPD2    C2 6075   3.217   2.979  10.161 -0.1382  0.5897 -0.1553
  407MPD2    C3 6076   3.302   2.985  10.266  0.0847 -1.1423  0.1341
  407MPD2    C4 6077   3.372   2.868  10.296 -0.1604 -0.9328  0.6622
  407MPD2    C5 6078   3.343   2.750  10.232  0.4397 -0.6095 -0.4843
  407MPD2     H 6079   3.158   3.065  10.130 -1.8393 -0.7349 -0.5926
  407MPD2    H1 6080   3.441   2.871  10.380 -0.3261 -0.2700  0.7805
  407MPD2    H2 6081   3.237   2.646  10.083  1.0276  1.4212 -2.1796
  407MPD2    H3 6082   3.393   2.659  10.265 -0.6910  0.3865  4.0612
  407MPD2     N 6083   3.327   3.099  10.341 -1.1456 -0.1411  0.1699
  407MPD2    H5 6084   3.393   3.091  10.418  2.0717 -0.9696 -2.6797
  407MPD2    N1 6085   3.091   2.860  10.005 -0.5457  0.3508  0.2411
  407MPD2    H7 6086   3.033   2.943   9.998  0.9562  1.2851 -1.1154
  408TMC3    C1 6087   2.925   2.789   9.856  0.8815  0.1962  0.0990
  408TMC3    C2 6088   2.938   2.894   9.777  0.3549  0.7414 -0.3650
  408TMC3    C3 6089   2.872   2.891   9.653  0.3269  0.9301  0.3059
  408TMC3    C4 6090   2.846   2.682   9.817  0.4199 -0.0198  0.2228
  408TMC3    C5 6091   2.773   2.686   9.700 -0.1663  0.0529 -0.0267
  408TMC3    C6 6092   2.798   2.785   9.613  0.4162 -0.2789 -0.3590
  408TMC3     C 6093   3.040   2.751   9.940  0.6951  0.4241 -0.7723
  408TMC3     O 6094   3.067   2.629   9.941 -0.2229  0.9982  0.4034
  408TMC3     H 6095   2.999   2.978   9.808  3.0892 -1.9268  1.4342
  408TMC3    H1 6096   2.833   2.604   9.892  0.2788  0.7020  0.9426
  408TMC3    H2 6097   2.749   2.781   9.517  1.5903  0.8882 -1.0117
  408TMC3    C7 6098   2.687   2.579   9.658  0.2539 -0.0745 -0.0574
  408TMC3    C8 6099   2.852   3.011   9.576 -0.0883  0.2525  0.2654
  408TMC3    O1 6100   2.635   2.581   9.546 -0.2145 -0.2258  0.2226
  408TMC3    O2 6101   2.737   3.018   9.539  0.2315  0.1906  0.4253
  409MPD2     C 6102   1.834   3.760  17.222 -0.4899  0.2385 -0.3407
  409MPD2    C1 6103   1.936   3.817  17.293  0.4731  0.3246 -0.3052
  409MPD2    C2 6104   2.002   3.932  17.253 -0.1100  0.1590 -0.0997
  409MPD2    C3 6105   1.978   3.995  17.125 -0.3639  0.5576 -0.2154
  409MPD2    C4 6106   1.883   3.928  17.045 -0.6416 -0.1188 -0.0321
  409MPD2    C5 6107   1.805   3.824  17.100  0.4455  0.2310 -0.7657
  409MPD2     H 6108   2.087   3.963  17.313 -0.1024  1.7327 -0.9054
  409MPD2    H1 6109   1.851   3.963  16.947 -1.7692 -0.8728  0.0540
  409MPD2    H2 6110   1.778   3.673  17.256 -0.7267 -1.0765 -4.0007
  409MPD2    H3 6111   1.720   3.783  17.047  1.9039 -2.8402 -0.6991
  409MPD2     N 6112   2.033   4.119  17.087 -0.1780  0.0819 -0.1398
  409MPD2    H5 6113   2.019   4.140  16.989  0.5584  0.3182 -0.1915
  409MPD2    N1 6114   1.973   3.748  17.410 -0.0372  0.8839  0.2628
  409MPD2    H7 6115   2.036   3.798  17.472  0.4471  0.3368  0.2150
  410TMC3    C1 6116   2.167   4.314  17.125 -0.4023 -0.2677  0.5230
  410TMC3    C2 6117   2.243   4.371  17.226 -0.1898  0.8160  0.6205
  410TMC3    C3 6118   2.337   4.453  17.177  0.6037 -0.4131 -0.5138
  410TMC3    C4 6119   2.190   4.338  16.991 -0.3938  0.0900 -0.0838
  410TMC3    C5 6120   2.279   4.433  16.963  0.7586 -0.1652  0.5249
  410TMC3    C6 6121   2.354   4.502  17.055  0.4053 -0.3286  0.7885
  410TMC3     C 6122   2.078   4.213  17.175  0.5221  0.7820 -0.3352
  410TMC3     O 6123   2.061   4.211  17.298  0.1066  0.5881  0.9753
  410TMC3     H 6124   2.224   4.344  17.329  1.0387  0.7715  0.8369
  410TMC3    H1 6125   2.132   4.286  16.915 -0.7036  2.0910 -1.2156
  410TMC3    H2 6126   2.433   4.563  17.014 -0.1438 -0.0934  0.0827
  410TMC3    C7 6127   2.304   4.457  16.828 -0.3132 -0.2146  0.2756
  410TMC3    C8 6128   2.452   4.465  17.271 -0.4236 -0.4878  0.1848
  410TMC3    O1 6129   2.296   4.368  16.742  0.2156 -0.0833  0.1638
  410TMC3    O2 6130   2.463   4.373  17.350 -0.3322  0.1624 -0.1165
  411MPD2     C 6131   2.861   0.331  15.000  0.5666  0.6444  0.4170
  411MPD2    C1 6132   2.729   0.362  14.953 -0.3974  0.6437  0.2948
  411MPD2    C2 6133   2.639   0.262  14.916 -0.3665  0.3048  0.0540
  411MPD2    C3 6134   2.677   0.126  14.919 -0.4948  0.1852 -0.5424
  411MPD2    C4 6135   2.804   0.090  14.967  0.3798  1.1209 -0.2372
  411MPD2    C5 6136   2.887   0.198  15.011 -0.2281 -0.4295  0.0425
  411MPD2     H 6137   2.540   0.286  14.878 -0.0302 -0.1900 -1.1213
  411MPD2    H1 6138   2.838   4.710  14.983  0.8915  0.8410 -3.0676
  411MPD2    H2 6139   2.944   0.394  15.028  0.6816  0.7164 -0.0935
  411MPD2    H3 6140   2.980   0.171  15.058 -0.2710 -0.7229 -0.0415
  411MPD2     N 6141   2.593   0.013  14.889  0.1156 -0.3345  0.0460
  411MPD2    H5 6142   2.634   4.642  14.880 -0.0274 -0.3836 -0.0872
  411MPD2    N1 6143   2.701   0.497  14.923 -0.3514  0.2501 -0.1652
  411MPD2    H7 6144   2.616   0.521  14.873 -0.7526 -2.5890 -0.8529
  412TMC3    C1 6145   2.410   4.630  14.788  0.5689  0.4396  0.4325
  412TMC3    C2 6146   2.296   4.582  14.836 -0.2877  0.1472 -0.5916
  412TMC3    C3 6147   2.246   4.483  14.758  0.5899  0.3419 -0.7326
  412TMC3    C4 6148   2.474   4.593  14.676 -0.1320 -0.0592 -0.8049
  412TMC3    C5 6149   2.413   4.501  14.595  0.9143 -0.8517  0.4292
  412TMC3    C6 6150   2.302   4.435  14.647  0.0420  0.0245  0.1937
  412TMC3     C 6151   2.459   0.025  14.862  0.1851  0.3931 -0.3211
  412TMC3     O 6152   2.376   0.100  14.915 -0.3809  0.1886 -0.7876
  412TMC3     H 6153   2.245   4.618  14.924 -0.7976  1.1467 -1.2888
  412TMC3    H1 6154   2.546   4.662  14.633  1.0251 -1.5194 -1.1924
  412TMC3    H2 6155   2.250   4.355  14.595  0.1617 -0.6708  1.1377
  412TMC3    C7 6156   2.372   4.558  14.464  0.0153  0.5108  0.3734
  412TMC3    C8 6157   2.098   4.483  14.748 -0.2255 -0.1210 -0.2966
  412TMC3    O1 6158   2.256   4.539  14.429  0.2555 -0.8068  0.1700
  412TMC3    O2 6159   2.026   4.465  14.842  0.1139  0.0455  0.3542
  413MPD2     C 6160   4.211   3.373  15.497 -0.2089 -0.5328  0.4184
  413MPD2    C1 6161   4.218   3.378  15.355  0.6179  0.3581  0.7302
  413MPD2    C2 6162   4.310   3.295  15.291  0.6246  0.2890 -0.0265
  413MPD2    C3 6163   4.399   3.216  15.366 -0.3208 -0.6673 -0.9519
  413MPD2    C4 6164   4.389   3.222  15.504  0.5924  0.2274 -0.0227
  413MPD2    C5 6165   4.308   3.298  15.568  0.0887 -0.5767 -0.3221
  413MPD2     H 6166   4.311   3.286  15.183 -1.6769  0.6923 -0.0758
  413MPD2    H1 6167   4.462   3.175  15.569 -0.1700 -1.6905 -0.5464
  413MPD2    H2 6168   4.145   3.438  15.552 -0.5670 -0.3249 -0.2629
  413MPD2    H3 6169   4.315   3.296  15.677 -0.9028 -0.6686 -0.2641
  413MPD2     N 6170   4.489   3.125  15.299 -0.0285 -0.0539 -0.2327
  413MPD2    H5 6171   4.488   3.116  15.198 -1.3224 -0.1855 -0.2078
  413MPD2    N1 6172   4.123   3.460  15.295  0.4103 -0.2729  0.5198
  413MPD2    H7 6173   4.061   3.508  15.359  1.6340  0.9194  0.8058
  414TMC3    C1 6174   4.663   2.962  15.270  0.5487 -0.0680 -0.5673
  414TMC3    C2 6175   0.031   2.880  15.323  0.3689  0.1756  0.1210
  414TMC3    C3 6176   0.096   2.788  15.245  0.4336  0.2171 -0.4952
  414TMC3    C4 6177   4.642   2.962  15.137  0.7428 -0.1053  0.0127
  414TMC3    C5 6178   4.720   2.885  15.051  0.2976  0.5277  0.0028
  414TMC3    C6 6179   0.084   2.788  15.107 -0.5778 -0.5714  0.3923
  414TMC3     C 6180   4.575   3.035  15.359  0.7572  0.2788 -0.5113
  414TMC3     O 6181   4.569   3.003  15.479  0.8325 -0.3544  0.1380
  414TMC3     H 6182   0.052   2.876  15.429  0.2307 -0.3955  0.1307
  414TMC3    H1 6183   4.556   3.017  15.099  1.1865 -1.7322 -3.2714
  414TMC3    H2 6184   0.134   2.711  15.050  1.3743  0.1818  1.0906
  414TMC3    C7 6185   0.065   2.946  14.939 -0.1274 -0.2683 -1.3966
  414TMC3    C8 6186   0.214   2.713  15.296  0.2887  0.0425  0.1897
  414TMC3    O1 6187   0.147   3.032  14.970  0.0164 -0.0313 -0.8102
  414TMC3    O2 6188   0.249   2.611  15.243  0.3365  0.2980  0.5609
  415TMC3    C1 6189   0.039   0.441  10.119  0.5533  0.1079  0.3077
  415TMC3    C2 6190   0.108   0.539  10.045 -0.6708  0.2359  1.3291
  415TMC3    C3 6191   0.111   0.519   9.909  0.1762  0.1941  0.3509
  415TMC3    C4 6192   4.676   0.347  10.058  0.1928  0.0039  0.2315
  415TMC3    C5 6193   4.678   0.332   9.919  0.1394 -0.4257  0.1962
  415TMC3    C6 6194   0.037   0.422   9.847 -0.7083  0.2585  0.1820
  415TMC3     C 6195   0.050   0.443  10.266  0.7048 -0.0267 -0.3023
  415TMC3     O 6196   4.716   0.351  10.326 -0.1185 -0.1424  0.6015
  415TMC3     H 6197   0.182   0.603  10.091  0.1739  0.0360  0.2341
  415TMC3    H1 6198   4.615   0.283  10.120 -0.7076  2.2547  1.6727
  415TMC3    H2 6199   0.046   0.400   9.742 -2.8870  1.5835 -0.2743
  415TMC3    C7 6200   4.621   0.211   9.856 -0.3304  0.0881 -0.0641
  415TMC3    C8 6201   0.165   0.618   9.814 -0.2972  0.0088  0.1337
  415TMC3    O1 6202   4.606   0.214   9.739  0.0356  0.1819 -0.2956
  415TMC3    O2 6203   0.108   0.607   9.704  0.0654 -0.5222 -0.5389
  416MPD2     C 6204   2.005   4.712  11.248  0.1693 -0.0977  0.0771
  416MPD2    C1 6205   1.965   4.677  11.379 -0.2968  0.7073  0.0458
  416MPD2    C2 6206   1.986   4.542  11.410 -0.5524 -0.9093 -0.1219
  416MPD2    C3 6207   2.053   4.453  11.325 -0.1127 -0.2140 -0.6700
  416MPD2    C4 6208   2.084   4.490  11.203  0.0546 -0.4322 -0.3774
  416MPD2    C5 6209   2.054   4.612  11.160  0.3386 -0.2033  0.3070
  416MPD2     H 6210   1.952   4.507  11.507 -0.5223  0.7595  0.4867
  416MPD2    H1 6211   2.110   4.421  11.123 -2.2667 -1.6067 -0.1271
  416MPD2    H2 6212   2.008   0.094  11.214 -4.1035 -0.6729 -2.0189
  416MPD2    H3 6213   2.074   4.638  11.056 -1.9300 -2.5575 -0.7202
  416MPD2     N 6214   2.075   4.317  11.361 -0.3854  0.2348  0.0556
  416MPD2    H5 6215   2.103   4.254  11.288  0.4614  1.1688 -0.4280
  416MPD2    N1 6216   1.922   0.054  11.464  0.0127 -0.0949 -0.3425
  416MPD2    H7 6217   1.917   0.145  11.421  1.7185  0.5485  0.8069
  417TMC3    C1 6218   1.825   0.146  11.666 -0.1486 -0.1866 -0.3164
  417TMC3    C2 6219   1.835   0.165  11.799  0.3323  0.7510  0.7043
  417TMC3    C3 6220   1.780   0.272  11.865  0.1732  0.2287 -0.1509
  417TMC3    C4 6221   1.751   0.231  11.587 -0.0820  0.2142 -0.5872
  417TMC3    C5 6222   1.702   0.338  11.658  0.4701 -0.0264 -0.3577
  417TMC3    C6 6223   1.713   0.359  11.787  0.1745 -0.2256 -0.7782
  417TMC3     C 6224   1.902   0.036  11.600 -0.0301 -0.2732  0.1785
  417TMC3     O 6225   1.943   4.661  11.670  0.3114  0.4424 -0.0461
  417TMC3     H 6226   1.904   0.096  11.848  0.3851 -0.9476 -1.7671
  417TMC3    H1 6227   1.714   0.198  11.490  0.8800 -0.7456 -0.6270
  417TMC3    H2 6228   1.674   0.449  11.834  0.2404  0.0218 -1.1924
  417TMC3    C7 6229   1.612   0.420  11.576  0.5021  0.3862 -0.3765
  417TMC3    C8 6230   1.803   0.315  12.003 -0.3551  0.1254  0.0376
  417TMC3    O1 6231   1.625   0.413  11.458  0.6647  0.3747 -0.2111
  417TMC3    O2 6232   1.729   0.403  12.048  0.3235  0.0487  0.5291
  418TMC3    C1 6233   0.797   0.955   1.061  0.0946  0.5714 -0.3471
  418TMC3    C2 6234   0.681   0.942   0.996 -0.6038 -0.2591  0.5330
  418TMC3    C3 6235   0.598   1.049   0.982  1.3182 -0.1580 -0.5558
  418TMC3    C4 6236   0.826   1.075   1.123  0.2200 -1.3116  0.0948
  418TMC3    C5 6237   0.730   1.174   1.121  0.4313 -0.4063  0.1663
  418TMC3    C6 6238   0.621   1.171   1.043 -0.0623  0.4723  0.7716
  418TMC3     C 6239   0.871   0.833   1.093  0.1331 -0.6697  0.0909
  418TMC3     O 6240   0.820   0.728   1.065  0.4431  0.2284 -0.3831
  418TMC3     H 6241   0.669   0.855   0.932 -2.0847  2.3791 -2.7528
  418TMC3    H1 6242   0.911   1.089   1.190 -0.8676  0.3413  1.1325
  418TMC3    H2 6243   0.549   1.252   1.055 -0.2874  0.0681  2.1448
  418TMC3    C7 6244   0.686   1.234   1.247 -0.0109  0.8816  0.0323
  418TMC3    C8 6245   0.467   1.020   0.928 -0.0620 -0.9467 -0.3089
  418TMC3    O1 6246   0.571   1.272   1.267 -0.8722  0.0288  0.6111
  418TMC3    O2 6247   0.386   1.113   0.914  0.0750  0.1012 -0.0619
  419MPD2     C 6248   4.182   4.215  12.243  0.6072 -0.2818  0.2281
  419MPD2    C1 6249   4.044   4.246  12.235 -0.2207 -0.5231  0.2955
  419MPD2    C2 6250   3.976   4.237  12.352 -0.1568 -0.7500 -0.0324
  419MPD2    C3 6251   4.023   4.203  12.473 -0.2958 -0.0658 -0.2870
  419MPD2    C4 6252   4.155   4.152  12.481  0.3765  0.0969 -0.1777
  419MPD2    C5 6253   4.236   4.173  12.367  0.5115 -0.4353  0.4120
  419MPD2     H 6254   3.870   4.261  12.342 -0.5501 -2.2419  0.4580
  419MPD2    H1 6255   4.200   4.116  12.572 -2.0453 -3.0889 -0.2496
  419MPD2    H2 6256   4.253   4.225  12.162  0.9738  0.0384  0.5896
  419MPD2    H3 6257   4.342   4.152  12.376  0.7531  0.8112  0.4836
  419MPD2     N 6258   3.944   4.210  12.591  0.0073 -0.1622 -0.0670
  419MPD2    H5 6259   3.865   4.273  12.582 -0.6261 -0.9919 -0.3166
  419MPD2    N1 6260   3.983   4.300  12.117  0.3139  0.0465  0.0618
  419MPD2    H7 6261   3.882   4.316  12.113  0.1568 -1.1175 -0.8268
  420TMC3    C1 6262   3.869   4.212  12.804  0.0427  0.3617 -0.8523
  420TMC3    C2 6263   3.754   4.256  12.750 -0.3475  0.3358  0.7087
  420TMC3    C3 6264   3.668   4.321  12.836  0.0189  0.4792  0.6895
  420TMC3    C4 6265   3.897   4.224  12.935  0.4382  0.4882  0.2963
  420TMC3    C5 6266   3.805   4.287  13.010 -0.3418  0.3705  0.4407
  420TMC3    C6 6267   3.693   4.336  12.966 -0.0413 -0.1914 -0.4308
  420TMC3     C 6268   3.977   4.171  12.718 -0.7493  0.0431  0.3759
  420TMC3     O 6269   4.086   4.135  12.762  0.1979  0.0949 -0.1512
  420TMC3     H 6270   3.726   4.244  12.647 -0.1347  2.2789  0.4143
  420TMC3    H1 6271   3.993   4.184  12.966 -0.1259  1.0231  2.7385
  420TMC3    H2 6272   3.613   4.358  13.036 -0.8922  0.7621 -1.7013
  420TMC3    C7 6273   3.841   4.334  13.147  0.0179 -0.4807 -0.1545
  420TMC3    C8 6274   3.563   4.409  12.779  0.6904 -0.0530 -0.2802
  420TMC3    O1 6275   3.755   4.377  13.222 -0.2108 -0.7682  0.1459
  420TMC3    O2 6276   3.556   4.414  12.657  0.1198  0.0202  0.2893
  421TMC3    C1 6277   0.647   1.599  13.580  0.4401 -0.9994  0.3463
  421TMC3    C2 6278   0.660   1.705  13.668  1.0701  0.1807 -0.2328
  421TMC3    C3 6279   0.762   1.695  13.757  0.5268 -1.0786 -0.4070
  421TMC3    C4 6280   0.734   1.491  13.585  0.2350  0.4515 -0.5220
  421TMC3    C5 6281   0.821   1.478  13.691  0.1273 -0.1611  0.5304
  421TMC3    C6 6282   0.835   1.578  13.777 -0.5359 -0.8523  0.7416
  421TMC3     C 6283   0.549   1.615  13.479 -0.7458 -0.0949 -0.5726
  421TMC3     O 6284   0.502   1.725  13.461  0.2317 -0.2641 -0.3005
  421TMC3     H 6285   0.609   1.798  13.648  1.0988 -0.0780 -1.5199
  421TMC3    H1 6286   0.740   1.418  13.505 -1.0561 -1.3359  0.9897
  421TMC3    H2 6287   0.907   1.562  13.856  1.4715 -0.9365 -1.0804
  421TMC3    C7 6288   0.929   1.379  13.687  0.1435  0.4928  0.2344
  421TMC3    C8 6289   0.806   1.816  13.818 -0.0349 -0.2455 -0.1518
  421TMC3    O1 6290   1.018   1.390  13.766  0.3393  0.0890  0.2051
  421TMC3    O2 6291   0.736   1.917  13.800 -0.1842 -0.1605  0.3682
  422TMC3    C1 6292   2.752   2.586  12.839 -0.5408  0.6833 -1.0262
  422TMC3    C2 6293   2.700   2.713  12.845  0.3136  0.6500 -0.3152
  422TMC3    C3 6294   2.590   2.738  12.914  0.2825 -0.4234  0.4086
  422TMC3    C4 6295   2.690   2.486  12.900  0.3716 -0.2439  0.1785
  422TMC3    C5 6296   2.569   2.509  12.960  0.4432 -0.5919 -1.0580
  422TMC3    C6 6297   2.518   2.635  12.976  0.7218  0.4731  0.4636
  422TMC3     C 6298   2.844   2.546  12.742  0.3302  0.3454 -0.1514
  422TMC3     O 6299   2.860   2.628  12.648 -0.5874 -0.0346 -0.1847
  422TMC3     H 6300   2.757   2.792  12.797 -0.0221  0.8438 -0.4018
  422TMC3    H1 6301   2.710   2.382  12.878  0.3245 -0.1829 -0.1548
  422TMC3    H2 6302   2.431   2.649  13.040  0.1368  1.7794 -0.6202
  422TMC3    C7 6303   2.478   2.393  12.971 -0.1454 -0.0561 -0.2802
  422TMC3    C8 6304   2.569   2.869  12.955 -0.0089  0.0207  0.6212
  422TMC3    O1 6305   2.530   2.287  13.005  0.3911  0.0658  0.3115
  422TMC3    O2 6306   2.666   2.948  12.953 -0.3751  0.0267 -0.4184
  423MPD2     C 6307   4.582   4.031   0.753  0.1231  0.2006 -0.2451
  423MPD2    C1 6308   4.462   3.981   0.719  0.1725 -0.1478 -0.0011
  423MPD2    C2 6309   4.436   3.940   0.592  0.6778 -0.0320  0.4460
  423MPD2    C3 6310   4.539   3.937   0.494  0.1881 -0.1524 -0.7178
  423MPD2    C4 6311   4.658   3.998   0.533  0.9531  0.5942  0.1340
  423MPD2    C5 6312   4.682   4.040   0.662 -0.2328  0.8653 -0.5877
  423MPD2     H 6313   4.337   3.904   0.565  1.4905 -1.2166 -0.9418
  423MPD2    H1 6314   0.013   4.010   0.457  0.4530  0.3487 -0.4048
  423MPD2    H2 6315   4.603   4.071   0.851  0.8072 -0.6199 -0.0544
  423MPD2    H3 6316   0.055   4.086   0.689  0.5147 -0.8702 -0.2301
  423MPD2     N 6317   4.530   3.878   0.364  0.6527  0.1794  0.5315
  423MPD2    H5 6318   4.599   3.911   0.298 -1.9319  0.3869 -2.0461
  423MPD2    N1 6319   4.365   3.964   0.825  0.4124  0.2604 -0.1490
  423MPD2    H7 6320   4.403   3.981   0.917  1.3132  0.5363 -0.5679
  424TMC3    C1 6321   4.174   3.884   0.929 -0.6020  0.1736  0.1266
  424TMC3    C2 6322   4.246   3.840   1.039  0.1757  0.7157  0.6344
  424TMC3    C3 6323   4.170   3.790   1.141 -0.0250  0.2889 -0.0000
  424TMC3    C4 6324   4.036   3.885   0.926  0.1098  0.3752 -0.3016
  424TMC3    C5 6325   3.970   3.839   1.034  0.8411 -0.0768  0.1726
  424TMC3    C6 6326   4.037   3.792   1.145  0.3275 -0.1426  0.3154
  424TMC3     C 6327   4.237   3.914   0.807 -0.4096  0.4943  0.3965
  424TMC3     O 6328   4.176   3.901   0.699 -0.4106 -0.4294 -0.1318
  424TMC3     H 6329   4.353   3.824   1.039  0.2627  1.3279 -2.4545
  424TMC3    H1 6330   3.980   3.931   0.845 -1.1218 -0.1267  0.2734
  424TMC3    H2 6331   3.988   3.744   1.228 -0.4774 -2.0235 -1.2681
  424TMC3    C7 6332   3.832   3.830   1.009 -0.4495 -0.6692 -0.2117
  424TMC3    C8 6333   4.247   3.767   1.266  0.7074 -0.1331 -0.1625
  424TMC3    O1 6334   3.794   3.841   0.891  0.6133 -0.3078 -0.4298
  424TMC3    O2 6335   4.353   3.827   1.276 -0.8731 -0.0879  0.5241
  425MPD2     C 6336   3.222   2.925   0.061 -0.0844  0.3329  0.3805
  425MPD2    C1 6337   3.154   2.811   0.009 -0.8592 -0.7292 -0.1930
  425MPD2    C2 6338   3.024   2.785   0.054 -0.3377  0.1678 -0.1237
  425MPD2    C3 6339   2.965   2.879   0.132 -0.3397  0.1619  0.2540
  425MPD2    C4 6340   3.028   2.994   0.167  0.1365 -0.2901 -0.2863
  425MPD2    C5 6341   3.155   3.022   0.129 -0.1559 -0.4717 -0.2506
  425MPD2     H 6342   2.966   2.702   0.016  1.6536 -0.1484 -2.4534
  425MPD2    H1 6343   2.985   3.062   0.240  1.0574  1.1082 -1.0495
  425MPD2    H2 6344   3.322   2.941   0.023  0.2147 -1.2626  0.4849
  425MPD2    H3 6345   3.215   3.107   0.160  0.5585 -0.2208 -2.3361
  425MPD2     N 6346   2.829   2.857   0.174 -0.0928  0.1929 -0.3697
  425MPD2    H5 6347   2.792   2.764   0.154  0.9277 -0.5012  0.9755
  425MPD2    N1 6348   3.231   2.725  17.608 -0.4075 -0.1481  0.3369
  425MPD2    H7 6349   3.331   2.743  17.604 -0.3182 -0.7737 -0.2456
  426TMC3    C1 6350   3.284   2.531  17.471 -0.1676  0.5460  0.5930
  426TMC3    C2 6351   3.274   2.481  17.346  0.6693 -1.4763 -0.2848
  426TMC3    C3 6352   3.363   2.377  17.308 -0.2375  0.0586 -0.1059
  426TMC3    C4 6353   3.382   2.489  17.564  0.0901  0.3103  0.2806
  426TMC3    C5 6354   3.475   2.402  17.515  0.5516  0.9293  0.0588
  426TMC3    C6 6355   3.474   2.353  17.388 -0.1040  0.0995 -0.2584
  426TMC3     C 6356   3.180   2.625  17.527  0.4398  0.3618 -0.4663
  426TMC3     O 6357   3.062   2.607  17.506  0.2063  0.4630  0.8490
  426TMC3     H 6358   3.189   2.521  17.294 -1.5808 -2.0013  2.9738
  426TMC3    H1 6359   3.389   2.540  17.659 -0.8251  2.9298 -1.0458
  426TMC3    H2 6360   3.544   2.275  17.361  0.4599  0.2405  0.7922
  426TMC3    C7 6361   3.546   2.312  17.602  0.5361  0.0260  0.4567
  426TMC3    C8 6362   3.383   2.359  17.167  0.0806 -0.9184  1.3209
  426TMC3    O1 6363   3.651   2.266  17.558  0.0387  0.7597  0.2437
  426TMC3    O2 6364   3.491   2.329  17.125 -0.3477  0.8479  0.5221
  427MPD2     C 6365   1.650   0.684  15.455 -0.6700 -0.1684 -0.0178
  427MPD2    C1 6366   1.639   0.543  15.444 -0.2090  0.2095 -0.5992
  427MPD2    C2 6367   1.508   0.490  15.433 -0.1107  0.4473 -0.1044
  427MPD2    C3 6368   1.401   0.575  15.402 -0.2012 -0.9989 -0.0738
  427MPD2    C4 6369   1.415   0.711  15.406 -1.0377 -0.3825  0.6559
  427MPD2    C5 6370   1.542   0.762  15.439  0.3728 -0.1257 -0.6060
  427MPD2     H 6371   1.498   0.382  15.434  0.4914  0.3889 -0.3634
  427MPD2    H1 6372   1.335   0.780  15.383  0.3656  0.8194 -0.6864
  427MPD2    H2 6373   1.746   0.732  15.474 -1.3686  0.9749  0.5923
  427MPD2    H3 6374   1.550   0.870  15.440  2.6788 -0.3005 -0.8772
  427MPD2     N 6375   1.271   0.524  15.377 -0.0451 -0.2289 -0.1404
  427MPD2    H5 6376   1.194   0.589  15.364  0.4877  0.5798  0.7823
  427MPD2    N1 6377   1.750   0.455  15.447  0.5017 -0.6298  0.6069
  427MPD2    H7 6378   1.727   0.360  15.419 -0.1482 -0.0970 -0.6695
  428TMC3    C1 6379   1.967   0.366  15.447  0.2061  0.8895  0.6440
  428TMC3    C2 6380   1.940   0.266  15.536 -0.2597 -0.6522  0.5114
  428TMC3    C3 6381   2.040   0.182  15.570 -0.3264 -0.7002 -0.3224
  428TMC3    C4 6382   2.095   0.383  15.415  0.5465  0.4321 -0.5102
  428TMC3    C5 6383   2.198   0.298  15.449 -0.0803 -0.0114 -0.0793
  428TMC3    C6 6384   2.165   0.200  15.538 -0.3428 -1.1756  1.0219
  428TMC3     C 6385   1.887   0.483  15.451  0.6157 -0.6654  0.0052
  428TMC3     O 6386   1.941   0.587  15.421 -0.7087 -0.2358 -0.3037
  428TMC3     H 6387   1.836   0.264  15.567 -0.4121  2.0553  0.1516
  428TMC3    H1 6388   2.122   0.464  15.348  0.4312  0.5271 -0.4425
  428TMC3    H2 6389   2.236   0.128  15.576 -1.1635 -1.8415  1.2984
  428TMC3    C7 6390   2.329   0.353  15.484  1.2477  0.6888  0.1012
  428TMC3    C8 6391   2.005   0.070  15.652 -0.4291 -0.3180  0.3921
  428TMC3    O1 6392   2.371   0.314  15.587  0.3752 -0.0102  0.2785
  428TMC3    O2 6393   2.094   4.718  15.696  0.3771  0.2013  0.0191
  429MPD2     C 6394   2.380   0.134  17.644  0.2332  0.2542  0.4389
  429MPD2    C1 6395   2.518   0.127  17.682  0.5998  0.2257  0.1582
  429MPD2    C2 6396   2.600   0.230  17.646  0.5235 -0.0600 -0.0995
  429MPD2    C3 6397   2.553   0.353  17.600  0.7876 -0.2613 -0.0716
  429MPD2    C4 6398   2.414   0.362  17.579 -0.2960 -0.0948  0.7389
  429MPD2    C5 6399   2.334   0.252  17.594  0.5999  0.5830 -0.3493
  429MPD2     H 6400   2.700   0.234   0.001  1.2153 -1.9137 -1.5839
  429MPD2    H1 6401   2.356   0.450  17.554  0.3522  0.0179 -0.3664
  429MPD2    H2 6402   2.317   0.046  17.644  2.3623 -1.2840  1.2142
  429MPD2    H3 6403   2.227   0.267  17.581  0.6771  1.1408 -0.3270
  429MPD2     N 6404   2.633   0.457  17.576 -0.5093  0.0344 -0.2254
  429MPD2    H5 6405   2.727   0.456  17.614 -0.1303  0.8506 -1.1297
  429MPD2    N1 6406   2.577   0.014   0.055  0.7374  0.5458  0.0834
  429MPD2    H7 6407   2.669   0.021   0.096  0.1007 -0.3051  1.6608
  430TMC3    C1 6408   2.711   0.640  17.458  0.0955  0.2171 -0.1027
  430TMC3    C2 6409   2.683   0.742  17.365  0.3374  0.3162  0.2843
  430TMC3    C3 6410   2.775   0.797  17.282 -0.0147  0.3134  0.6392
  430TMC3    C4 6411   2.840   0.594  17.467 -0.9013  0.2629  1.1100
  430TMC3    C5 6412   2.933   0.659  17.394  0.2519 -0.0044  0.1039
  430TMC3    C6 6413   2.901   0.753  17.297 -0.1491  0.5555  0.7551
  430TMC3     C 6414   2.596   0.556  17.490 -0.1462  0.9490 -0.2539
  430TMC3     O 6415   2.488   0.578  17.431 -0.4073  0.2064  0.4392
  430TMC3     H 6416   2.580   0.764  17.341  0.3545  0.7345  0.6034
  430TMC3    H1 6417   2.881   0.506  17.515  2.3951  1.7696  1.0807
  430TMC3    H2 6418   2.973   0.789  17.224  0.9920  1.4558  2.3303
  430TMC3    C7 6419   3.045   0.580  17.363  0.2820  0.2937 -0.4057
  430TMC3    C8 6420   2.729   0.809  17.144  0.6586  0.5712  0.4344
  430TMC3    O1 6421   3.033   0.459  17.358 -0.0760 -0.1698 -0.3212
  430TMC3    O2 6422   2.615   0.774  17.123 -0.4114  0.0657 -0.2915
  431MPD2     C 6423   3.768   0.224  12.347 -0.6043  1.1215  0.2233
  431MPD2    C1 6424   3.839   0.267  12.235 -0.1622 -0.6667  0.8267
  431MPD2    C2 6425   3.833   0.186  12.119 -0.1140 -0.0576 -0.3950
  431MPD2    C3 6426   3.766   0.069  12.122  0.4409 -0.1953  0.2786
  431MPD2    C4 6427   3.697   0.030  12.235  0.0805 -0.3099  0.1708
  431MPD2    C5 6428   3.708   0.102  12.347 -1.0513 -0.3786  0.2374
  431MPD2     H 6429   3.879   0.228  12.030 -1.9307  0.6896 -0.9876
  431MPD2    H1 6430   3.660   4.650  12.235  0.2330 -0.3564  1.8067
  431MPD2    H2 6431   3.770   0.266  12.447  1.5503 -0.8848  1.0299
  431MPD2    H3 6432   3.653   0.064  12.433 -0.7825 -0.6905  0.2722
  431MPD2     N 6433   3.784   4.694  12.027 -0.5601 -0.4037  0.1939
  431MPD2    H5 6434   3.754   4.600  12.051 -1.7794  0.2042  1.0370
  431MPD2    N1 6435   3.919   0.376  12.223  0.1398 -0.5816 -0.3765
  431MPD2    H7 6436   3.967   0.398  12.137 -0.1420  3.0697  0.3860
  432TMC3    C1 6437   3.876   4.580  11.848  0.5497  0.1212  0.1835
  432TMC3    C2 6438   3.935   4.589  11.723 -0.4615 -0.4790  0.1481
  432TMC3    C3 6439   4.018   4.481  11.683  0.0042 -0.2325 -0.1596
  432TMC3    C4 6440   3.888   4.469  11.926 -0.0510 -0.0991 -0.3034
  432TMC3    C5 6441   3.968   4.361  11.886  1.2003 -0.5970 -0.0544
  432TMC3    C6 6442   4.035   4.372  11.766 -0.5206 -0.2567  0.3143
  432TMC3     C 6443   3.837   4.708  11.901  0.1481 -0.3768 -0.5463
  432TMC3     O 6444   3.876   0.089  11.841  0.0860 -0.1803  0.2096
  432TMC3     H 6445   3.909   4.666  11.652  0.1706 -1.3957 -1.0627
  432TMC3    H1 6446   3.847   4.467  12.026 -1.4629 -0.4466 -0.8801
  432TMC3    H2 6447   4.095   4.289  11.729  0.0476 -0.0916  0.8720
  432TMC3    C7 6448   4.034   4.279  11.989 -0.2176 -0.4978 -0.2963
  432TMC3    C8 6449   4.116   4.500  11.581 -0.1680  0.5756 -0.2250
  432TMC3    O1 6450   4.135   4.221  11.947  0.0230  0.7434 -0.2498
  432TMC3    O2 6451   4.085   4.578  11.491 -0.0355 -0.0167 -0.1475
  433MPD2     C 6452   3.017   4.090  11.208 -0.3564 -0.0759 -0.2614
  433MPD2    C1 6453   2.977   3.983  11.280  0.3467  0.4619  0.0871
  433MPD2    C2 6454   3.009   3.975  11.415 -0.0985  0.0704  0.6818
  433MPD2    C3 6455   3.085   4.080  11.469  0.4865  0.2359 -0.3257
  433MPD2    C4 6456   3.119   4.190  11.394 -0.0787  0.2205  0.6025
  433MPD2    C5 6457   3.081   4.192  11.264  0.4308 -0.6629 -0.2127
  433MPD2     H 6458   2.973   3.892  11.475 -2.1997 -0.2060 -0.9482
  433MPD2    H1 6459   3.177   4.270  11.438  1.1008  0.7364 -1.8480
  433MPD2    H2 6460   2.986   4.106  11.105  0.1441 -0.5674 -0.4866
  433MPD2    H3 6461   3.108   4.281  11.208 -1.3715 -0.1599 -0.2850
  433MPD2     N 6462   3.117   4.068  11.612  0.3569  0.5822 -0.2984
  433MPD2    H5 6463   3.079   3.993  11.669  1.0210 -0.9017 -1.8171
  433MPD2    N1 6464   2.896   3.891  11.206 -0.1645  0.0608 -0.4684
  433MPD2    H7 6465   2.902   3.892  11.105 -0.2214 -2.4957 -0.4894
  434TMC3    C1 6466   2.779   3.685  11.181 -0.0866 -0.5928 -0.4603
  434TMC3    C2 6467   2.732   3.570  11.244  0.3329 -0.4101  0.9862
  434TMC3    C3 6468   2.733   3.447  11.181 -1.1165 -0.7778  0.0415
  434TMC3    C4 6469   2.839   3.673  11.059  0.1509  0.2879  0.7322
  434TMC3    C5 6470   2.839   3.547  11.002  0.0340 -0.8110 -0.3078
  434TMC3    C6 6471   2.787   3.431  11.059 -0.5566 -0.3603 -0.7484
  434TMC3     C 6472   2.805   3.804  11.264 -0.6905 -0.0839  0.6799
  434TMC3     O 6473   2.773   3.793  11.380  0.3761  0.1767  0.2518
  434TMC3     H 6474   2.687   3.575  11.342 -1.2716  1.7431  0.1280
  434TMC3    H1 6475   2.895   3.750  11.007  0.1052 -0.6444 -0.7207
  434TMC3    H2 6476   2.776   3.335  11.009 -0.8384 -1.5566  1.6266
  434TMC3    C7 6477   2.870   3.542  10.864 -0.0340 -0.4764 -0.2308
  434TMC3    C8 6478   2.763   3.342  11.270  0.1163 -0.2543 -0.3074
  434TMC3    O1 6479   2.846   3.648  10.804 -0.1128 -0.2626  1.0440
  434TMC3    O2 6480   2.799   3.382  11.378  0.4708 -0.2783 -1.1267
  435MPD2     C 6481   4.691   3.464  15.325  0.4930  0.3372 -0.2404
  435MPD2    C1 6482   4.667   3.497  15.456  0.2289 -0.2717 -0.2320
  435MPD2    C2 6483   0.048   3.473  15.544 -0.0534  0.2510 -0.6621
  435MPD2    C3 6484   0.163   3.411  15.498 -0.4310  0.5578  0.9239
  435MPD2    C4 6485   0.184   3.381  15.368  0.1740  0.6387 -0.6064
  435MPD2    C5 6486   0.087   3.413  15.280  0.6079 -0.0676  0.2919
  435MPD2     H 6487   0.038   3.510  15.645  1.5709 -1.1468  0.0013
  435MPD2    H1 6488   0.271   3.328  15.330  0.3939  1.0441 -0.6610
  435MPD2    H2 6489   4.612   3.488  15.255 -0.5168 -2.1942  0.0300
  435MPD2    H3 6490   0.109   3.412  15.174 -2.5427  2.4995 -0.3697
  435MPD2     N 6491   0.268   3.398  15.595  0.2299 -0.1115  0.2086
  435MPD2    H5 6492   0.257   3.429  15.691 -1.7652 -1.3111  0.3711
  435MPD2    N1 6493   4.539   3.557  15.484  0.3192 -0.3503  0.0030
  435MPD2    H7 6494   4.493   3.604  15.407  1.0964 -0.7113 -0.6784
  436TMC3    C1 6495   4.221   3.753  15.767 -0.1448  0.2267  0.2791
  436TMC3    C2 6496   4.314   3.658  15.746  0.0966 -0.4283 -0.0390
  436TMC3    C3 6497   4.372   3.645  15.623  0.1010  0.1149 -0.0777
  436TMC3    C4 6498   4.191   3.839  15.666 -0.5815 -0.0812  0.3949
  436TMC3    C5 6499   4.240   3.816  15.538  0.2651  0.0923  0.1019
  436TMC3    C6 6500   4.343   3.729  15.521 -0.1917  0.0202 -0.3542
  436TMC3     C 6501   4.165   3.760  15.901 -0.3785 -0.0532 -0.1899
  436TMC3     O 6502   4.161   3.657  15.969  0.4231 -0.2097  0.2979
  436TMC3     H 6503   4.351   3.591  15.823  2.2183 -1.3718 -1.8652
  436TMC3    H1 6504   4.112   3.913  15.679 -1.6875 -0.6738 -3.1675
  436TMC3    H2 6505   4.386   3.723  15.422 -1.0044  0.4902 -0.7338
  436TMC3    C7 6506   4.225   3.919  15.438 -0.4799 -0.0258  0.3610
  436TMC3    C8 6507   4.497   3.572  15.614 -0.0029  0.2814  0.0815
  436TMC3    O1 6508   4.262   3.893  15.327  0.4019  0.0657  0.4814
  436TMC3    O2 6509   4.532   3.507  15.712 -0.6735 -0.2034  0.1291
  437TMC3    C1 6510   3.583   0.452  12.643  0.2017 -0.0968  0.2197
  437TMC3    C2 6511   3.452   0.449  12.644  0.7730 -0.0678 -0.8675
  437TMC3    C3 6512   3.382   0.547  12.575 -0.9185  0.3195 -0.3173
  437TMC3    C4 6513   3.657   0.534  12.566  0.0221  0.4861  0.1764
  437TMC3    C5 6514   3.585   0.614  12.481  0.6209 -0.8890  0.4358
  437TMC3    C6 6515   3.446   0.627  12.487 -0.2311  0.2794  0.3489
  437TMC3     C 6516   3.647   0.358  12.742  0.2842  0.3124 -0.1707
  437TMC3     O 6517   3.581   0.303  12.828  0.2332  0.0601 -0.3822
  437TMC3     H 6518   3.402   0.381  12.712 -1.9702  2.4348 -0.3800
  437TMC3    H1 6519   3.765   0.539  12.560  0.0525  0.4244  0.6528
  437TMC3    H2 6520   3.401   0.708  12.430 -0.3272  1.6541  2.3782
  437TMC3    C7 6521   3.643   0.724  12.402 -0.1371 -0.3024 -0.0794
  437TMC3    C8 6522   3.240   0.547  12.572  0.6209 -0.4029  0.2300
  437TMC3    O1 6523   3.588   0.756  12.300 -0.0315  0.0039 -0.3303
  437TMC3    O2 6524   3.184   0.453  12.625 -0.1417  0.1623 -0.7933
  438MPD2     C 6525   0.628   1.473  16.960  0.7264  0.0823 -0.1341
  438MPD2    C1 6526   0.716   1.388  17.020  0.0855  0.1822 -0.4049
  438MPD2    C2 6527   0.694   1.356  17.148 -0.8162 -0.5496  0.5902
  438MPD2    C3 6528   0.594   1.419  17.222  0.1340  0.3233  0.4671
  438MPD2    C4 6529   0.512   1.510  17.164 -0.3831  0.4200  0.1934
  438MPD2    C5 6530   0.526   1.531  17.028 -0.0652 -0.1517  0.2626
  438MPD2     H 6531   0.753   1.273  17.185  1.5436  1.5283  1.4734
  438MPD2    H1 6532   0.430   1.552  17.221 -0.1823 -0.4170  1.0971
  438MPD2    H2 6533   0.644   1.507  16.858 -3.5354  1.2803 -0.4255
  438MPD2    H3 6534   0.458   1.596  16.975  0.2366  0.0990  0.1794
  438MPD2     N 6535   0.573   1.378  17.358 -0.2223 -0.3312 -0.3174
  438MPD2    H5 6536   0.484   1.404  17.399 -0.8221  2.0301 -3.1238
  438MPD2    N1 6537   0.822   1.324  16.962 -0.6786  0.6912 -0.1238
  438MPD2    H7 6538   0.883   1.280  17.030 -1.7323 -0.6254 -0.0373
  439TMC3    C1 6539   0.976   1.243  16.811 -0.1375 -0.5593  1.2224
  439TMC3    C2 6540   0.982   1.175  16.691  0.0874  0.1995 -0.5583
  439TMC3    C3 6541   1.098   1.110  16.670 -0.5683 -0.3376  0.0603
  439TMC3    C4 6542   1.072   1.239  16.904 -0.2406  0.5183 -0.4602
  439TMC3    C5 6543   1.184   1.167  16.873 -0.7059 -0.3512 -0.3758
  439TMC3    C6 6544   1.195   1.091  16.759  0.4858 -0.2653  0.9722
  439TMC3     C 6545   0.859   1.321  16.831 -0.1632 -0.1092 -0.1169
  439TMC3     O 6546   0.804   1.380  16.733 -0.4387 -0.0521  0.4099
  439TMC3     H 6547   0.899   1.187  16.624 -0.7059  0.8128  0.5291
  439TMC3    H1 6548   1.068   1.321  16.974 -0.1917  0.2743 -0.1710
  439TMC3    H2 6549   1.292   1.055  16.726 -0.4274 -0.8047 -1.1314
  439TMC3    C7 6550   1.287   1.154  16.971  0.9485 -0.8711 -0.6073
  439TMC3    C8 6551   1.145   1.077  16.535 -0.0143 -0.7295  0.0738
  439TMC3    O1 6552   1.393   1.104  16.943 -0.0084  0.7186  0.4073
  439TMC3    O2 6553   1.228   0.990  16.530  0.7729 -0.2495  0.4668
  440MPD2     C 6554   0.419   2.327  14.748 -0.5176 -0.2756 -0.0495
  440MPD2    C1 6555   0.361   2.347  14.873  0.1405 -0.1791 -0.1199
  440MPD2    C2 6556   0.441   2.342  14.987 -0.5955  0.3909  0.4190
  440MPD2    C3 6557   0.570   2.300  14.980  0.2164  0.9723  0.6527
  440MPD2    C4 6558   0.629   2.287  14.854  0.3969  0.2946 -0.3124
  440MPD2    C5 6559   0.553   2.299  14.746 -0.2036 -0.5385  0.2229
  440MPD2     H 6560   0.410   2.365  15.089 -0.5037  0.6878  0.3792
  440MPD2    H1 6561   0.734   2.263  14.839  0.1023 -0.5615 -0.9716
  440MPD2    H2 6562   0.363   2.348  14.657 -1.3302  0.4664  0.6172
  440MPD2    H3 6563   0.600   2.283  14.649  1.2517  1.3115  0.6401
  440MPD2     N 6564   0.641   2.282  15.097 -0.1716  0.9668 -0.6676
  440MPD2    H5 6565   0.594   2.295  15.186  2.3433  0.6833  0.7136
  440MPD2    N1 6566   0.224   2.380  14.891  0.3400  1.1585 -0.0952
  440MPD2    H7 6567   0.196   2.378  14.989  0.0652  0.7756 -0.1827
  441TMC3    C1 6568   0.804   2.204  15.234 -0.1609 -0.0974  0.2737
  441TMC3    C2 6569   0.775   2.306  15.314 -0.3322  0.1089 -0.5056
  441TMC3    C3 6570   0.771   2.281  15.447 -0.5079  0.1738 -0.2992
  441TMC3    C4 6571   0.810   2.074  15.286  0.2666  0.6233  0.1882
  441TMC3    C5 6572   0.786   2.057  15.421 -0.6890 -0.1313  0.1118
  441TMC3    C6 6573   0.773   2.162  15.510  0.4715  0.0798 -0.3855
  441TMC3     C 6574   0.764   2.220  15.099  0.4187 -0.2106 -0.0447
  441TMC3     O 6575   0.812   2.145  15.014  0.3926 -0.3388  0.4036
  441TMC3     H 6576   0.762   2.404  15.269 -1.5985  0.5634  0.8381
  441TMC3    H1 6577   0.836   1.991  15.222  1.6881 -0.6602  2.3973
  441TMC3    H2 6578   0.729   2.143  15.607  0.1645 -0.7381 -0.6884
  441TMC3    C7 6579   0.717   1.935  15.467  0.4803  0.1241 -0.3296
  441TMC3    C8 6580   0.726   2.383  15.532 -0.1615  0.2352  0.1500
  441TMC3    O1 6581   0.731   1.900  15.585 -0.6548  0.3808 -0.2087
  441TMC3    O2 6582   0.790   2.422  15.629  0.3066  0.0423  0.1124
  442MPD2     C 6583   3.306   2.698  16.488  0.4533 -0.0680  0.1215
  442MPD2    C1 6584   3.200   2.634  16.551 -0.9902  0.0901  0.4230
  442MPD2    C2 6585   3.145   2.528  16.478 -0.6956  0.5791 -0.3606
  442MPD2    C3 6586   3.202   2.492  16.352  0.3952 -0.1368 -0.0902
  442MPD2    C4 6587   3.311   2.554  16.304 -0.1688  0.7286 -0.1773
  442MPD2    C5 6588   3.364   2.661  16.374 -0.8822 -0.6096 -0.0551
  442MPD2     H 6589   3.058   2.473  16.512  0.1197  0.6847  1.9007
  442MPD2    H1 6590   3.346   2.532  16.203 -0.3529  1.8268 -0.4771
  442MPD2    H2 6591   3.346   2.788  16.534  0.8648  0.0326 -0.4407
  442MPD2    H3 6592   3.444   2.722  16.334 -1.3634 -0.3281 -0.5926
  442MPD2     N 6593   3.154   2.383  16.271  0.2193  0.4213  0.5130
  442MPD2    H5 6594   3.195   2.373  16.179  0.9237  2.7689  0.5790
  442MPD2    N1 6595   3.145   2.687  16.669  0.1502  0.1095  0.5202
  442MPD2    H7 6596   3.176   2.780  16.696  1.2273 -0.0122 -0.3437
  443TMC3    C1 6597   2.986   2.740  16.829 -0.0910 -0.1425  0.1907
  443TMC3    C2 6598   2.944   2.848  16.754  0.1466 -0.0774  0.0363
  443TMC3    C3 6599   2.815   2.891  16.770 -0.4043 -0.0028  0.1493
  443TMC3    C4 6600   2.907   2.683  16.924 -0.4457 -0.0944 -0.0543
  443TMC3    C5 6601   2.783   2.738  16.948  0.9782  0.0152 -0.2638
  443TMC3    C6 6602   2.732   2.839  16.867 -0.1266  0.3141 -0.1414
  443TMC3     C 6603   3.038   2.640  16.739 -0.1771  0.2961  0.4137
  443TMC3     O 6604   2.972   2.540  16.727  0.1507  0.0082  0.1580
  443TMC3     H 6605   2.996   2.877  16.664 -0.3499  1.6494  0.2908
  443TMC3    H1 6606   2.940   2.600  16.985 -0.3714  1.2732  1.7399
  443TMC3    H2 6607   2.625   2.852  16.863  0.0529  1.9424  0.1765
  443TMC3    C7 6608   2.685   2.658  17.022  0.3872  0.3979  0.5174
  443TMC3    C8 6609   2.752   2.882  16.635  0.4774  0.6054 -0.5764
  443TMC3    O1 6610   2.696   2.541  16.998  0.3091 -0.2609  0.0191
  443TMC3    O2 6611   2.826   2.844  16.543 -0.0244  0.1731  0.3805
  444MPD2     C 6612   3.112   2.017  17.570 -0.2721 -0.5885  0.2342
  444MPD2    C1 6613   3.065   1.976  17.440  0.1112  0.1891  0.8669
  444MPD2    C2 6614   3.153   1.977  17.335  0.2668  0.1773 -0.5549
  444MPD2    C3 6615   3.282   2.021  17.343 -0.4444 -0.5600 -0.6995
  444MPD2    C4 6616   3.329   2.046  17.468  0.1888  0.3083  0.3963
  444MPD2    C5 6617   3.245   2.045  17.580 -0.6396  1.1239 -0.8088
  444MPD2     H 6618   3.108   1.961  17.238 -2.1019  1.8758  0.2498
  444MPD2    H1 6619   3.435   2.062  17.487  0.6623 -1.2632 -0.8746
  444MPD2    H2 6620   3.048   2.009  17.657  0.1138  3.6132  0.8810
  444MPD2    H3 6621   3.286   2.061  17.678 -0.3102  3.1077 -1.2698
  444MPD2     N 6622   3.358   2.012  17.222 -0.1437  0.3157  0.8964
  444MPD2    H5 6623   3.294   1.991  17.146  0.8976 -0.8582  0.3601
  444MPD2    N1 6624   2.934   1.957  17.412  0.1914  0.2917  0.3848
  444MPD2    H7 6625   2.917   1.927  17.317 -1.9908 -0.2525  0.9430
  445TMC3    C1 6626   3.541   1.986  17.084 -0.8913  0.0086  0.5833
  445TMC3    C2 6627   3.461   1.991  16.974 -0.3841 -0.3393  0.6661
  445TMC3    C3 6628   3.518   1.962  16.856 -0.7098  0.5971 -0.1653
  445TMC3    C4 6629   3.677   1.984  17.085 -0.0753 -0.5697 -0.5517
  445TMC3    C5 6630   3.727   1.975  16.956  0.8789  0.5659  0.2065
  445TMC3    C6 6631   3.653   1.955  16.840 -0.1829 -0.2463 -0.2628
  445TMC3     C 6632   3.494   2.006  17.215 -0.0074  0.2652  0.6365
  445TMC3     O 6633   3.572   1.979  17.307 -0.0350  0.2308 -0.2572
  445TMC3     H 6634   3.354   1.977  16.985 -0.2485  0.2673  2.8382
  445TMC3    H1 6635   3.737   1.987  17.175  0.5627 -2.5407 -0.9103
  445TMC3    H2 6636   3.698   1.922  16.747  3.1925 -0.6833  1.5045
  445TMC3    C7 6637   3.864   1.938  16.931  0.1207  0.2985 -0.6979
  445TMC3    C8 6638   3.439   1.959  16.731  0.1662  0.2834 -0.7597
  445TMC3    O1 6639   3.910   1.945  16.819  0.4172  0.0039  0.0860
  445TMC3    O2 6640   3.512   1.964  16.633  0.3989 -0.2304 -0.3180
  446MPD2     C 6641   2.628   3.056  11.801 -1.0479 -0.0888  0.5643
  446MPD2    C1 6642   2.630   3.088  11.669  0.2148 -0.3682  0.8957
  446MPD2    C2 6643   2.697   3.203  11.629 -0.8662  0.3263  0.2438
  446MPD2    C3 6644   2.751   3.294  11.719  0.0485  0.2201 -0.2043
  446MPD2    C4 6645   2.735   3.261  11.850 -0.2024  0.2919 -0.3944
  446MPD2    C5 6646   2.681   3.144  11.891  0.2422 -0.9863 -0.6005
  446MPD2     H 6647   2.702   3.227  11.523 -1.2690 -0.7322 -0.0142
  446MPD2    H1 6648   2.782   3.324  11.925  1.1632 -1.9608  0.6273
  446MPD2    H2 6649   2.593   2.960  11.838  0.1596  0.5984  3.4759
  446MPD2    H3 6650   2.678   3.103  11.991 -1.0493  0.5096 -0.0091
  446MPD2     N 6651   2.834   3.403  11.669 -0.3623  0.7616 -0.0451
  446MPD2    H5 6652   2.832   3.416  11.569  0.4276  0.2278 -0.1287
  446MPD2    N1 6653   2.561   3.007  11.572 -0.1990 -0.3590 -0.3142
  446MPD2    H7 6654   2.577   3.038  11.477  0.4579 -0.3409 -0.2005
  447TMC3    C1 6655   2.999   3.577  11.661  0.2841 -0.0226  0.3530
  447TMC3    C2 6656   2.999   3.574  11.528 -0.2848 -0.1898 -0.7444
  447TMC3    C3 6657   3.105   3.626  11.459  0.0163 -0.6355 -0.0072
  447TMC3    C4 6658   3.115   3.606  11.730 -0.7069 -0.1550  0.3663
  447TMC3    C5 6659   3.227   3.623  11.653 -0.1020 -0.3945  0.0828
  447TMC3    C6 6660   3.221   3.648  11.522 -0.2874 -0.2273 -0.7182
  447TMC3     C 6661   2.917   3.490  11.748  0.1495 -0.1967  0.1743
  447TMC3     O 6662   2.947   3.489  11.866 -0.2594 -0.1681  0.1775
  447TMC3     H 6663   2.909   3.555  11.470  1.0486 -2.2430 -2.1408
  447TMC3    H1 6664   3.133   3.584  11.835 -1.8204  0.9690  0.7821
  447TMC3    H2 6665   3.312   3.652  11.463 -0.6743  2.8111 -1.1017
  447TMC3    C7 6666   3.343   3.535  11.685  0.4420  0.8551 -0.4100
  447TMC3    C8 6667   3.115   3.587  11.323  0.2565  0.6761  0.2692
  447TMC3    O1 6668   3.380   3.475  11.585 -1.1810  0.4677  0.0123
  447TMC3    O2 6669   3.150   3.670  11.240  0.0230  0.2896  0.6189
  448TMC3    C1 6670   1.090   2.565  17.162 -0.1617  0.6201 -0.0878
  448TMC3    C2 6671   1.060   2.434  17.200  0.0522  0.1703  0.1497
  448TMC3    C3 6672   1.098   2.390  17.323  0.4932  0.5026 -0.3728
  448TMC3    C4 6673   1.176   2.639  17.239 -1.0080  0.0035  0.2528
  448TMC3    C5 6674   1.200   2.599  17.365 -0.8574 -0.1138  0.1899
  448TMC3    C6 6675   1.161   2.471  17.415  0.3759  1.0182 -0.3226
  448TMC3     C 6676   1.053   2.597  17.022 -0.1871 -0.0767  0.0948
  448TMC3     O 6677   0.996   2.512  16.956  0.0603  0.4816 -0.2713
  448TMC3     H 6678   1.020   2.362  17.130  2.6493  0.1617 -1.3362
  448TMC3    H1 6679   1.222   2.728  17.198 -0.5653  0.1538  1.0699
  448TMC3    H2 6680   1.215   2.424  17.496  0.0530  0.5448 -0.3828
  448TMC3    C7 6681   1.321   2.651  17.416  0.1424  0.0639 -0.1158
  448TMC3    C8 6682   1.090   2.246  17.331  0.6998 -0.3079 -0.6129
  448TMC3    O1 6683   1.355   2.769  17.384  0.4501  0.1632 -0.0317
  448TMC3    O2 6684   1.074   2.175  17.232 -0.3892 -0.9379  0.1287
  449MPD2     C 6685   3.763   1.238  13.201 -0.8271  0.1345 -0.0956
  449MPD2    C1 6686   3.652   1.293  13.261  0.3550 -0.0893 -0.6818
  449MPD2    C2 6687   3.650   1.302  13.398  0.1296 -0.4646  0.2275
  449MPD2    C3 6688   3.745   1.250  13.481 -0.1392  0.2156 -0.4309
  449MPD2    C4 6689   3.856   1.189  13.424 -0.0312  0.4069  0.2502
  449MPD2    C5 6690   3.863   1.188  13.287 -0.6209  0.1871 -0.4092
  449MPD2     H 6691   3.565   1.340  13.455  0.2585 -2.1416  1.5454
  449MPD2    H1 6692   3.935   1.140  13.479  0.8119 -0.1342 -1.4436
  449MPD2    H2 6693   3.784   1.246  13.095  0.0281 -1.2568 -0.0193
  449MPD2    H3 6694   3.953   1.148  13.243 -1.2692 -1.4924 -0.1766
  449MPD2     N 6695   3.714   1.253  13.620 -0.7398  0.4003 -0.1844
  449MPD2    H5 6696   3.626   1.295  13.647 -0.9536  0.7902 -1.5095
  449MPD2    N1 6697   3.537   1.340  13.188  0.1055 -0.2303  0.0562
  449MPD2    H7 6698   3.451   1.365  13.236  1.4742  1.4492  1.6475
  450TMC3    C1 6699   3.387   1.372  13.008 -1.1081  1.3599  0.2247
  450TMC3    C2 6700   3.329   1.262  12.954 -0.4075 -0.3474 -0.1058
  450TMC3    C3 6701   3.210   1.213  13.003  0.5978  0.1900 -0.7428
  450TMC3    C4 6702   3.322   1.441  13.105  0.3855 -0.8041  0.0172
  450TMC3    C5 6703   3.203   1.398  13.161 -0.2572  0.2620 -0.6921
  450TMC3    C6 6704   3.144   1.279  13.106 -0.0171  0.3452  0.1511
  450TMC3     C 6705   3.527   1.348  13.051 -0.2916  0.1094 -0.1716
  450TMC3     O 6706   3.608   1.320  12.968  0.0281  0.1596 -0.4094
  450TMC3     H 6707   3.377   1.212  12.870 -1.0241 -1.3338  0.1326
  450TMC3    H1 6708   3.363   1.525  13.160  1.3039 -1.8815  0.9772
  450TMC3    H2 6709   3.061   1.232  13.157 -1.1518 -0.1901 -2.1888
  450TMC3    C7 6710   3.209   1.388  13.309 -0.4504 -0.1333  0.4561
  450TMC3    C8 6711   3.162   1.081  12.959 -0.4402  0.3589  0.3907
  450TMC3    O1 6712   3.318   1.417  13.353  0.0633  0.3551 -0.1201
  450TMC3    O2 6713   3.040   1.052  12.965 -0.2098  0.8252 -0.0816
  451MPD2     C 6714   4.432   0.361   2.079 -0.2528 -0.0386  0.3397
  451MPD2    C1 6715   4.422   0.339   1.946 -0.1252 -1.0511  0.0906
  451MPD2    C2 6716   4.393   0.215   1.895  0.1568  0.1493 -0.0468
  451MPD2    C3 6717   4.341   0.116   1.984  0.0981  0.0656  0.5724
  451MPD2    C4 6718   4.359   0.132   2.118  0.3479 -0.1090  0.2752
  451MPD2    C5 6719   4.402   0.253   2.165 -0.1382 -0.5398  0.6903
  451MPD2     H 6720   4.399   0.202   1.788 -2.3248  2.4301 -0.4632
  451MPD2    H1 6721   4.322   0.075   2.203  1.3649  1.1369  1.5690
  451MPD2    H2 6722   4.456   0.460   2.115  1.2037  0.1608 -1.1582
  451MPD2    H3 6723   4.411   0.264   2.272 -1.0706  1.7437  0.5275
  451MPD2     N 6724   4.278   0.001   1.937 -0.0408 -0.1052  0.1424
  451MPD2    H5 6725   4.233   4.669   2.011 -1.9382  2.9235  1.1394
  451MPD2    N1 6726   4.431   0.451   1.866  0.1503  0.1925  0.6866
  451MPD2    H7 6727   4.467   0.538   1.905 -0.9245 -0.1502  2.4462
  452TMC3    C1 6728   4.181   4.568   1.802 -0.7355  0.2129  0.4828
  452TMC3    C2 6729   4.213   4.467   1.885  1.0397 -0.0587 -0.4619
  452TMC3    C3 6730   4.157   4.343   1.873  0.1313 -0.1632 -0.0157
  452TMC3    C4 6731   4.098   4.539   1.701  0.4456 -0.7170 -0.1823
  452TMC3    C5 6732   4.021   4.422   1.693  0.2004 -0.0782  0.1898
  452TMC3    C6 6733   4.053   4.318   1.787 -0.7864  0.5172 -0.8888
  452TMC3     C 6734   4.241   4.699   1.811  0.8185  0.6828  0.0625
  452TMC3     O 6735   4.239   0.057   1.715 -0.7558  0.2050  0.1112
  452TMC3     H 6736   4.311   4.478   1.931 -0.0681  0.0942  1.8517
  452TMC3    H1 6737   4.075   4.626   1.640 -0.1678 -1.6302 -1.2515
  452TMC3    H2 6738   3.997   4.225   1.780 -1.3678  0.7244  1.0181
  452TMC3    C7 6739   3.964   4.400   1.562 -0.3069  0.3504 -0.3786
  452TMC3    C8 6740   4.175   4.249   1.983 -0.0225 -0.2709 -0.1796
  452TMC3    O1 6741   4.012   4.458   1.468 -0.2928 -0.3380 -0.8623
  452TMC3    O2 6742   4.082   4.175   2.011  0.0032 -0.0100  0.0151
  453TMC3    C1 6743   0.654   1.916  11.686 -0.1648 -0.6293  0.1773
  453TMC3    C2 6744   0.601   1.796  11.732  0.6048  0.0478  0.7431
  453TMC3    C3 6745   0.488   1.761  11.662  0.7065 -0.2271 -0.7664
  453TMC3    C4 6746   0.612   1.992  11.576  0.2443 -0.5427  0.9177
  453TMC3    C5 6747   0.505   1.941  11.509 -0.2601  0.5536 -0.3404
  453TMC3    C6 6748   0.438   1.822  11.548  0.9034 -0.3675  0.0299
  453TMC3     C 6749   0.756   1.975  11.767 -0.6152  0.0973  0.0918
  453TMC3     O 6750   0.788   2.086  11.730  0.5297 -0.2118 -0.5096
  453TMC3     H 6751   0.616   1.761  11.833 -1.5035 -0.2514  0.9680
  453TMC3    H1 6752   0.642   2.096  11.567 -2.4017  0.1166 -0.3321
  453TMC3    H2 6753   0.349   1.795  11.492  0.3602 -0.1574  0.7834
  453TMC3    C7 6754   0.436   2.023  11.415  0.1802 -0.9672  0.6733
  453TMC3    C8 6755   0.400   1.657  11.711 -0.3565 -0.4284 -0.9044
  453TMC3    O1 6756   0.315   2.002  11.398 -0.2128 -0.1317 -0.4913
  453TMC3    O2 6757   0.289   1.655  11.657 -0.0887  1.0138  0.1142
  454MPD2     C 6758   4.202   2.137  16.286 -0.8236  0.3602 -0.2411
  454MPD2    C1 6759   4.102   2.140  16.189 -0.6643  0.5826 -0.4115
  454MPD2    C2 6760   3.990   2.217  16.207 -0.3962  0.0253  0.0141
  454MPD2    C3 6761   3.976   2.286  16.322 -0.2113 -0.4556 -0.2148
  454MPD2    C4 6762   4.055   2.267  16.429 -0.2043 -0.1724  0.1950
  454MPD2    C5 6763   4.169   2.193  16.408 -0.0296 -0.4488 -0.0545
  454MPD2     H 6764   3.914   2.213  16.130 -0.6187  1.7407  0.1379
  454MPD2    H1 6765   4.042   2.314  16.526 -0.1984  1.1154 -0.4292
  454MPD2    H2 6766   4.292   2.079  16.273  0.3964  1.7547  2.0443
  454MPD2    H3 6767   4.246   2.184  16.483 -0.1413  2.7581  0.4205
  454MPD2     N 6768   3.853   2.363  16.353 -0.0310  0.4087 -0.1542
  454MPD2    H5 6769   3.832   2.393  16.448 -0.9001 -3.1131  0.7520
  454MPD2    N1 6770   4.097   2.064  16.066 -0.2595  0.9095  0.1091
  454MPD2    H7 6771   4.031   2.094  15.995  0.0997  0.9048 -0.2293
  455TMC3    C1 6772   3.635   2.375  16.298 -0.0851  0.0969 -0.1428
  455TMC3    C2 6773   3.599   2.373  16.429 -0.4792 -1.3629 -0.4864
  455TMC3    C3 6774   3.489   2.299  16.463  0.6728 -1.0031  0.0551
  455TMC3    C4 6775   3.558   2.315  16.201 -0.2047 -0.0969  0.1062
  455TMC3    C5 6776   3.447   2.244  16.239  0.3236  0.1987  0.0874
  455TMC3    C6 6777   3.412   2.234  16.371  0.4981  0.1426  0.8587
  455TMC3     C 6778   3.768   2.397  16.250  0.2145  0.2214  0.0213
  455TMC3     O 6779   3.794   2.399  16.129 -0.1597  0.1476 -0.1213
  455TMC3     H 6780   3.656   2.428  16.504 -1.5337 -1.8358  0.6649
  455TMC3    H1 6781   3.596   2.299  16.101  1.9550  1.8356  0.6248
  455TMC3    H2 6782   3.329   2.171  16.401 -0.0171  0.6073  0.4037
  455TMC3    C7 6783   3.456   2.104  16.192  0.2713 -0.1357  0.6830
  455TMC3    C8 6784   3.461   2.314  16.604 -0.5449 -0.1746  0.9222
  455TMC3    O1 6785   3.366   2.026  16.160  0.2504  0.4473  0.0774
  455TMC3    O2 6786   3.550   2.346  16.684  0.9773  0.2272 -0.6170
  456MPD2     C 6787   1.622   1.290  16.482  1.1851  0.1798  0.3460
  456MPD2    C1 6788   1.700   1.400  16.512 -1.1904  0.2604  0.1466
  456MPD2    C2 6789   1.682   1.461  16.635  0.0494  0.0883  0.3110
  456MPD2    C3 6790   1.573   1.425  16.714 -0.8146 -0.3831 -0.1980
  456MPD2    C4 6791   1.482   1.328  16.668  0.2544  0.0228 -0.7503
  456MPD2    C5 6792   1.512   1.254  16.556  0.1207 -0.7765 -0.8170
  456MPD2     H 6793   1.748   1.545  16.657 -1.3568  1.3187 -0.1990
  456MPD2    H1 6794   1.403   1.294  16.734 -0.0093  0.8562 -0.6266
  456MPD2    H2 6795   1.647   1.232  16.394 -0.4142  2.4795 -1.6165
  456MPD2    H3 6796   1.440   1.181  16.520  0.3835 -2.9024  3.0394
  456MPD2     N 6797   1.559   1.497  16.840 -0.8000  0.0665 -0.7804
  456MPD2    H5 6798   1.641   1.539  16.884 -0.7516 -1.0065  0.1417
  456MPD2    N1 6799   1.796   1.453  16.424  0.2436 -0.2259 -0.1613
  456MPD2    H7 6800   1.857   1.525  16.460  1.3658 -1.8619  1.2104
  457TMC3    C1 6801   1.444   1.560  17.031  0.1522  0.1840 -1.0473
  457TMC3    C2 6802   1.330   1.612  17.090 -0.6028  1.0981 -1.0883
  457TMC3    C3 6803   1.327   1.628  17.224 -0.6675  0.8184 -0.0496
  457TMC3    C4 6804   1.565   1.537  17.092  0.3909 -0.6386  0.2510
  457TMC3    C5 6805   1.553   1.569  17.227  0.2079  0.5673  0.5324
  457TMC3    C6 6806   1.444   1.614  17.293  0.0496 -0.8759  0.3228
  457TMC3     C 6807   1.435   1.512  16.897 -0.0898  0.0551  0.8487
  457TMC3     O 6808   1.321   1.493  16.849  0.0635  0.1609 -1.0289
  457TMC3     H 6809   1.241   1.635  17.033 -0.8970  2.6536 -0.0017
  457TMC3    H1 6810   1.649   1.477  17.059  2.4317  3.0618 -1.2505
  457TMC3    H2 6811   1.452   1.663  17.389  1.7588  2.5480 -1.5704
  457TMC3    C7 6812   1.680   1.572  17.300  0.1780 -0.2198 -0.0966
  457TMC3    C8 6813   1.228   1.727  17.275 -0.4271  0.0184  0.7090
  457TMC3    O1 6814   1.671   1.572  17.420  0.3026 -0.0501 -1.3078
  457TMC3    O2 6815   1.157   1.786  17.189  0.0180 -0.0019 -0.2217
  458MPD2     C 6816   4.027   1.045  12.274  0.7145 -0.1201 -0.2751
  458MPD2    C1 6817   4.050   0.991  12.394  0.6269  0.1047  0.2209
  458MPD2    C2 6818   3.966   0.898  12.449 -0.8780  0.0766 -0.5807
  458MPD2    C3 6819   3.848   0.861  12.389  0.2015 -0.0831 -0.4521
  458MPD2    C4 6820   3.826   0.919  12.264  0.1742 -0.2211 -0.7848
  458MPD2    C5 6821   3.913   1.009  12.206 -0.2507  0.3203  0.2559
  458MPD2     H 6822   4.000   0.842  12.536 -0.7520  0.1402 -0.5898
  458MPD2    H1 6823   3.754   0.873  12.198 -1.9235  3.1495 -0.8532
  458MPD2    H2 6824   4.099   1.110  12.228  2.2807 -0.2615  1.9670
  458MPD2    H3 6825   3.905   1.041  12.103 -0.0303 -0.3233  0.0348
  458MPD2     N 6826   3.766   0.760  12.446  0.3046  0.5316  0.0219
  458MPD2    H5 6827   3.798   0.734  12.539  0.9140 -2.1219 -0.9401
  458MPD2    N1 6828   4.168   1.034  12.460 -0.0233  0.2358  0.0103
  458MPD2    H7 6829   4.212   1.115  12.417 -2.9492  1.1008 -1.3827
  459TMC3    C1 6830   4.337   1.052  12.628 -0.0253 -0.7057 -0.4356
  459TMC3    C2 6831   4.404   1.144  12.551  0.5606  0.2596  0.5859
  459TMC3    C3 6832   4.502   1.217  12.610  0.2397  0.0312 -0.3391
  459TMC3    C4 6833   4.380   1.028  12.758  1.1425  0.1240 -0.3758
  459TMC3    C5 6834   4.488   1.090  12.812  0.3413  0.0098 -0.2075
  459TMC3    C6 6835   4.547   1.186  12.742 -0.1925 -0.1473  0.5462
  459TMC3     C 6836   4.218   0.985  12.581  0.6369  0.1479 -0.4073
  459TMC3     O 6837   4.176   0.893  12.649 -0.7240  0.0073 -0.1138
  459TMC3     H 6838   4.377   1.175  12.451  1.1908  0.0909  0.3646
  459TMC3    H1 6839   4.329   0.947  12.809 -1.5147  1.2393 -1.2404
  459TMC3    H2 6840   4.635   1.235  12.782  0.2400  0.1423 -0.7403
  459TMC3    C7 6841   4.534   1.028  12.933 -0.3607 -0.1503 -0.3161
  459TMC3    C8 6842   4.604   1.288  12.534  0.1142 -0.1081 -0.1072
  459TMC3    O1 6843   4.492   0.917  12.959  0.2282  0.1744  0.1098
  459TMC3    O2 6844   4.716   1.281  12.580 -0.3367  0.3832  0.2334
  460MPD2     C 6845   3.223   3.252  11.241 -0.6992 -0.2745 -0.2505
  460MPD2    C1 6846   3.173   3.377  11.213  0.2732  0.0064 -0.0109
  460MPD2    C2 6847   3.179   3.425  11.074 -0.0325 -0.0689  0.4056
  460MPD2    C3 6848   3.245   3.343  10.984  0.2568  0.7945 -0.8099
  460MPD2    C4 6849   3.287   3.214  11.014  0.1380 -0.7430  0.2425
  460MPD2    C5 6850   3.281   3.172  11.141 -0.4885 -0.0409  0.5186
  460MPD2     H 6851   3.143   3.525  11.054  0.6130 -0.1202 -1.0488
  460MPD2    H1 6852   3.319   3.146  10.936 -3.0454 -0.1223 -1.5732
  460MPD2    H2 6853   3.230   3.217  11.344  1.8308  2.3365  0.4928
  460MPD2    H3 6854   3.331   3.079  11.165 -2.0663 -0.8556  0.6657
  460MPD2     N 6855   3.260   3.388  10.848  0.3538  1.0397 -0.7451
  460MPD2    H5 6856   3.216   3.474  10.815 -1.5873 -0.3661 -1.8511
  460MPD2    N1 6857   3.126   3.451  11.322 -0.0422 -0.6923 -0.2646
  460MPD2    H7 6858   3.110   3.410  11.413  0.1559  0.3859  0.2491
  461TMC3    C1 6859   3.359   3.394  10.628  0.4678  0.3415 -0.2602
  461TMC3    C2 6860   3.365   3.299  10.532  0.6066 -1.2937  0.9003
  461TMC3    C3 6861   3.306   3.332  10.414 -0.7364  0.6376 -0.0363
  461TMC3    C4 6862   3.319   3.519  10.606  0.9244 -0.0118  0.1465
  461TMC3    C5 6863   3.272   3.549  10.480  0.2807 -0.2902  0.0309
  461TMC3    C6 6864   3.280   3.460  10.376  0.1779 -0.1032  0.5023
  461TMC3     C 6865   3.359   3.345  10.767  0.7125 -0.0235 -0.4690
  461TMC3     O 6866   3.444   3.257  10.779  0.8054 -0.2654  0.7895
  461TMC3     H 6867   3.394   3.198  10.558 -0.0767 -1.5129  0.8103
  461TMC3    H1 6868   3.333   3.589  10.688 -0.3153 -1.0950  1.2758
  461TMC3    H2 6869   3.227   3.481  10.283 -1.8800  2.1738  2.1809
  461TMC3    C7 6870   3.261   3.676  10.434 -0.1699 -0.3307 -0.0495
  461TMC3    C8 6871   3.280   3.227  10.320 -0.2950 -0.1610  0.3146
  461TMC3    O1 6872   3.311   3.700  10.323  0.3020 -0.2370 -0.2205
  461TMC3    O2 6873   3.211   3.260  10.222  0.6036  0.4118 -0.0042
  462TMC3    C1 6874   3.354   4.152   0.778 -0.0444 -0.5390  0.0171
  462TMC3    C2 6875   3.437   4.057   0.709  0.5519  0.0360  0.0331
  462TMC3    C3 6876   3.369   3.972   0.623 -0.6338 -0.0692  0.1087
  462TMC3    C4 6877   3.218   4.164   0.758 -0.8329  0.3205 -0.1354
  462TMC3    C5 6878   3.159   4.077   0.667 -0.2624 -0.6223  0.2061
  462TMC3    C6 6879   3.240   3.991   0.593 -0.4946  0.2773  0.2911
  462TMC3     C 6880   3.423   4.248   0.863 -0.9111  0.1284  0.8196
  462TMC3     O 6881   3.535   4.226   0.904 -0.0330 -0.6509 -0.0502
  462TMC3     H 6882   3.542   4.049   0.737  0.2987  2.4382  1.7240
  462TMC3    H1 6883   3.155   4.219   0.828  1.0841  2.8052 -0.3427
  462TMC3    H2 6884   3.189   3.915   0.535  2.0338 -1.6713  0.6149
  462TMC3    C7 6885   3.016   4.081   0.631 -0.6326 -0.3246  0.1092
  462TMC3    C8 6886   3.442   3.851   0.585 -0.8723 -0.2183 -0.2581
  462TMC3    O1 6887   2.970   3.989   0.567 -0.3092 -0.1374 -0.2274
  462TMC3    O2 6888   3.512   3.805   0.671 -0.3451 -0.2740 -0.2900
  463MPD2     C 6889   4.272   3.263   2.113  0.7788  0.5067  0.2981
  463MPD2    C1 6890   4.181   3.321   2.026 -0.2880  0.1145  0.7573
  463MPD2    C2 6891   4.214   3.442   1.979 -0.1573  0.5934  0.5510
  463MPD2    C3 6892   4.317   3.517   2.029 -0.4223 -0.3185 -0.5432
  463MPD2    C4 6893   4.408   3.460   2.121 -0.0488  0.7884 -0.3109
  463MPD2    C5 6894   4.385   3.332   2.163  0.0527  0.1220  0.1169
  463MPD2     H 6895   4.153   3.471   1.895 -1.4508 -0.9669  0.9361
  463MPD2    H1 6896   4.495   3.513   2.158  0.0846  0.3459  0.0103
  463MPD2    H2 6897   4.261   3.163   2.154 -0.2902  0.4892 -0.0465
  463MPD2    H3 6898   4.443   3.284   2.241  1.0246  0.9155 -0.1284
  463MPD2     N 6899   4.332   3.651   1.997  0.2156  0.3796 -0.4575
  463MPD2    H5 6900   4.421   3.686   2.031  0.1264  0.3664 -0.2102
  463MPD2    N1 6901   4.065   3.246   1.972 -0.1765  0.0126  0.1802
  463MPD2    H7 6902   4.017   3.292   1.896 -0.3657  1.3222  1.0899
  464TMC3    C1 6903   3.922   3.062   1.928  0.0296 -0.2203  0.1343
  464TMC3    C2 6904   3.824   3.146   1.890 -0.3682  0.3942 -0.4173
  464TMC3    C3 6905   3.710   3.083   1.859  0.2144  0.0410  0.1837
  464TMC3    C4 6906   3.899   2.930   1.956 -0.3466  0.0681 -0.0342
  464TMC3    C5 6907   3.785   2.869   1.919  0.2110 -0.4601 -0.2263
  464TMC3    C6 6908   3.691   2.945   1.866  0.1637 -0.2092  0.0827
  464TMC3     C 6909   4.028   3.117   2.012  0.6319 -0.0767 -0.4000
  464TMC3     O 6910   4.090   3.038   2.082  0.3117  0.2537  0.6788
  464TMC3     H 6911   3.839   3.253   1.887 -1.1316  0.5528  1.9566
  464TMC3    H1 6912   3.983   2.868   1.983 -1.4300 -0.2518  2.5858
  464TMC3    H2 6913   3.600   2.901   1.828 -1.1531  2.2479  0.3707
  464TMC3    C7 6914   3.752   2.728   1.952 -0.4862 -1.0517 -0.8413
  464TMC3    C8 6915   3.636   3.159   1.760 -0.8359  0.0703 -0.7267
  464TMC3    O1 6916   3.787   2.685   2.056  0.7666  0.3453 -0.3029
  464TMC3    O2 6917   3.698   3.230   1.684  0.4230 -0.0439  0.0751
  465MPD2     C 6918   0.891   1.695  16.943 -0.6171 -0.5586  0.1349
  465MPD2    C1 6919   0.818   1.777  17.031  0.1575  0.5652 -0.1160
  465MPD2    C2 6920   0.716   1.866  16.993 -0.1408  0.5371  0.2071
  465MPD2    C3 6921   0.690   1.881  16.854  0.3653 -0.2427 -0.6933
  465MPD2    C4 6922   0.759   1.802  16.758  0.0565  0.1409  0.3408
  465MPD2    C5 6923   0.852   1.715  16.809  0.3207 -0.6095  0.1780
  465MPD2     H 6924   0.664   1.924  17.069 -1.9669 -1.7007  0.6586
  465MPD2    H1 6925   0.742   1.806  16.651 -0.0106 -1.3140  0.3063
  465MPD2    H2 6926   0.970   1.624  16.963  1.7622  1.9609 -0.2497
  465MPD2    H3 6927   0.906   1.666  16.729  0.9342  0.4371 -0.0463
  465MPD2     N 6928   0.593   1.972  16.815 -0.0804  0.4937  0.2514
  465MPD2    H5 6929   0.539   2.006  16.894  1.1404 -1.1205  1.7815
  465MPD2    N1 6930   0.836   1.754  17.173 -0.5645  0.2500 -0.9823
  465MPD2    H7 6931   0.791   1.824  17.231  0.4691  2.5032 -2.9490
  466TMC3    C1 6932   0.296   2.231  16.791  1.0386  0.2392 -0.2406
  466TMC3    C2 6933   0.311   2.343  16.711 -0.2328  0.7598  0.0963
  466TMC3    C3 6934   0.397   2.316  16.605  0.7023  0.1288 -0.1186
  466TMC3    C4 6935   0.370   2.113  16.779 -0.4437  0.2428 -0.0576
  466TMC3    C5 6936   0.457   2.101  16.668 -0.3403  0.3161  0.3603
  466TMC3    C6 6937   0.467   2.206  16.580  0.3994  0.6203  0.0151
  466TMC3     C 6938   0.197   2.227  16.896  0.3282 -0.1347 -0.6953
  466TMC3     O 6939   0.200   2.131  16.969 -0.0918  0.0341 -0.3482
  466TMC3     H 6940   0.258   2.435  16.731  0.7554  1.2124  0.6587
  466TMC3    H1 6941   0.365   2.026  16.844  1.0683  1.1516  1.2580
  466TMC3    H2 6942   0.545   2.199  16.504 -0.7157  3.1758 -1.3416
  466TMC3    C7 6943   0.566   2.004  16.679 -0.0995 -0.2166  0.2395
  466TMC3    C8 6944   0.434   2.428  16.521  0.3183  0.0590  0.2014
  466TMC3    O1 6945   0.647   1.996  16.585 -0.1979  0.2222 -1.1088
  466TMC3    O2 6946   0.500   2.408  16.419 -0.4324 -0.1037 -0.2181
  467TMC3    C1 6947   1.179   0.605  13.649  0.6422  0.2314  0.3432
  467TMC3    C2 6948   1.249   0.574  13.537 -0.1725 -0.4406 -0.0065
  467TMC3    C3 6949   1.170   0.555  13.427  0.2927 -0.2451 -0.0758
  467TMC3    C4 6950   1.044   0.615  13.667 -0.6660 -0.1208  0.1015
  467TMC3    C5 6951   0.970   0.604  13.552  0.3934 -0.1595 -0.0795
  467TMC3    C6 6952   1.030   0.564  13.433 -0.0085  0.2324  0.4829
  467TMC3     C 6953   1.263   0.632  13.765  0.4448 -0.0394  0.1945
  467TMC3     O 6954   1.229   0.716  13.848 -0.2819 -0.3456 -0.6691
  467TMC3     H 6955   1.358   0.572  13.538 -0.1733 -0.1076  0.8732
  467TMC3    H1 6956   0.990   0.635  13.759  0.2797 -1.1022  0.8587
  467TMC3    H2 6957   0.977   0.554  13.339  1.8309 -2.5668 -0.2331
  467TMC3    C7 6958   0.824   0.621  13.544  0.3973 -0.0793  0.1343
  467TMC3    C8 6959   1.222   0.593  13.300  0.8955 -0.2778 -0.2288
  467TMC3    O1 6960   0.765   0.635  13.440 -0.0735  0.1372 -0.3901
  467TMC3    O2 6961   1.162   0.544  13.209 -0.0427 -0.3223 -0.6376
  468MPD2     C 6962   0.501   3.002  10.674  0.2313 -0.7458  0.4729
  468MPD2    C1 6963   0.446   3.019  10.798 -0.0825  0.1624 -0.2264
  468MPD2    C2 6964   0.476   2.924  10.897  0.0298 -0.3072 -0.0285
  468MPD2    C3 6965   0.568   2.827  10.877 -0.4289 -0.2060  1.0349
  468MPD2    C4 6966   0.615   2.810  10.753 -0.0048  0.1955  1.0047
  468MPD2    C5 6967   0.582   2.892  10.649 -0.4123  0.1525  0.6848
  468MPD2     H 6968   0.428   2.946  10.991 -0.1920 -1.6807  0.1691
  468MPD2    H1 6969   0.667   2.718  10.729 -0.6176  0.2977 -0.7640
  468MPD2    H2 6970   0.479   3.067  10.590  0.5214 -0.9414  0.2459
  468MPD2    H3 6971   0.628   2.887  10.551 -1.8264  2.8290 -0.1234
  468MPD2     N 6972   0.613   2.744  10.982 -0.0551 -0.0170  0.4587
  468MPD2    H5 6973   0.681   2.672  10.959 -1.4977 -0.5360 -2.1785
  468MPD2    N1 6974   0.364   3.126  10.832  0.1484  0.4947  0.0329
  468MPD2    H7 6975   0.339   3.135  10.930  1.5877  1.1826  0.3311
  469TMC3    C1 6976   0.245   3.320  10.784  0.0266 -0.1692  0.6231
  469TMC3    C2 6977   0.307   3.386  10.883  0.3401 -0.3256 -0.3874
  469TMC3    C3 6978   0.271   3.521  10.902  0.0937  0.0636  0.1623
  469TMC3    C4 6979   0.150   3.381  10.705  0.7482 -0.3298 -0.4696
  469TMC3    C5 6980   0.120   3.514  10.728 -0.8555 -0.6874 -0.3997
  469TMC3    C6 6981   0.175   3.586  10.829  0.6315  0.2784  0.4363
  469TMC3     C 6982   0.300   3.196  10.733  0.2575 -0.1777 -0.2878
  469TMC3     O 6983   0.280   3.163  10.613  0.1722 -0.1287 -0.0632
  469TMC3     H 6984   0.385   3.346  10.946  0.0484 -2.0634 -1.1438
  469TMC3    H1 6985   0.099   3.322  10.630  0.7213  3.1558 -3.2239
  469TMC3    H2 6986   0.171   3.694  10.828  1.4624  0.2970 -1.6630
  469TMC3    C7 6987   0.019   3.572  10.641  0.1698  0.0817  0.3162
  469TMC3    C8 6988   0.374   3.598  10.972 -0.4309 -0.5518  0.0987
  469TMC3    O1 6989   4.717   3.517  10.536  0.2978 -0.6581  0.7083
  469TMC3    O2 6990   0.466   3.533  11.018 -0.1923 -0.1486  0.2683
  470TMC3    C1 6991   3.285   4.298   1.412 -0.1523  0.3136  0.2037
  470TMC3    C2 6992   3.366   4.405   1.423  0.6111 -0.6234  0.4109
  470TMC3    C3 6993   3.441   4.410   1.539 -1.0265 -0.2077 -0.6309
  470TMC3    C4 6994   3.290   4.192   1.494 -0.1418 -0.0235 -0.1612
  470TMC3    C5 6995   3.369   4.201   1.605 -0.4818 -0.3622 -0.4053
  470TMC3    C6 6996   3.452   4.309   1.629 -0.0164  0.2609  0.1830
  470TMC3     C 6997   3.182   4.296   1.310  0.3234 -0.0074 -0.1345
  470TMC3     O 6998   3.126   4.191   1.280  0.4222  0.1460 -0.6274
  470TMC3     H 6999   3.398   4.457   1.334  0.3687  1.3129  1.4444
  470TMC3    H1 7000   3.239   4.099   1.472 -1.4792  0.5515  0.5088
  470TMC3    H2 7001   3.497   4.320   1.727  0.3291 -1.0315  0.1642
  470TMC3    C7 7002   3.403   4.084   1.678 -0.2180 -0.3595  0.1240
  470TMC3    C8 7003   3.539   4.517   1.556  0.1616 -0.4006  0.3678
  470TMC3    O1 7004   3.518   4.088   1.722 -0.1304  0.2593 -0.1396
  470TMC3    O2 7005   3.625   4.491   1.639 -0.0405 -0.0389 -0.1250
  471MPD2     C 7006   2.759   0.933  16.648 -0.1597  0.0410  0.1220
  471MPD2    C1 7007   2.679   0.844  16.709 -0.0496 -0.2620 -0.3819
  471MPD2    C2 7008   2.701   0.819  16.845  0.0720  1.1739 -0.0943
  471MPD2    C3 7009   2.797   0.884  16.918 -0.2380  0.2677 -0.5158
  471MPD2    C4 7010   2.876   0.977  16.851 -0.2249  0.5958  0.0982
  471MPD2    C5 7011   2.858   0.998  16.718  0.4283 -0.2346  0.4446
  471MPD2     H 7012   2.642   0.739  16.889  0.2234  1.5450  0.7737
  471MPD2    H1 7013   2.950   1.027  16.913  1.1013 -2.2592  0.7988
  471MPD2    H2 7014   2.755   0.952  16.542  1.3428  1.8439  0.4050
  471MPD2    H3 7015   2.908   1.076  16.663  0.2108 -0.1545  0.3603
  471MPD2     N 7016   2.809   0.879  17.058  0.3059  0.0717 -0.3630
  471MPD2    H5 7017   2.891   0.930  17.088 -0.6893  2.0563 -1.0694
  471MPD2    N1 7018   2.565   0.781  16.649  0.1010 -0.3355 -1.0323
  471MPD2    H7 7019   2.508   0.723  16.709  0.9224  0.0271  0.0984
  472TMC3    C1 7020   2.429   0.693  16.486  0.3109  0.7718  0.2863
  472TMC3    C2 7021   2.382   0.698  16.358 -1.0378  0.3937  0.4550
  472TMC3    C3 7022   2.333   0.585  16.295 -0.0191 -0.5580 -0.1257
  472TMC3    C4 7023   2.417   0.573  16.559 -0.1476 -0.0380  0.3592
  472TMC3    C5 7024   2.360   0.466  16.498 -0.2676 -0.0971 -0.1190
  472TMC3    C6 7025   2.314   0.468  16.366 -0.3191 -0.0079  0.3438
  472TMC3     C 7026   2.520   0.795  16.520  0.1278 -0.6850 -0.2574
  472TMC3     O 7027   2.564   0.864  16.429  0.7375  0.3904 -0.4830
  472TMC3     H 7028   2.383   0.793  16.305 -2.0558 -0.0476 -0.3538
  472TMC3    H1 7029   2.456   0.562  16.660 -1.4121 -0.4316  0.7951
  472TMC3    H2 7030   2.264   0.382  16.323 -0.0561 -1.1563  2.3400
  472TMC3    C7 7031   2.360   0.343  16.573 -0.5082 -0.0172 -0.2407
  472TMC3    C8 7032   2.239   0.625  16.194  0.3572  0.3885  0.1566
  472TMC3    O1 7033   2.348   0.350  16.693 -0.3301  0.0140 -0.7548
  472TMC3    O2 7034   2.274   0.713  16.118 -0.1009  0.0802  0.5621
  473MPD2     C 7035   3.002   2.935  14.071 -0.4830  0.1409  0.4624
  473MPD2    C1 7036   2.950   3.051  14.018  0.2243 -0.5887 -0.8450
  473MPD2    C2 7037   2.936   3.160  14.104  0.0365  0.2437 -0.0950
  473MPD2    C3 7038   2.985   3.156  14.233  0.8185 -0.4346 -0.7373
  473MPD2    C4 7039   3.035   3.037  14.286  0.5505 -0.4059  0.1667
  473MPD2    C5 7040   3.047   2.929  14.199  0.2921  0.4727  1.0345
  473MPD2     H 7041   2.898   3.250  14.057  0.2908  1.3474  1.8165
  473MPD2    H1 7042   3.079   3.023  14.384  0.6854 -2.4063 -0.1605
  473MPD2    H2 7043   3.023   2.848  14.010  1.8374  1.6242 -0.8514
  473MPD2    H3 7044   3.070   2.831  14.239  1.0366 -0.4584 -1.6904
  473MPD2     N 7045   3.007   3.273  14.311  0.5353 -0.4042 -0.5859
  473MPD2    H5 7046   3.044   3.256  14.404  0.9611  0.9947 -0.5000
  473MPD2    N1 7047   2.893   3.055  13.889  0.3807 -0.4729  0.4321
  473MPD2    H7 7048   2.836   3.138  13.875  0.2710 -0.3835  1.4369
  474TMC3    C1 7049   3.012   3.498  14.378  0.2806  0.6354  0.0705
  474TMC3    C2 7050   2.926   3.607  14.364  0.2115  0.1339 -0.5198
  474TMC3    C3 7051   2.959   3.719  14.437 -0.0227 -0.0762  0.0181
  474TMC3    C4 7052   3.136   3.514  14.444  0.0129 -1.0811  0.2703
  474TMC3    C5 7053   3.161   3.631  14.512 -0.2146 -0.5380  0.2865
  474TMC3    C6 7054   3.074   3.733  14.508  0.1943 -0.3190 -0.3217
  474TMC3     C 7055   2.984   3.401  14.270 -1.1978  0.2136 -0.1012
  474TMC3     O 7056   2.915   3.444  14.178  0.5223 -0.1665 -0.1485
  474TMC3     H 7057   2.832   3.600  14.311 -0.3886 -2.8387  0.9206
  474TMC3    H1 7058   3.200   3.427  14.455  0.6343 -0.4086  1.9302
  474TMC3    H2 7059   3.098   3.824  14.562  2.3460  0.4969 -2.6085
  474TMC3    C7 7060   3.302   3.657  14.543 -0.5695 -0.3021  0.1000
  474TMC3    C8 7061   2.849   3.807  14.465 -0.6189 -0.2306  0.1824
  474TMC3    O1 7062   3.383   3.615  14.465 -0.2207 -0.0839 -0.1611
  474TMC3    O2 7063   2.736   3.757  14.481 -0.0211  0.3829  0.7003
  475MPD2     C 7064   1.405   0.833  10.312  0.6236  0.0054 -0.4158
  475MPD2    C1 7065   1.481   0.938  10.350  0.3024 -0.3209 -0.1407
  475MPD2    C2 7066   1.428   1.023  10.447  0.0020 -0.1303  0.4308
  475MPD2    C3 7067   1.292   1.019  10.484 -0.1425  0.4346  0.0351
  475MPD2    C4 7068   1.215   0.918  10.429  0.0652 -0.3671  0.0555
  475MPD2    C5 7069   1.276   0.826  10.354 -0.5664  0.1074  0.4614
  475MPD2     H 7070   1.489   1.099  10.495  0.9338 -1.0534  0.7051
  475MPD2    H1 7071   1.110   0.901  10.451  0.2687 -0.3960  0.9697
  475MPD2    H2 7072   1.440   0.760  10.240  0.6459 -0.2933 -0.1044
  475MPD2    H3 7073   1.206   0.753  10.315  0.1147 -0.5906  0.5408
  475MPD2     N 7074   1.248   1.122  10.564  0.2022  0.2172 -0.2108
  475MPD2    H5 7075   1.314   1.194  10.590  2.5896 -1.4892 -1.4925
  475MPD2    N1 7076   1.613   0.942  10.300  0.5601 -0.2413  0.2148
  475MPD2    H7 7077   1.651   0.861  10.252  0.8421  0.3072 -0.4817
  476TMC3    C1 7078   1.635   1.185  10.308 -0.6780 -0.2007 -0.4970
  476TMC3    C2 7079   1.533   1.206  10.220 -0.1757  0.4452 -0.1874
  476TMC3    C3 7080   1.448   1.310  10.250 -0.1835 -0.1234  0.0636
  476TMC3    C4 7081   1.675   1.269  10.409  0.3136  0.0750 -1.1297
  476TMC3    C5 7082   1.596   1.380  10.425  0.4395 -0.0525  0.4142
  476TMC3    C6 7083   1.484   1.396  10.347 -0.3833  0.3074 -0.2114
  476TMC3     C 7084   1.703   1.050  10.301 -0.2387  0.1421  0.2412
  476TMC3     O 7085   1.820   1.049  10.270 -0.1922  0.4303 -0.1012
  476TMC3     H 7086   1.504   1.132  10.146 -1.9951 -0.0505  1.0348
  476TMC3    H1 7087   1.738   1.239  10.492  0.2172 -1.7806 -1.7140
  476TMC3    H2 7088   1.422   1.482  10.371 -0.8295  0.8948 -3.5170
  476TMC3    C7 7089   1.570   1.409  10.559  0.3321  0.6194  0.4045
  476TMC3    C8 7090   1.304   1.281  10.235  0.0817 -0.4289  0.0733
  476TMC3    O1 7091   1.541   1.306  10.623 -0.4470 -0.1412 -0.3368
  476TMC3    O2 7092   1.275   1.179  10.183 -0.2966  0.0412  0.3855
  477MPD2     C 7093   3.637   2.723  11.636  0.1552  0.1499 -0.0191
  477MPD2    C1 7094   3.561   2.727  11.747 -0.7235  0.2805  0.4394
  477MPD2    C2 7095   3.587   2.632  11.843 -0.1120 -0.1295  0.0061
  477MPD2    C3 7096   3.685   2.537  11.828 -0.6377  0.8825 -0.1556
  477MPD2    C4 7097   3.765   2.549  11.713  0.5467  0.1516 -0.0109
  477MPD2    C5 7098   3.739   2.638  11.617 -0.0151  0.5233 -0.8467
  477MPD2     H 7099   3.525   2.623  11.932  1.0868  0.2787  0.8929
  477MPD2    H1 7100   3.841   2.474  11.698  0.5622  0.0166  0.7544
  477MPD2    H2 7101   3.612   2.786  11.551 -0.7708 -0.6781 -0.3541
  477MPD2    H3 7102   3.796   2.639  11.524  1.0431  0.0635 -0.1990
  477MPD2     N 7103   3.722   2.445  11.931  0.7255  0.3321 -0.2215
  477MPD2    H5 7104   3.808   2.392  11.923 -0.0023 -1.0726  1.1954
  477MPD2    N1 7105   3.463   2.823  11.749  0.6219 -0.3245  1.1561
  477MPD2    H7 7106   3.448   2.880  11.667  1.3862  1.0951  2.0051
  478TMC3    C1 7107   3.298   2.955  11.856  1.0086  0.4005 -0.1313
  478TMC3    C2 7108   3.266   3.016  11.975 -0.0082  0.7361 -0.2631
  478TMC3    C3 7109   3.181   3.129  11.960 -1.2820 -0.2189 -0.1248
  478TMC3    C4 7110   3.242   2.978  11.731  0.9529  0.4158 -0.1444
  478TMC3    C5 7111   3.163   3.093  11.728 -0.3068  0.7065 -0.0162
  478TMC3    C6 7112   3.141   3.174  11.835 -0.1536 -0.1332 -0.4003
  478TMC3     C 7113   3.393   2.853  11.863  0.0324 -0.5436 -0.7087
  478TMC3     O 7114   3.416   2.817  11.980 -0.2797 -0.5533  0.2510
  478TMC3     H 7115   3.316   3.012  12.071 -0.5340  1.5683  0.0440
  478TMC3    H1 7116   3.255   2.923  11.638  0.8371 -0.0188  0.0990
  478TMC3    H2 7117   3.083   3.265  11.823 -0.1704 -0.1895 -0.7652
  478TMC3    C7 7118   3.094   3.123  11.609 -0.0453 -0.3074 -0.7301
  478TMC3    C8 7119   3.168   3.213  12.081  0.5345 -0.1234 -0.0289
  478TMC3    O1 7120   3.078   3.241  11.583 -0.8053 -0.6454  0.0089
  478TMC3    O2 7121   3.196   3.157  12.187  0.3055 -0.3265 -0.0441
  479MPD2     C 7122   2.541   0.557  15.277 -0.4014 -0.3562 -0.0972
  479MPD2    C1 7123   2.503   0.486  15.390 -0.0018 -0.2171 -0.5479
  479MPD2    C2 7124   2.588   0.495  15.497  0.5626 -0.2230  0.2455
  479MPD2    C3 7125   2.693   0.586  15.505  0.5455  0.6913 -0.0295
  479MPD2    C4 7126   2.737   0.643  15.388 -0.3276  0.1515  0.2443
  479MPD2    C5 7127   2.657   0.641  15.277 -0.2330 -0.8093  0.1512
  479MPD2     H 7128   2.554   0.443  15.585 -1.0842  0.7252  0.1607
  479MPD2    H1 7129   2.819   0.715  15.389  0.4210 -0.7026 -0.3808
  479MPD2    H2 7130   2.483   0.554  15.185  1.4069  2.7480 -1.3430
  479MPD2    H3 7131   2.688   0.698  15.189  0.1282  0.3483  1.0309
  479MPD2     N 7132   2.750   0.632  15.622  0.5519  0.6043  0.3009
  479MPD2    H5 7133   2.841   0.677  15.613  0.9420  0.0199  1.3730
  479MPD2    N1 7134   2.379   0.434  15.387  0.1757  0.8675  0.3344
  479MPD2    H7 7135   2.330   0.441  15.299 -0.9288  1.5357  1.0157
  480TMC3    C1 7136   2.356   0.544  15.842  0.0113 -0.1695 -0.6071
  480TMC3    C2 7137   2.283   0.636  15.771 -0.0025  0.2730  0.4501
  480TMC3    C3 7138   2.350   0.707  15.674 -0.6779  0.2532  0.2925
  480TMC3    C4 7139   2.496   0.547  15.848 -0.5747 -0.1821  0.6083
  480TMC3    C5 7140   2.553   0.625  15.755  0.5819  0.3126 -1.3020
  480TMC3    C6 7141   2.484   0.705  15.667  0.4766  0.4665  0.3189
  480TMC3     C 7142   2.287   0.423  15.897 -0.2231 -0.2403 -0.1065
  480TMC3     O 7143   2.364   0.342  15.944 -0.4202 -0.4650  0.1754
  480TMC3     H 7144   2.175   0.650  15.780  0.0035  0.4150  0.2944
  480TMC3    H1 7145   2.551   0.464  15.892  1.1131  0.4212 -0.3752
  480TMC3    H2 7146   2.532   0.794  15.627 -1.6003  1.8107  0.8060
  480TMC3    C7 7147   2.701   0.610  15.742  0.2783 -0.9145  0.0555
  480TMC3    C8 7148   2.287   0.742  15.549 -0.4491 -0.1323  0.1371
  480TMC3    O1 7149   2.756   0.636  15.847  0.0335 -0.0170 -0.2955
  480TMC3    O2 7150   2.164   0.751  15.560 -0.7154 -0.3539 -0.2490
  481MPD2     C 7151   4.271   0.097  14.090  0.4645  0.6445  0.5278
  481MPD2    C1 7152   4.156   0.047  14.142 -0.7099 -0.3937 -0.0372
  481MPD2    C2 7153   4.139   0.053  14.278 -0.5337 -0.2314  0.4915
  481MPD2    C3 7154   4.241   0.107  14.361  0.5268 -0.2544  0.2674
  481MPD2    C4 7155   4.351   0.161  14.303  0.2755  0.9468  0.4227
  481MPD2    C5 7156   4.364   0.153  14.169  0.1301  0.1853 -0.3466
  481MPD2     H 7157   4.051   0.020  14.331  1.6702 -1.4733  3.4066
  481MPD2    H1 7158   4.441   0.192  14.355  0.3881 -3.2382  2.7445
  481MPD2    H2 7159   4.293   0.100  13.984  1.6895 -2.5763  0.6801
  481MPD2    H3 7160   4.451   0.196  14.120 -0.0338  0.4062 -0.4432
  481MPD2     N 7161   4.244   0.093  14.502 -0.1117  0.6097 -0.3275
  481MPD2    H5 7162   4.333   0.116  14.546  0.8506 -1.3173 -1.2864
  481MPD2    N1 7163   4.063   4.718  14.051 -0.5198 -0.4857  0.6396
  481MPD2    H7 7164   4.086   4.720  13.952  0.3015  2.7894  0.9036
  482TMC3    C1 7165   3.862   4.625  13.966 -0.5693  0.6611 -0.2381
  482TMC3    C2 7166   3.741   4.561  13.992 -0.5074 -0.8656 -0.3786
  482TMC3    C3 7167   3.648   4.554  13.892 -0.2259  0.5601  0.7375
  482TMC3    C4 7168   3.892   4.662  13.839  0.2665 -0.4425 -0.1364
  482TMC3    C5 7169   3.801   4.641  13.738 -0.1288  0.5448 -0.2508
  482TMC3    C6 7170   3.673   4.599  13.767  0.0684  0.2440  0.1206
  482TMC3     C 7171   3.937   4.674  14.083 -0.2217 -1.0539 -0.9755
  482TMC3     O 7172   3.879   4.657  14.191 -0.3333 -1.3111  0.0627
  482TMC3     H 7173   3.704   4.533  14.090 -3.7089  0.2229 -1.2826
  482TMC3    H1 7174   3.985   4.707  13.806 -0.2138  1.5018  1.1853
  482TMC3    H2 7175   3.592   4.616  13.696  0.8938 -0.9788 -1.1009
  482TMC3    C7 7176   3.838   4.604  13.607 -0.9706  0.6572 -0.7146
  482TMC3    C8 7177   3.524   4.473  13.918  1.0580  0.5814 -0.5125
  482TMC3    O1 7178   3.745   4.571  13.534 -0.0131 -0.2172 -0.3095
  482TMC3    O2 7179   3.522   4.401  14.020  0.2012  0.7467 -0.2307
  483TMC3    C1 7180   1.963   3.233   1.564 -0.0061  0.7227 -0.0111
  483TMC3    C2 7181   1.955   3.364   1.528 -0.7884  0.3614 -0.8228
  483TMC3    C3 7182   2.079   3.427   1.513  0.4230  0.0945  0.7340
  483TMC3    C4 7183   2.080   3.178   1.608 -0.0265 -0.7424 -0.5592
  483TMC3    C5 7184   2.201   3.253   1.610  0.1976  0.3984  0.2231
  483TMC3    C6 7185   2.197   3.378   1.559 -0.0336  0.3318 -0.5403
  483TMC3     C 7186   1.881   3.144   1.490 -0.5914  1.3491  0.2316
  483TMC3     O 7187   1.782   3.193   1.436  0.4300  0.2767  0.3226
  483TMC3     H 7188   1.865   3.406   1.484 -1.0959  0.2136 -0.3314
  483TMC3    H1 7189   2.079   3.078   1.649  0.8559 -0.8327 -0.7772
  483TMC3    H2 7190   2.282   3.446   1.563  0.2281 -0.0347  0.0677
  483TMC3    C7 7191   2.321   3.194   1.662  0.2115 -0.4891  0.4455
  483TMC3    C8 7192   2.094   3.549   1.435 -0.6038 -0.7350 -0.2523
  483TMC3    O1 7193   2.306   3.089   1.719  0.2092 -0.7734 -0.6123
  483TMC3    O2 7194   2.200   3.580   1.380 -0.0286 -0.0582 -0.0194
  484MPD2     C 7195   4.564   1.504  12.232 -0.3151  0.5792 -0.1648
  484MPD2    C1 7196   4.636   1.423  12.324  0.0491 -0.6359 -0.1125
  484MPD2    C2 7197   0.052   1.427  12.323  0.0036  0.7902 -0.0088
  484MPD2    C3 7198   0.119   1.511  12.235  0.2191 -0.0975  0.0548
  484MPD2    C4 7199   0.046   1.591  12.147  0.0453 -0.3191 -0.6712
  484MPD2    C5 7200   4.628   1.586  12.140 -0.1560  0.2089  0.0228
  484MPD2     H 7201   0.102   1.367  12.398 -3.5817 -0.6604  1.2419
  484MPD2    H1 7202   0.097   1.661  12.081 -0.8580  0.9341 -0.0380
  484MPD2    H2 7203   4.458   1.483  12.220  0.5180 -2.0608 -3.1196
  484MPD2    H3 7204   4.566   1.656  12.084 -0.4961 -0.2481 -0.1732
  484MPD2     N 7205   0.261   1.536  12.239  0.7242 -0.3500  0.6346
  484MPD2    H5 7206   0.294   1.614  12.184 -2.4448  0.1120 -0.5650
  484MPD2    N1 7207   4.556   1.356  12.420  0.6463 -0.0290  0.3754
  484MPD2    H7 7208   4.456   1.354  12.406  0.7310 -1.6305 -0.0543
  485TMC3    C1 7209   0.490   1.512  12.292 -0.9439  0.0437  0.0673
  485TMC3    C2 7210   0.571   1.471  12.393  0.0083 -0.3132  0.5327
  485TMC3    C3 7211   0.709   1.473  12.385 -0.2082 -0.5196 -0.0871
  485TMC3    C4 7212   0.542   1.565  12.177  0.4822  0.0072  0.0552
  485TMC3    C5 7213   0.681   1.549  12.167 -0.2522  0.1035 -0.4358
  485TMC3    C6 7214   0.767   1.514  12.268 -0.5953  0.6498  0.6805
  485TMC3     C 7215   0.354   1.460  12.302 -0.0040 -0.3559  0.3630
  485TMC3     O 7216   0.327   1.368  12.374  0.0339 -0.1229  0.0036
  485TMC3     H 7217   0.518   1.443  12.483 -2.4207  1.6745 -0.2853
  485TMC3    H1 7218   0.481   1.595  12.093  0.2133 -0.8704 -0.0627
  485TMC3    H2 7219   0.874   1.500  12.253 -0.5012  1.4923  0.5548
  485TMC3    C7 7220   0.735   1.499  12.043 -0.4045  0.8285  0.7948
  485TMC3    C8 7221   0.767   1.345  12.430 -0.1894  0.9163 -0.3612
  485TMC3    O1 7222   0.725   1.567  11.941  0.1401  0.0312 -0.1024
  485TMC3    O2 7223   0.845   1.304  12.346 -0.3043  0.2049 -0.2268
  486MPD2     C 7224   2.490   0.386  13.369 -0.0453  0.2306 -0.2403
  486MPD2    C1 7225   2.432   0.357  13.250  0.2722 -0.4296  0.3578
  486MPD2    C2 7226   2.374   0.461  13.174 -0.4484  0.1592  0.5415
  486MPD2    C3 7227   2.397   0.592  13.209 -0.3167  0.3250 -0.7030
  486MPD2    C4 7228   2.476   0.623  13.316 -0.3153  0.4775  0.0339
  486MPD2    C5 7229   2.524   0.521  13.398 -0.1176 -0.5981 -0.0592
  486MPD2     H 7230   2.334   0.449  13.074 -0.6280  0.7980  0.5403
  486MPD2    H1 7231   2.507   0.724  13.341  3.3806 -0.7430  0.3844
  486MPD2    H2 7232   2.537   0.312  13.433 -2.3389 -0.9538  0.0461
  486MPD2    H3 7233   2.589   0.538  13.483 -1.8818 -1.2032  1.4171
  486MPD2     N 7234   2.339   0.688  13.123  0.3282 -0.3087 -0.7153
  486MPD2    H5 7235   2.282   0.649  13.048 -1.8935  0.8555  0.3799
  486MPD2    N1 7236   2.412   0.221  13.220 -0.0299 -0.3863  0.4251
  486MPD2    H7 7237   2.433   0.151  13.291  2.9080 -0.8059 -0.8820
  487TMC3    C1 7238   2.334   0.031  13.095  0.1585  0.9307 -0.0517
  487TMC3    C2 7239   2.272   4.708  12.988 -0.4149 -0.0911 -0.0649
  487TMC3    C3 7240   2.249   4.571  12.973  0.2403  0.7716 -0.2406
  487TMC3    C4 7241   2.374   4.672  13.198 -0.4052 -0.5307  0.2639
  487TMC3    C5 7242   2.319   4.546  13.199  0.2913  0.0197 -0.1952
  487TMC3    C6 7243   2.264   4.494  13.088 -0.2504 -0.7876 -0.1608
  487TMC3     C 7244   2.362   0.181  13.102 -0.0365 -0.5193 -0.2159
  487TMC3     O 7245   2.343   0.239  12.993 -0.0725 -0.2041 -0.3524
  487TMC3     H 7246   2.235   0.050  12.908  0.8880 -0.2028 -0.7453
  487TMC3    H1 7247   2.428   4.713  13.283 -0.9034  0.2552  0.1976
  487TMC3    H2 7248   2.213   4.398  13.089 -0.7956 -0.5028 -0.5070
  487TMC3    C7 7249   2.252   4.513  13.321  0.1735 -0.3790  0.6300
  487TMC3    C8 7250   2.123   4.543  12.910 -0.1533  0.7036 -0.0036
  487TMC3    O1 7251   2.313   4.539  13.425 -0.2904  0.0845 -0.0098
  487TMC3    O2 7252   2.129   4.465  12.818  0.3328  0.1724 -0.3833
  488MPD2     C 7253   2.466   1.978  16.321  0.4222  0.1093 -0.5171
  488MPD2    C1 7254   2.466   2.106  16.381  0.6192 -0.8297  0.6011
  488MPD2    C2 7255   2.416   2.122  16.509 -0.1319 -0.4457 -0.2117
  488MPD2    C3 7256   2.361   2.024  16.578 -0.2706  0.9403  0.2468
  488MPD2    C4 7257   2.365   1.901  16.521 -0.4169 -0.2991 -0.0959
  488MPD2    C5 7258   2.415   1.880  16.395  0.6328 -0.4697 -0.0796
  488MPD2     H 7259   2.419   2.222  16.551  0.1400 -0.7896  0.5963
  488MPD2    H1 7260   2.323   1.816  16.575 -0.4078 -0.2147  0.0424
  488MPD2    H2 7261   2.497   1.960  16.219  1.0915  1.6850 -0.5925
  488MPD2    H3 7262   2.417   1.781  16.353 -0.3639 -0.4750 -0.1254
  488MPD2     N 7263   2.295   2.048  16.701  0.0295  0.1160 -0.3736
  488MPD2    H5 7264   2.302   2.140  16.744 -0.5141 -0.5472  1.1291
  488MPD2    N1 7265   2.514   2.224  16.311 -0.1999  0.5706 -0.5328
  488MPD2    H7 7266   2.509   2.310  16.365  0.1924 -0.3826  0.9999
  489TMC3    C1 7267   2.199   2.009  16.910  0.4033 -1.0790 -0.2069
  489TMC3    C2 7268   2.284   2.105  16.952 -0.0118 -0.3542  0.1087
  489TMC3    C3 7269   2.240   2.177  17.058  0.2968 -0.1162  1.4536
  489TMC3    C4 7270   2.080   1.977  16.974 -0.4706 -0.1836  0.0322
  489TMC3    C5 7271   2.042   2.050  17.083  0.4186 -0.8296 -0.3005
  489TMC3    C6 7272   2.119   2.155  17.119  0.4533  0.3681 -0.0956
  489TMC3     C 7273   2.219   1.960  16.773  1.4382 -0.4062  0.9483
  489TMC3     O 7274   2.157   1.859  16.738 -0.0068 -0.1160 -0.0341
  489TMC3     H 7275   2.384   2.126  16.917 -0.0435 -0.9212 -0.3165
  489TMC3    H1 7276   2.025   1.889  16.944 -1.3684  0.7448 -1.0222
  489TMC3    H2 7277   2.097   2.206  17.212 -2.0567 -1.0751  0.1175
  489TMC3    C7 7278   1.916   2.034  17.152 -0.2067  0.0072 -0.4970
  489TMC3    C8 7279   2.324   2.290  17.097 -0.6234  0.0096 -0.2480
  489TMC3    O1 7280   1.909   2.071  17.267  0.4256  0.1218 -0.3133
  489TMC3    O2 7281   2.446   2.277  17.084 -0.6361 -0.3398  0.2311
  490MPD2     C 7282   3.942   1.398  16.969  0.3567  0.2387  0.0836
  490MPD2    C1 7283   3.885   1.473  17.071  0.3427 -0.2826  0.4241
  490MPD2    C2 7284   3.933   1.448  17.197 -0.1717  0.7140 -0.3452
  490MPD2    C3 7285   4.030   1.358  17.227 -0.0003 -0.0566  0.1841
  490MPD2    C4 7286   4.101   1.296  17.117 -0.3136 -0.4648  0.4182
  490MPD2    C5 7287   4.058   1.322  16.991  0.4849  0.2022  0.3947
  490MPD2     H 7288   3.900   1.504  17.284 -2.5652 -1.7878  0.3574
  490MPD2    H1 7289   4.193   1.239  17.128  1.3904  1.7863 -2.0876
  490MPD2    H2 7290   3.914   1.405  16.865 -2.4468 -1.6227  0.7398
  490MPD2    H3 7291   4.118   1.278  16.912  0.2299 -0.7735  0.7443
  490MPD2     N 7292   4.063   1.342  17.364 -0.5845  0.2474  0.0218
  490MPD2    H5 7293   3.998   1.376  17.434 -1.5344 -2.2009  0.3196
  490MPD2    N1 7294   3.774   1.560  17.055 -0.2289 -0.5305 -0.0465
  490MPD2    H7 7295   3.744   1.603  17.142  0.6863  0.1485 -0.0659
  491TMC3    C1 7296   3.570   1.654  16.961 -0.3743  0.9326 -0.0794
  491TMC3    C2 7297   3.514   1.640  17.084  0.8140 -0.7281 -0.0472
  491TMC3    C3 7298   3.380   1.640  17.103  0.2930  0.4220 -0.4050
  491TMC3    C4 7299   3.486   1.654  16.853  0.1826  0.6376  0.7695
  491TMC3    C5 7300   3.352   1.629  16.875  0.1783  0.0631 -0.2802
  491TMC3    C6 7301   3.291   1.622  17.000  0.5492  0.1008 -0.6541
  491TMC3     C 7302   3.698   1.584  16.939  0.1196 -0.3241 -0.3004
  491TMC3     O 7303   3.713   1.533  16.830 -0.4829  0.2273 -0.0359
  491TMC3     H 7304   3.576   1.631  17.172  1.1863  0.5165 -0.1746
  491TMC3    H1 7305   3.523   1.659  16.751 -0.5349  0.2631  0.4848
  491TMC3    H2 7306   3.185   1.600  17.009  0.7224  0.0031  1.1649
  491TMC3    C7 7307   3.282   1.566  16.765  0.6334  0.1405 -0.4345
  491TMC3    C8 7308   3.323   1.607  17.232  0.0555  0.2016  0.1547
  491TMC3    O1 7309   3.315   1.614  16.657 -0.7051  0.0275  0.3482
  491TMC3    O2 7310   3.221   1.536  17.237  0.3646 -0.4345  0.3420
  492MPD2     C 7311   3.490   1.424  11.112  0.4540  0.0640 -0.7993
  492MPD2    C1 7312   3.371   1.492  11.088 -0.1221 -0.4307  0.2164
  492MPD2    C2 7313   3.274   1.506  11.188  0.1582 -0.0525  0.2213
  492MPD2    C3 7314   3.298   1.455  11.313 -0.0516  0.0379 -0.0465
  492MPD2    C4 7315   3.418   1.393  11.337  0.0327 -0.0845 -0.2261
  492MPD2    C5 7316   3.511   1.377  11.235 -0.1519  0.4727 -0.0189
  492MPD2     H 7317   3.187   1.568  11.166  0.4797 -0.3682 -1.9151
  492MPD2    H1 7318   3.456   1.348  11.428  0.9467  0.6663 -0.2386
  492MPD2    H2 7319   3.564   1.409  11.034  0.9938  0.1165 -0.2979
  492MPD2    H3 7320   3.607   1.329  11.252 -0.0423  0.8447  0.4289
  492MPD2     N 7321   3.203   1.458  11.417 -0.0728 -0.0021  0.3056
  492MPD2    H5 7322   3.226   1.409  11.503  1.1438 -0.4631 -0.2850
  492MPD2    N1 7323   3.364   1.548  10.950  0.0479 -1.0351  0.5389
  492MPD2    H7 7324   3.439   1.532  10.884 -0.4786 -0.4815 -0.1881
  493TMC3    C1 7325   3.271   1.681  10.783  0.0009  0.4632  0.2915
  493TMC3    C2 7326   3.398   1.709  10.750  0.4404  0.6211  0.9956
  493TMC3    C3 7327   3.427   1.741  10.620 -0.0618  1.0033  0.2392
  493TMC3    C4 7328   3.165   1.684  10.695  0.1595 -0.0056 -1.1264
  493TMC3    C5 7329   3.191   1.716  10.568  0.3758 -0.1113 -0.0224
  493TMC3    C6 7330   3.321   1.734  10.523  0.6410 -0.0521  0.0151
  493TMC3     C 7331   3.251   1.618  10.914 -0.1890  0.3998  0.2963
  493TMC3     O 7332   3.141   1.630  10.963 -0.0402 -0.1885  0.0207
  493TMC3     H 7333   3.476   1.715  10.825 -0.1719  0.9095  1.6106
  493TMC3    H1 7334   3.063   1.674  10.731  0.0159  0.0171 -1.5283
  493TMC3    H2 7335   3.339   1.764  10.420  2.4118 -3.0540 -0.5716
  493TMC3    C7 7336   3.084   1.740  10.473  0.5285  0.3147  0.5925
  493TMC3    C8 7337   3.567   1.754  10.587 -0.4259 -0.0770 -0.0206
  493TMC3    O1 7338   2.981   1.677  10.490  0.1387 -0.6004  0.2859
  493TMC3    O2 7339   3.649   1.702  10.664 -0.1143 -0.8616 -0.4798
  494TMC3    C1 7340   4.072   3.599   0.498 -0.2322  0.7061 -0.3116
  494TMC3    C2 7341   4.121   3.473   0.478  0.4090 -0.3541 -0.3729
  494TMC3    C3 7342   4.095   3.397   0.372 -0.0307 -0.4749  0.3608
  494TMC3    C4 7343   4.007   3.650   0.389 -0.3763 -0.1021 -0.2881
  494TMC3    C5 7344   4.000   3.575   0.275  0.4126 -0.1733 -0.6848
  494TMC3    C6 7345   4.022   3.440   0.264  0.7650 -0.2090  0.1411
  494TMC3     C 7346   4.007   3.624   0.629 -1.0387  0.4638  0.2109
  494TMC3     O 7347   3.904   3.691   0.639 -0.1395  0.3174 -0.3419
  494TMC3     H 7348   4.173   3.421   0.558  0.9785  0.6042 -0.1264
  494TMC3    H1 7349   3.949   3.741   0.398 -2.4721 -1.6066  1.4131
  494TMC3    H2 7350   4.005   3.377   0.178  2.9009 -0.2551 -0.2367
  494TMC3    C7 7351   3.987   3.644   0.147 -0.4596 -0.6234  0.3345
  494TMC3    C8 7352   4.110   3.254   0.381  0.7372  0.2216 -0.3841
  494TMC3    O1 7353   3.965   3.567   0.053 -0.3190  0.3325  0.6174
  494TMC3    O2 7354   4.194   3.210   0.460 -0.3311  0.6599  0.2285
  495TMC3    C1 7355   2.752   0.732  14.875 -0.3137  0.1611  0.1793
  495TMC3    C2 7356   2.667   0.719  14.768 -0.2168 -0.4644  0.7535
  495TMC3    C3 7357   2.602   0.832  14.733 -0.2474  0.0932 -0.0488
  495TMC3    C4 7358   2.774   0.855  14.934 -0.0138 -0.5542 -0.6520
  495TMC3    C5 7359   2.687   0.956  14.917 -0.0793  0.1196 -0.1692
  495TMC3    C6 7360   2.602   0.945  14.807  0.3538  0.1971  1.0777
  495TMC3     C 7361   2.780   0.611  14.958 -0.2187 -0.5603 -0.9158
  495TMC3     O 7362   2.871   0.630  15.038  0.0955  0.1669 -0.6511
  495TMC3     H 7363   2.644   0.623  14.723 -3.4366  0.6190  0.0512
  495TMC3    H1 7364   2.850   0.874  15.009  0.2770 -0.3712 -0.9946
  495TMC3    H2 7365   2.556   1.037  14.773  2.1760  0.9708  0.6764
  495TMC3    C7 7366   2.616   0.988  15.041  0.3451 -0.1407  0.4098
  495TMC3    C8 7367   2.483   0.812  14.657  0.4937 -0.7812 -0.3149
  495TMC3    O1 7368   2.682   0.985  15.144 -0.3567  0.7670 -0.2282
  495TMC3    O2 7369   2.391   0.888  14.694 -0.3663 -0.0774  0.6569
  496MPD2     C 7370   4.705   0.514  15.542  1.1196  0.2201 -0.4945
  496MPD2    C1 7371   4.599   0.423  15.529  0.4399 -0.4109  0.3346
  496MPD2    C2 7372   4.472   0.460  15.564  0.4785  0.7406 -0.5012
  496MPD2    C3 7373   4.452   0.585  15.624 -0.1396 -0.2941 -0.2034
  496MPD2    C4 7374   4.557   0.678  15.636 -0.3175 -0.5846 -0.6183
  496MPD2    C5 7375   4.682   0.639  15.593  0.1663  0.1035 -0.1390
  496MPD2     H 7376   4.396   0.384  15.551  0.8341  0.0173  1.7317
  496MPD2    H1 7377   4.538   0.780  15.667  0.3025 -0.7339  0.2271
  496MPD2    H2 7378   0.086   0.483  15.523  0.6491 -2.0149  0.5954
  496MPD2    H3 7379   0.042   0.711  15.590  0.1266  0.1591  0.1205
  496MPD2     N 7380   4.336   0.616  15.690  0.0079  0.2342  0.2679
  496MPD2    H5 7381   4.325   0.708  15.731 -0.2873  0.5054 -0.4258
  496MPD2    N1 7382   4.629   0.304  15.457 -0.2471  0.0504  0.2448
  496MPD2    H7 7383   0.002   0.291  15.421 -0.8172  1.4143 -1.7157
  497TMC3    C1 7384   4.132   0.599  15.799 -0.1259 -0.0635  0.4524
  497TMC3    C2 7385   3.996   0.586  15.793 -0.5965  0.6445  0.1310
  497TMC3    C3 7386   3.920   0.608  15.897 -0.7631 -0.2781 -0.6168
  497TMC3    C4 7387   4.195   0.645  15.912 -0.0410  0.6130  0.0954
  497TMC3    C5 7388   4.117   0.674  16.015  0.5843  0.5209  0.2187
  497TMC3    C6 7389   3.980   0.662  16.013  0.3200 -0.6855 -0.7215
  497TMC3     C 7390   4.225   0.536  15.706  0.0158  0.6238  0.3957
  497TMC3     O 7391   4.188   0.444  15.634  0.5864  0.1266 -0.4280
  497TMC3     H 7392   3.942   0.545  15.708 -1.3746 -1.0502  1.4427
  497TMC3    H1 7393   4.302   0.635  15.928 -0.1265  0.4628  0.5842
  497TMC3    H2 7394   3.928   0.677  16.106 -2.3931  0.2430 -2.3851
  497TMC3    C7 7395   4.178   0.722  16.140  0.3326  0.4815 -0.1692
  497TMC3    C8 7396   3.778   0.581  15.891  0.2525 -0.0909  0.1087
  497TMC3    O1 7397   4.108   0.742  16.238 -0.3764 -0.2008 -0.2745
  497TMC3    O2 7398   3.733   0.524  15.793  0.6549  0.1077  0.0618
  498MPD2     C 7399   0.431   1.030   9.684  0.4390  0.6921 -0.0641
  498MPD2    C1 7400   0.497   0.976   9.790  0.4421  0.3176  0.2130
  498MPD2    C2 7401   0.439   0.858   9.837 -0.4679  0.4026  0.2265
  498MPD2    C3 7402   0.328   0.804   9.785  0.8984 -1.0008 -0.1149
  498MPD2    C4 7403   0.273   0.856   9.670  0.0018  0.3264  0.3125
  498MPD2    C5 7404   0.318   0.974   9.625  0.4914  0.0307  0.3396
  498MPD2     H 7405   0.470   0.825   9.936 -2.1705 -1.6374  0.0805
  498MPD2    H1 7406   0.182   0.829   9.618  2.0805 -3.0769 -1.5465
  498MPD2    H2 7407   0.444   1.133   9.652 -0.1202  0.7098 -0.2443
  498MPD2    H3 7408   0.264   1.017   9.542  2.0130 -1.7716 -1.5896
  498MPD2     N 7409   0.262   0.702   9.864 -0.3353  0.1175  0.4125
  498MPD2    H5 7410   0.312   0.668   9.946 -0.7431 -1.2701  0.0849
  498MPD2    N1 7411   0.616   1.044   9.848 -0.6239 -0.4346  0.3609
  498MPD2    H7 7412   0.656   0.993   9.926  2.3268 -0.0104 -0.8974
  499TMC3    C1 7413   0.807   1.199   9.852 -0.7749 -0.0163 -0.1509
  499TMC3    C2 7414   0.909   1.109   9.857 -0.2171 -0.1209  0.3130
  499TMC3    C3 7415   1.037   1.150   9.882 -0.4790 -0.5188 -0.6824
  499TMC3    C4 7416   0.832   1.334   9.870 -0.5178 -0.3829 -0.7511
  499TMC3    C5 7417   0.959   1.372   9.913 -0.1303  0.6984 -0.5149
  499TMC3    C6 7418   1.063   1.281   9.925  0.6914  0.0990 -0.8456
  499TMC3     C 7419   0.675   1.162   9.807  0.1565 -0.2956  0.2212
  499TMC3     O 7420   0.627   1.246   9.734 -0.0097  0.6328  0.5092
  499TMC3     H 7421   0.877   1.008   9.838  0.8874 -0.6315  1.1580
  499TMC3    H1 7422   0.754   1.408   9.861 -1.2558 -1.0178  0.4669
  499TMC3    H2 7423   1.166   1.306   9.950  0.0490  0.3137  1.5209
  499TMC3    C7 7424   1.000   1.511   9.891 -0.5361 -0.8745 -0.2488
  499TMC3    C8 7425   1.139   1.053   9.886 -0.7432  0.1748 -0.1982
  499TMC3    O1 7426   0.926   1.573   9.820 -0.0351 -0.4138 -0.9443
  499TMC3    O2 7427   1.097   0.941   9.908 -0.0382  0.1203 -0.1239
  500MPD2     C 7428   2.552   2.567  10.622  0.1724 -0.0021  0.1942
  500MPD2    C1 7429   2.628   2.589  10.506 -0.2094  0.3520 -0.1029
  500MPD2    C2 7430   2.567   2.584  10.388  0.8544  0.6434  1.0219
  500MPD2    C3 7431   2.430   2.570  10.378  0.0545  0.0783 -0.5056
  500MPD2    C4 7432   2.355   2.543  10.490  0.1492 -0.1779  0.3886
  500MPD2    C5 7433   2.417   2.549  10.612 -0.7883  0.6817  0.1868
  500MPD2     H 7434   2.634   2.610  10.307 -0.3841 -0.4025 -0.3505
  500MPD2    H1 7435   2.247   2.532  10.487  0.1462  0.0737 -0.4352
  500MPD2    H2 7436   2.596   2.566  10.720 -0.0039 -1.0552  0.2718
  500MPD2    H3 7437   2.363   2.541  10.705 -0.6821  0.5787  0.2398
  500MPD2     N 7438   2.368   2.579  10.256 -0.0935  0.2381 -0.1790
  500MPD2    H5 7439   2.268   2.560  10.252  0.4448 -2.4016 -1.2302
  500MPD2    N1 7440   2.764   2.622  10.504  0.1224 -0.4111  0.0226
  500MPD2    H7 7441   2.800   2.658  10.417  0.4316 -0.6239  0.0639
  501TMC3    C1 7442   2.982   2.649  10.575  0.6559  0.4754  0.5041
  501TMC3    C2 7443   2.983   2.775  10.529 -0.0239 -0.1125  0.4762
  501TMC3    C3 7444   3.103   2.848  10.538 -0.2222  0.8974  0.0125
  501TMC3    C4 7445   3.084   2.591  10.644  0.4934  0.0341  0.3083
  501TMC3    C5 7446   3.206   2.662  10.646  0.4108  0.4725 -0.6391
  501TMC3    C6 7447   3.216   2.790  10.599 -0.5830 -0.5897  0.1001
  501TMC3     C 7448   2.852   2.587  10.596 -0.1027  0.4663  0.7244
  501TMC3     O 7449   2.840   2.526  10.701  0.1937  0.0462  0.1010
  501TMC3     H 7450   2.891   2.823  10.498  0.8273  1.3426  0.1876
  501TMC3    H1 7451   3.088   2.492  10.689 -2.7208 -0.0748  0.3240
  501TMC3    H2 7452   3.298   2.855  10.623 -1.6706  1.3134 -1.3470
  501TMC3    C7 7453   3.306   2.607  10.738  0.3025  0.0373  0.4308
  501TMC3    C8 7454   3.087   2.983  10.595  0.6028  0.0662 -0.4073
  501TMC3    O1 7455   3.266   2.510  10.804 -0.3655  0.1788  0.2876
  501TMC3    O2 7456   3.146   3.014  10.697  0.5446 -0.1725 -0.5349
  502TMC3    C1 7457   1.982   1.543  15.376  0.4686 -0.1980  0.2089
  502TMC3    C2 7458   1.977   1.631  15.272 -0.4180  0.3678  0.1756
  502TMC3    C3 7459   1.875   1.613  15.185  0.5202  0.0027  0.2227
  502TMC3    C4 7460   1.903   1.435  15.381  0.4025 -0.3254 -0.4808
  502TMC3    C5 7461   1.805   1.427  15.289  0.4661 -0.9462 -0.3811
  502TMC3    C6 7462   1.785   1.514  15.189 -0.5597 -0.4780 -0.2652
  502TMC3     C 7463   2.091   1.555  15.472  0.3255 -0.2173  0.0355
  502TMC3     O 7464   2.186   1.626  15.442 -0.3104 -0.2355 -0.4870
  502TMC3     H 7465   2.044   1.714  15.255 -0.7846  1.1173  2.3884
  502TMC3    H1 7466   1.916   1.359  15.458  0.1218  0.2106  0.1013
  502TMC3    H2 7467   1.691   1.511  15.136 -0.7083  0.0821 -0.0368
  502TMC3    C7 7468   1.704   1.323  15.319  0.1095 -0.3989 -1.0422
  502TMC3    C8 7469   1.860   1.724  15.084  0.5016  0.3207  0.1674
  502TMC3    O1 7470   1.734   1.220  15.384  0.1938  0.9722  0.2556
  502TMC3    O2 7471   1.944   1.812  15.074 -0.3519 -0.1629  0.1187
  503MPD2     C 7472   4.174   2.262  17.107  0.2665  0.4207  0.5323
  503MPD2    C1 7473   4.201   2.321  17.231 -0.0653 -0.1937  0.8337
  503MPD2    C2 7474   4.282   2.259  17.322  0.4956 -0.0845  0.3822
  503MPD2    C3 7475   4.324   2.129  17.298  0.3792 -0.4622  0.3953
  503MPD2    C4 7476   4.292   2.071  17.177  0.2713 -0.0260 -0.3678
  503MPD2    C5 7477   4.229   2.140  17.079  0.1522  0.3100 -0.2725
  503MPD2     H 7478   4.305   2.304  17.418  0.9859 -1.6512  0.9846
  503MPD2    H1 7479   4.329   1.971  17.157 -0.5628 -0.2784 -0.6383
  503MPD2    H2 7480   4.095   2.294  17.041 -0.6841  1.4241  2.1800
  503MPD2    H3 7481   4.201   2.095  16.985 -2.4636  1.4901 -0.0608
  503MPD2     N 7482   4.404   2.065  17.397  0.0753  0.3603 -0.1576
  503MPD2    H5 7483   4.418   2.099  17.491  1.0711 -0.1114 -0.1304
  503MPD2    N1 7484   4.146   2.444  17.266 -0.3348  0.0647 -0.4188
  503MPD2    H7 7485   4.172   2.482  17.356 -0.5126 -0.0390 -0.3248
  504TMC3    C1 7486   4.552   1.883  17.450 -0.0720 -0.3666 -0.1414
  504TMC3    C2 7487   4.504   1.889  17.581  0.0250  0.4840 -0.0952
  504TMC3    C3 7488   4.557   1.797  17.671 -0.5089  0.4237  0.5471
  504TMC3    C4 7489   4.634   1.779  17.410 -0.0715  0.3474  0.0558
  504TMC3    C5 7490   4.685   1.697  17.504  0.5307 -0.3416 -0.0371
  504TMC3    C6 7491   4.648   1.696  17.638 -0.5090  0.1772  0.0993
  504TMC3     C 7492   4.484   1.960  17.350  0.3427  0.7668 -1.4424
  504TMC3     O 7493   4.524   1.938  17.239  0.0835 -0.0058 -0.2885
  504TMC3     H 7494   4.433   1.965  17.614 -0.0379 -0.0855  1.0823
  504TMC3    H1 7495   4.640   1.755  17.305 -1.3204 -1.0256  0.2988
  504TMC3    H2 7496   4.695   1.633   0.027 -1.7792  0.4364  1.1027
  504TMC3    C7 7497   0.049   1.603  17.446  0.3303 -0.0409 -0.4404
  504TMC3    C8 7498   4.498   1.802   0.123  0.0205  0.1354  0.0215
  504TMC3    O1 7499   0.114   1.634  17.349 -0.4952 -0.2519  0.3413
  504TMC3    O2 7500   4.426   1.897   0.140 -0.8761 -0.6874  0.1309
  505MPD2     C 7501   4.273   4.494  10.590  0.1240 -0.1994  0.4288
  505MPD2    C1 7502   4.399   4.433  10.587 -0.7960  0.1747 -0.1393
  505MPD2    C2 7503   4.491   4.474  10.683  0.0357 -0.9013  0.5969
  505MPD2    C3 7504   4.469   4.584  10.765 -0.6064 -0.5073 -0.3603
  505MPD2    C4 7505   4.343   4.647  10.761 -0.1311 -0.8022 -0.8010
  505MPD2    C5 7506   4.249   4.600  10.671 -1.1283 -0.4825  0.0346
  505MPD2     H 7507   4.589   4.427  10.692  0.0350 -1.3109 -1.5410
  505MPD2    H1 7508   4.302   0.007  10.821 -0.5423 -0.9875 -0.8306
  505MPD2    H2 7509   4.191   4.468  10.524  2.0938 -1.8929 -1.3769
  505MPD2    H3 7510   4.158   4.658  10.659 -0.5972  0.5335  0.8684
  505MPD2     N 7511   4.565   4.645  10.851  0.0067 -0.1024 -0.6284
  505MPD2    H5 7512   4.529   4.714  10.916  1.2599 -0.7493  0.7434
  505MPD2    N1 7513   4.429   4.323  10.499  0.1462  0.3591  0.3778
  505MPD2    H7 7514   4.356   4.305  10.431  1.1238 -1.0352 -0.3084
  506TMC3    C1 7515   4.562   4.140  10.397 -0.3338  0.2699  0.3251
  506TMC3    C2 7516   4.530   4.177  10.272 -0.4377 -0.8934  0.6608
  506TMC3    C3 7517   4.622   4.137  10.172 -0.5917  0.5722  0.5960
  506TMC3    C4 7518   4.666   4.058  10.432  0.3421  0.3045 -0.6321
  506TMC3    C5 7519   0.034   4.014  10.335 -0.0573  0.0261  0.1056
  506TMC3    C6 7520   0.010   4.058  10.207 -0.7388 -0.3359 -0.1131
  506TMC3     C 7521   4.543   4.240  10.506  0.0793 -0.5274  0.0948
  506TMC3     O 7522   4.631   4.246  10.588 -1.1747 -0.2575 -0.0676
  506TMC3     H 7523   4.452   4.247  10.243  2.1179  2.1350  1.1410
  506TMC3    H1 7524   4.679   4.027  10.535  1.3119 -0.9309 -1.1209
  506TMC3    H2 7525   0.083   4.018  10.137 -1.3078 -1.9396  0.2019
  506TMC3    C7 7526   0.169   4.061  10.363  0.0325  0.7288 -0.0733
  506TMC3    C8 7527   4.623   4.212  10.048  0.1775 -0.0706 -0.4712
  506TMC3    O1 7528   0.258   4.039  10.281  0.0012 -0.1155 -0.4089
  506TMC3    O2 7529   4.687   4.170   9.949 -0.5203 -0.2674 -0.0996
  507TMC3    C1 7530   0.702   1.383  14.449 -0.7423 -0.5733  0.2694
  507TMC3    C2 7531   0.589   1.348  14.379  0.1473  0.3057  0.0931
  507TMC3    C3 7532   0.586   1.357  14.240 -0.0678 -0.0389  0.2255
  507TMC3    C4 7533   0.812   1.430  14.376 -1.1942  0.2272  0.4026
  507TMC3    C5 7534   0.816   1.438  14.241  0.0469 -0.4228 -0.2339
  507TMC3    C6 7535   0.703   1.397  14.168 -0.3978  0.2280  0.2517
  507TMC3     C 7536   0.681   1.464  14.564  0.7270  0.3687 -0.9406
  507TMC3     O 7537   0.776   1.482  14.643  0.1649 -0.4316  0.0527
  507TMC3     H 7538   0.492   1.342  14.428  0.3551 -1.3020  0.2944
  507TMC3    H1 7539   0.895   1.457  14.439  1.4937 -3.0198 -1.7543
  507TMC3    H2 7540   0.688   1.433  14.067  0.3330  0.2144  0.1409
  507TMC3    C7 7541   0.849   1.573  14.194 -0.3744 -0.7298 -0.1352
  507TMC3    C8 7542   0.476   1.447  14.204 -0.4355  0.0848  0.6511
  507TMC3    O1 7543   0.853   1.596  14.075 -0.4453 -0.1104 -0.3828
  507TMC3    O2 7544   0.435   1.525  14.290 -0.3417 -0.1499 -0.0236
  508MPD2     C 7545   1.048   3.685  16.493  0.8219 -0.3239 -0.3687
  508MPD2    C1 7546   1.141   3.782  16.519 -0.2250  0.5038 -0.1140
  508MPD2    C2 7547   1.176   3.863  16.416  0.2647  1.3038 -0.0110
  508MPD2    C3 7548   1.110   3.861  16.296  0.0207  0.6070  0.0056
  508MPD2    C4 7549   1.004   3.781  16.277 -0.1452  0.9241  0.4368
  508MPD2    C5 7550   0.992   3.683  16.370 -0.3471 -0.6708  0.2646
  508MPD2     H 7551   1.248   3.943  16.428 -0.5285  1.9016  0.7355
  508MPD2    H1 7552   0.944   3.776  16.186 -0.2644  1.5025  0.4842
  508MPD2    H2 7553   1.020   3.607  16.563  0.2789  1.0678  0.9496
  508MPD2    H3 7554   0.917   3.608  16.344 -0.7064  0.1346 -1.0436
  508MPD2     N 7555   1.143   3.954  16.200  0.1002  0.1125 -0.1537
  508MPD2    H5 7556   1.224   4.008  16.227 -2.2835  3.1923  0.8231
  508MPD2    N1 7557   1.184   3.806  16.650 -0.1264 -0.7842  0.4077
  508MPD2    H7 7558   1.124   3.772  16.725 -2.4844  2.6409  0.1327
  509TMC3    C1 7559   1.125   4.229  15.813 -0.2662 -0.4311  0.3572
  509TMC3    C2 7560   1.197   4.327  15.872 -0.2985 -0.2559  0.8823
  509TMC3    C3 7561   1.238   4.307  16.002 -0.1895  0.3277  0.4641
  509TMC3    C4 7562   1.097   4.112  15.874 -0.1331  0.5131 -0.0478
  509TMC3    C5 7563   1.136   4.094  16.006 -0.0827 -0.3029 -0.0975
  509TMC3    C6 7564   1.210   4.190  16.071  0.1237  0.8843 -0.2824
  509TMC3     C 7565   1.096   4.239  15.673 -0.7359  0.1346 -0.0048
  509TMC3     O 7566   1.093   4.137  15.604 -0.4802 -0.0173  0.4198
  509TMC3     H 7567   1.230   4.415  15.817 -0.1054 -0.4451  0.6938
  509TMC3    H1 7568   1.056   4.030  15.816  1.2617  0.4407 -0.9318
  509TMC3    H2 7569   1.247   4.176  16.172  2.3706  0.1404 -1.2014
  509TMC3    C7 7570   1.079   3.973  16.077 -0.1919  0.3105 -0.1413
  509TMC3    C8 7571   1.298   4.416  16.078 -0.8786  0.0162  0.4994
  509TMC3    O1 7572   0.985   3.922  16.019  0.1757  0.4289  0.1036
  509TMC3    O2 7573   1.322   4.386  16.191  0.1999 -0.0592 -0.0113
  510MPD2     C 7574   3.998   0.996  14.272 -0.2877 -0.6131  0.2701
  510MPD2    C1 7575   4.067   0.951  14.378 -0.1213 -0.4374 -0.3568
  510MPD2    C2 7576   4.207   0.934  14.365  0.0103  0.2343 -0.3197
  510MPD2    C3 7577   4.267   0.977  14.250  0.5783 -0.0784 -0.2957
  510MPD2    C4 7578   4.192   1.036  14.149  0.0956  0.4457  0.1723
  510MPD2    C5 7579   4.057   1.046  14.157  0.0244  0.7504  0.1841
  510MPD2     H 7580   4.259   0.868  14.434  0.6998  0.3856 -0.6940
  510MPD2    H1 7581   4.242   1.075  14.062  1.3111  0.2887  0.7948
  510MPD2    H2 7582   3.891   1.010  14.281 -0.0982 -0.2126  1.9497
  510MPD2    H3 7583   4.001   1.088  14.075 -1.4119  1.2779  1.4357
  510MPD2     N 7584   4.408   0.950  14.236  0.0333 -0.2523 -0.3322
  510MPD2    H5 7585   4.454   0.899  14.311  0.5127 -1.3782 -1.3973
  510MPD2    N1 7586   3.992   0.918  14.494 -0.1158  0.0900  0.1366
  510MPD2    H7 7587   3.891   0.923  14.487 -0.1750 -1.3279  0.0029
  511TMC3    C1 7588   3.916   0.865  14.703  0.8631 -0.5091 -0.0844
  511TMC3    C2 7589   3.923   0.897  14.842 -0.2033 -0.2769  0.5322
  511TMC3    C3 7590   3.833   0.844  14.933  0.9315 -1.1230  0.1949
  511TMC3    C4 7591   3.825   0.772  14.665  0.2055  0.0843 -0.4024
  511TMC3    C5 7592   3.741   0.723  14.758  0.1127  0.2535  0.3111
  511TMC3    C6 7593   3.741   0.752  14.891 -0.2920 -0.2841  0.0795
  511TMC3     C 7594   4.033   0.902  14.621  0.6339  0.1059 -0.5918
  511TMC3     O 7595   4.148   0.906  14.667  0.3481 -0.0415 -0.6409
  511TMC3     H 7596   3.997   0.969  14.876  1.6481 -2.6710  1.5867
  511TMC3    H1 7597   3.826   0.731  14.564 -1.1344 -0.1050 -0.3444
  511TMC3    H2 7598   3.661   0.713  14.953 -0.2752  0.4149  0.5390
  511TMC3    C7 7599   3.685   0.601  14.721 -0.1541 -0.2525  0.5480
  511TMC3    C8 7600   3.834   0.906  15.057  0.2652 -0.4069  0.2741
  511TMC3    O1 7601   3.648   0.595  14.605 -0.0581  0.3244 -0.0592
  511TMC3    O2 7602   3.856   1.027  15.058 -0.1639 -0.2306 -0.0327
  512TMC3    C1 7603   2.774   0.223  13.158  0.3463 -0.4564 -0.5312
  512TMC3    C2 7604   2.810   0.197  13.289 -0.3921 -0.3020  0.6212
  512TMC3    C3 7605   2.791   0.072  13.337  0.6609  0.2583  0.3586
  512TMC3    C4 7606   2.760   0.120  13.070  0.1669  0.3482  0.3262
  512TMC3    C5 7607   2.756   4.714  13.122 -0.1550 -0.4415  0.4606
  512TMC3    C6 7608   2.764   4.689  13.256 -0.2619 -0.0426 -0.2862
  512TMC3     C 7609   2.770   0.361  13.120  0.0464  0.1824  0.5807
  512TMC3     O 7610   2.818   0.447  13.189  0.2250 -0.6021  0.3420
  512TMC3     H 7611   2.826   0.287  13.348 -0.2959 -0.1578  0.3745
  512TMC3    H1 7612   2.763   0.147  12.966  0.6727  2.1101  0.8015
  512TMC3    H2 7613   2.745   4.592  13.302  0.4184 -0.9422 -1.9041
  512TMC3    C7 7614   2.696   4.616  13.038 -0.7308  0.0543  0.2295
  512TMC3    C8 7615   2.791   0.036  13.480 -0.0949 -0.0528 -0.2200
  512TMC3    O1 7616   2.663   4.660  12.928 -0.6472 -0.1422 -0.1494
  512TMC3    O2 7617   2.721   4.660  13.511 -0.6597 -0.0013 -0.7841
  513MPD2     C 7618   4.623   4.456  13.445 -0.7988  0.0456 -0.2209
  513MPD2    C1 7619   0.020   4.462  13.373 -0.0843  0.0695 -0.3932
  513MPD2    C2 7620   0.104   4.560  13.413  0.4059 -0.3340  0.3150
  513MPD2    C3 7621   0.079   4.649  13.514  0.2127  0.6981 -0.8372
  513MPD2    C4 7622   4.676   4.654  13.571 -0.3330 -0.3935  0.7633
  513MPD2    C5 7623   4.593   4.556  13.537  0.3907 -0.4950 -0.1007
  513MPD2     H 7624   0.203   4.567  13.370  0.8577  2.0445  1.7094
  513MPD2    H1 7625   4.642   0.016  13.632  3.5544  1.0590  0.9726
  513MPD2    H2 7626   4.548   4.378  13.433  0.5744 -1.0956 -1.3608
  513MPD2    H3 7627   4.501   4.557  13.594 -0.6739  1.7425 -1.8595
  513MPD2     N 7628   0.176   0.023  13.538  0.1474  0.1777  0.1410
  513MPD2    H5 7629   0.257   0.014  13.477 -0.3869  1.1227 -0.7039
  513MPD2    N1 7630   0.062   4.379  13.269  0.0788  0.4875 -0.0629
  513MPD2    H7 7631   0.154   4.402  13.233  1.2199 -1.7834  1.4144
  514TMC3    C1 7632   0.055   4.248  13.084  1.2078  0.7329 -0.3604
  514TMC3    C2 7633   4.704   4.263  12.973  0.3214  0.0638 -0.4085
  514TMC3    C3 7634   0.054   4.301  12.860 -0.5681 -0.2746 -0.1881
  514TMC3    C4 7635   0.192   4.269  13.079  0.0357 -0.2259 -0.1676
  514TMC3    C5 7636   0.257   4.327  12.972  0.6123 -0.2382 -0.0889
  514TMC3    C6 7637   0.188   4.334  12.853 -0.2248  0.1838 -0.6145
  514TMC3     C 7638   4.702   4.291  13.202  0.0328 -0.1097  0.4742
  514TMC3     O 7639   4.579   4.276  13.208  0.2723 -0.0288  0.3917
  514TMC3     H 7640   4.597   4.244  12.972  0.6412 -1.7783  0.2675
  514TMC3    H1 7641   0.248   4.245  13.168  0.4475 -1.3192 -0.7092
  514TMC3    H2 7642   0.233   4.383  12.767  0.5555  3.3139  1.5980
  514TMC3    C7 7643   0.319   4.448  13.025 -0.1747  0.1239  0.8379
  514TMC3    C8 7644   4.698   4.324  12.745  0.5454  0.4919  0.2871
  514TMC3    O1 7645   0.288   4.483  13.139  0.1523 -0.3805  0.8297
  514TMC3    O2 7646   4.583   4.354  12.775  0.0536 -0.4008  0.3830
  515MPD2     C 7647   2.740   2.415  15.346  0.6759  0.1099  0.1389
  515MPD2    C1 7648   2.792   2.351  15.231  0.1320  0.3990 -1.0663
  515MPD2    C2 7649   2.910   2.388  15.177  0.3115  0.3731 -0.8159
  515MPD2    C3 7650   2.991   2.480  15.251  0.3953  0.3839 -0.4711
  515MPD2    C4 7651   2.944   2.549  15.359 -0.0419 -0.2709  0.6090
  515MPD2    C5 7652   2.821   2.517  15.404  0.1295  0.5022  0.5062
  515MPD2     H 7653   2.944   2.340  15.086 -1.7989 -1.8345 -0.4278
  515MPD2    H1 7654   2.997   2.631  15.405  0.3746 -0.5667  0.6586
  515MPD2    H2 7655   2.643   2.391  15.386  1.8113 -2.1592  1.5293
  515MPD2    H3 7656   2.790   2.569  15.493 -1.3240  0.1986  0.1693
  515MPD2     N 7657   3.133   2.495  15.226  0.1051  0.5923 -0.8446
  515MPD2    H5 7658   3.180   2.579  15.260  0.1818  0.4404 -0.5722
  515MPD2    N1 7659   2.717   2.259  15.149 -0.4922 -0.3925 -0.0325
  515MPD2    H7 7660   2.765   2.220  15.068  0.7965  1.6206 -0.2420
  516TMC3    C1 7661   2.557   2.113  15.063  0.4127 -0.0141  0.0450
  516TMC3    C2 7662   2.587   2.127  14.939 -0.0250  0.1023 -0.7232
  516TMC3    C3 7663   2.586   2.024  14.852 -0.3620 -0.4270 -0.7755
  516TMC3    C4 7664   2.490   2.006  15.110  0.5175  0.2231 -0.5061
  516TMC3    C5 7665   2.481   1.905  15.013 -0.5304 -0.2178  0.4344
  516TMC3    C6 7666   2.518   1.907  14.882 -0.2283 -0.0683  0.0876
  516TMC3     C 7667   2.589   2.220  15.167  0.9555 -0.6901  0.2354
  516TMC3     O 7668   2.534   2.210  15.274  0.7803  0.3164  0.3870
  516TMC3     H 7669   2.626   2.216  14.890 -2.6547 -0.0337 -3.0493
  516TMC3    H1 7670   2.467   1.990  15.214  1.2863  0.5026 -0.2875
  516TMC3    H2 7671   2.494   1.822  14.818  0.7578  0.1627 -0.5858
  516TMC3    C7 7672   2.422   1.786  15.071 -0.2585 -0.7411 -0.3993
  516TMC3    C8 7673   2.592   2.064  14.722 -0.3646  0.5322  0.0204
  516TMC3    O1 7674   2.460   1.769  15.190 -0.2284  0.4013 -0.4267
  516TMC3    O2 7675   2.531   2.167  14.689  0.0520  0.4622  0.2428
  517MPD2     C 7676   2.052   3.202   0.335 -0.4993 -0.4543 -0.7624
  517MPD2    C1 7677   2.186   3.227   0.361 -0.1791 -0.0222  0.5712
  517MPD2    C2 7678   2.231   3.354   0.415  0.5084 -0.4001  0.2852
  517MPD2    C3 7679   2.132   3.447   0.456 -0.2323 -0.0215 -0.0399
  517MPD2    C4 7680   1.998   3.414   0.434 -0.7470  0.2106 -0.1965
  517MPD2    C5 7681   1.959   3.296   0.377 -0.1755  0.3581  0.3930
  517MPD2     H 7682   2.338   3.369   0.426  0.3544 -0.8427  2.4323
  517MPD2    H1 7683   1.921   3.487   0.455  0.0897  1.5291 -1.6268
  517MPD2    H2 7684   2.022   3.114   0.278 -4.0455  1.4679 -1.8594
  517MPD2    H3 7685   1.859   3.276   0.342 -0.6520  2.1680  0.7332
  517MPD2     N 7686   2.167   3.581   0.505  0.3095 -0.3127 -0.5412
  517MPD2    H5 7687   2.097   3.640   0.549 -0.9609 -2.9081  0.8789
  517MPD2    N1 7688   2.282   3.123   0.337 -0.6780  0.0164  0.3009
  517MPD2    H7 7689   2.381   3.140   0.351 -0.4772 -0.6498 -0.3364
  518TMC3    C1 7690   2.385   2.918   0.259 -0.0084  0.2915  0.1630
  518TMC3    C2 7691   2.359   2.786   0.257 -0.5245  0.3862  1.0511
  518TMC3    C3 7692   2.466   2.702   0.234 -0.6481  0.0339  0.5875
  518TMC3    C4 7693   2.508   2.971   0.273 -0.1892 -1.0656  0.3922
  518TMC3    C5 7694   2.612   2.885   0.266 -0.0529 -0.1169  0.0909
  518TMC3    C6 7695   2.596   2.753   0.236 -0.0303 -0.6781 -0.3447
  518TMC3     C 7696   2.265   3.000   0.271 -0.6769 -0.9930  0.0349
  518TMC3     O 7697   2.158   2.948   0.242 -0.0099 -0.1381 -0.0984
  518TMC3     H 7698   2.260   2.744   0.271  0.3771 -1.8546  0.7898
  518TMC3    H1 7699   2.530   3.077   0.270  0.3076 -1.2358 -1.6673
  518TMC3    H2 7700   2.678   2.683   0.223 -0.7279 -1.7856  1.2386
  518TMC3    C7 7701   2.745   2.946   0.237  0.3346 -0.3118 -0.2784
  518TMC3    C8 7702   2.440   2.587   0.149  0.0212 -0.5759  0.4824
  518TMC3    O1 7703   2.751   3.068   0.250 -0.7383 -0.6655 -0.0438
  518TMC3    O2 7704   2.541   2.529   0.116  0.1630  0.4899  0.2984
  519MPD2     C 7705   4.313   2.179  13.762 -0.1897 -0.8275  0.0442
  519MPD2    C1 7706   4.292   2.076  13.851 -0.5334 -0.3293 -0.7058
  519MPD2    C2 7707   4.348   1.954  13.816  0.0706 -0.3418  0.9596
  519MPD2    C3 7708   4.422   1.926  13.698  0.3853 -0.3393 -1.0604
  519MPD2    C4 7709   4.427   2.029  13.609  0.1077 -0.0664 -0.0370
  519MPD2    C5 7710   4.380   2.153  13.646 -0.8235 -0.0337  0.9469
  519MPD2     H 7711   4.327   1.871  13.883  0.3851 -2.0448 -1.0384
  519MPD2    H1 7712   4.487   2.012  13.520 -0.4014  0.4839 -0.4817
  519MPD2    H2 7713   4.285   2.279  13.792  1.0719 -0.7525  0.9794
  519MPD2    H3 7714   4.383   2.241  13.583  0.0050 -2.1328 -1.9691
  519MPD2     N 7715   4.502   1.804  13.679 -0.7759  0.2295 -0.1953
  519MPD2    H5 7716   4.553   1.805  13.591  1.7681 -0.7622  1.2817
  519MPD2    N1 7717   4.207   2.092  13.966  0.1030 -0.2492  0.1713
  519MPD2    H7 7718   4.164   2.184  13.968 -0.9739 -0.6810 -2.3812
  520TMC3    C1 7719   4.569   1.582  13.712  0.1037  0.4131  0.2520
  520TMC3    C2 7720   4.502   1.550  13.599  0.6746  0.1045 -0.5101
  520TMC3    C3 7721   4.515   1.419  13.561 -0.5285  0.5431 -0.0415
  520TMC3    C4 7722   4.645   1.493  13.782 -0.1504 -0.8160  0.6068
  520TMC3    C5 7723   4.664   1.367  13.733 -1.0539 -0.2668 -0.3533
  520TMC3    C6 7724   4.590   1.325  13.624 -0.3925 -0.0446 -0.6271
  520TMC3     C 7725   4.519   1.704  13.775  0.1979 -0.4677 -0.1143
  520TMC3     O 7726   4.485   1.701  13.893 -0.2287  1.0156 -0.2721
  520TMC3     H 7727   4.433   1.613  13.544 -1.1479 -2.1130 -0.7564
  520TMC3    H1 7728   4.689   1.520  13.877 -0.1224  1.2907  0.0000
  520TMC3    H2 7729   4.602   1.223  13.592 -0.4181 -1.0488  2.5446
  520TMC3    C7 7730   0.051   1.283  13.788 -0.4405  0.1891  0.1941
  520TMC3    C8 7731   4.446   1.369  13.444  0.6410  0.4221  0.3837
  520TMC3    O1 7732   0.090   1.307  13.900  0.1011 -0.2600  0.2428
  520TMC3    O2 7733   4.510   1.308  13.361 -0.6869 -0.3843 -0.3319
  521MPD2     C 7734   0.101   4.480  16.350 -0.2642 -0.4611  0.1566
  521MPD2    C1 7735   0.054   4.559  16.455  0.0347  0.3569 -0.2014
  521MPD2    C2 7736   0.153   4.599  16.543  0.9633 -0.3676 -0.5796
  521MPD2    C3 7737   0.288   4.568  16.524  0.1665  0.3779  0.1700
  521MPD2    C4 7738   0.335   4.484  16.421  0.2171 -0.0770  0.0367
  521MPD2    C5 7739   0.233   4.444  16.337  0.2268 -0.3374 -0.0429
  521MPD2     H 7740   0.128   4.663  16.626 -0.3681 -1.3228 -0.2329
  521MPD2    H1 7741   0.440   4.466  16.401  0.1326  0.0897 -0.5570
  521MPD2    H2 7742   0.020   4.449  16.285 -0.4478  1.0528 -0.3328
  521MPD2    H3 7743   0.257   4.378  16.254  1.0314 -2.2595  1.7104
  521MPD2     N 7744   0.386   4.635  16.607  0.0742  0.1439  0.3730
  521MPD2    H5 7745   0.352   4.703  16.674 -3.2992  0.5437 -1.7407
  521MPD2    N1 7746   4.633   4.575  16.469  0.0339 -0.8127  0.0633
  521MPD2    H7 7747   4.576   4.523  16.403 -1.9207  0.4327  0.7627
  522TMC3    C1 7748   0.593   0.004  16.686 -0.3609  0.3117  0.7187
  522TMC3    C2 7749   0.696   4.690  16.771  0.3858  0.0073  0.0913
  522TMC3    C3 7750   0.746   0.067  16.852 -0.5004  0.1311  0.1684
  522TMC3    C4 7751   0.545   0.129  16.664 -0.7508 -0.3535  0.3418
  522TMC3    C5 7752   0.614   0.228  16.740  0.0002 -0.3255  0.0013
  522TMC3    C6 7753   0.707   0.199  16.836 -0.4719  0.9278  0.2766
  522TMC3     C 7754   0.522   4.613  16.614  0.1236  0.6996 -0.1529
  522TMC3     O 7755   0.589   4.525  16.557 -0.1394 -0.1322  0.1727
  522TMC3     H 7756   0.726   4.586  16.781 -0.2553 -0.2022 -0.2183
  522TMC3    H1 7757   0.481   0.137  16.576 -1.4095  0.9906  0.9502
  522TMC3    H2 7758   0.758   0.272  16.897 -0.0911 -1.5091  2.8850
  522TMC3    C7 7759   0.582   0.365  16.725  0.3583 -0.3340  0.1979
  522TMC3    C8 7760   0.841   0.031  16.958 -0.9248 -0.8309 -0.8042
  522TMC3    O1 7761   0.640   0.447  16.790 -0.4247 -0.1614  0.2927
  522TMC3    O2 7762   0.890   0.119  17.029 -0.8119  0.3008 -0.3753
  523MPD2     C 7763   3.193   3.981  10.623  0.1978  0.5339  0.5484
  523MPD2    C1 7764   3.206   3.897  10.517 -0.1240  0.5079  0.2498
  523MPD2    C2 7765   3.166   3.939  10.391  0.3140 -0.0162  0.0785
  523MPD2    C3 7766   3.130   4.071  10.379 -0.7857  0.3416  0.3243
  523MPD2    C4 7767   3.113   4.151  10.493 -0.0717  1.2171  0.4421
  523MPD2    C5 7768   3.147   4.104  10.611 -0.6867 -0.0044 -0.1678
  523MPD2     H 7769   3.164   3.886  10.297 -0.9442  0.2108 -0.0330
  523MPD2    H1 7770   3.093   4.258  10.493 -1.5219  0.9538  1.1734
  523MPD2    H2 7771   3.215   3.943  10.722 -1.0330  0.3431  0.7471
  523MPD2    H3 7772   3.131   4.149  10.708  1.1221 -0.8370  0.5229
  523MPD2     N 7773   3.101   4.126  10.253  0.2334  0.2363 -0.3124
  523MPD2    H5 7774   3.093   4.227  10.252 -0.7493  0.1780  0.8292
  523MPD2    N1 7775   3.231   3.761  10.539 -0.2688  0.6446  0.3997
  523MPD2    H7 7776   3.220   3.723  10.632  2.1674 -2.5212 -0.6352
  524TMC3    C1 7777   3.061   4.173  10.024 -0.3180  1.0779  0.1289
  524TMC3    C2 7778   3.012   4.112   9.912  0.3222 -0.0747  0.6221
  524TMC3    C3 7779   2.918   4.188   9.840 -0.6451 -0.2690 -0.1560
  524TMC3    C4 7780   3.038   4.304  10.052  0.0865 -0.0187  0.0842
  524TMC3    C5 7781   2.957   4.379   9.966 -0.0030 -0.9298  0.5330
  524TMC3    C6 7782   2.899   4.324   9.857 -0.0320  0.5609  0.2181
  524TMC3     C 7783   3.099   4.070  10.128  0.0818  0.4821  0.1152
  524TMC3     O 7784   3.123   3.957  10.091  0.4153  0.5416 -0.4618
  524TMC3     H 7785   3.006   4.004   9.914 -0.5946  0.0283  3.0628
  524TMC3    H1 7786   3.054   4.353  10.148 -1.6487  2.7457 -1.0390
  524TMC3    H2 7787   2.820   4.379   9.808  0.7101  2.7157  1.4627
  524TMC3    C7 7788   2.903   4.506  10.024  0.1819  0.1367 -0.5597
  524TMC3    C8 7789   2.811   4.126   9.755  0.0307 -0.3490  0.2160
  524TMC3    O1 7790   2.899   4.513  10.146  0.0355 -0.4039 -0.0257
  524TMC3    O2 7791   2.766   4.193   9.662 -0.8556  0.5727 -0.0490
  525MPD2     C 7792   0.871   1.079  14.373  0.7228  0.0286 -0.1276
  525MPD2    C1 7793   0.959   1.127  14.468 -0.4033 -0.0224 -0.1845
  525MPD2    C2 7794   1.073   1.189  14.424  0.4409  1.0081  0.0160
  525MPD2    C3 7795   1.096   1.198  14.286 -0.1900 -0.4885 -0.4148
  525MPD2    C4 7796   1.006   1.153  14.192  0.3403  0.7148  0.4120
  525MPD2    C5 7797   0.889   1.094  14.237  0.1217 -0.6569 -0.7683
  525MPD2     H 7798   1.149   1.227  14.491 -1.1949 -0.0263  2.4428
  525MPD2    H1 7799   1.021   1.176  14.088 -2.6891 -1.7797 -0.5953
  525MPD2    H2 7800   0.773   1.036  14.392  0.7920 -0.7016 -1.4125
  525MPD2    H3 7801   0.812   1.067  14.166  0.1308  1.5144 -1.5899
  525MPD2     N 7802   1.198   1.280  14.233 -0.3102  0.7244  0.8004
  525MPD2    H5 7803   1.187   1.308  14.136 -1.0955 -2.0830  0.0696
  525MPD2    N1 7804   0.942   1.114  14.609 -0.1889 -0.1932  0.1200
  525MPD2    H7 7805   1.026   1.121  14.667  0.0047 -0.1522 -0.1655
  526TMC3    C1 7806   0.838   1.059  14.821 -0.2375 -0.2536  0.1749
  526TMC3    C2 7807   0.726   1.014  14.894 -0.3080 -0.5707 -0.0421
  526TMC3    C3 7808   0.743   0.955  15.014 -0.5314  0.4988  0.8546
  526TMC3    C4 7809   0.963   1.065  14.881 -0.6413  0.1156  0.1231
  526TMC3    C5 7810   0.976   1.002  15.002 -0.1835  0.0060  0.2105
  526TMC3    C6 7811   0.870   0.942  15.071  0.4774 -0.8521  0.4324
  526TMC3     C 7812   0.825   1.092  14.676  0.5810  0.2676  0.1848
  526TMC3     O 7813   0.711   1.082  14.626  0.0963  0.0913  0.7516
  526TMC3     H 7814   0.628   1.000  14.849 -0.5936 -1.2540  0.7876
  526TMC3    H1 7815   1.056   1.100  14.837 -1.3359  0.8995 -0.7192
  526TMC3    H2 7816   0.891   0.880  15.157  1.0720 -0.2471  0.7215
  526TMC3    C7 7817   1.101   0.983  15.063  0.1044  0.9297 -0.2151
  526TMC3    C8 7818   0.636   0.951  15.113 -0.3567  0.3157  0.6853
  526TMC3    O1 7819   1.110   0.958  15.180 -0.0346 -0.1498 -0.4425
  526TMC3    O2 7820   0.660   0.916  15.228 -0.2146 -0.5052  0.0490
  527MPD2     C 7821   3.363   3.894   1.195  0.4815 -0.4859  0.3231
  527MPD2    C1 7822   3.433   3.838   1.294  0.7162  0.3557 -0.2935
  527MPD2    C2 7823   3.569   3.826   1.265 -0.5011  0.3835  0.4429
  527MPD2    C3 7824   3.624   3.849   1.142 -0.4134  0.1664 -0.1429
  527MPD2    C4 7825   3.543   3.889   1.036  0.5787 -0.1904 -0.4140
  527MPD2    C5 7826   3.419   3.921   1.072 -0.2973  0.5102  0.2977
  527MPD2     H 7827   3.637   3.788   1.340  0.3366 -1.5302 -1.2635
  527MPD2    H1 7828   3.577   3.910   0.935 -0.0427 -2.3216 -1.0588
  527MPD2    H2 7829   3.258   3.920   1.207  0.4044  0.3573 -2.1603
  527MPD2    H3 7830   3.348   3.973   1.010 -1.2729 -0.0681  0.9227
  527MPD2     N 7831   3.764   3.810   1.125 -0.1492 -0.0232  0.2479
  527MPD2    H5 7832   3.822   3.795   1.207  0.5508 -0.2618 -0.2946
  527MPD2    N1 7833   3.390   3.802   1.420  0.5239 -0.0852  0.3322
  527MPD2    H7 7834   3.460   3.786   1.492 -0.1870  0.5032  1.1602
  528TMC3    C1 7835   3.236   3.701   1.573  0.9057  0.7036 -0.1188
  528TMC3    C2 7836   3.342   3.641   1.640  0.2513 -0.4811 -0.8129
  528TMC3    C3 7837   3.317   3.565   1.751 -0.6949 -0.7183 -0.2968
  528TMC3    C4 7838   3.108   3.684   1.606 -0.2115 -0.6258  0.0513
  528TMC3    C5 7839   3.088   3.601   1.710 -0.3817  0.0312 -0.0932
  528TMC3    C6 7840   3.182   3.542   1.785 -0.0585  0.4689 -0.4193
  528TMC3     C 7841   3.257   3.790   1.450 -0.0309  0.1908  0.5208
  528TMC3     O 7842   3.156   3.832   1.387  0.1342  0.0171  0.6443
  528TMC3     H 7843   3.446   3.660   1.617  0.0267  0.4005 -1.0792
  528TMC3    H1 7844   3.024   3.718   1.547 -0.8786 -0.5616  1.0317
  528TMC3    H2 7845   3.154   3.483   1.871 -0.6549  0.0230 -0.9182
  528TMC3    C7 7846   2.942   3.589   1.734 -0.3953 -0.3291 -0.2436
  528TMC3    C8 7847   3.422   3.505   1.834 -0.0016  0.2317  0.3245
  528TMC3    O1 7848   2.882   3.691   1.693 -0.1179 -0.0132 -0.2069
  528TMC3    O2 7849   3.536   3.545   1.817 -0.5972 -0.1108 -0.0797
  529MPD2     C 7850   2.381   1.962   0.706  0.7032 -0.1685 -0.6227
  529MPD2    C1 7851   2.253   2.002   0.746 -0.1910 -0.2642 -0.5730
  529MPD2    C2 7852   2.155   2.027   0.649 -0.1617  0.1370 -0.1940
  529MPD2    C3 7853   2.184   2.021   0.515 -0.0344 -0.3016  0.6373
  529MPD2    C4 7854   2.317   1.990   0.477  0.6049 -0.0426  0.6608
  529MPD2    C5 7855   2.410   1.955   0.570 -0.1071  0.0602 -0.8282
  529MPD2     H 7856   2.051   2.050   0.671 -0.6056 -1.3200 -0.7848
  529MPD2    H1 7857   2.337   1.990   0.371 -0.9207  0.3771  0.3610
  529MPD2    H2 7858   2.460   1.929   0.772  1.1145 -1.2532 -1.6389
  529MPD2    H3 7859   2.507   1.916   0.541 -0.0981 -1.7652  1.6307
  529MPD2     N 7860   2.089   2.030   0.416  0.1024  0.3117 -0.2393
  529MPD2    H5 7861   2.118   2.032   0.319 -0.6101  0.3384 -0.4551
  529MPD2    N1 7862   2.216   2.023   0.882 -0.6449 -0.0045 -0.4405
  529MPD2    H7 7863   2.118   2.049   0.892 -1.1600 -0.9947 -2.8527
  530TMC3    C1 7864   2.221   2.031   1.116  0.1046 -0.0442  0.9849
  530TMC3    C2 7865   2.277   1.983   1.230 -0.1566  0.3127 -0.6371
  530TMC3    C3 7866   2.217   2.015   1.350 -0.4728  0.1608  0.0106
  530TMC3    C4 7867   2.120   2.119   1.112  1.0660 -0.3278 -0.4503
  530TMC3    C5 7868   2.057   2.150   1.225  0.2839  0.1598  0.6216
  530TMC3    C6 7869   2.098   2.088   1.343  0.4092 -0.7946 -0.4337
  530TMC3     C 7870   2.297   2.001   0.995 -0.3846  0.5105  0.0077
  530TMC3     O 7871   2.412   1.959   1.001 -0.6656 -0.3754  0.0627
  530TMC3     H 7872   2.358   1.911   1.223  1.0908  1.6872 -0.5405
  530TMC3    H1 7873   2.099   2.177   1.023  2.4065  1.0060  0.1016
  530TMC3    H2 7874   2.048   2.110   1.437 -0.6654 -0.6459 -1.0514
  530TMC3    C7 7875   1.918   2.171   1.212  0.2967  0.2784 -0.3710
  530TMC3    C8 7876   2.249   1.945   1.475 -0.5295 -0.2641  0.2980
  530TMC3    O1 7877   1.889   2.242   1.115 -0.0023 -0.6294  0.0420
  530TMC3    O2 7878   2.327   1.849   1.463  0.3026 -0.5895  0.1763
  531MPD2     C 7879   0.635   0.142  13.020  0.4168  0.1354 -0.5192
  531MPD2    C1 7880   0.551   0.092  13.111 -0.3988  0.3206  0.0109
  531MPD2    C2 7881   0.480   4.700  13.085 -0.6114  0.1886  0.7091
  531MPD2    C3 7882   0.491   4.626  12.968  0.4473  0.8996 -0.1443
  531MPD2    C4 7883   0.570   4.682  12.868  0.2704 -0.0549  0.4016
  531MPD2    C5 7884   0.636   0.079  12.901  0.0688  0.0630  0.0359
  531MPD2     H 7885   0.413   4.658  13.159  0.2215  1.0887  1.9699
  531MPD2    H1 7886   0.582   4.631  12.772 -2.2431 -0.8888  0.5254
  531MPD2    H2 7887   0.682   0.238  13.037  1.6132 -1.1997  3.5605
  531MPD2    H3 7888   0.695   0.116  12.818 -2.1105  3.6604  0.0750
  531MPD2     N 7889   0.416   4.508  12.935 -0.5830  0.6210 -0.7251
  531MPD2    H5 7890   0.425   4.470  12.841 -0.1950  0.9116 -0.8058
  531MPD2    N1 7891   0.531   0.167  13.233  0.3640 -0.4174  0.3650
  531MPD2    H7 7892   0.592   0.245  13.252 -0.2649 -0.0791  0.9965
  532TMC3    C1 7893   0.431   0.242  13.431  0.9715  0.2803 -0.2341
  532TMC3    C2 7894   0.305   0.248  13.488  0.8404 -0.3432 -0.2568
  532TMC3    C3 7895   0.293   0.207  13.619 -0.3174 -0.1512 -0.5511
  532TMC3    C4 7896   0.534   0.230  13.514  0.0449  0.4709 -0.0608
  532TMC3    C5 7897   0.521   0.195  13.649 -0.3935  0.5911  0.5252
  532TMC3    C6 7898   0.391   0.169  13.698 -0.9360  1.0578  0.5790
  532TMC3     C 7899   0.426   0.146  13.322 -0.4021  0.4416  0.2122
  532TMC3     O 7900   0.321   0.086  13.304  0.0596  0.4114 -0.7493
  532TMC3     H 7901   0.217   0.267  13.428  2.3358  0.2506 -2.2593
  532TMC3    H1 7902   0.632   0.237  13.469  0.2186 -0.3495  0.2003
  532TMC3    H2 7903   0.378   0.129  13.797 -1.3866 -0.0090  0.0825
  532TMC3    C7 7904   0.640   0.150  13.719 -0.0340  0.0883 -0.3306
  532TMC3    C8 7905   0.178   0.117  13.636 -0.5585  0.3151 -0.8121
  532TMC3    O1 7906   0.744   0.209  13.699 -0.0034  0.4216 -0.0883
  532TMC3    O2 7907   0.117   0.126  13.739 -0.0407  0.1211 -0.8812
  533TMC3    C1 7908   1.312   1.482  14.263  0.4186 -0.4565 -0.3956
  533TMC3    C2 7909   1.435   1.539  14.293  0.2664 -0.0492  0.0281
  533TMC3    C3 7910   1.442   1.674  14.307  0.7547  0.0593  0.0940
  533TMC3    C4 7911   1.195   1.562  14.274 -0.6232 -0.9062  0.3250
  533TMC3    C5 7912   1.203   1.689  14.315  0.3890 -0.0796 -0.5967
  533TMC3    C6 7913   1.329   1.752  14.321 -0.3249 -0.2981  0.5887
  533TMC3     C 7914   1.284   1.353  14.310 -0.5983 -0.1499 -1.0592
  533TMC3     O 7915   1.340   1.310  14.407 -0.1330  0.5350 -0.3488
  533TMC3     H 7916   1.519   1.471  14.282  1.8012  1.5323  1.9932
  533TMC3    H1 7917   1.096   1.517  14.268  0.3370 -2.6481 -2.4799
  533TMC3    H2 7918   1.342   1.859  14.331 -0.0142 -0.3904  1.1791
  533TMC3    C7 7919   1.138   1.701  14.444 -0.0540 -0.4526 -0.1896
  533TMC3    C8 7920   1.568   1.757  14.294 -0.2754  0.2445 -0.7796
  533TMC3    O1 7921   1.095   1.591  14.485 -0.1964 -0.2980  0.5280
  533TMC3    O2 7922   1.552   1.876  14.285  0.6675  0.6509  1.5020
  534MPD2     C 7923   3.641   2.446   1.974 -0.4756 -0.4670  0.4711
  534MPD2    C1 7924   3.638   2.517   1.858  0.5746 -0.4347 -0.6366
  534MPD2    C2 7925   3.601   2.454   1.740  0.7229 -0.4508  0.7944
  534MPD2    C3 7926   3.558   2.320   1.736  0.2409  0.6690  0.0121
  534MPD2    C4 7927   3.561   2.257   1.854  0.1405 -0.3591 -0.4494
  534MPD2    C5 7928   3.590   2.320   1.971 -0.5247  0.1087  0.3035
  534MPD2     H 7929   3.602   2.511   1.648  1.7884 -0.9514  0.5021
  534MPD2    H1 7930   3.524   2.155   1.849 -2.8434  0.7294 -0.5623
  534MPD2    H2 7931   3.666   2.484   2.072 -2.7561  1.5857  0.2519
  534MPD2    H3 7932   3.576   2.269   2.065 -0.8219 -0.6194 -0.1374
  534MPD2     N 7933   3.523   2.249   1.621 -0.2511 -0.0816  0.1421
  534MPD2    H5 7934   3.498   2.150   1.623  0.5978 -0.3110 -0.4802
  534MPD2    N1 7935   3.675   2.658   1.857 -0.1007 -0.6873 -0.8866
  534MPD2    H7 7936   3.662   2.706   1.769  1.7270 -0.4736 -1.0238
  535TMC3    C1 7937   3.477   2.218   1.394 -0.5125  0.6057 -1.0187
  535TMC3    C2 7938   3.514   2.084   1.388 -0.4285 -0.1415  0.2694
  535TMC3    C3 7939   3.490   2.008   1.275  0.0949 -0.3804 -0.6397
  535TMC3    C4 7940   3.409   2.275   1.288 -0.4370  0.5941  0.0988
  535TMC3    C5 7941   3.394   2.199   1.179 -0.4679  0.4311  0.4265
  535TMC3    C6 7942   3.419   2.067   1.168  0.2774 -0.3189 -0.7762
  535TMC3     C 7943   3.518   2.304   1.498  0.8497 -0.6288  0.2675
  535TMC3     O 7944   3.532   2.419   1.465  0.6222 -0.2180  0.2180
  535TMC3     H 7945   3.566   2.042   1.474 -1.3483 -1.3791  0.2213
  535TMC3    H1 7946   3.406   2.384   1.282  3.2724  0.7344  0.5728
  535TMC3    H2 7947   3.399   2.017   1.075  0.1830  0.1337 -1.0011
  535TMC3    C7 7948   3.364   2.270   1.055  0.1984  0.0033  0.1439
  535TMC3    C8 7949   3.447   1.872   1.301  0.1047 -0.4961 -0.3221
  535TMC3    O1 7950   3.305   2.378   1.065  0.3572  0.1819  0.5458
  535TMC3    O2 7951   3.364   1.825   1.221  0.0969 -0.2074 -0.1487
  536MPD2     C 7952   2.187   0.671  16.756 -0.1041 -0.6076 -0.4007
  536MPD2    C1 7953   2.206   0.805  16.728 -0.4389 -0.0728 -0.1926
  536MPD2    C2 7954   2.133   0.869  16.626 -0.0468  0.3861 -0.4405
  536MPD2    C3 7955   2.060   0.793  16.534 -0.0979  0.2302 -0.2107
  536MPD2    C4 7956   2.050   0.653  16.560 -0.6449  0.0688 -0.7012
  536MPD2    C5 7957   2.104   0.592  16.673 -0.1470 -0.0275  0.0028
  536MPD2     H 7958   2.155   0.972  16.600  2.5370  0.3090  1.3402
  536MPD2    H1 7959   1.986   0.601  16.489  0.0228  0.5187 -1.6356
  536MPD2    H2 7960   2.232   0.624  16.843  0.2351 -0.4912 -0.5135
  536MPD2    H3 7961   2.078   0.492  16.705 -1.4954 -0.3328 -2.0418
  536MPD2     N 7962   1.976   0.844  16.430  0.1738 -0.1095  0.7948
  536MPD2    H5 7963   1.919   0.777  16.380  0.0172  2.1859 -2.1540
  536MPD2    N1 7964   2.290   0.871  16.820  0.3185  0.7026  0.2664
  536MPD2    H7 7965   2.335   0.816  16.892 -1.1924 -0.6214  0.1774
  537TMC3    C1 7966   2.426   1.042  16.911 -0.6027 -1.1546 -0.0644
  537TMC3    C2 7967   2.513   1.135  16.867  0.3867 -0.0334 -0.2267
  537TMC3    C3 7968   2.593   1.195  16.964  0.2026 -0.0511  0.1962
  537TMC3    C4 7969   2.403   1.000  17.038  0.2269 -0.6155  0.1108
  537TMC3    C5 7970   2.485   1.061  17.133  0.3690 -0.6514  0.3619
  537TMC3    C6 7971   2.585   1.148  17.092 -0.4793  0.2818 -0.5290
  537TMC3     C 7972   2.339   0.998  16.803 -0.3540 -0.8930  0.2860
  537TMC3     O 7973   2.308   1.085  16.724  0.3537 -0.1131  0.2101
  537TMC3     H 7974   2.530   1.153  16.761  1.0157 -3.6789 -0.7478
  537TMC3    H1 7975   2.330   0.922  17.055 -1.1748  0.1345 -2.5149
  537TMC3    H2 7976   2.659   1.185  17.162 -2.6590  0.4573  1.6710
  537TMC3    C7 7977   2.482   1.030  17.274 -0.6629 -0.3067  0.2076
  537TMC3    C8 7978   2.714   1.261  16.928  0.3274 -0.0214 -0.2192
  537TMC3    O1 7979   2.577   1.072  17.341  0.1568  0.4895  0.0196
  537TMC3    O2 7980   2.815   1.248  17.000 -0.1060  0.3683 -0.0538
  538TMC3    C1 7981   3.603   4.148  10.673 -0.9573  0.2681 -0.1882
  538TMC3    C2 7982   3.687   4.113  10.570  0.3037  0.1016 -0.4028
  538TMC3    C3 7983   3.666   4.169  10.452 -0.0786  0.2212  0.2986
  538TMC3    C4 7984   3.498   4.236  10.655  0.1297  0.4628  0.3114
  538TMC3    C5 7985   3.489   4.289  10.530  0.2209 -0.1694 -0.4758
  538TMC3    C6 7986   3.566   4.257  10.428 -0.3654  0.8295 -0.3202
  538TMC3     C 7987   3.605   4.073  10.797  0.1007  0.1543  0.3206
  538TMC3     O 7988   3.496   4.044  10.844  0.0300 -0.3689  0.0102
  538TMC3     H 7989   3.772   4.048  10.585 -0.0436 -0.5900 -1.3473
  538TMC3    H1 7990   3.425   4.237  10.734 -0.2914 -1.2485 -0.0412
  538TMC3    H2 7991   3.555   4.298  10.328  0.7671 -1.7244 -1.4828
  538TMC3    C7 7992   3.393   4.387  10.500 -0.2790  0.6353 -0.5418
  538TMC3    C8 7993   3.776   4.163  10.360  0.3000  0.8327 -0.2180
  538TMC3    O1 7994   3.367   4.412  10.382  0.2384 -0.6348 -0.0752
  538TMC3    O2 7995   3.809   4.269  10.311 -0.2664 -0.3882 -0.2797
  539MPD2     C 7996   3.120   3.414  12.302  0.7859  0.0702 -0.1537
  539MPD2    C1 7997   3.113   3.440  12.166  0.3508 -0.2714  0.2060
  539MPD2    C2 7998   3.094   3.572  12.120  0.0220 -0.5963  0.0358
  539MPD2    C3 7999   3.095   3.674  12.217  0.3965  0.5978 -0.0497
  539MPD2    C4 8000   3.078   3.649  12.355  0.1587 -0.4441  0.0731
  539MPD2    C5 8001   3.103   3.518  12.397 -0.5578  0.5535 -0.1877
  539MPD2     H 8002   3.090   3.589  12.013 -0.1570  0.0039  0.1324
  539MPD2    H1 8003   3.055   3.728  12.425 -0.3615 -0.5255 -0.0038
  539MPD2    H2 8004   3.139   3.316  12.345  1.1967 -0.4526 -1.5275
  539MPD2    H3 8005   3.112   3.495  12.502 -1.5738  1.7429  0.1563
  539MPD2     N 8006   3.100   3.808  12.170  1.0535 -0.0468 -0.2867
  539MPD2    H5 8007   3.062   3.880  12.230 -0.5898 -0.3226 -0.9918
  539MPD2    N1 8008   3.127   3.340  12.063  0.2866  0.0379 -0.6508
  539MPD2    H7 8009   3.120   3.374  11.968 -1.8196 -0.2792 -0.5963
  540TMC3    C1 8010   3.140   3.985  12.006  0.4583  0.1497 -0.7576
  540TMC3    C2 8011   3.179   4.008  11.876  0.8959 -0.5028 -0.4718
  540TMC3    C3 8012   3.175   4.139  11.829  0.3490  0.1451 -0.1174
  540TMC3    C4 8013   3.109   4.082  12.094 -0.6169  0.6283 -0.2866
  540TMC3    C5 8014   3.089   4.202  12.038 -0.5644  0.1787 -0.4250
  540TMC3    C6 8015   3.131   4.234  11.913  0.6695  0.6592  0.6044
  540TMC3     C 8016   3.164   3.846  12.052  0.2124  0.6968  0.2420
  540TMC3     O 8017   3.229   3.770  11.981  0.0761 -0.3814  0.2915
  540TMC3     H 8018   3.223   3.932  11.813  2.1552 -0.5588  0.4613
  540TMC3    H1 8019   3.089   4.064  12.199 -0.5372  0.8519 -0.2334
  540TMC3    H2 8020   3.107   4.326  11.860 -0.2747 -0.5829 -1.1130
  540TMC3    C7 8021   2.994   4.299  12.090  0.4494 -0.4972 -0.1548
  540TMC3    C8 8022   3.187   4.164  11.685 -0.7714  0.1560 -0.2564
  540TMC3    O1 8023   2.998   4.417  12.062  0.5076  0.4475 -0.4473
  540TMC3    O2 8024   3.230   4.273  11.649  0.4286  0.1462 -0.0446
  541MPD2     C 8025   1.665   0.497  13.496 -0.4995  0.1075 -0.0994
  541MPD2    C1 8026   1.610   0.414  13.394 -0.3072 -0.3534 -0.6384
  541MPD2    C2 8027   1.610   0.461  13.262  0.1656  0.2287 -0.3581
  541MPD2    C3 8028   1.668   0.590  13.230 -0.3404  0.0233  0.1726
  541MPD2    C4 8029   1.705   0.672  13.332 -0.3702 -0.4419 -0.2488
  541MPD2    C5 8030   1.712   0.621  13.465 -0.4287 -0.5152  0.3080
  541MPD2     H 8031   1.576   0.397  13.182  0.0791 -0.2544  0.0627
  541MPD2    H1 8032   1.732   0.775  13.316 -1.0106 -0.3580 -0.7798
  541MPD2    H2 8033   1.669   0.471  13.601 -0.1453  1.7228  0.2881
  541MPD2    H3 8034   1.759   0.684  13.540 -0.9865  1.2541 -0.8263
  541MPD2     N 8035   1.689   0.631  13.096 -0.2078  0.4331  0.0437
  541MPD2    H5 8036   1.716   0.727  13.077 -2.2964  0.4811 -2.6810
  541MPD2    N1 8037   1.547   0.294  13.413 -0.4464  0.5513 -0.0031
  541MPD2    H7 8038   1.480   0.271  13.340  0.0729  1.2581 -0.7019
  542TMC3    C1 8039   1.731   0.600  12.860 -0.0188  0.4016 -0.1310
  542TMC3    C2 8040   1.758   0.518  12.751  0.1186  0.4430  0.0888
  542TMC3    C3 8041   1.742   0.562  12.627  0.0145 -0.2537 -0.0720
  542TMC3    C4 8042   1.674   0.723  12.840 -0.3259  0.1076 -0.4402
  542TMC3    C5 8043   1.644   0.758  12.715  0.3415  0.0116 -0.1186
  542TMC3    C6 8044   1.675   0.680  12.603  0.7797 -0.0818  0.2983
  542TMC3     C 8045   1.710   0.543  12.988 -0.1392 -0.0400  0.4668
  542TMC3     O 8046   1.741   0.428  13.005  0.2460  0.2753 -0.1245
  542TMC3     H 8047   1.790   0.415  12.764  1.8300  0.9008 -0.5140
  542TMC3    H1 8048   1.643   0.788  12.922  0.8889 -1.0920  0.9527
  542TMC3    H2 8049   1.652   0.709  12.501  0.1653 -2.0570 -0.1391
  542TMC3    C7 8050   1.591   0.892  12.698 -0.2842 -0.1597  0.3946
  542TMC3    C8 8051   1.763   0.458  12.522  0.8569 -0.3906 -0.2852
  542TMC3    O1 8052   1.620   0.972  12.788  0.3336 -0.3472 -0.3667
  542TMC3    O2 8053   1.678   0.458  12.439 -0.7957 -0.0417  0.1732
  543TMC3    C1 8054   0.614   1.281  17.565 -0.3087 -0.9702 -0.1777
  543TMC3    C2 8055   0.669   1.169  17.628  1.0176  0.1619  0.0428
  543TMC3    C3 8056   0.631   1.156   0.074 -0.6435 -0.0358  0.3788
  543TMC3    C4 8057   0.549   1.385  17.633 -0.4367  0.6562  0.6452
  543TMC3    C5 8058   0.542   1.370   0.079 -0.4233 -0.3560  0.0552
  543TMC3    C6 8059   0.587   1.264   0.146 -0.3360 -0.3210  0.3517
  543TMC3     C 8060   0.656   1.297  17.430 -0.4392  0.2394  0.5700
  543TMC3     O 8061   0.774   1.257  17.411  0.0502 -0.3477  0.0537
  543TMC3     H 8062   0.703   1.084  17.569  0.5898  0.3203 -0.4353
  543TMC3    H1 8063   0.500   1.464  17.578 -0.4309  2.0542  2.6515
  543TMC3    H2 8064   0.561   1.252   0.251 -0.4774  0.5029  0.4091
  543TMC3    C7 8065   0.462   1.458   0.161  0.1876  0.6241  0.6338
  543TMC3    C8 8066   0.683   1.039   0.147 -0.3240  0.8678  0.4057
  543TMC3    O1 8067   0.462   1.444   0.284 -0.7810  0.4101 -0.3638
  543TMC3    O2 8068   0.709   1.062   0.267 -0.1896  0.6403  0.0301
  544MPD2     C 8069   0.838   0.566   0.244  0.8512  0.0804  0.0867
  544MPD2    C1 8070   0.779   0.567   0.125  0.2718  0.1314  0.2956
  544MPD2    C2 8071   0.753   0.687   0.056 -0.0712 -0.1004  0.4386
  544MPD2    C3 8072   0.747   0.803   0.132 -0.4083  0.0013 -0.1948
  544MPD2    C4 8073   0.787   0.793   0.266  0.5274  0.7022  0.4332
  544MPD2    C5 8074   0.839   0.677   0.315 -0.5963  0.2390 -0.0170
  544MPD2     H 8075   0.721   0.687  17.639 -0.9109  1.7083  0.6976
  544MPD2    H1 8076   0.796   0.872   0.339 -1.2128  3.4184 -2.2976
  544MPD2    H2 8077   0.892   0.484   0.290 -0.2420 -0.4106  0.5060
  544MPD2    H3 8078   0.871   0.665   0.418  2.0794 -0.4395 -0.9047
  544MPD2     N 8079   0.696   0.924   0.076  0.3422 -0.2467 -0.3900
  544MPD2    H5 8080   0.658   0.911  17.669  0.3588 -0.1760 -0.4064
  544MPD2    N1 8081   0.774   0.443   0.062 -0.3543 -0.0814 -0.1119
  544MPD2    H7 8082   0.821   0.369   0.113 -2.9536 -1.8667 -0.3186
  545TMC3    C1 8083   0.736   0.283  17.575  0.1834  0.3423 -0.3043
  545TMC3    C2 8084   0.679   0.260  17.452  0.1216 -0.1538 -0.5951
  545TMC3    C3 8085   0.687   0.139  17.396  0.3044 -0.3702  0.7167
  545TMC3    C4 8086   0.792   0.190  17.648 -0.4222  0.8860  0.5709
  545TMC3    C5 8087   0.804   0.065  17.591 -0.4316  0.0489 -0.4391
  545TMC3    C6 8088   0.740   0.037  17.469  0.1711 -0.2530  0.6673
  545TMC3     C 8089   0.728   0.421  17.619  0.5634  0.1834 -0.0955
  545TMC3     O 8090   0.649   0.491  17.553 -0.0419 -0.5446  0.5273
  545TMC3     H 8091   0.622   0.338  17.403  1.2192  1.3577  0.5441
  545TMC3    H1 8092   0.837   0.205   0.058  1.7503  1.8438 -0.6089
  545TMC3    H2 8093   0.720   4.654  17.446  0.8499 -0.1830 -0.2028
  545TMC3    C7 8094   0.903   4.690  17.633 -0.6072  0.1705 -0.9319
  545TMC3    C8 8095   0.592   0.120  17.287  0.0987 -0.2388 -0.4317
  545TMC3    O1 8096   0.878   4.575  17.605 -0.3283 -0.3459  0.4095
  545TMC3    O2 8097   0.517   0.210  17.251  0.4106  0.0135 -0.3786
  546MPD2     C 8098   2.299   1.445  16.867  0.6326  0.4241  0.6690
  546MPD2    C1 8099   2.310   1.439  17.003  1.1437  0.0913 -0.6980
  546MPD2    C2 8100   2.393   1.532  17.064 -0.0415 -0.8360 -0.0452
  546MPD2    C3 8101   2.449   1.634  16.993  0.2328 -0.1803  0.4439
  546MPD2    C4 8102   2.444   1.632  16.855  0.2926  0.3188  0.6427
  546MPD2    C5 8103   2.361   1.543  16.793 -0.6261  0.4257  0.0968
  546MPD2     H 8104   2.405   1.535  17.172 -1.1175 -1.6165  0.0936
  546MPD2    H1 8105   2.494   1.707  16.796  1.4832 -1.1455 -0.1999
  546MPD2    H2 8106   2.230   1.381  16.812  1.3358 -1.4928  2.0028
  546MPD2    H3 8107   2.345   1.547  16.686 -2.0562  1.0357  0.3385
  546MPD2     N 8108   2.521   1.739  17.048 -0.3628  0.5284 -0.2461
  546MPD2    H5 8109   2.549   1.818  16.991  2.2000 -0.2278 -0.0609
  546MPD2    N1 8110   2.232   1.345  17.079 -0.0088  0.0265 -0.1142
  546MPD2    H7 8111   2.161   1.295  17.028 -0.2051 -1.2567  1.4087
  547TMC3    C1 8112   2.139   1.253  17.277  0.0733  0.7193 -0.2336
  547TMC3    C2 8113   2.010   1.268  17.232  0.0381  0.1978 -1.0934
  547TMC3    C3 8114   1.908   1.215  17.292 -0.0566  0.3792 -0.0903
  547TMC3    C4 8115   2.166   1.199  17.397  0.4301  0.5153 -0.1140
  547TMC3    C5 8116   2.061   1.144  17.463  0.0100  0.1362  0.0594
  547TMC3    C6 8117   1.934   1.146  17.415  0.5118  0.4288 -0.3359
  547TMC3     C 8118   2.250   1.324  17.211  0.8647  0.1072  0.2191
  547TMC3     O 8119   2.356   1.335  17.274 -0.6194  0.0370 -0.1645
  547TMC3     H 8120   1.985   1.331  17.148 -0.8301  1.9442  0.4751
  547TMC3    H1 8121   2.267   1.178  17.430 -0.4653  0.0744  2.3900
  547TMC3    H2 8122   1.845   1.095  17.452  0.9537 -0.3593 -0.3696
  547TMC3    C7 8123   2.080   1.076  17.589 -0.3116 -0.5851  0.5430
  547TMC3    C8 8124   1.771   1.229  17.241 -0.3263  0.4671  0.9302
  547TMC3    O1 8125   1.978   1.024  17.633 -0.8293  0.0776  0.7346
  547TMC3    O2 8126   1.751   1.266  17.127  0.3286 -0.5137 -0.3621
  548MPD2     C 8127   2.337   2.186  12.485 -0.7493  0.3953 -0.0422
  548MPD2    C1 8128   2.330   2.101  12.594  0.3936 -0.1873  0.1233
  548MPD2    C2 8129   2.410   1.985  12.587  0.5322 -1.0533  0.5331
  548MPD2    C3 8130   2.491   1.952  12.478 -0.5358  0.4484  0.0709
  548MPD2    C4 8131   2.486   2.039  12.371  0.2684  0.0512 -0.6052
  548MPD2    C5 8132   2.409   2.153  12.374  0.0354 -0.1186 -0.5391
  548MPD2     H 8133   2.401   1.912  12.667  1.2695 -0.4848  1.1400
  548MPD2    H1 8134   2.547   2.021  12.283 -1.7815  0.5489 -2.1291
  548MPD2    H2 8135   2.276   2.275  12.478 -2.4098 -0.7127  0.3505
  548MPD2    H3 8136   2.419   2.222  12.291 -1.1728 -0.3993 -0.9124
  548MPD2     N 8137   2.564   1.832  12.493  0.0545  0.3795 -0.4720
  548MPD2    H5 8138   2.557   1.794  12.587  1.3300  0.6384 -0.2677
  548MPD2    N1 8139   2.237   2.126  12.692  0.1279  0.0956  0.1962
  548MPD2    H7 8140   2.180   2.206  12.668  0.8727  1.7735  4.1211
  549TMC3    C1 8141   2.074   2.053  12.835 -0.2522 -0.1766 -0.0102
  549TMC3    C2 8142   1.998   2.160  12.785 -0.3542 -0.5241 -0.2661
  549TMC3    C3 8143   1.867   2.142  12.774  0.3064  0.2173  0.1593
  549TMC3    C4 8144   2.015   1.933  12.874  0.5753 -0.6416 -0.1143
  549TMC3    C5 8145   1.884   1.922  12.859 -0.3517  0.4862 -0.1986
  549TMC3    C6 8146   1.808   2.027  12.817  0.1934  0.3444  0.0424
  549TMC3     C 8147   2.206   2.036  12.787 -0.6709  0.1827  0.1983
  549TMC3     O 8148   2.260   1.934  12.827  0.0494 -0.1335 -0.1558
  549TMC3     H 8149   2.044   2.251  12.748  1.1616 -0.5450  1.5742
  549TMC3    H1 8150   2.075   1.855  12.919  0.9118 -0.4297 -0.1969
  549TMC3    H2 8151   1.701   2.020  12.799  0.5627 -0.3974 -1.8591
  549TMC3    C7 8152   1.823   1.792  12.839 -0.8596 -0.7943  0.6819
  549TMC3    C8 8153   1.775   2.236  12.719 -0.1230  0.3950  0.4510
  549TMC3    O1 8154   1.711   1.805  12.786 -0.4341 -0.1345  0.3818
  549TMC3    O2 8155   1.666   2.198  12.674  0.2771  0.8508  0.4075
  550TMC3    C1 8156   1.380   4.527  12.384  1.0184 -0.6920 -0.9000
  550TMC3    C2 8157   1.348   4.605  12.491 -0.1105  0.2326 -0.9522
  550TMC3    C3 8158   1.225   4.670  12.492  0.2236  1.2589 -0.5178
  550TMC3    C4 8159   1.276   4.479  12.308  0.4583 -0.0578 -0.0409
  550TMC3    C5 8160   1.148   4.531  12.324 -0.5832 -0.1509 -0.0027
  550TMC3    C6 8161   1.132   4.639  12.403  0.0716  0.2018 -0.0029
  550TMC3     C 8162   1.513   4.477  12.378  0.2820  0.1144 -0.2918
  550TMC3     O 8163   1.594   4.507  12.466 -0.2713  0.0410 -0.1901
  550TMC3     H 8164   1.423   4.622  12.567 -1.8096  3.8879 -0.0638
  550TMC3    H1 8165   1.296   4.388  12.252 -0.4052  1.5651 -2.9469
  550TMC3    H2 8166   1.036   4.686  12.423  0.2493  0.0950  1.0921
  550TMC3    C7 8167   1.049   4.507  12.228  0.5652 -1.0173  0.0733
  550TMC3    C8 8168   1.190   0.047  12.589 -0.3074  0.6906  0.3360
  550TMC3    O1 8169   0.938   4.561  12.246 -0.1585  0.8895  0.8400
  550TMC3    O2 8170   1.071   0.042  12.622 -0.2533 -0.5264  0.2387
  551TMC3    C1 8171   3.192   2.593  13.431 -0.7028  0.6839  0.5129
  551TMC3    C2 8172   3.260   2.627  13.318 -0.5690  0.2301 -0.0155
  551TMC3    C3 8173   3.293   2.760  13.296 -0.6401 -0.0127  0.2253
  551TMC3    C4 8174   3.174   2.692  13.525 -0.1144  0.3730  0.7552
  551TMC3    C5 8175   3.209   2.822  13.501  1.0606  0.1012 -0.1413
  551TMC3    C6 8176   3.278   2.855  13.386 -0.1812  0.1551 -0.2471
  551TMC3     C 8177   3.088   2.495  13.411  0.5261  0.6073  0.6994
  551TMC3     O 8178   3.106   2.406  13.334 -0.2130  0.0670 -0.3822
  551TMC3     H 8179   3.261   2.556  13.236  0.4695 -0.2961  0.4486
  551TMC3    H1 8180   3.108   2.687  13.611 -2.1322  0.2819 -0.8075
  551TMC3    H2 8181   3.306   2.959  13.376  2.4578 -0.6811 -1.3916
  551TMC3    C7 8182   3.256   2.893  13.620 -0.1005  0.2441  0.2130
  551TMC3    C8 8183   3.372   2.793  13.177 -0.4094 -0.1240  0.3210
  551TMC3    O1 8184   3.279   2.820  13.715 -0.1816 -0.2091  0.1108
  551TMC3    O2 8185   3.459   2.709  13.150  0.4414 -0.4012 -0.0926
  552MPD2     C 8186   0.526   0.101  14.113  0.3536  0.1462 -0.3408
  552MPD2    C1 8187   0.502   4.694  14.162  0.7757 -0.1178 -0.2562
  552MPD2    C2 8188   0.593   4.639  14.247  0.0067  0.1151 -0.8896
  552MPD2    C3 8189   0.708   4.709  14.293 -0.1198 -0.0670  0.6746
  552MPD2    C4 8190   0.726   0.118  14.247  0.0242  0.2023 -0.0411
  552MPD2    C5 8191   0.636   0.175  14.161 -0.0105 -0.1194 -0.3301
  552MPD2     H 8192   0.574   4.538  14.281 -0.5820 -0.2115 -2.1906
  552MPD2    H1 8193   0.810   0.182  14.270 -0.1541  1.2028 -2.1471
  552MPD2    H2 8194   0.458   0.154  14.047  1.1601 -0.4341 -1.6407
  552MPD2    H3 8195   0.660   0.272  14.118  2.2584  0.0227  1.2227
  552MPD2     N 8196   0.804   4.653  14.383  0.0079  0.1223  0.4322
  552MPD2    H5 8197   0.888   4.707  14.403 -0.0081  0.1885  0.3240
  552MPD2    N1 8198   0.401   4.611  14.111  0.1202 -0.6597  0.7945
  552MPD2    H7 8199   0.406   4.511  14.127  1.6375 -0.9603 -1.4707
  553TMC3    C1 8200   0.208   4.553  14.012 -0.5901 -0.2590 -0.0270
  553TMC3    C2 8201   0.218   4.527  13.871 -0.3069 -0.0911 -0.7050
  553TMC3    C3 8202   0.198   4.400  13.830 -0.4679 -0.4093 -0.1032
  553TMC3    C4 8203   0.196   4.449  14.101  1.0317  0.1213  0.0606
  553TMC3    C5 8204   0.198   4.324  14.054  0.0638 -0.0772 -0.3068
  553TMC3    C6 8205   0.188   4.302  13.921  0.3819 -0.7002 -0.1356
  553TMC3     C 8206   0.293   4.657  14.044  0.2707  0.1515  0.5754
  553TMC3     O 8207   0.258   0.051  14.023 -0.4235  0.0032  0.1520
  553TMC3     H 8208   0.244   4.605  13.801 -1.0640 -0.2909 -1.2062
  553TMC3    H1 8209   0.209   4.467  14.207  0.9412 -0.5091  0.1765
  553TMC3    H2 8210   0.200   4.198  13.891  0.6372 -0.7175  0.0292
  553TMC3    C7 8211   0.314   4.248  14.099  0.2754 -1.4236  0.4039
  553TMC3    C8 8212   0.269   4.348  13.719  0.7007  0.1887  0.1056
  553TMC3    O1 8213   0.403   4.312  14.158  0.0932 -0.5050 -0.1658
  553TMC3    O2 8214   0.363   4.420  13.678 -0.0969  0.0868  0.1197
  554TMC3    C1 8215   2.635   3.672  11.993  0.0581 -0.2394 -0.4199
  554TMC3    C2 8216   2.578   3.608  11.887  0.8627  0.6553  0.5773
  554TMC3    C3 8217   2.603   3.647  11.764 -0.1027  0.1343  0.4899
  554TMC3    C4 8218   2.738   3.760  11.972 -0.0085 -0.5045  0.1121
  554TMC3    C5 8219   2.775   3.784  11.843  0.9220  0.2959  0.2558
  554TMC3    C6 8220   2.700   3.737  11.740  0.5407 -0.3810 -0.0996
  554TMC3     C 8221   2.610   3.636  12.132  0.1926  0.3431 -0.0017
  554TMC3     O 8222   2.648   3.714  12.215  0.3228  0.1769 -0.7329
  554TMC3     H 8223   2.494   3.543  11.905  2.0970 -0.6257  1.6851
  554TMC3    H1 8224   2.786   3.823  12.046 -1.0903  0.1055  0.2905
  554TMC3    H2 8225   2.724   3.772  11.641 -1.5117  0.9418 -0.1125
  554TMC3    C7 8226   2.843   3.906  11.815 -0.3156  0.3290 -0.1787
  554TMC3    C8 8227   2.526   3.612  11.649  0.0286  0.1481  0.1321
  554TMC3    O1 8228   2.929   3.898  11.730  0.0955 -0.0888  0.1399
  554TMC3    O2 8229   2.543   3.685  11.548 -0.0785 -0.0094  0.4339
  555TMC3    C1 8230   1.135   3.309  15.352  1.0372 -0.3320 -0.3539
  555TMC3    C2 8231   1.196   3.335  15.468 -0.4119  1.4777  0.8033
  555TMC3    C3 8232   1.243   3.238  15.557 -0.9374  0.1749 -0.2302
  555TMC3    C4 8233   1.120   3.177  15.308 -0.8792 -0.3887 -0.0469
  555TMC3    C5 8234   1.182   3.083  15.394 -0.5780  0.0426  0.1041
  555TMC3    C6 8235   1.239   3.108  15.518 -0.3326 -0.0999 -0.1042
  555TMC3     C 8236   1.169   3.397  15.240  0.0614 -0.2141 -0.0335
  555TMC3     O 8237   1.255   3.477  15.269  0.1225  0.6024 -0.8309
  555TMC3     H 8238   1.225   3.438  15.485  2.4579  1.2176 -2.4578
  555TMC3    H1 8239   1.098   3.143  15.208 -0.0923  0.7217 -0.6030
  555TMC3    H2 8240   1.269   3.026  15.581  0.2595  0.5407  0.4536
  555TMC3    C7 8241   1.199   2.948  15.339 -0.0695  0.4371  0.2797
  555TMC3    C8 8242   1.334   3.291  15.657  0.3792 -0.3513  0.0608
  555TMC3    O1 8243   1.134   2.905  15.250  0.1208 -0.0457  0.6383
  555TMC3    O2 8244   1.364   3.411  15.651 -0.0409 -0.1542  0.2312
  556MPD2     C 8245   4.368   0.432  10.051 -0.0218 -0.0163  0.2504
  556MPD2    C1 8246   4.333   0.327  10.139 -0.0474  0.2875  0.3232
  556MPD2    C2 8247   4.306   0.204  10.079 -0.2026  0.9167 -0.4896
  556MPD2    C3 8248   4.286   0.181   9.947 -0.5533  0.1373 -0.0544
  556MPD2    C4 8249   4.314   0.286   9.864 -0.3403  0.0278  0.1303
  556MPD2    C5 8250   4.352   0.406   9.918 -0.2862 -0.2051 -0.2283
  556MPD2     H 8251   4.289   0.120  10.146 -0.7789  0.0857 -1.6768
  556MPD2    H1 8252   4.303   0.289   9.756  0.2917 -0.4127  0.0596
  556MPD2    H2 8253   4.392   0.530  10.091 -1.3710 -0.5007  2.2064
  556MPD2    H3 8254   4.373   0.497   9.862 -0.9467 -0.8658 -1.5466
  556MPD2     N 8255   4.268   0.049   9.905  0.3370  0.1882 -0.2062
  556MPD2    H5 8256   4.269   4.699   9.978 -0.0151 -1.6420 -1.9905
  556MPD2    N1 8257   4.349   0.328  10.287 -0.4327  0.4101 -0.1326
  556MPD2    H7 8258   4.330   0.242  10.337 -2.4689  0.0789 -1.4960
  557TMC3    C1 8259   4.235   4.582   9.771 -1.1273  0.5260 -0.3089
  557TMC3    C2 8260   4.250   4.526   9.644  0.5643  1.1944 -0.4143
  557TMC3    C3 8261   4.226   4.394   9.634 -0.7528  0.3541  0.0323
  557TMC3    C4 8262   4.198   4.503   9.877  0.0583  0.0126 -0.7126
  557TMC3    C5 8263   4.187   4.366   9.866  0.2408 -0.3110  0.2604
  557TMC3    C6 8264   4.204   4.309   9.743 -0.3745 -0.3874  0.5228
  557TMC3     C 8265   4.243   0.006   9.775  1.2459  0.5397  0.7479
  557TMC3     O 8266   4.230   0.070   9.669  0.0588  0.1453 -0.3165
  557TMC3     H 8267   4.266   4.596   9.562  2.9173  1.1313 -0.0061
  557TMC3    H1 8268   4.193   4.551   9.975 -0.9410  0.0617 -0.7909
  557TMC3    H2 8269   4.206   4.201   9.734  1.7517  0.0135 -3.7639
  557TMC3    C7 8270   4.131   4.294   9.984 -0.0688  0.0910  0.2236
  557TMC3    C8 8271   4.135   4.384   9.521  0.7285  0.0262 -0.6428
  557TMC3    O1 8272   4.068   4.359  10.063  0.1856 -0.0155  0.5885
  557TMC3    O2 8273   4.137   4.460   9.421  0.4608 -0.0933 -0.4028
  558TMC3    C1 8274   2.339   2.513  10.045 -0.4579  0.7532  0.2260
  558TMC3    C2 8275   2.298   2.392  10.093 -0.2083  0.0629 -0.9174
  558TMC3    C3 8276   2.239   2.305  10.007  0.2036  0.1835 -0.1971
  558TMC3    C4 8277   2.323   2.540   9.908  0.4562 -0.3891  0.1125
  558TMC3    C5 8278   2.240   2.462   9.833  0.0960  1.1551 -0.4071
  558TMC3    C6 8279   2.197   2.343   9.882  0.7143 -0.0428  0.0048
  558TMC3     C 8280   2.432   2.573  10.132 -1.3872 -0.5337  0.1861
  558TMC3     O 8281   2.536   2.608  10.089  0.1297  0.5294  0.4952
  558TMC3     H 8282   2.329   2.355  10.191  0.6279  0.9038 -0.8696
  558TMC3    H1 8283   2.352   2.636   9.866  2.3651  0.1242  2.5824
  558TMC3    H2 8284   2.147   2.269   9.821 -0.9163  1.4694 -0.4890
  558TMC3    C7 8285   2.172   2.514   9.718  0.0432  0.1486 -0.3525
  558TMC3    C8 8286   2.167   2.190  10.059  0.8550 -0.2987 -0.1143
  558TMC3    O1 8287   2.240   2.595   9.648 -0.2762  0.3978  0.5473
  558TMC3    O2 8288   2.137   2.100   9.979 -0.7133 -0.4399  0.1378
  559MPD2     C 8289   2.142   2.919  10.650  0.0581 -0.6386 -0.2404
  559MPD2    C1 8290   2.056   2.852  10.729  0.3101  1.0000 -0.0750
  559MPD2    C2 8291   2.075   2.854  10.871 -0.2587 -0.2479  0.3374
  559MPD2    C3 8292   2.195   2.912  10.931 -0.2498 -0.1652 -0.3080
  559MPD2    C4 8293   2.284   2.969  10.840  0.2641 -1.1376  0.1546
  559MPD2    C5 8294   2.255   2.984  10.702  0.2241  0.3813 -0.2024
  559MPD2     H 8295   2.005   2.803  10.935  0.5030 -1.3316  0.3067
  559MPD2    H1 8296   2.369   3.015  10.889 -0.6127  2.3636 -1.6220
  559MPD2    H2 8297   2.127   2.933  10.543  2.6041 -1.2796 -0.6871
  559MPD2    H3 8298   2.323   3.042  10.641 -1.1569  0.7031 -1.4178
  559MPD2     N 8299   2.217   2.898  11.066 -0.3746 -0.3375  0.1661
  559MPD2    H5 8300   2.141   2.854  11.115 -1.7468 -0.8424 -2.3922
  559MPD2    N1 8301   1.936   2.809  10.678 -0.1687  0.2178  0.5558
  559MPD2    H7 8302   1.909   2.852  10.590  1.3621  0.4135  0.1955
  560TMC3    C1 8303   2.305   2.887  11.278  0.1413 -0.1256  0.3595
  560TMC3    C2 8304   2.195   2.809  11.321 -0.1598  0.1668 -0.3648
  560TMC3    C3 8305   2.217   2.726  11.429 -0.6971 -0.2686  0.4669
  560TMC3    C4 8306   2.409   2.905  11.364 -0.2892 -0.0883 -0.0750
  560TMC3    C5 8307   2.417   2.836  11.481  0.1032 -0.0359  0.1237
  560TMC3    C6 8308   2.327   2.734  11.507  0.0887  0.0694  0.1954
  560TMC3     C 8309   2.323   2.932  11.142  0.1219  0.1936  0.6406
  560TMC3     O 8310   2.439   2.963  11.124 -0.3442  0.2316 -0.9186
  560TMC3     H 8311   2.113   2.780  11.256 -0.8375 -0.9608  0.9783
  560TMC3    H1 8312   2.495   2.966  11.341 -0.6016  0.3963  0.0347
  560TMC3    H2 8313   2.345   2.679  11.599  2.2667  2.3835  1.1635
  560TMC3    C7 8314   2.477   2.903  11.600  0.4329 -1.0783  0.0081
  560TMC3    C8 8315   2.143   2.607  11.421  0.6062 -0.3121  0.1198
  560TMC3    O1 8316   2.424   2.883  11.708  0.1610 -0.1454  0.3991
  560TMC3    O2 8317   2.029   2.625  11.386 -0.4387 -0.0903 -0.2701
  561TMC3    C1 8318   4.692   1.800  11.551 -0.1597 -0.0192  0.2312
  561TMC3    C2 8319   4.588   1.756  11.618  0.6008 -0.1021 -0.4109
  561TMC3    C3 8320   4.565   1.810  11.743 -0.2062  0.3739  0.0190
  561TMC3    C4 8321   0.056   1.896  11.603 -0.3886 -0.7254 -0.8437
  561TMC3    C5 8322   0.035   1.933  11.736 -0.0037 -0.3848  0.4192
  561TMC3    C6 8323   4.642   1.902  11.804 -0.1666 -0.1383  0.5456
  561TMC3     C 8324   4.673   1.806  11.403  0.4939  0.5734 -0.5080
  561TMC3     O 8325   4.583   1.729  11.368  0.1621 -0.5811  0.0726
  561TMC3     H 8326   4.514   1.687  11.580 -0.9275  0.9557  0.6348
  561TMC3    H1 8327   0.149   1.924  11.556  0.1576  0.2118  0.7924
  561TMC3    H2 8328   4.637   1.937  11.907 -0.2425  3.4135 -0.6585
  561TMC3    C7 8329   0.129   1.998  11.819 -0.5206  0.1418 -0.4036
  561TMC3    C8 8330   4.474   1.749  11.841  0.9307 -0.5561  0.3427
  561TMC3    O1 8331   0.151   1.951  11.929 -0.1329 -0.1235 -0.7759
  561TMC3    O2 8332   4.484   1.628  11.845 -0.4136 -0.3341 -0.2507
  562TMC3    C1 8333   1.319   3.080  16.253 -0.1921  0.6424  1.3415
  562TMC3    C2 8334   1.262   3.211  16.235 -0.6925  0.3871 -0.4326
  562TMC3    C3 8335   1.184   3.229  16.122  0.0949  0.0512  0.2443
  562TMC3    C4 8336   1.295   2.982  16.166 -0.4179 -0.2123 -0.6076
  562TMC3    C5 8337   1.209   3.000  16.060  0.6963 -0.2252  0.3392
  562TMC3    C6 8338   1.158   3.128  16.033 -0.0131  0.6102  0.2616
  562TMC3     C 8339   1.416   3.061  16.360  0.3799 -0.2874 -0.3479
  562TMC3     O 8340   1.451   3.164  16.413 -0.4874 -0.5387 -0.3370
  562TMC3     H 8341   1.257   3.285  16.314  0.6196  0.2609 -0.2359
  562TMC3    H1 8342   1.363   2.897  16.159  1.9397  1.8519 -2.7705
  562TMC3    H2 8343   1.118   3.149  15.934  0.6455  0.6286  0.0000
  562TMC3    C7 8344   1.231   2.911  15.943  0.7533 -0.1996 -0.3479
  562TMC3    C8 8345   1.164   3.371  16.090  0.4006 -0.0977 -0.5827
  562TMC3    O1 8346   1.217   2.966  15.835  0.3785 -0.1425  0.3982
  562TMC3    O2 8347   1.204   3.451  16.174 -0.0566 -0.5897 -0.0115
  563MPD2     C 8348   3.292   4.200  15.925 -0.1026  0.1697 -0.1499
  563MPD2    C1 8349   3.271   4.315  15.994  0.1992  0.4552  0.1582
  563MPD2    C2 8350   3.372   4.407  15.993  0.1363 -0.0576  0.2545
  563MPD2    C3 8351   3.488   4.392  15.919 -0.4756  0.1868 -0.3826
  563MPD2    C4 8352   3.504   4.276  15.855 -0.1058  1.2081  0.8634
  563MPD2    C5 8353   3.403   4.184  15.850 -0.2269 -0.2150  0.8399
  563MPD2     H 8354   3.342   4.496  16.047  0.0945  0.5681 -0.7967
  563MPD2    H1 8355   3.589   4.276  15.787 -1.0380  1.2593 -0.3125
  563MPD2    H2 8356   3.227   4.113  15.932  0.4381 -0.1789  0.6524
  563MPD2    H3 8357   3.408   4.091  15.794 -0.4791 -1.2714  2.5930
  563MPD2     N 8358   3.585   4.489  15.926 -0.0619  0.4458 -0.1266
  563MPD2    H5 8359   3.555   4.577  15.969 -0.4267  0.5125 -0.5204
  563MPD2    N1 8360   3.143   4.332  16.054  0.3666  0.5320 -0.0975
  563MPD2    H7 8361   3.081   4.255  16.031  0.6991  0.0472  0.6297
  564TMC3    C1 8362   2.960   4.455  16.143 -0.1263 -0.4984  0.3146
  564TMC3    C2 8363   2.906   4.350  16.203 -0.0314  0.4810  0.3062
  564TMC3    C3 8364   2.844   4.361  16.321  0.1998 -0.2672  0.0998
  564TMC3    C4 8365   2.933   4.578  16.199 -1.0239 -0.5132  0.0295
  564TMC3    C5 8366   2.877   4.590  16.320 -0.3001 -0.0980 -0.3254
  564TMC3    C6 8367   2.829   4.485  16.383 -0.7041  0.6385  0.1414
  564TMC3     C 8368   3.097   4.443  16.111  0.0244 -1.3539 -0.1817
  564TMC3     O 8369   3.160   4.547  16.135 -0.1058 -0.1701 -0.1898
  564TMC3     H 8370   2.930   4.251  16.166 -0.7077  0.1448  0.7603
  564TMC3    H1 8371   2.967   4.665  16.145  1.3794  0.3231  2.9489
  564TMC3    H2 8372   2.809   4.492  16.489  1.2652 -4.0431  0.8141
  564TMC3    C7 8373   2.947   4.672  16.416  0.1427  0.1740  0.2885
  564TMC3    C8 8374   2.782   4.250  16.381  0.2589  0.3257  0.2424
  564TMC3    O1 8375   2.890   0.013  16.504  0.3063  0.3673 -0.4216
  564TMC3    O2 8376   2.710   4.282  16.476 -0.1692  0.2769 -0.2874
  565TMC3    C1 8377   3.727   1.361   9.816 -1.0066  0.4360 -0.0306
  565TMC3    C2 8378   3.770   1.236   9.858 -0.4835  0.5298 -0.6672
  565TMC3    C3 8379   3.671   1.141   9.890  0.5158 -0.0882  0.7658
  565TMC3    C4 8380   3.594   1.400   9.820  0.4497  0.4627 -0.8352
  565TMC3    C5 8381   3.510   1.297   9.860 -0.4740 -0.8663 -0.9331
  565TMC3    C6 8382   3.540   1.177   9.901  0.9142  0.0532 -0.7487
  565TMC3     C 8383   3.834   1.458   9.781 -0.7026  0.2849 -0.4323
  565TMC3     O 8384   3.798   1.559   9.719 -0.5758 -0.5782  0.4475
  565TMC3     H 8385   3.869   1.197   9.838 -0.8258 -1.2956  1.1828
  565TMC3    H1 8386   3.574   1.505   9.804 -0.7398  0.5323  1.0633
  565TMC3    H2 8387   3.474   1.091   9.909 -0.8883  1.5172  0.2060
  565TMC3    C7 8388   3.371   1.332   9.872  0.1390  0.6184 -0.1208
  565TMC3    C8 8389   3.720   1.027   9.963 -0.1966 -0.6147  0.4270
  565TMC3    O1 8390   3.317   1.270   9.963  0.3915  0.2093 -0.0543
  565TMC3    O2 8391   3.840   1.033   9.985  0.7435 -0.3043 -0.7932
  566MPD2     C 8392   0.711   3.006  14.531  0.1641 -0.2766 -0.0912
  566MPD2    C1 8393   0.716   3.112  14.442  0.5451  0.5458 -0.6909
  566MPD2    C2 8394   0.639   3.107  14.325 -0.2458  0.0357  0.7443
  566MPD2    C3 8395   0.572   2.988  14.286  0.4344  0.1521 -0.1273
  566MPD2    C4 8396   0.565   2.886  14.378  0.2134  0.4956  0.8304
  566MPD2    C5 8397   0.627   2.900  14.500  0.8795 -0.0375 -0.0381
  566MPD2     H 8398   0.639   3.188  14.252 -0.7669 -0.2962  0.3724
  566MPD2    H1 8399   0.523   2.789  14.356  3.1834 -0.5309 -0.2503
  566MPD2    H2 8400   0.759   3.019  14.627 -0.4916 -0.2656  0.2386
  566MPD2    H3 8401   0.614   2.817  14.568  0.9574 -0.1657 -0.1805
  566MPD2     N 8402   0.532   2.968  14.148  0.2672 -0.0287 -0.6650
  566MPD2    H5 8403   0.533   3.048  14.086 -1.1455 -0.6092 -1.4131
  566MPD2    N1 8404   0.807   3.220  14.475  0.2059 -0.3930  0.0050
  566MPD2    H7 8405   0.856   3.212  14.563 -1.4938  0.8184  1.0717
  567TMC3    C1 8406   0.956   3.407  14.459 -0.5013  0.1399  0.7399
  567TMC3    C2 8407   1.004   3.499  14.366  0.3591 -0.1985  0.1153
  567TMC3    C3 8408   1.137   3.541  14.363 -1.0913 -0.1723  0.4511
  567TMC3    C4 8409   1.045   3.351  14.547 -0.6279 -0.5106 -0.4363
  567TMC3    C5 8410   1.179   3.389  14.544  0.4488 -0.1542  0.4978
  567TMC3    C6 8411   1.218   3.482  14.451 -0.3916  0.2980  0.2766
  567TMC3     C 8412   0.834   3.335  14.405  0.7767  0.2042  0.3378
  567TMC3     O 8413   0.792   3.368  14.297 -0.3210  0.2148 -0.3237
  567TMC3     H 8414   0.941   3.518  14.280  1.9080  0.5160 -0.8525
  567TMC3    H1 8415   0.992   3.282  14.613  0.9271 -1.4305 -0.1517
  567TMC3    H2 8416   1.321   3.499  14.422  0.6429 -4.8989  0.8631
  567TMC3    C7 8417   1.262   3.326  14.640  0.3401 -0.3531 -0.2585
  567TMC3    C8 8418   1.184   3.576  14.231  0.1549  0.3327 -0.1389
  567TMC3    O1 8419   1.363   3.381  14.676  0.2797 -0.0666  0.4880
  567TMC3    O2 8420   1.153   3.500  14.140  0.3810  0.5385 -0.0531
  568MPD2     C 8421   3.220   3.502  17.414  0.0393  0.9032 -0.6587
  568MPD2    C1 8422   3.093   3.445  17.408 -0.1752 -0.4069  0.2006
  568MPD2    C2 8423   2.986   3.526  17.362  0.5267 -0.1434 -0.1697
  568MPD2    C3 8424   3.003   3.659  17.320 -0.0547  0.4392 -0.5912
  568MPD2    C4 8425   3.131   3.708  17.318  0.5109 -0.5131 -0.0328
  568MPD2    C5 8426   3.238   3.634  17.367  0.7260  0.1781 -0.3000
  568MPD2     H 8427   2.888   3.481  17.351  0.6447 -0.1135 -1.3550
  568MPD2    H1 8428   3.162   3.807  17.286 -0.5314  0.4554  1.9853
  568MPD2    H2 8429   3.301   3.451  17.464 -1.3931  0.2265  1.0029
  568MPD2    H3 8430   3.333   3.687  17.364  0.6894  0.2857  0.4309
  568MPD2     N 8431   2.893   3.735  17.274  0.1165 -0.3164 -0.1034
  568MPD2    H5 8432   2.800   3.694  17.276 -0.4975  0.9264 -2.5201
  568MPD2    N1 8433   3.078   3.315  17.461  0.5018 -0.3948  0.2282
  568MPD2    H7 8434   3.167   3.268  17.470  0.2949 -0.5121  1.6233
  569TMC3    C1 8435   2.768   3.918  17.184  0.4733 -0.0120  0.1011
  569TMC3    C2 8436   2.739   4.051  17.182  0.1446  1.0881 -0.0954
  569TMC3    C3 8437   2.654   4.094  17.086  0.3277  0.2552  0.4188
  569TMC3    C4 8438   2.722   3.835  17.088 -1.0144  0.0188  0.6654
  569TMC3    C5 8439   2.645   3.884  16.988  0.7666 -0.7693  0.8582
  569TMC3    C6 8440   2.609   4.014  16.987 -0.7959 -0.2374  0.4746
  569TMC3     C 8441   2.894   3.870  17.239 -0.3991  0.1874  0.3927
  569TMC3     O 8442   2.986   3.951  17.253 -0.1769 -0.1270  0.0858
  569TMC3     H 8443   2.780   4.113  17.262  1.2479 -0.6647  0.7064
  569TMC3    H1 8444   2.725   3.727  17.096  0.0053  0.0007  0.1028
  569TMC3    H2 8445   2.538   4.054  16.915  0.0814  1.5273  0.6134
  569TMC3    C7 8446   2.665   3.825  16.856 -0.0792 -0.3703  0.1122
  569TMC3    C8 8447   2.673   4.229  17.034 -0.3704 -1.0707 -0.0816
  569TMC3    O1 8448   2.698   3.707  16.852  0.1555  0.1470  0.7260
  569TMC3    O2 8449   2.581   4.267  16.963 -0.4254 -0.1497 -0.3450
  570TMC3    C1 8450   2.591   2.354  16.119  0.8850 -0.2224  0.1339
  570TMC3    C2 8451   2.674   2.354  16.005 -0.2076  0.7768  0.2355
  570TMC3    C3 8452   2.659   2.453  15.916  0.6823  0.4581 -0.1006
  570TMC3    C4 8453   2.503   2.458  16.138 -0.4950  0.6236 -0.3298
  570TMC3    C5 8454   2.501   2.560  16.042 -0.1555 -0.3319 -0.2306
  570TMC3    C6 8455   2.570   2.555  15.929  0.8122 -0.4653 -0.3502
  570TMC3     C 8456   2.574   2.226  16.184  0.1398  0.9777  0.5929
  570TMC3     O 8457   2.612   2.130  16.118 -0.7922 -0.2000 -0.3221
  570TMC3     H 8458   2.750   2.277  15.996  0.1955  1.2322 -0.2005
  570TMC3    H1 8459   2.439   2.454  16.226 -1.3481 -1.1286 -1.0339
  570TMC3    H2 8460   2.555   2.621  15.844 -3.8882 -0.9069  0.1532
  570TMC3    C7 8461   2.457   2.688  16.096 -0.4595  0.7188 -0.1011
  570TMC3    C8 8462   2.764   2.495  15.823 -0.0246  0.5425  0.1339
  570TMC3    O1 8463   2.422   2.775  16.018  0.2927 -0.7036  0.0109
  570TMC3    O2 8464   2.773   2.614  15.795 -0.4527 -0.2290  0.5145
  571MPD2     C 8465   0.382   4.034  17.084 -0.1496 -0.4251  0.5152
  571MPD2    C1 8466   0.329   4.147  17.147 -0.8287 -0.4072 -0.3450
  571MPD2    C2 8467   0.383   4.181  17.273 -0.2769  0.5640  0.0643
  571MPD2    C3 8468   0.476   4.102  17.337 -0.1010  0.1227 -0.4255
  571MPD2    C4 8469   0.519   3.984  17.281  0.6897  0.5834 -0.3607
  571MPD2    C5 8470   0.478   3.952  17.151  0.0511  0.3137  0.0306
  571MPD2     H 8471   0.351   4.272  17.322  2.7673  0.9399  1.3405
  571MPD2    H1 8472   0.587   3.920  17.336  0.7599  0.5604 -0.4746
  571MPD2    H2 8473   0.352   4.012  16.982  1.4954 -1.5486  0.2754
  571MPD2    H3 8474   0.516   3.859  17.109  0.7601 -0.1683  1.7490
  571MPD2     N 8475   0.525   4.139  17.467 -0.3835 -0.0041 -0.4242
  571MPD2    H5 8476   0.591   4.074  17.509  0.1087  1.3852  0.9207
  571MPD2    N1 8477   0.225   4.220  17.081 -0.0509 -0.2975  0.2643
  571MPD2    H7 8478   0.195   4.182  16.992 -2.0781  0.0605  0.7864
  572TMC3    C1 8479   0.604   4.291  17.630 -0.0234  0.1596 -0.6145
  572TMC3    C2 8480   0.605   4.196   0.035 -0.0720 -0.1459 -0.6333
  572TMC3    C3 8481   0.629   4.238   0.161  0.0544  0.3735  0.0835
  572TMC3    C4 8482   0.617   4.426  17.651 -0.2328  0.3828  0.4364
  572TMC3    C5 8483   0.645   4.459   0.092 -0.5530 -0.5432 -0.3923
  572TMC3    C6 8484   0.650   4.369   0.194  0.6994 -0.0227  0.4578
  572TMC3     C 8485   0.516   4.268  17.521  0.0708 -0.1025  0.3171
  572TMC3     O 8486   0.469   4.375  17.480  0.0974 -0.1531 -0.6080
  572TMC3     H 8487   0.547   4.104   0.029 -2.7588  1.5737 -0.9898
  572TMC3    H1 8488   0.639   4.496  17.572 -0.1827  0.5860  0.6307
  572TMC3    H2 8489   0.658   4.403   0.297  0.5714  2.5238 -0.3718
  572TMC3    C7 8490   0.637   4.596   0.133 -0.0765 -0.0636  0.2342
  572TMC3    C8 8491   0.574   4.152   0.268  0.0351  0.5412 -0.0602
  572TMC3    O1 8492   0.561   4.669   0.076 -0.0708 -0.5486  0.1854
  572TMC3    O2 8493   0.581   4.029   0.251  0.7956 -0.1755 -0.4099
  573MPD2     C 8494   2.080   4.576   0.920 -0.0700 -0.0120 -0.2910
  573MPD2    C1 8495   2.078   4.714   0.909  0.0555  0.0119  1.3424
  573MPD2    C2 8496   2.026   0.048   0.789  0.2246  0.2464  0.1012
  573MPD2    C3 8497   1.974   4.687   0.695 -0.0133  0.5990 -0.2210
  573MPD2    C4 8498   1.977   4.553   0.717 -0.8152  1.1455 -0.2854
  573MPD2    C5 8499   2.031   4.497   0.823  0.0691  0.2099  0.0334
  573MPD2     H 8500   2.032   0.155   0.773 -2.4644  0.3893  0.1032
  573MPD2    H1 8501   1.933   4.481   0.649  2.5134 -2.7060  1.6385
  573MPD2    H2 8502   2.117   4.527   1.009  1.2561  1.4854 -0.0233
  573MPD2    H3 8503   2.042   4.389   0.829 -1.4003  0.0852  0.3863
  573MPD2     N 8504   1.908   0.015   0.577  0.4799  0.5696  0.2193
  573MPD2    H5 8505   1.866   4.668   0.516 -1.9065  1.0714  1.3090
  573MPD2    N1 8506   2.119   0.076   1.017 -0.6717  0.7989  0.0798
  573MPD2    H7 8507   2.175   0.028   1.086 -1.3193 -2.5148 -1.7013
  574TMC3    C1 8508   1.826   0.174   0.424 -0.7780 -0.6166  0.4173
  574TMC3    C2 8509   1.739   0.076   0.373  0.2027  0.0960  0.0290
  574TMC3    C3 8510   1.667   0.109   0.266 -0.1077 -0.6198 -0.1491
  574TMC3    C4 8511   1.841   0.294   0.363 -0.1290  0.2370 -0.5245
  574TMC3    C5 8512   1.765   0.322   0.259  0.4868  0.6000 -0.5935
  574TMC3    C6 8513   1.685   0.230   0.196 -0.2698  0.7501 -0.2985
  574TMC3     C 8514   1.893   0.150   0.546 -0.2166 -0.2279  0.6981
  574TMC3     O 8515   1.914   0.250   0.612 -0.2252  0.1325  0.3853
  574TMC3     H 8516   1.719   4.704   0.425 -2.1370  1.1629  1.0228
  574TMC3    H1 8517   1.901   0.367   0.416  0.4553 -0.4295 -0.2770
  574TMC3    H2 8518   1.643   0.239   0.097 -2.1124 -0.2684  0.3796
  574TMC3    C7 8519   1.765   0.458   0.203  0.5112 -0.2782  0.2404
  574TMC3    C8 8520   1.580   0.005   0.218  0.3293 -0.3994  0.1421
  574TMC3    O1 8521   1.865   0.526   0.229 -0.4783 -0.1139 -0.0735
  574TMC3    O2 8522   1.614   4.610   0.238 -0.7882  0.5478  0.2005
  575TMC3    C1 8523   4.306   0.828  10.549 -0.2897 -0.4137  0.2671
  575TMC3    C2 8524   4.265   0.864  10.675  0.3528  0.0212  0.3014
  575TMC3    C3 8525   4.129   0.871  10.691 -0.6333  0.1467 -0.2601
  575TMC3    C4 8526   4.221   0.789  10.446 -0.8201  0.0085 -0.5863
  575TMC3    C5 8527   4.084   0.785  10.471  0.4532 -0.0112 -0.0848
  575TMC3    C6 8528   4.042   0.825  10.597  0.4264  0.1597 -0.6022
  575TMC3     C 8529   4.449   0.854  10.528 -0.3212 -0.4587  0.1751
  575TMC3     O 8530   4.511   0.894  10.623 -0.1586 -0.5616 -0.4907
  575TMC3     H 8531   4.339   0.896  10.747 -0.4156  3.2600 -0.3629
  575TMC3    H1 8532   4.257   0.773  10.345  1.7110 -0.2896  0.3741
  575TMC3    H2 8533   3.935   0.816  10.608  0.5018 -0.5998 -0.4722
  575TMC3    C7 8534   4.000   0.784  10.358 -0.0357  0.0007  0.7086
  575TMC3    C8 8535   4.074   0.896  10.823 -0.1777 -0.7597  0.0174
  575TMC3    O1 8536   4.045   0.824  10.252  0.1043  0.5295 -0.3604
  575TMC3    O2 8537   3.954   0.909  10.822  0.6531 -0.6853  0.3966
  576MPD2     C 8538   3.589   2.263  12.756 -0.2743  0.9552 -0.2697
  576MPD2    C1 8539   3.577   2.358  12.658  0.1752 -0.1596 -0.5483
  576MPD2    C2 8540   3.486   2.454  12.680 -0.7427 -0.2300 -0.2781
  576MPD2    C3 8541   3.409   2.473  12.795  0.0049 -0.1525  0.2408
  576MPD2    C4 8542   3.442   2.391  12.900  0.3574  0.1089 -0.3910
  576MPD2    C5 8543   3.525   2.285  12.878 -1.2281 -0.1655 -0.2959
  576MPD2     H 8544   3.456   2.527  12.606 -1.5168 -0.3140 -0.0476
  576MPD2    H1 8545   3.397   2.390  12.999 -0.7057 -0.4532 -0.8713
  576MPD2    H2 8546   3.650   2.175  12.742  1.2813  1.6340  2.3533
  576MPD2    H3 8547   3.554   2.225  12.964 -2.0351 -1.3693 -0.8458
  576MPD2     N 8548   3.313   2.578  12.798  0.3956  0.0704 -0.5375
  576MPD2    H5 8549   3.304   2.641  12.719 -1.5147 -0.4123 -0.7001
  576MPD2    N1 8550   3.636   2.346  12.527 -0.2215 -0.3488 -0.7323
  576MPD2    H7 8551   3.636   2.438  12.484 -1.4180 -0.0768 -0.1441
  577TMC3    C1 8552   3.742   2.248  12.350  0.6347  0.6469  0.0829
  577TMC3    C2 8553   3.845   2.173  12.299 -0.4039 -0.2306 -0.0669
  577TMC3    C3 8554   3.858   2.161  12.161  0.0487 -0.3980  0.5938
  577TMC3    C4 8555   3.667   2.331  12.269  0.0979  0.1144  0.5771
  577TMC3    C5 8556   3.702   2.327  12.137 -0.9935 -0.3768 -0.1908
  577TMC3    C6 8557   3.784   2.237  12.079 -0.5255 -0.7998  0.3988
  577TMC3     C 8558   3.704   2.239  12.481 -0.1186  0.2612  0.4567
  577TMC3     O 8559   3.725   2.127  12.527 -0.4750 -0.2816 -0.7050
  577TMC3     H 8560   3.906   2.112  12.365 -1.1304 -1.9856 -1.0195
  577TMC3    H1 8561   3.577   2.382  12.298 -0.0061 -0.0194  0.4890
  577TMC3    H2 8562   3.771   2.203  11.977 -1.1607 -1.3624  0.6662
  577TMC3    C7 8563   3.639   2.420  12.043  0.7658  0.2096  0.3557
  577TMC3    C8 8564   3.964   2.077  12.104 -0.0070  0.2218  0.0640
  577TMC3    O1 8565   3.531   2.467  12.071 -0.3139 -0.0209 -0.1492
  577TMC3    O2 8566   4.012   2.120  11.997  0.5605 -0.0763 -0.5936
  578MPD2     C 8567   2.443   2.355   1.605  0.2813 -0.0098  0.2146
  578MPD2    C1 8568   2.481   2.306   1.480  0.4715 -0.1172 -0.4035
  578MPD2    C2 8569   2.545   2.181   1.475  0.5614  0.0572 -0.2009
  578MPD2    C3 8570   2.572   2.110   1.591  0.4696  1.0206  1.1117
  578MPD2    C4 8571   2.520   2.152   1.712  0.9130 -0.1073 -0.2984
  578MPD2    C5 8572   2.455   2.276   1.719 -0.2218  0.1168 -0.5929
  578MPD2     H 8573   2.583   2.140   1.382 -3.5804 -2.1531 -0.9630
  578MPD2    H1 8574   2.519   2.096   1.805 -1.7234  2.5190  1.2860
  578MPD2    H2 8575   2.401   2.455   1.610  1.4662  0.3894  2.1722
  578MPD2    H3 8576   2.424   2.315   1.816 -0.6929  1.7515 -1.4119
  578MPD2     N 8577   2.640   1.989   1.567  0.6412 -0.6203 -0.0365
  578MPD2    H5 8578   2.658   1.976   1.468  0.2176  1.0252 -0.3326
  578MPD2    N1 8579   2.434   2.377   1.366  0.4177 -0.7264 -0.0377
  578MPD2    H7 8580   2.375   2.458   1.380  1.5669  0.0145  0.5552
  579TMC3    C1 8581   2.714   1.761   1.602  0.4214 -0.0775 -0.1128
  579TMC3    C2 8582   2.819   1.694   1.665 -0.6762  0.1710  0.1976
  579TMC3    C3 8583   2.874   1.591   1.592 -0.0823 -0.7004  0.6746
  579TMC3    C4 8584   2.660   1.718   1.482  1.0084  0.3844  0.1751
  579TMC3    C5 8585   2.724   1.612   1.424 -0.5469 -0.0811  0.2754
  579TMC3    C6 8586   2.824   1.537   1.477  0.1334  0.1035  0.1109
  579TMC3     C 8587   2.670   1.891   1.666  0.2462  0.0977 -1.0395
  579TMC3     O 8588   2.703   1.909   1.782 -0.4276  0.0888 -0.2437
  579TMC3     H 8589   2.875   1.752   1.738  1.3886  2.1782 -3.0292
  579TMC3    H1 8590   2.583   1.778   1.435  1.0635 -0.2466 -0.7109
  579TMC3    H2 8591   2.871   1.455   1.423  0.9328 -0.2005  1.2638
  579TMC3    C7 8592   2.664   1.556   1.306  0.6569 -0.3149  0.0177
  579TMC3    C8 8593   3.008   1.557   1.626  0.0393  0.4204  0.0221
  579TMC3    O1 8594   2.727   1.470   1.243  0.2490 -0.0809  0.5994
  579TMC3    O2 8595   3.031   1.573   1.746 -0.3000 -0.8649  0.4299
  580TMC3    C1 8596   1.509   1.506  12.378 -0.5527  0.0261 -0.9632
  580TMC3    C2 8597   1.441   1.485  12.262  0.1831 -0.0861  0.0850
  580TMC3    C3 8598   1.478   1.381  12.187  0.1398 -0.5671 -0.4250
  580TMC3    C4 8599   1.584   1.400  12.428 -0.5214 -1.0627  0.3850
  580TMC3    C5 8600   1.605   1.290  12.355  0.1510  0.3768  0.8434
  580TMC3    C6 8601   1.571   1.283  12.219 -0.4891 -0.3082 -0.2203
  580TMC3     C 8602   1.565   1.636  12.394  0.1154  0.2750 -0.2866
  580TMC3     O 8603   1.512   1.713  12.321 -0.7295 -0.5823  0.6472
  580TMC3     H 8604   1.378   1.564  12.223 -2.0603 -1.1276  1.5946
  580TMC3    H1 8605   1.621   1.408  12.529 -0.4634 -3.4099  0.5675
  580TMC3    H2 8606   1.574   1.204  12.145 -1.3923 -0.2534 -0.3092
  580TMC3    C7 8607   1.699   1.190  12.406  0.4488  0.0063 -0.0538
  580TMC3    C8 8608   1.514   1.430  12.057  0.0094  0.2178  0.3846
  580TMC3    O1 8609   1.764   1.232  12.503 -0.7573  0.4491 -0.2466
  580TMC3    O2 8610   1.427   1.470  11.983  0.1661  0.1150 -0.2905
  581MPD2     C 8611   4.319   1.913  15.329  0.5931  0.7156 -0.2848
  581MPD2    C1 8612   4.314   1.778  15.281 -0.3692 -0.3865  0.2893
  581MPD2    C2 8613   4.233   1.750  15.175 -0.3653 -0.2382 -0.1167
  581MPD2    C3 8614   4.151   1.848  15.123 -0.7579 -0.1702  0.1838
  581MPD2    C4 8615   4.146   1.975  15.174 -0.4682  0.0130 -0.3758
  581MPD2    C5 8616   4.233   2.007  15.273  0.1819  0.5664 -0.3533
  581MPD2     H 8617   4.234   1.655  15.121 -1.6045 -2.3806  3.6111
  581MPD2    H1 8618   4.101   2.058  15.122  1.1041  1.2492  0.2265
  581MPD2    H2 8619   4.375   1.949  15.414  0.3906 -0.4394  0.3289
  581MPD2    H3 8620   4.241   2.112  15.299  0.4895  1.0381 -2.3071
  581MPD2     N 8621   4.086   1.816  14.999 -0.0400  0.4242  0.2240
  581MPD2    H5 8622   4.122   1.732  14.956  0.6288  1.0237 -0.3837
  581MPD2    N1 8623   4.411   1.691  15.342 -0.6465 -0.3296 -0.0225
  581MPD2    H7 8624   4.472   1.716  15.419 -1.7945 -0.6545  0.9924
  582TMC3    C1 8625   4.510   1.486  15.394  0.7376 -0.7853 -0.7020
  582TMC3    C2 8626   4.563   1.530  15.514 -0.0323 -0.1914  0.6376
  582TMC3    C3 8627   4.621   1.441  15.594 -0.9256  0.1314 -0.3289
  582TMC3    C4 8628   4.537   1.354  15.357 -0.2055  0.4260  0.6871
  582TMC3    C5 8629   4.595   1.266  15.449 -0.4594 -0.5892  0.0867
  582TMC3    C6 8630   4.642   1.312  15.565  0.0538  0.3339  0.1539
  582TMC3     C 8631   4.436   1.568  15.303  0.2477  0.6327  0.3775
  582TMC3     O 8632   4.382   1.504  15.211  0.1342 -0.0725 -0.2939
  582TMC3     H 8633   4.565   1.636  15.536 -0.2565 -0.2838  1.0949
  582TMC3    H1 8634   4.512   1.320  15.257 -0.6837 -1.7434  1.5353
  582TMC3    H2 8635   4.701   1.239  15.620  0.2166 -0.0438 -0.5146
  582TMC3    C7 8636   4.614   1.134  15.412 -0.2927  0.3015  0.4858
  582TMC3    C8 8637   4.655   1.495  15.725  0.2350 -0.8145 -0.6039
  582TMC3    O1 8638   4.718   1.087  15.457 -0.0275  0.5416  0.0499
  582TMC3    O2 8639   4.620   1.606  15.755 -0.5765  0.6485  0.2706
  583MPD2     C 8640   4.636   2.980  16.904  0.2739  0.2468 -0.0753
  583MPD2    C1 8641   4.580   3.056  16.801 -1.0696  0.7430 -0.6203
  583MPD2    C2 8642   4.501   3.168  16.829  0.6566  0.5070  0.4160
  583MPD2    C3 8643   4.455   3.195  16.954 -0.4627 -0.3605  0.2841
  583MPD2    C4 8644   4.495   3.112  17.058  0.3530  0.3840  0.1728
  583MPD2    C5 8645   4.597   3.022  17.027  0.0703 -0.2205  0.2713
  583MPD2     H 8646   4.460   3.221  16.743  2.3096 -0.9587 -1.2760
  583MPD2    H1 8647   4.462   3.122  17.160  0.7878  1.8373  0.1698
  583MPD2    H2 8648   4.719   2.910  16.902 -0.9090 -1.1863  0.4717
  583MPD2    H3 8649   4.633   2.965  17.111 -1.0327  0.4626  1.2098
  583MPD2     N 8650   4.371   3.306  16.964 -0.0053 -0.5890 -0.1247
  583MPD2    H5 8651   4.336   3.335  16.874 -0.9555 -0.4369  0.2856
  583MPD2    N1 8652   4.622   3.029  16.671 -0.5246 -0.5305 -0.1692
  583MPD2    H7 8653   4.585   3.086  16.596  0.5382  0.5015  0.0960
  584TMC3    C1 8654   4.254   3.474  17.082  0.5477  0.1409 -0.9504
  584TMC3    C2 8655   4.275   3.558  16.975 -0.7784 -0.0282 -0.1889
  584TMC3    C3 8656   4.216   3.684  16.977  0.6158  0.2169  0.0662
  584TMC3    C4 8657   4.193   3.525  17.198 -0.2754  0.0325  0.5765
  584TMC3    C5 8658   4.142   3.650  17.195 -0.6902  0.1408  0.8321
  584TMC3    C6 8659   4.154   3.733  17.089  0.3690  0.4652  0.0828
  584TMC3     C 8660   4.333   3.355  17.087 -0.2241  0.1381 -0.0501
  584TMC3     O 8661   4.382   3.331  17.192 -0.1526  0.0867  0.0266
  584TMC3     H 8662   4.331   3.524  16.889  1.5831  0.3718  1.1877
  584TMC3    H1 8663   4.189   3.472  17.292 -1.2216 -1.3413 -0.2354
  584TMC3    H2 8664   4.108   3.829  17.106 -2.5183 -1.0068  0.5946
  584TMC3    C7 8665   4.077   3.697  17.312  1.1068  0.7158 -0.4066
  584TMC3    C8 8666   4.187   3.735  16.843  0.3617  0.3226  0.7599
  584TMC3    O1 8667   3.979   3.627  17.344  0.1297 -0.7248 -0.4777
  584TMC3    O2 8668   4.182   3.654  16.752  0.2383  0.5557 -0.0316
  585MPD2     C 8669   3.855   1.650   0.588 -0.1276  0.0951 -0.5697
  585MPD2    C1 8670   3.913   1.705   0.477  0.5314  0.7104  0.7594
  585MPD2    C2 8671   3.938   1.622   0.365  0.0779  0.0607  0.3515
  585MPD2    C3 8672   3.914   1.484   0.371 -0.2664 -0.8085  0.3249
  585MPD2    C4 8673   3.862   1.430   0.490  0.4731 -0.0740  0.0207
  585MPD2    C5 8674   3.838   1.515   0.590 -1.1849  0.3372  0.3142
  585MPD2     H 8675   3.969   1.660   0.268 -0.4660  1.1323  0.5954
  585MPD2    H1 8676   3.819   1.332   0.505 -0.7944  0.5297  0.2642
  585MPD2    H2 8677   3.832   1.706   0.678  2.4027 -0.1223  0.2137
  585MPD2    H3 8678   3.799   1.472   0.682  2.5800  1.4097  2.4100
  585MPD2     N 8679   3.934   1.384   0.270  0.8622  0.6217 -0.5199
  585MPD2    H5 8680   3.906   1.289   0.294  0.6285  1.1088  1.1058
  585MPD2    N1 8681   3.927   1.846   0.471  0.1368 -0.0574  0.0280
  585MPD2    H7 8682   3.885   1.890   0.552 -1.2443 -1.1855 -0.0717
  586TMC3    C1 8683   4.030   1.304   0.062 -0.3660 -0.4088  0.9385
  586TMC3    C2 8684   4.033   1.173   0.120 -0.0741 -0.3117  0.4353
  586TMC3    C3 8685   4.065   1.066   0.043 -0.2356  0.3962 -0.4754
  586TMC3    C4 8686   4.068   1.322  17.618 -0.0453  0.1186  1.0227
  586TMC3    C5 8687   4.098   1.211  17.546  0.4845 -1.3084 -1.0002
  586TMC3    C6 8688   4.088   1.082  17.597 -0.2379  0.3616 -0.4190
  586TMC3     C 8689   4.004   1.408   0.152  0.3300  0.5351 -1.0214
  586TMC3     O 8690   4.033   1.516   0.103  0.4521  0.5675 -0.1427
  586TMC3     H 8691   4.021   1.171   0.227 -1.3391  0.6442  0.3092
  586TMC3    H1 8692   4.083   1.424  17.585 -0.8798 -0.3179 -0.6648
  586TMC3    H2 8693   4.096   0.993  17.535  1.0432  1.6245 -2.0742
  586TMC3    C7 8694   4.133   1.241  17.410  0.3776  0.1743  0.0136
  586TMC3    C8 8695   4.058   0.925   0.099 -0.4361 -0.1357 -0.4629
  586TMC3    O1 8696   4.203   1.161  17.341  0.0186  0.9899 -0.4461
  586TMC3    O2 8697   4.123   0.854   0.018  0.2256 -0.1390  0.1286
  587TMC3    C1 8698   0.952   0.264  16.543 -0.8275  0.4042 -0.1658
  587TMC3    C2 8699   0.918   0.364  16.629  0.2510  0.3434 -0.0446
  587TMC3    C3 8700   0.980   0.349  16.756 -0.5688 -0.8387  0.6816
  587TMC3    C4 8701   1.029   0.158  16.576 -0.1963 -0.3685 -0.3029
  587TMC3    C5 8702   1.094   0.152  16.697  0.6313 -0.3617  0.8110
  587TMC3    C6 8703   1.079   0.252  16.789 -0.2723 -0.3446  0.2525
  587TMC3     C 8704   0.861   0.242  16.436  0.1816  0.7887  0.7505
  587TMC3     O 8705   0.831   0.127  16.409 -0.0721 -0.2336 -0.3625
  587TMC3     H 8706   0.832   0.430  16.626  0.5826  0.7569 -0.6238
  587TMC3    H1 8707   1.034   0.074  16.508 -0.4130 -0.4369 -0.2338
  587TMC3    H2 8708   1.138   0.251  16.880 -0.4422 -2.7038  0.3441
  587TMC3    C7 8709   1.178   0.039  16.732 -0.2149  0.6084  0.2669
  587TMC3    C8 8710   0.969   0.463  16.850 -0.0815 -0.0130  0.4103
  587TMC3    O1 8711   1.212   0.023  16.850  0.1648 -0.9591  0.2942
  587TMC3    O2 8712   0.997   0.445  16.969 -0.0891 -0.4910 -0.6728
  588TMC3    C1 8713   3.186   3.467   9.869 -0.0966  0.3753  0.0067
  588TMC3    C2 8714   3.182   3.341   9.811 -0.2172 -0.0828  0.5615
  588TMC3    C3 8715   3.286   3.254   9.852 -0.0449 -0.5342 -0.4698
  588TMC3    C4 8716   3.287   3.501   9.952 -0.0748 -0.2486  0.0811
  588TMC3    C5 8717   3.385   3.419   9.982 -0.0279 -0.1861  0.2688
  588TMC3    C6 8718   3.389   3.300   9.932 -0.0549  0.4404 -0.0246
  588TMC3     C 8719   3.126   3.570   9.797  0.2628  0.0457  0.2612
  588TMC3     O 8720   3.019   3.550   9.735 -0.2690  0.6651 -0.1284
  588TMC3     H 8721   3.105   3.326   9.737  0.8598  0.2547 -0.6313
  588TMC3    H1 8722   3.275   3.596  10.002 -2.5551 -0.2086 -0.5519
  588TMC3    H2 8723   3.472   3.236   9.961  1.2804  1.5283 -1.3622
  588TMC3    C7 8724   3.504   3.461  10.059  0.5675  0.2151  0.0861
  588TMC3    C8 8725   3.286   3.113   9.803 -0.0975  0.1611 -0.2378
  588TMC3    O1 8726   3.584   3.375  10.087  0.0283 -0.2235  0.4349
  588TMC3    O2 8727   3.191   3.095   9.724 -0.1411 -0.1791 -0.0131
  589TMC3    C1 8728   3.213   0.705   1.484  0.0295  0.3263 -0.2220
  589TMC3    C2 8729   3.273   0.791   1.574 -0.2153 -0.1617  0.1015
  589TMC3    C3 8730   3.404   0.763   1.608 -0.0464 -0.3194 -0.2862
  589TMC3    C4 8731   3.273   0.593   1.440 -0.2514  0.3078  0.5031
  589TMC3    C5 8732   3.399   0.558   1.482  0.4526 -0.0709 -0.2016
  589TMC3    C6 8733   3.461   0.641   1.572 -0.6915  0.1155 -0.5784
  589TMC3     C 8734   3.073   0.717   1.440 -0.5153  0.1485  0.0907
  589TMC3     O 8735   3.040   0.639   1.348  0.2134  0.2195  0.4236
  589TMC3     H 8736   3.229   0.885   1.604  0.7697 -0.0735  1.2611
  589TMC3    H1 8737   3.226   0.535   1.361 -1.0834  2.0354 -0.2874
  589TMC3    H2 8738   3.559   0.619   1.613 -0.5896  0.7634 -0.4743
  589TMC3    C7 8739   3.440   0.421   1.443  0.0145  0.1040  1.2539
  589TMC3    C8 8740   3.494   0.863   1.657 -0.2520 -0.7347 -0.3320
  589TMC3    O1 8741   3.366   0.354   1.367 -0.3712  0.4320  0.0690
  589TMC3    O2 8742   3.434   0.954   1.712 -0.3611 -0.2615  0.6765
  590MPD2     C 8743   1.712   4.405  17.127  0.3867 -0.1309 -0.3102
  590MPD2    C1 8744   1.702   4.312  17.030 -0.6415 -0.4076  0.0953
  590MPD2    C2 8745   1.771   4.331  16.912 -0.2887 -0.0402 -0.0377
  590MPD2    C3 8746   1.854   4.435  16.896 -0.9905 -0.9511  0.0848
  590MPD2    C4 8747   1.881   4.516  17.003  0.0867 -0.2886 -0.6977
  590MPD2    C5 8748   1.798   4.509  17.113 -0.3259 -0.3858  0.1653
  590MPD2     H 8749   1.758   4.258  16.834  1.3644  2.4466 -2.6302
  590MPD2    H1 8750   1.959   4.590  17.000 -0.6964  0.4852 -1.8387
  590MPD2    H2 8751   1.670   4.394  17.227  1.7464 -1.3721  0.1225
  590MPD2    H3 8752   1.813   4.580  17.193  0.8913 -3.0873  2.3372
  590MPD2     N 8753   1.918   4.452  16.772 -0.7825 -0.4351 -0.1252
  590MPD2    H5 8754   1.889   4.389  16.698 -0.2512 -1.2221  0.3379
  590MPD2    N1 8755   1.602   4.216  17.037  0.7509 -0.2925  0.4398
  590MPD2    H7 8756   1.547   4.217  17.122  0.4672 -0.1206  0.2520
  591TMC3    C1 8757   1.994   4.549  16.576 -0.0571 -0.0880  0.3546
  591TMC3    C2 8758   2.072   4.439  16.527 -0.5333 -0.1838 -0.4897
  591TMC3    C3 8759   2.125   4.457  16.402  0.3071  0.2365 -0.8353
  591TMC3    C4 8760   1.981   4.665  16.513  0.4858 -0.7057  0.4771
  591TMC3    C5 8761   2.023   4.669  16.374  0.2830 -0.2934 -0.2001
  591TMC3    C6 8762   2.105   4.569  16.326  0.2204 -0.7014 -1.0253
  591TMC3     C 8763   1.987   4.560  16.722  0.1919  0.3413 -0.1474
  591TMC3     O 8764   2.010   4.670  16.780  0.0764  0.4994  0.0580
  591TMC3     H 8765   2.105   4.359  16.591 -0.8290 -0.8659 -1.1950
  591TMC3    H1 8766   1.926   0.027  16.556 -1.0487 -1.4096 -0.1276
  591TMC3    H2 8767   2.126   4.570  16.219  1.5293  2.0244 -0.7430
  591TMC3    C7 8768   1.940   0.029  16.286 -0.2879 -0.0354 -1.2199
  591TMC3    C8 8769   2.214   4.352  16.356 -0.1860 -0.0685  0.0059
  591TMC3    O1 8770   1.844   0.092  16.336  0.3967 -0.5999 -0.0161
  591TMC3    O2 8771   2.218   4.236  16.387 -0.1613 -0.4178 -0.4881
  592MPD2     C 8772   2.586   1.596  11.508 -0.3803  0.1044  0.1405
  592MPD2    C1 8773   2.584   1.565  11.643 -0.5105 -0.0296 -0.4577
  592MPD2    C2 8774   2.504   1.472  11.689  0.2884  0.5025 -0.6326
  592MPD2    C3 8775   2.425   1.395  11.604  0.3698 -0.3996  0.6681
  592MPD2    C4 8776   2.419   1.424  11.469 -0.0757 -0.1669  0.3240
  592MPD2    C5 8777   2.504   1.518  11.421 -0.2227 -0.0109  0.4505
  592MPD2     H 8778   2.497   1.452  11.795  0.7987  4.1712  0.1132
  592MPD2    H1 8779   2.342   1.377  11.408 -1.9855  0.4554  2.2711
  592MPD2    H2 8780   2.639   1.674  11.456 -0.6197  1.2733  1.6439
  592MPD2    H3 8781   2.505   1.538  11.314  0.6552 -0.9198  0.2807
  592MPD2     N 8782   2.350   1.289  11.667 -0.3938  0.3282 -0.0497
  592MPD2    H5 8783   2.366   1.291  11.768 -0.6174 -1.0219  0.0110
  592MPD2    N1 8784   2.684   1.632  11.723  0.0718  0.2702  0.5976
  592MPD2    H7 8785   2.741   1.705  11.683  1.8784 -2.1573 -1.2889
  593TMC3    C1 8786   2.807   1.676  11.927  0.1742 -0.6959  0.0224
  593TMC3    C2 8787   2.832   1.625  12.049 -0.5080  0.6554  0.8577
  593TMC3    C3 8788   2.960   1.618  12.090 -0.6260 -0.0597  0.4729
  593TMC3    C4 8789   2.913   1.718  11.841  0.6100 -0.2736 -0.9398
  593TMC3    C5 8790   3.043   1.706  11.887  0.1965  0.0746 -0.2104
  593TMC3    C6 8791   3.066   1.656  12.010  0.3413  0.7562 -0.1114
  593TMC3     C 8792   2.694   1.613  11.862  0.6778  0.1866 -0.5713
  593TMC3     O 8793   2.640   1.537  11.935  0.2453 -0.2666  0.4295
  593TMC3     H 8794   2.751   1.593  12.113 -2.2958 -0.8547 -2.1440
  593TMC3    H1 8795   2.886   1.756  11.743 -0.0701 -0.5511 -0.8606
  593TMC3    H2 8796   3.164   1.626  12.044 -1.5122 -1.6196  3.1084
  593TMC3    C7 8797   3.152   1.753  11.812  0.3409  0.7422  0.0728
  593TMC3    C8 8798   2.973   1.501  12.175  0.1168  0.4415  1.2292
  593TMC3    O1 8799   3.125   1.833  11.722  0.0324  0.1523 -0.3594
  593TMC3    O2 8800   2.882   1.419  12.175  0.4879 -0.5860  0.9406
  594MPD2     C 8801   1.368   4.717  14.212 -0.2603 -0.4588  0.5906
  594MPD2    C1 8802   1.356   4.710  14.351  0.6724  0.0448 -1.0821
  594MPD2    C2 8803   1.395   0.101  14.427 -0.1311  0.5680  0.3221
  594MPD2    C3 8804   1.472   0.199  14.361  0.5093  0.3051  0.3534
  594MPD2    C4 8805   1.487   0.195  14.222 -0.1685  0.4107  0.0889
  594MPD2    C5 8806   1.441   0.095  14.145 -0.0570  0.0746 -0.2495
  594MPD2     H 8807   1.388   0.110  14.535  1.5226  0.1668  0.4640
  594MPD2    H1 8808   1.542   0.278  14.178  1.5635 -0.6045  0.3446
  594MPD2    H2 8809   1.343   4.635  14.145  2.2492 -1.1612  0.5383
  594MPD2    H3 8810   1.457   0.098  14.038 -0.4647 -0.1129 -0.3153
  594MPD2     N 8811   1.530   0.306  14.438  0.3054  0.0207 -0.4290
  594MPD2    H5 8812   1.496   0.316  14.533  0.1545 -1.5213 -0.3138
  594MPD2    N1 8813   1.285   4.603  14.403 -0.1138  0.1213  0.3356
  594MPD2    H7 8814   1.246   4.537  14.337 -1.3906  0.0202  1.2017
  595TMC3    C1 8815   1.867   0.616  14.553  0.3504  0.1478  0.0972
  595TMC3    C2 8816   1.824   0.508  14.488 -0.1937 -0.0130  0.3007
  595TMC3    C3 8817   1.691   0.484  14.481  0.0308 -0.0220  0.4161
  595TMC3    C4 8818   1.781   0.705  14.612 -0.5963 -0.0475 -0.3403
  595TMC3    C5 8819   1.648   0.684  14.596  0.7022  0.2852 -0.3123
  595TMC3    C6 8820   1.598   0.570  14.531 -0.0227  0.7973  0.1525
  595TMC3     C 8821   2.000   0.662  14.539 -0.7100 -0.1468 -0.3428
  595TMC3     O 8822   2.044   0.727  14.632  0.0614  0.1300 -0.1167
  595TMC3     H 8823   1.899   0.443  14.443 -0.2425 -0.5872  1.0392
  595TMC3    H1 8824   1.827   0.786  14.668 -0.7838 -0.2502  0.0989
  595TMC3    H2 8825   1.496   0.543  14.508  0.6337 -0.9277 -0.7341
  595TMC3    C7 8826   1.554   0.752  14.675  0.0971 -0.0553  0.0658
  595TMC3    C8 8827   1.645   0.373  14.398 -0.4831  0.1196  0.0810
  595TMC3    O1 8828   1.442   0.753  14.633  0.7867 -0.3581 -0.1843
  595TMC3    O2 8829   1.723   0.342  14.309  0.0552 -0.5939  0.3222
  596MPD2     C 8830   0.678   3.197  16.926 -0.2868 -0.0960 -0.4535
  596MPD2    C1 8831   0.628   3.275  16.825  0.5113  0.3311  0.1288
  596MPD2    C2 8832   0.640   3.234  16.701  0.3070 -0.8003 -0.7324
  596MPD2    C3 8833   0.713   3.121  16.665 -0.3946 -0.1478 -0.2883
  596MPD2    C4 8834   0.769   3.049  16.765 -0.4462  0.4342 -0.1003
  596MPD2    C5 8835   0.750   3.083  16.897 -0.3083 -0.0672  0.6947
  596MPD2     H 8836   0.592   3.292  16.623 -1.0062 -1.3565 -0.3434
  596MPD2    H1 8837   0.832   2.962  16.747  0.7658  1.0840  0.9666
  596MPD2    H2 8838   0.682   3.218  17.032  1.9463  3.5914 -1.2782
  596MPD2    H3 8839   0.800   3.029  16.976 -0.3650 -1.2631 -0.0842
  596MPD2     N 8840   0.729   3.089  16.529  0.1195  0.0618  0.1125
  596MPD2    H5 8841   0.778   3.005  16.502 -0.2094 -0.2385  0.4538
  596MPD2    N1 8842   0.551   3.391  16.844  0.2820  0.8246  0.8263
  596MPD2    H7 8843   0.528   3.433  16.754  2.6878  1.0370  0.3036
  597TMC3    C1 8844   0.437   3.570  16.942  0.4924  0.5514  0.2601
  597TMC3    C2 8845   0.446   3.613  16.815  0.5489 -0.4330 -0.5441
  597TMC3    C3 8846   0.342   3.694  16.771  0.6186  0.5775 -0.0143
  597TMC3    C4 8847   0.344   3.607  17.028  0.0513  0.2689  0.2353
  597TMC3    C5 8848   0.241   3.683  16.981  0.5187 -1.2132 -0.3081
  597TMC3    C6 8849   0.237   3.725  16.853  0.0407 -0.0024 -0.1540
  597TMC3     C 8850   0.519   3.456  16.963 -0.3977 -0.1565 -0.0992
  597TMC3     O 8851   0.522   3.426  17.083 -0.4335  0.3933 -0.3541
  597TMC3     H 8852   0.542   3.617  16.764  0.9592  1.6659  0.4135
  597TMC3    H1 8853   0.370   3.595  17.132 -1.3714  1.9570  0.7768
  597TMC3    H2 8854   0.155   3.778  16.806  0.5150 -0.6757 -1.7664
  597TMC3    C7 8855   0.134   3.720  17.078 -0.2329 -0.3474 -0.4409
  597TMC3    C8 8856   0.364   3.771  16.657 -0.2023  0.3700 -0.3568
  597TMC3    O1 8857   0.127   3.664  17.189 -0.1588 -0.7415 -0.6890
  597TMC3    O2 8858   0.309   3.880  16.652  0.1642 -0.0055  0.6436
  598TMC3    C1 8859   3.498   4.642  15.332 -0.0059  0.5070 -0.1666
  598TMC3    C2 8860   3.424   4.528  15.349  0.4485 -0.1684 -0.0509
  598TMC3    C3 8861   3.389   4.473  15.236 -0.3261 -0.0721  0.2939
  598TMC3    C4 8862   3.557   4.686  15.218  1.1056 -0.0061  0.3971
  598TMC3    C5 8863   3.531   4.610  15.109  0.2902 -0.2315  0.1002
  598TMC3    C6 8864   3.442   4.505  15.115 -0.0649  0.3334  0.5670
  598TMC3     C 8865   3.522   0.006  15.448 -0.3788  0.7584 -0.2201
  598TMC3     O 8866   3.597   0.096  15.419 -0.1953 -0.0607  0.2315
  598TMC3     H 8867   3.396   4.499  15.450  1.3689  2.1776  0.8931
  598TMC3    H1 8868   3.626   0.048  15.217 -0.8216  1.5577 -3.0207
  598TMC3    H2 8869   3.411   4.457  15.023 -2.7177  0.0789  1.6039
  598TMC3    C7 8870   3.566   4.654  14.979  0.2843 -0.4582  0.1264
  598TMC3    C8 8871   3.301   4.350  15.240 -0.0952 -1.0800 -0.6719
  598TMC3    O1 8872   3.577   4.571  14.887  0.0885  0.3324  0.3163
  598TMC3    O2 8873   3.293   4.283  15.140  0.0618 -0.0656 -0.3536
  599MPD2     C 8874   3.705   2.318  15.795 -0.6064  0.8798 -0.6420
  599MPD2    C1 8875   3.675   2.180  15.805  0.1644  0.1337  0.5215
  599MPD2    C2 8876   3.550   2.147  15.833 -0.6383 -0.1085 -0.4539
  599MPD2    C3 8877   3.448   2.242  15.829 -0.3080 -0.0911  0.6055
  599MPD2    C4 8878   3.480   2.372  15.801 -0.7373 -0.1717  0.3605
  599MPD2    C5 8879   3.608   2.414  15.785  0.6609 -0.0979 -0.5407
  599MPD2     H 8880   3.533   2.045  15.867  0.7248 -0.0252  0.4892
  599MPD2    H1 8881   3.399   2.443  15.814 -0.9811 -0.3679 -0.0958
  599MPD2    H2 8882   3.810   2.346  15.792 -0.7717  1.3203 -2.0747
  599MPD2    H3 8883   3.623   2.521  15.774  2.2190 -0.3507 -0.9497
  599MPD2     N 8884   3.313   2.222  15.871  0.3013  0.5720  0.2119
  599MPD2    H5 8885   3.267   2.309  15.895  0.5404  0.7543  0.0208
  599MPD2    N1 8886   3.785   2.086  15.808  0.1888  0.5338 -0.0952
  599MPD2    H7 8887   3.878   2.119  15.784  0.3699 -1.4138 -2.0606
  600TMC3    C1 8888   3.117   2.123  15.955  0.1630 -0.3214 -0.0603
  600TMC3    C2 8889   3.023   2.020  15.970  0.6093  0.0406 -0.0362
  600TMC3    C3 8890   2.930   2.024  16.063  0.6833 -0.2839  0.0986
  600TMC3    C4 8891   3.129   2.203  16.071 -0.4421  0.1366 -1.2598
  600TMC3    C5 8892   3.038   2.195  16.176  0.4689  0.0291  0.5805
  600TMC3    C6 8893   2.937   2.105  16.173 -0.0785  0.3590 -0.1737
  600TMC3     C 8894   3.233   2.104  15.867  0.4594  0.2936 -0.4581
  600TMC3     O 8895   3.242   1.996  15.820 -0.1087 -0.1444  0.0547
  600TMC3     H 8896   3.015   1.941  15.897 -1.2912 -1.4854  1.8383
  600TMC3    H1 8897   3.213   2.272  16.076 -0.4032  0.0915 -1.2881
  600TMC3    H2 8898   2.865   2.090  16.252 -0.0266 -1.3834 -0.4590
  600TMC3    C7 8899   3.044   2.293  16.284  0.2307  0.1354  0.4425
  600TMC3    C8 8900   2.898   1.885  16.093 -0.3910  0.5353 -0.0414
  600TMC3    O1 8901   2.970   2.276  16.385  0.2138 -0.3466  0.3460
  600TMC3    O2 8902   2.985   1.802  16.087  0.2000 -0.6459 -0.3338
  601MPD2     C 8903   0.790   0.255   0.441  1.1754 -0.5107  0.4952
  601MPD2    C1 8904   0.674   0.245   0.362  0.1888 -0.0594  0.9740
  601MPD2    C2 8905   0.655   0.129   0.293  0.8335 -0.1573 -0.1866
  601MPD2    C3 8906   0.743   0.026   0.298  0.2154 -0.2689  1.0974
  601MPD2    C4 8907   0.851   0.037   0.380  0.4949  0.2161  0.1302
  601MPD2    C5 8908   0.877   0.157   0.444 -0.5651 -0.2358  0.2303
  601MPD2     H 8909   0.563   0.121   0.235  0.6286 -1.2529  0.2920
  601MPD2    H1 8910   0.919   4.674   0.382  0.6565  0.3081 -1.6590
  601MPD2    H2 8911   0.808   0.339   0.506 -1.2082 -0.9126  1.6953
  601MPD2    H3 8912   0.972   0.180   0.492 -1.2485  2.0254  0.4866
  601MPD2     N 8913   0.733   4.624   0.225 -0.3698 -0.2980 -0.8518
  601MPD2    H5 8914   0.793   4.546   0.247  0.5783 -0.0239 -2.5054
  601MPD2    N1 8915   0.576   0.342   0.363 -0.1846  0.4376  0.2930
  601MPD2    H7 8916   0.512   0.341   0.284 -0.5357 -3.9698  0.6096
  602TMC3    C1 8917   0.425   0.505   0.459  0.4765  0.7342  0.2056
  602TMC3    C2 8918   0.413   0.632   0.502  0.4801  0.1062 -0.3538
  602TMC3    C3 8919   0.287   0.689   0.498 -0.2391 -0.0879  0.2811
  602TMC3    C4 8920   0.325   0.434   0.412 -0.0265 -0.2013  0.7172
  602TMC3    C5 8921   0.199   0.492   0.406  0.4323 -0.2401 -0.2302
  602TMC3    C6 8922   0.182   0.619   0.449  0.7414 -0.3684 -0.0833
  602TMC3     C 8923   0.561   0.450   0.456  0.3214  0.3297  0.6031
  602TMC3     O 8924   0.638   0.498   0.544  0.1518 -0.1751  0.2471
  602TMC3     H 8925   0.500   0.686   0.539  0.7332  1.4646 -2.8900
  602TMC3    H1 8926   0.340   0.341   0.358  1.0216  0.2399  0.2454
  602TMC3    H2 8927   0.082   0.653   0.474  0.4996 -1.8396  0.9780
  602TMC3    C7 8928   0.109   0.447   0.303  0.5292 -0.1108 -0.8498
  602TMC3    C8 8929   0.282   0.832   0.497 -0.1187 -0.0837  0.3967
  602TMC3    O1 8930   0.122   0.336   0.255 -0.0876  0.2039  0.6950
  602TMC3    O2 8931   0.389   0.889   0.509 -0.4035  0.2471  0.0691
  603TMC3    C1 8932   3.473   0.853  10.568 -0.8690  0.8558 -0.1924
  603TMC3    C2 8933   3.554   0.796  10.661  0.1140  0.2884 -0.4500
  603TMC3    C3 8934   3.628   0.887  10.735  0.2395  0.0761  0.1262
  603TMC3    C4 8935   3.471   0.986  10.536  0.3179  0.1024  0.2711
  603TMC3    C5 8936   3.552   1.068  10.614 -0.1823  0.5563 -0.5177
  603TMC3    C6 8937   3.626   1.019  10.715 -0.3034  0.1297 -0.5719
  603TMC3     C 8938   3.364   0.777  10.515  0.5230 -0.8080  0.1900
  603TMC3     O 8939   3.359   0.662  10.558  0.1978  0.0135  0.1219
  603TMC3     H 8940   3.547   0.689  10.680  1.0081  0.2829 -0.1540
  603TMC3    H1 8941   3.427   1.021  10.443  0.6210  0.0087  0.0889
  603TMC3    H2 8942   3.705   1.085  10.749 -0.4168  0.2172 -0.4734
  603TMC3    C7 8943   3.575   1.206  10.573  0.0680 -0.3121 -0.3046
  603TMC3    C8 8944   3.627   0.848  10.872 -0.4548 -0.2740 -0.0218
  603TMC3    O1 8945   3.668   1.273  10.625  0.2583 -0.5372 -0.1024
  603TMC3    O2 8946   3.618   0.726  10.898  0.2432 -0.3870  0.4114
  604MPD2     C 8947   3.873   3.985  16.254 -0.5908 -0.0290 -0.4232
  604MPD2    C1 8948   3.931   4.082  16.178  0.1661 -0.1869 -0.1818
  604MPD2    C2 8949   4.006   4.043  16.063 -0.5515  0.2201  0.4784
  604MPD2    C3 8950   4.028   3.913  16.035  0.4665  0.2168 -0.6735
  604MPD2    C4 8951   3.973   3.816  16.117 -0.0360 -0.0636  0.8463
  604MPD2    C5 8952   3.897   3.854  16.223 -0.3861 -0.0369  0.3039
  604MPD2     H 8953   4.046   4.114  15.992  1.6222  0.5366  2.0050
  604MPD2    H1 8954   3.975   3.710  16.092 -3.0451  0.1459 -0.3146
  604MPD2    H2 8955   3.812   4.000  16.343 -0.6343  1.9619 -0.7799
  604MPD2    H3 8956   3.842   3.780  16.279 -0.3350  0.0922  0.5233
  604MPD2     N 8957   4.108   3.883  15.922  0.2671 -0.4207  0.5743
  604MPD2    H5 8958   4.117   3.959  15.856 -0.7590  0.1250  1.0497
  604MPD2    N1 8959   3.895   4.222  16.209  0.4108  0.0319 -0.8704
  604MPD2    H7 8960   3.830   4.229  16.286 -0.9919  2.1813 -2.2548
  605TMC3    C1 8961   3.902   4.456  16.201 -0.0438  0.5485  0.8070
  605TMC3    C2 8962   3.992   4.558  16.201 -0.3478 -0.4156 -0.3227
  605TMC3    C3 8963   3.946   4.678  16.245  0.6270  0.7448  0.4434
  605TMC3    C4 8964   3.771   4.477  16.255  0.3179 -0.2972 -0.7937
  605TMC3    C5 8965   3.736   4.595  16.300  0.7421 -0.3019  0.5263
  605TMC3    C6 8966   3.822   4.699  16.299 -0.0120 -0.5507 -0.3872
  605TMC3     C 8967   3.939   4.331  16.144 -0.1959 -0.4687 -0.5783
  605TMC3     O 8968   4.031   4.340  16.068  0.2558  0.1590  0.0746
  605TMC3     H 8969   4.090   4.558  16.154 -0.4995 -0.0465 -0.6334
  605TMC3    H1 8970   3.698   4.397  16.265 -1.0250  1.2198  1.5863
  605TMC3    H2 8971   3.790   0.078  16.328  0.2521 -0.5284 -0.1760
  605TMC3    C7 8972   3.594   4.625  16.307  0.0534  0.5668 -0.4020
  605TMC3    C8 8973   4.038   0.068  16.245  0.5191 -0.6663  0.2338
  605TMC3    O1 8974   3.528   4.558  16.226 -0.2281 -0.0076  0.2133
  605TMC3    O2 8975   4.129   0.060  16.162 -0.1989  0.6925  0.5091
  606TMC3    C1 8976   0.875   2.370   0.588  0.7410  0.3537  0.5247
  606TMC3    C2 8977   0.979   2.287   0.603 -0.5700 -0.4717 -0.8851
  606TMC3    C3 8978   0.965   2.152   0.590  0.2102 -0.1768  0.2254
  606TMC3    C4 8979   0.753   2.322   0.555  0.5426  0.3517 -0.2589
  606TMC3    C5 8980   0.738   2.187   0.555  0.2924  0.5534 -0.3068
  606TMC3    C6 8981   0.838   2.099   0.564  0.5867 -0.9289  0.0890
  606TMC3     C 8982   0.920   2.504   0.549  0.2014 -0.0093 -0.1712
  606TMC3     O 8983   1.031   2.537   0.594 -0.0146  0.4140  0.0407
  606TMC3     H 8984   1.079   2.324   0.619 -0.6031 -0.8081  0.0785
  606TMC3    H1 8985   0.671   2.392   0.553 -0.3126 -0.6518 -0.4747
  606TMC3    H2 8986   0.822   1.992   0.556  0.2497 -0.8254 -0.7013
  606TMC3    C7 8987   0.602   2.131   0.555 -0.3556 -0.5793 -0.1523
  606TMC3    C8 8988   1.088   2.080   0.546  0.1147  0.8312  0.2603
  606TMC3    O1 8989   0.588   2.010   0.571 -0.1361 -0.3313 -0.4413
  606TMC3    O2 8990   1.197   2.129   0.572  0.0831  0.4789 -0.9941
  607MPD2     C 8991   2.568   0.968  11.496  0.7616  0.0147 -0.5581
  607MPD2    C1 8992   2.625   1.010  11.615 -0.1543  0.6113 -0.0181
  607MPD2    C2 8993   2.611   0.936  11.729 -0.0931 -0.4668  0.2627
  607MPD2    C3 8994   2.550   0.812  11.731 -0.2164  0.1052  0.2554
  607MPD2    C4 8995   2.490   0.769  11.617  0.3533 -0.3811  0.3699
  607MPD2    C5 8996   2.494   0.853  11.503 -0.1155 -0.3540 -0.5437
  607MPD2     H 8997   2.655   0.960  11.825 -1.7323  2.1439  0.3300
  607MPD2    H1 8998   2.424   0.683  11.621 -1.7860  1.2211 -0.7056
  607MPD2    H2 8999   2.573   1.012  11.398  0.8097  2.7188  0.6705
  607MPD2    H3 9000   2.445   0.822  11.411 -0.6886 -2.7230  0.5691
  607MPD2     N 9001   2.551   0.729  11.844  0.3356  0.7613  0.4952
  607MPD2    H5 9002   2.577   0.772  11.932 -0.2795  0.3230  0.8869
  607MPD2    N1 9003   2.696   1.130  11.626  0.0600  0.4763  0.3953
  607MPD2    H7 9004   2.705   1.156  11.724  2.5016 -0.4202  0.4167
  608TMC3    C1 9005   2.818   1.323  11.582  0.1317 -0.9401  0.3660
  608TMC3    C2 9006   2.884   1.312  11.702  0.2902 -0.4386 -0.4839
  608TMC3    C3 9007   3.004   1.376  11.734  0.4114  0.3575  1.2437
  608TMC3    C4 9008   2.880   1.401  11.488 -0.5111  0.7715  0.1007
  608TMC3    C5 9009   2.994   1.467  11.521  0.7765 -0.4423 -0.0903
  608TMC3    C6 9010   3.063   1.454  11.639  0.9397  0.3573  0.0532
  608TMC3     C 9011   2.730   1.223  11.530 -0.1472 -0.2142 -0.5054
  608TMC3     O 9012   2.697   1.224  11.414 -0.2298  0.6905 -0.1857
  608TMC3     H 9013   2.845   1.233  11.764  0.3940  1.5822  2.1270
  608TMC3    H1 9014   2.850   1.397  11.384 -0.1733  2.1075 -0.0457
  608TMC3    H2 9015   3.159   1.499  11.663  1.8913 -2.4631  1.4895
  608TMC3    C7 9016   3.078   1.504  11.408 -0.4938 -0.1922 -0.5680
  608TMC3    C8 9017   3.068   1.353  11.862  0.2646  0.2910 -0.2724
  608TMC3    O1 9018   3.022   1.524  11.300  0.3483  0.5576 -0.0054
  608TMC3    O2 9019   3.180   1.400  11.879 -0.0354 -0.2109 -0.4278
  609TMC3    C1 9020   1.692   0.258   9.546 -0.6074 -0.3443 -0.6652
  609TMC3    C2 9021   1.704   0.367   9.471 -0.4497 -0.3710 -0.2178
  609TMC3    C3 9022   1.814   0.373   9.390 -0.1164 -0.3889  0.2333
  609TMC3    C4 9023   1.771   0.150   9.557 -0.2634  0.1810  0.0385
  609TMC3    C5 9024   1.876   0.157   9.471  0.1284  0.0431 -0.3772
  609TMC3    C6 9025   1.899   0.267   9.385 -0.3114  0.3696  0.2505
  609TMC3     C 9026   1.573   0.250   9.631 -0.0495  0.7989 -0.2048
  609TMC3     O 9027   1.585   0.175   9.730 -0.1210 -0.4775 -0.0720
  609TMC3     H 9028   1.647   0.455   9.499 -2.5168 -1.0769 -2.2189
  609TMC3    H1 9029   1.759   0.068   9.626  2.6568 -0.1746  0.1302
  609TMC3    H2 9030   1.996   0.274   9.339  0.2048  0.5626  1.3614
  609TMC3    C7 9031   1.989   0.106   9.543  0.1450 -0.3947  0.5781
  609TMC3    C8 9032   1.839   0.500   9.324  0.3158  0.0776 -0.5980
  609TMC3    O1 9033   1.993   0.107   9.665 -0.4063 -0.3536 -0.2522
  609TMC3    O2 9034   1.941   0.507   9.256  0.5329 -0.4341 -0.3024
  610TMC3    C1 9035   3.071   0.325  12.358  0.5775 -0.7647  0.2590
  610TMC3    C2 9036   3.121   0.381  12.247 -0.9838  0.3381 -0.2603
  610TMC3    C3 9037   3.247   0.335  12.206 -0.1075  0.3910  0.3732
  610TMC3    C4 9038   3.138   0.223  12.419 -0.5891 -0.6168 -0.3378
  610TMC3    C5 9039   3.259   0.180  12.382 -0.4660  0.0753 -0.0485
  610TMC3    C6 9040   3.319   0.239  12.273  0.6216 -0.2289 -0.2247
  610TMC3     C 9041   2.926   0.333  12.363 -0.0306 -0.2875  0.4310
  610TMC3     O 9042   2.866   0.376  12.265 -0.9350 -0.2361  0.8017
  610TMC3     H 9043   3.069   0.456  12.189  0.9511  4.1597  2.8836
  610TMC3    H1 9044   3.089   0.175  12.503 -1.5548 -1.9757 -1.6732
  610TMC3    H2 9045   3.416   0.204  12.239  1.3981  1.2385  0.4708
  610TMC3    C7 9046   3.324   0.101  12.480 -0.2901  0.7398 -0.3893
  610TMC3    C8 9047   3.318   0.422  12.117  0.2167 -0.0062 -0.4229
  610TMC3    O1 9048   3.415   0.030  12.440 -0.4679 -0.4247 -0.2188
  610TMC3    O2 9049   3.273   0.532  12.092  0.3867 -0.1698  0.3782
  611MPD2     C 9050   2.624   1.315  10.694  0.0950 -0.1604  0.3881
  611MPD2    C1 9051   2.581   1.270  10.567  0.5414  0.4142 -0.2822
  611MPD2    C2 9052   2.619   1.348  10.450 -0.1985 -0.5330  0.1162
  611MPD2    C3 9053   2.708   1.457  10.466  0.6842  0.5267  0.1452
  611MPD2    C4 9054   2.748   1.489  10.598  0.1279 -0.2433  0.0416
  611MPD2    C5 9055   2.703   1.419  10.705 -0.5712 -0.0442  0.0049
  611MPD2     H 9056   2.582   1.323  10.351 -0.7622 -0.8258  0.4010
  611MPD2    H1 9057   2.822   1.568  10.610 -1.0010  0.9529 -0.7418
  611MPD2    H2 9058   2.599   1.267  10.788 -1.9347  0.7364  0.3140
  611MPD2    H3 9059   2.751   1.441  10.799 -0.2647 -1.1953  0.1197
  611MPD2     N 9060   2.766   1.525  10.358 -0.7480  0.1379  0.2420
  611MPD2    H5 9061   2.839   1.591  10.384 -0.9479  0.8113 -0.9090
  611MPD2    N1 9062   2.499   1.157  10.564  0.3716  0.3092  0.1130
  611MPD2    H7 9063   2.469   1.123  10.655 -1.0906  0.9096 -0.1409
  612TMC3    C1 9064   2.820   1.586  10.138 -0.6918 -0.3187  0.6265
  612TMC3    C2 9065   2.955   1.549  10.154 -0.0639  0.3113 -0.0893
  612TMC3    C3 9066   3.045   1.629  10.082  0.3219 -0.0141  0.3755
  612TMC3    C4 9067   2.764   1.686  10.061 -0.0137 -0.5661  0.1440
  612TMC3    C5 9068   2.861   1.760   9.998  0.0150 -0.2137  0.4384
  612TMC3    C6 9069   2.995   1.729  10.007  0.1935 -0.1614 -0.7734
  612TMC3     C 9070   2.729   1.512  10.225  0.5258  0.0064 -0.0835
  612TMC3     O 9071   2.625   1.467  10.168  0.2905 -0.3797  0.4124
  612TMC3     H 9072   2.991   1.469  10.217 -1.2006  1.1753  1.6619
  612TMC3    H1 9073   2.659   1.712  10.055  0.1493  0.8654  3.2400
  612TMC3    H2 9074   3.061   1.777   9.935 -1.8667  0.5043 -2.2001
  612TMC3    C7 9075   2.803   1.821   9.875 -0.5768  0.4626  0.6216
  612TMC3    C8 9076   3.186   1.617  10.103  0.2428 -0.2227  0.0431
  612TMC3    O1 9077   2.686   1.808   9.847 -0.5313  0.8118 -0.3481
  612TMC3    O2 9078   3.244   1.717  10.073 -0.3253  0.3843  0.2615
  613MPD2     C 9079   1.804   2.464  16.469  0.2648  0.9027  0.2665
  613MPD2    C1 9080   1.845   2.481  16.335  0.3696  0.6010 -0.3134
  613MPD2    C2 9081   1.805   2.385  16.247  0.6748 -0.1283  0.2503
  613MPD2    C3 9082   1.722   2.279  16.287 -0.1021 -0.1944  0.4331
  613MPD2    C4 9083   1.686   2.267  16.416 -0.1391 -0.7420  1.0369
  613MPD2    C5 9084   1.728   2.355  16.507  0.2077 -1.1983  0.4932
  613MPD2     H 9085   1.828   2.392  16.142 -1.1686  0.3190 -0.1243
  613MPD2    H1 9086   1.623   2.189  16.456  0.8557 -0.9121  2.2445
  613MPD2    H2 9087   1.837   2.535  16.543 -0.9978 -0.2233  1.9203
  613MPD2    H3 9088   1.699   2.328  16.608 -0.1474 -0.5649  0.5598
  613MPD2     N 9089   1.686   2.177  16.198  0.0458  0.1905  0.4308
  613MPD2    H5 9090   1.607   2.121  16.228  0.0892 -0.5550 -0.8238
  613MPD2    N1 9091   1.933   2.580  16.289  0.0324  0.1778 -0.2821
  613MPD2    H7 9092   1.967   2.565  16.194  0.2136  0.8381 -0.3232
  614TMC3    C1 9093   2.048   2.787  16.263  0.2836  0.3828  0.3096
  614TMC3    C2 9094   2.086   2.728  16.147 -0.4206 -0.2968 -0.4196
  614TMC3    C3 9095   2.021   2.759  16.031 -0.6975  0.1750 -0.4594
  614TMC3    C4 9096   1.968   2.897  16.264 -0.0627  1.6222 -0.9348
  614TMC3    C5 9097   1.899   2.922  16.145 -0.4922  0.2313 -0.3818
  614TMC3    C6 9098   1.924   2.850  16.027 -0.4305  0.5125  0.6621
  614TMC3     C 9099   1.964   2.696  16.349  1.2305  0.7539 -0.5239
  614TMC3     O 9100   1.895   2.741  16.443  0.2603 -0.0262  0.3441
  614TMC3     H 9101   2.159   2.648  16.148  0.8563  0.8749 -0.2176
  614TMC3    H1 9102   1.938   2.944  16.357  1.1597 -1.9161  1.2420
  614TMC3    H2 9103   1.861   2.861  15.939  0.6039 -0.5199 -0.2043
  614TMC3    C7 9104   1.802   3.031  16.145 -0.3286 -0.2765 -0.3821
  614TMC3    C8 9105   1.995   2.643  15.957  0.2227  0.3678  0.5463
  614TMC3    O1 9106   1.809   3.108  16.242 -0.4983 -0.3579  0.3323
  614TMC3    O2 9107   1.999   2.536  16.014 -0.5811  0.0294 -0.2704
  615MPD2     C 9108   0.763   4.198  15.423  1.1900  0.0339 -0.0392
  615MPD2    C1 9109   0.696   4.157  15.543 -0.0348  0.1743  0.1029
  615MPD2    C2 9110   0.626   4.037  15.535 -0.6288 -0.4178  0.5384
  615MPD2    C3 9111   0.613   3.964  15.414  0.1493  0.4015 -0.2523
  615MPD2    C4 9112   0.692   4.002  15.305  0.1824 -0.3267 -0.0816
  615MPD2    C5 9113   0.764   4.124  15.308 -0.1506 -0.5308 -0.5317
  615MPD2     H 9114   0.581   4.001  15.627 -3.0952  0.8916 -0.1552
  615MPD2    H1 9115   0.699   3.939  15.217 -0.0057  1.8813 -1.6957
  615MPD2    H2 9116   0.820   4.290  15.416  1.7677 -0.2305  1.0775
  615MPD2    H3 9117   0.821   4.163  15.224  1.3955 -2.7596 -0.5199
  615MPD2     N 9118   0.523   3.860  15.396 -0.1735 -0.4779  0.8339
  615MPD2    H5 9119   0.502   3.835  15.300  1.2457  0.2414  0.3391
  615MPD2    N1 9120   0.694   4.223  15.667 -0.1534  0.3350 -0.4947
  615MPD2    H7 9121   0.648   4.182  15.748  1.9989 -0.7334  0.1866
  616TMC3    C1 9122   0.734   4.411  15.813 -0.2442  0.2993 -0.0892
  616TMC3    C2 9123   0.787   4.543  15.816  1.2917  0.1218 -0.4423
  616TMC3    C3 9124   0.848   4.584  15.934  0.4166  0.1072  0.3236
  616TMC3    C4 9125   0.743   4.320  15.915 -0.1175  0.0048  0.8464
  616TMC3    C5 9126   0.797   4.373  16.029  0.2235 -0.2963  0.0993
  616TMC3    C6 9127   0.856   4.498  16.041 -0.1486  0.8154  0.5458
  616TMC3     C 9128   0.723   4.359  15.673  0.2301  0.2333 -0.0240
  616TMC3     O 9129   0.758   4.432  15.580 -0.0174  0.1500  0.3631
  616TMC3     H 9130   0.792   4.616  15.736  0.7594 -2.4350 -2.7967
  616TMC3    H1 9131   0.692   4.225  15.905 -0.0194  0.0500 -0.0499
  616TMC3    H2 9132   0.882   4.545  16.135  1.4572 -0.5615  0.7705
  616TMC3    C7 9133   0.823   4.270  16.136  0.8718 -0.3885 -0.1597
  616TMC3    C8 9134   0.867   0.001  15.949 -0.6825 -0.2694 -0.2261
  616TMC3    O1 9135   0.779   4.156  16.115  0.6171  0.4164  0.0837
  616TMC3    O2 9136   0.799   0.069  15.876 -0.6620  0.2084  0.6120
  617MPD2     C 9137   3.922   3.214  13.967  0.3743  0.4050  0.3503
  617MPD2    C1 9138   3.964   3.081  13.950 -0.1194  0.5102  0.4849
  617MPD2    C2 9139   3.863   2.988  13.929 -0.0860 -0.0976 -0.1488
  617MPD2    C3 9140   3.732   3.024  13.939  0.1535  0.0586 -0.6438
  617MPD2    C4 9141   3.688   3.150  13.966  0.1148 -0.1038  0.4009
  617MPD2    C5 9142   3.789   3.243  13.968  0.4583  0.1135  0.5916
  617MPD2     H 9143   3.893   2.886  13.906  4.0509  1.1761 -0.2676
  617MPD2    H1 9144   3.584   3.181  13.967 -0.2930 -1.5497  1.5171
  617MPD2    H2 9145   3.997   3.290  13.978  1.3371 -0.1664 -2.5341
  617MPD2    H3 9146   3.761   3.348  13.968  0.4818  0.1180  0.8318
  617MPD2     N 9147   3.630   2.926  13.924 -0.2197 -0.3785  0.0314
  617MPD2    H5 9148   3.541   2.934  13.970  0.6821 -0.7541  1.8409
  617MPD2    N1 9149   4.101   3.051  13.958 -0.3046 -1.3467  0.4160
  617MPD2    H7 9150   4.169   3.122  13.983 -0.4237 -0.7585 -0.8959
  618TMC3    C1 9151   4.285   2.920  14.000 -0.1418  0.7007  0.8054
  618TMC3    C2 9152   4.315   2.811  14.079 -0.0689 -0.3022 -0.1976
  618TMC3    C3 9153   4.436   2.750  14.051  0.8977  0.3611 -0.0096
  618TMC3    C4 9154   4.371   2.966  13.907 -0.0934  0.2032 -0.6899
  618TMC3    C5 9155   4.499   2.918  13.902  0.1748 -0.5950  0.5570
  618TMC3    C6 9156   4.533   2.812  13.974  0.6163 -0.3158  1.0400
  618TMC3     C 9157   4.153   2.923  13.964 -0.3773 -0.1183 -0.0078
  618TMC3     O 9158   4.098   2.815  13.968 -0.0093  0.0717  0.1354
  618TMC3     H 9159   4.229   2.760  14.120 -0.4179 -1.1230 -1.9442
  618TMC3    H1 9160   4.335   3.041  13.838 -1.3353 -0.5682 -0.8753
  618TMC3    H2 9161   4.630   2.768  13.955 -0.7631 -2.6241 -0.6155
  618TMC3    C7 9162   4.594   3.025  13.864  0.3179  0.0793 -0.6663
  618TMC3    C8 9163   4.447   2.606  14.079  0.7683 -0.6352  0.6362
  618TMC3    O1 9164   4.558   3.138  13.878 -0.2120 -0.2854 -0.5815
  618TMC3    O2 9165   4.363   2.545  14.145  0.6508 -0.1870 -0.3133
  619MPD2     C 9166   0.599   3.642  13.794  0.7168 -0.3503 -0.3296
  619MPD2    C1 9167   0.574   3.754  13.725  0.3125 -0.2791 -0.3029
  619MPD2    C2 9168   0.453   3.769  13.659  0.2236 -0.5461 -0.6197
  619MPD2    C3 9169   0.354   3.670  13.653 -0.6690  0.7296  0.2978
  619MPD2    C4 9170   0.376   3.559  13.737 -0.3018 -0.0506 -0.2137
  619MPD2    C5 9171   0.496   3.547  13.803  0.4362 -0.0012 -0.6994
  619MPD2     H 9172   0.457   3.858  13.596 -1.2207 -1.5748 -2.1604
  619MPD2    H1 9173   0.313   3.471  13.743 -0.1329 -0.0867  1.0556
  619MPD2    H2 9174   0.695   3.620  13.838  0.6405 -0.5496 -0.2623
  619MPD2    H3 9175   0.523   3.451  13.844 -0.5121  0.2003  0.3890
  619MPD2     N 9176   0.247   3.683  13.560  0.1115  0.1303 -0.1922
  619MPD2    H5 9177   0.230   3.778  13.527  1.2841  0.2085 -0.5626
  619MPD2    N1 9178   0.679   3.854  13.700  0.3539 -0.6304 -0.5487
  619MPD2    H7 9179   0.663   3.938  13.644  0.7686  0.6963  1.3087
  620TMC3    C1 9180   0.881   3.943  13.668  0.3127  0.0393 -0.0861
  620TMC3    C2 9181   0.829   3.976  13.545 -1.6958 -0.0202 -0.0029
  620TMC3    C3 9182   0.841   4.109  13.511  0.0179 -0.1627  0.0286
  620TMC3    C4 9183   0.945   4.029  13.758  0.3526 -0.8656  0.0579
  620TMC3    C5 9184   0.966   4.148  13.710  0.3186 -0.2680  0.2391
  620TMC3    C6 9185   0.918   4.189  13.581  0.8152  0.2497  0.1794
  620TMC3     C 9186   0.809   3.836  13.729 -0.0558 -0.5708 -0.6793
  620TMC3     O 9187   0.874   3.743  13.782  0.6096 -0.0751  0.4562
  620TMC3     H 9188   0.779   3.903  13.482  0.6980  1.3087 -3.4294
  620TMC3    H1 9189   0.965   4.011  13.863 -0.4526 -1.7977  0.0607
  620TMC3    H2 9190   0.934   4.293  13.553 -0.8912  0.8787  1.5754
  620TMC3    C7 9191   0.958   4.249  13.812 -0.4654  0.9367 -1.0626
  620TMC3    C8 9192   0.705   4.166  13.504 -0.6249  0.5416 -0.3522
  620TMC3    O1 9193   1.038   4.234  13.904  0.4942 -0.3133 -0.0847
  620TMC3    O2 9194   0.686   4.263  13.579 -0.2470  0.5482 -0.2427
  621MPD2     C 9195   1.805   3.966   9.776 -0.4583 -0.0991  1.1478
  621MPD2    C1 9196   1.748   3.919   9.902  0.3240 -0.1439  0.2600
  621MPD2    C2 9197   1.743   4.004  10.014  0.0535  0.1726  0.1188
  621MPD2    C3 9198   1.774   4.141   9.995 -0.0445  0.2509 -0.0225
  621MPD2    C4 9199   1.825   4.186   9.872  0.4921 -0.0722  0.4584
  621MPD2    C5 9200   1.842   4.096   9.768  0.3898  0.0540 -0.5944
  621MPD2     H 9201   1.692   3.969  10.103  0.2224 -2.2549 -0.7528
  621MPD2    H1 9202   1.848   4.290   9.854 -0.6074  0.5433  2.5450
  621MPD2    H2 9203   1.831   3.901   9.694  0.7098  1.3821  0.3404
  621MPD2    H3 9204   1.884   4.138   9.677  1.6801  1.2364  0.5375
  621MPD2     N 9205   1.750   4.228  10.108 -0.3147  0.5732 -0.0334
  621MPD2    H5 9206   1.730   4.191  10.201 -1.9020 -0.3704 -0.7462
  621MPD2    N1 9207   1.688   3.788   9.915  1.0477  0.9835  0.4362
  621MPD2    H7 9208   1.653   3.763  10.007 -0.9001  0.6396 -0.3848
  622TMC3    C1 9209   1.605   3.587   9.824  0.5281  1.0014 -0.8879
  622TMC3    C2 9210   1.594   3.535   9.948 -0.4625  0.1116  0.8571
  622TMC3    C3 9211   1.515   3.418   9.957  0.1377  0.6465 -0.1446
  622TMC3    C4 9212   1.538   3.532   9.711 -0.6151  0.1422 -0.4504
  622TMC3    C5 9213   1.444   3.438   9.741 -0.1961  0.0578 -0.5488
  622TMC3    C6 9214   1.437   3.377   9.856 -0.5306 -0.4189 -0.1842
  622TMC3     C 9215   1.679   3.702   9.804 -0.4218 -0.5503  0.3579
  622TMC3     O 9216   1.704   3.728   9.688  0.0645 -0.3536  0.2994
  622TMC3     H 9217   1.656   3.563  10.032 -0.1508  3.1963 -0.4166
  622TMC3    H1 9218   1.531   3.589   9.619  1.4996 -1.4672 -1.6125
  622TMC3    H2 9219   1.366   3.296   9.868 -0.0411 -0.9579 -0.9592
  622TMC3    C7 9220   1.391   3.370   9.625 -0.4486  0.0851  0.9069
  622TMC3    C8 9221   1.521   3.336  10.077 -0.3587  0.5373 -0.0675
  622TMC3    O1 9222   1.385   3.248   9.616  0.1164 -0.0120 -0.2742
  622TMC3    O2 9223   1.491   3.222  10.057 -0.1401  0.0071 -0.0523
  623MPD2     C 9224   4.389   4.650  15.759  0.2904 -0.0442 -0.6486
  623MPD2    C1 9225   4.310   0.030  15.809  0.1546 -0.3733 -0.1605
  623MPD2    C2 9226   4.373   0.152  15.845 -0.7827 -0.0245 -0.2794
  623MPD2    C3 9227   4.506   0.169  15.838 -0.4485  0.8625  0.3398
  623MPD2    C4 9228   4.578   0.068  15.783  0.1242 -0.0902  0.3256
  623MPD2    C5 9229   4.524   4.671  15.747  0.7297  0.3730  0.0490
  623MPD2     H 9230   4.320   0.240  15.882 -0.1438  0.0893  0.3716
  623MPD2    H1 9231   4.685   0.078  15.769 -0.2326  0.3006 -2.1353
  623MPD2    H2 9232   4.357   4.550  15.733 -1.3367  0.2279  0.3146
  623MPD2    H3 9233   4.588   4.601  15.695  1.3338  0.8473  0.1638
  623MPD2     N 9234   4.568   0.291  15.873  0.9865 -0.2683 -0.2025
  623MPD2    H5 9235   4.497   0.348  15.918  0.6689  2.0251 -3.6200
  623MPD2    N1 9236   4.168   0.005  15.821  0.2743  0.5977  0.0248
  623MPD2    H7 9237   4.144   4.628  15.819  0.2256  0.6070  0.1884
  624TMC3    C1 9238   0.072   0.505  16.146  0.5034  0.5389 -0.2801
  624TMC3    C2 9239   4.670   0.521  16.207  0.1575 -0.1745  0.0267
  624TMC3    C3 9240   4.559   0.508  16.124  0.6670  0.1819  0.1467
  624TMC3    C4 9241   0.096   0.466  16.016  0.2375  0.2452  0.4097
  624TMC3    C5 9242   4.700   0.463  15.944  0.4345  0.5563 -0.0199
  624TMC3    C6 9243   4.571   0.505  15.993  0.4002 -0.3853 -0.7428
  624TMC3     C 9244   0.179   0.492  16.244  0.1910  0.1582 -0.1116
  624TMC3     O 9245   0.244   0.393  16.216  0.2585 -0.2561  0.3297
  624TMC3     H 9246   4.660   0.546  16.312 -0.9529  0.9067 -0.3349
  624TMC3    H1 9247   0.190   0.424  15.983  1.3145 -0.0619  3.8644
  624TMC3    H2 9248   4.489   0.507  15.923 -1.5624 -0.9393  1.5157
  624TMC3    C7 9249   4.695   0.350  15.857  0.5195 -0.4571 -0.2761
  624TMC3    C8 9250   4.439   0.448  16.164  0.3503  0.1141  0.7527
  624TMC3    O1 9251   0.076   0.309  15.804 -0.1157  0.0483  0.4650
  624TMC3    O2 9252   4.370   0.404  16.075 -0.2871  0.0939 -0.4099
  625MPD2     C 9253   4.559   1.209   1.304  0.2189 -0.7919  0.0125
  625MPD2    C1 9254   4.695   1.209   1.287 -0.2949  0.4140  0.3015
  625MPD2    C2 9255   0.052   1.142   1.379 -0.2206 -0.6120 -0.2338
  625MPD2    C3 9256   4.714   1.079   1.488  0.4725  0.0869 -0.5683
  625MPD2    C4 9257   4.574   1.089   1.511 -0.6920 -0.1962  0.1421
  625MPD2    C5 9258   4.498   1.151   1.414  0.4546  0.5331  0.4343
  625MPD2     H 9259   0.160   1.152   1.369 -0.8287  4.3093 -2.0990
  625MPD2    H1 9260   4.525   1.056   1.601 -0.9442  3.3516  1.3278
  625MPD2    H2 9261   4.495   1.249   1.226 -1.7458 -1.9198  1.0349
  625MPD2    H3 9262   4.390   1.152   1.430  0.2694 -0.6927 -0.7970
  625MPD2     N 9263   0.079   1.006   1.581  0.6623  0.0161  0.4377
  625MPD2    H5 9264   0.177   1.015   1.556  0.3548  0.8058 -0.5131
  625MPD2    N1 9265   0.032   1.276   1.178 -0.3503 -0.2685  0.7067
  625MPD2    H7 9266   0.133   1.269   1.170 -0.2245  1.1704  1.0211
  626TMC3    C1 9267   0.062   1.345   0.957 -0.2583  0.4974 -0.2012
  626TMC3    C2 9268   4.721   1.366   0.839  0.7832 -0.0063 -0.5819
  626TMC3    C3 9269   0.079   1.431   0.749  0.1188 -0.3217 -0.1770
  626TMC3    C4 9270   0.189   1.380   0.990 -0.6185  0.0391 -0.3151
  626TMC3    C5 9271   0.262   1.440   0.891  0.2409  0.7466  0.6460
  626TMC3    C6 9272   0.213   1.457   0.765 -0.3084  0.4864  0.4079
  626TMC3     C 9273   4.690   1.315   1.066 -0.5117  0.4022  1.0087
  626TMC3     O 9274   4.574   1.298   1.025 -0.5773  0.5785 -0.0135
  626TMC3     H 9275   4.620   1.330   0.822  0.6598  0.5531 -1.0272
  626TMC3    H1 9276   0.236   1.379   1.088  0.7068  0.3328 -0.9444
  626TMC3    H2 9277   0.280   1.506   0.695 -0.6985 -0.4454 -0.6213
  626TMC3    C7 9278   0.397   1.484   0.936 -0.4348  0.3237 -0.0172
  626TMC3    C8 9279   0.010   1.498   0.636  1.2122 -0.2694 -0.3974
  626TMC3    O1 9280   0.394   1.541   1.043  0.6937 -0.7775 -0.0069
  626TMC3    O2 9281   0.094   1.551   0.556  0.2512 -0.3645 -0.2893
  627MPD2     C 9282   3.532   1.603  14.452 -0.6865 -0.2753 -0.1435
  627MPD2    C1 9283   3.572   1.603  14.583  0.4061  0.9197 -0.3384
  627MPD2    C2 9284   3.516   1.513  14.671 -0.6747  0.6057 -0.2161
  627MPD2    C3 9285   3.399   1.442  14.639 -0.0878  0.0401 -0.3348
  627MPD2    C4 9286   3.353   1.461  14.506  0.1857  0.4358  0.5010
  627MPD2    C5 9287   3.423   1.530  14.413  0.1874 -0.0600 -0.0434
  627MPD2     H 9288   3.560   1.502  14.770 -0.6050 -1.2875 -0.4550
  627MPD2    H1 9289   3.257   1.419  14.478 -0.1981  2.7321 -1.4970
  627MPD2    H2 9290   3.588   1.657  14.376 -0.6610 -0.0028  0.0704
  627MPD2    H3 9291   3.393   1.533  14.309  0.1691 -2.7571 -0.0941
  627MPD2     N 9292   3.324   1.367  14.740 -0.2297  1.7935  0.4534
  627MPD2    H5 9293   3.366   1.344  14.830 -0.7842 -1.2006 -0.0610
  627MPD2    N1 9294   3.678   1.681  14.625  0.1964 -0.4393  0.4463
  627MPD2    H7 9295   3.733   1.648  14.704 -2.1758 -2.4613  1.2482
  628TMC3    C1 9296   3.821   1.864  14.623  0.3734  0.0403 -0.1522
  628TMC3    C2 9297   3.871   1.828  14.745 -0.7738  0.0776  0.0371
  628TMC3    C3 9298   3.995   1.878  14.786  0.0076 -0.4718  0.3071
  628TMC3    C4 9299   3.884   1.957  14.548 -0.7182 -0.6821  0.2717
  628TMC3    C5 9300   4.003   2.011  14.591  0.0334  0.8091  0.2193
  628TMC3    C6 9301   4.061   1.961  14.704  0.1549  0.1179 -0.0505
  628TMC3     C 9302   3.709   1.803  14.562  0.2879  0.6516 -0.1098
  628TMC3     O 9303   3.635   1.873  14.499 -0.2137 -0.5754  0.3451
  628TMC3     H 9304   3.813   1.780  14.823 -0.4465 -0.1849  0.1185
  628TMC3    H1 9305   3.834   1.977  14.454 -1.0036 -0.9215  0.3731
  628TMC3    H2 9306   4.139   2.025  14.743  0.1060  0.2878 -0.2277
  628TMC3    C7 9307   4.055   2.126  14.528 -0.4750  0.0336 -0.0249
  628TMC3    C8 9308   4.010   1.907  14.925  0.0531  0.2121  0.1540
  628TMC3    O1 9309   4.173   2.133  14.509  0.6070  0.3358 -0.0097
  628TMC3    O2 9310   3.961   2.015  14.960 -0.5059 -0.0322  0.4693
  629MPD2     C 9311   1.069   0.423  16.181 -0.0163 -0.5884  0.0053
  629MPD2    C1 9312   1.122   0.305  16.235 -0.6766  0.2609 -0.4523
  629MPD2    C2 9313   1.083   0.182  16.187 -0.3596 -0.3624 -0.2432
  629MPD2    C3 9314   0.995   0.175  16.083  0.4728  0.7266 -0.6564
  629MPD2    C4 9315   0.937   0.292  16.029 -0.1634 -0.5044 -0.1059
  629MPD2    C5 9316   0.981   0.415  16.076 -0.0592  0.1841 -0.1976
  629MPD2     H 9317   1.138   0.096  16.224 -2.5797 -2.3026 -1.5009
  629MPD2    H1 9318   0.873   0.294  15.942  0.6413  1.6493 -0.6550
  629MPD2    H2 9319   1.090   0.523  16.216 -1.0382  0.3520 -2.0600
  629MPD2    H3 9320   0.940   0.498  16.021  0.8792  0.3960 -0.5823
  629MPD2     N 9321   0.960   0.044  16.042  0.9574  0.4975  0.6877
  629MPD2    H5 9322   1.004   4.689  16.093  1.3271 -0.4788 -1.0736
  629MPD2    N1 9323   1.226   0.323  16.325  0.2026 -0.9956 -0.5993
  629MPD2    H7 9324   1.254   0.417  16.349  0.8808 -1.3007 -0.2126
  630TMC3    C1 9325   1.409   0.294  16.448 -0.5693  0.2507  0.3657
  630TMC3    C2 9326   1.477   0.389  16.375  0.5780 -0.2092 -0.6284
  630TMC3    C3 9327   1.542   0.489  16.449  0.5310 -0.1968  0.1037
  630TMC3    C4 9328   1.404   0.298  16.585  0.9020 -0.5640 -0.1306
  630TMC3    C5 9329   1.464   0.401  16.653 -0.0889 -0.4622 -0.0230
  630TMC3    C6 9330   1.527   0.500  16.584 -0.6919 -0.4635 -0.2051
  630TMC3     C 9331   1.296   0.228  16.388  0.1207  0.3279  0.2230
  630TMC3     O 9332   1.269   0.110  16.408 -0.0408 -0.3294 -0.1323
  630TMC3     H 9333   1.482   0.381  16.267  1.0724  2.1739 -0.7860
  630TMC3    H1 9334   1.336   0.231  16.635  2.5305 -3.0910 -1.2980
  630TMC3    H2 9335   1.578   0.580  16.636  1.5624 -0.9647 -1.6275
  630TMC3    C7 9336   1.435   0.413  16.794 -0.8001  0.0728  0.0909
  630TMC3    C8 9337   1.658   0.554  16.391  0.5787  0.5695  0.2873
  630TMC3    O1 9338   1.415   0.314  16.866 -0.2134  0.6769 -0.0195
  630TMC3    O2 9339   1.737   0.586  16.476  0.4819 -0.4056  0.1623
  631MPD2     C 9340   4.515   4.305  15.555 -0.2114  0.2427 -0.0537
  631MPD2    C1 9341   4.581   4.314  15.438  0.2535 -0.4203 -0.1414
  631MPD2    C2 9342   4.636   4.204  15.385 -0.3036 -0.2263 -0.0041
  631MPD2    C3 9343   4.631   4.087  15.458  0.3892  0.1184 -0.0466
  631MPD2    C4 9344   4.561   4.081  15.571 -0.1775  0.1378  0.1038
  631MPD2    C5 9345   4.501   4.191  15.626 -0.2881 -0.7047 -0.4212
  631MPD2     H 9346   4.684   4.201  15.288 -1.2458 -0.9227 -0.4427
  631MPD2    H1 9347   4.536   3.987  15.618  3.1420  0.3358  2.2537
  631MPD2    H2 9348   4.468   4.388  15.607 -0.1877 -0.9307  1.8181
  631MPD2    H3 9349   4.439   4.189  15.715 -0.2558 -1.3100 -0.4086
  631MPD2     N 9350   4.703   3.972  15.414  0.1176 -0.5584 -0.0244
  631MPD2    H5 9351   0.043   3.989  15.334 -0.7186 -0.6039 -0.6672
  631MPD2    N1 9352   4.591   4.446  15.383 -0.1810  0.4734 -0.4599
  631MPD2    H7 9353   4.533   4.514  15.430  2.8767  1.1537  2.2813
  632TMC3    C1 9354   4.629   4.624  15.236 -0.1899 -0.5479  0.3639
  632TMC3    C2 9355   4.586   4.699  15.341 -0.3104  0.1539 -0.1427
  632TMC3    C3 9356   4.612   0.112  15.334  0.5993 -0.1549 -0.1684
  632TMC3    C4 9357   4.703   4.667  15.129  0.2426 -0.6869  0.1520
  632TMC3    C5 9358   0.002   0.079  15.130 -0.2391 -0.4091 -0.3264
  632TMC3    C6 9359   4.681   0.166  15.228 -0.0466  0.5723 -0.2141
  632TMC3     C 9360   4.645   4.481  15.267  0.3042 -0.2613 -0.3106
  632TMC3     O 9361   4.708   4.409  15.188 -0.7045 -0.1025 -0.0752
  632TMC3     H 9362   4.525   4.671  15.426  0.6267  0.0235  0.4796
  632TMC3    H1 9363   0.021   4.598  15.055  2.1434 -0.4812  0.9598
  632TMC3    H2 9364   4.706   0.272  15.224 -0.7912  0.6758 -2.1496
  632TMC3    C7 9365   0.099   0.128  15.036 -0.2627  0.0740 -0.1798
  632TMC3    C8 9366   4.542   0.201  15.429 -0.3556  0.7187 -0.0283
  632TMC3    O1 9367   0.109   0.063  14.937 -0.3115 -0.2590 -0.2919
  632TMC3    O2 9368   4.439   0.166  15.480  0.1865  0.2301 -0.3008
  633MPD2     C 9369   4.685   3.159  17.421  0.3370  0.4909  0.8764
  633MPD2    C1 9370   0.055   3.072  17.357  0.2085 -0.6343 -0.4038
  633MPD2    C2 9371   0.075   2.949  17.417 -0.4151  0.2074 -0.4356
  633MPD2    C3 9372   0.009   2.904  17.531 -0.1938  0.0825 -0.5869
  633MPD2    C4 9373   4.648   2.993  17.594 -0.2775 -0.3810  0.1544
  633MPD2    C5 9374   4.627   3.118  17.541 -0.5685 -0.0960  0.4969
  633MPD2     H 9375   0.144   2.878  17.374  1.5299  1.0960  1.2036
  633MPD2    H1 9376   4.596   2.969  17.686  0.8555 -2.0335  0.3574
  633MPD2    H2 9377   4.643   3.247  17.374  2.1272  0.1290 -1.3885
  633MPD2    H3 9378   4.563   3.188  17.592 -1.1612 -0.5624  0.3924
  633MPD2     N 9379   0.039   2.769  17.564  0.6469  0.6131  0.5851
  633MPD2    H5 9380   0.104   2.725  17.500 -0.7234 -3.0143  1.7430
  633MPD2    N1 9381   0.111   3.100  17.227  0.3586  0.0535 -0.0526
  633MPD2    H7 9382   0.155   3.020  17.182  0.9378  0.6601 -0.5486
  634TMC3    C1 9383   0.159   3.220  17.027 -0.5431 -0.7515  0.8170
  634TMC3    C2 9384   0.235   3.122  16.978 -0.0300  0.4968 -0.0848
  634TMC3    C3 9385   0.281   3.124  16.848 -0.7574  0.5128  0.4949
  634TMC3    C4 9386   0.105   3.319  16.944 -0.0572  1.0978 -0.4835
  634TMC3    C5 9387   0.154   3.327  16.813  0.1953  0.1989  0.0123
  634TMC3    C6 9388   0.234   3.227  16.765 -1.0982 -0.6848  1.1769
  634TMC3     C 9389   0.111   3.221  17.164 -0.2013 -0.3301 -0.0712
  634TMC3     O 9390   0.069   3.331  17.203 -0.3450 -0.1545 -0.1652
  634TMC3     H 9391   0.266   3.039  17.040 -1.3034  0.3268  0.3333
  634TMC3    H1 9392   0.047   3.398  16.991  1.3646  1.2372  1.0204
  634TMC3    H2 9393   0.262   3.236  16.660 -2.9727  0.3952  0.7811
  634TMC3    C7 9394   0.070   3.399  16.713 -0.1598  0.2679  0.1102
  634TMC3    C8 9395   0.319   2.998  16.787  0.8116  0.6584 -1.4937
  634TMC3    O1 9396   0.086   3.373  16.595 -0.0546 -0.5646  0.0181
  634TMC3    O2 9397   0.308   2.892  16.853 -0.2419  0.1844  0.0208
  635TMC3    C1 9398   0.093   4.406  17.026 -0.6668 -0.1559 -0.3967
  635TMC3    C2 9399   0.072   4.343  16.909 -0.0029  0.1709 -0.0704
  635TMC3    C3 9400   4.702   4.398  16.825 -0.7393  0.3556  0.0431
  635TMC3    C4 9401   0.014   4.508  17.062 -0.5643  0.2775  0.0900
  635TMC3    C5 9402   4.627   4.543  16.987 -0.2540 -1.2421 -0.3498
  635TMC3    C6 9403   4.615   4.498  16.863  0.7879  0.0424 -0.3488
  635TMC3     C 9404   0.174   4.342  17.120  0.0126  0.3852  0.1016
  635TMC3     O 9405   0.216   4.414  17.209 -0.3086 -0.3050  0.6733
  635TMC3     H 9406   0.142   4.272  16.867  1.9232  1.8876  0.2194
  635TMC3    H1 9407   0.016   4.552  17.161  0.4927  0.6532 -0.1027
  635TMC3    H2 9408   4.536   4.536  16.799  0.2864  0.6673  0.6419
  635TMC3    C7 9409   4.537   4.643  17.033  0.0235  0.3065  0.0153
  635TMC3    C8 9410   4.669   4.316  16.713 -0.2882 -0.9436  0.0948
  635TMC3    O1 9411   4.475   4.693  16.940 -0.2424 -0.2359  0.8700
  635TMC3    O2 9412   4.548   4.299  16.701  0.2900  0.1543  0.1288
  636MPD2     C 9413   1.354   2.718  15.746  0.0827 -0.1389 -0.0697
  636MPD2    C1 9414   1.318   2.685  15.873  0.0674 -0.1102 -0.0600
  636MPD2    C2 9415   1.330   2.555  15.919  0.4043  0.7707  0.1184
  636MPD2    C3 9416   1.368   2.452  15.830  0.9726  0.6934 -0.6011
  636MPD2    C4 9417   1.408   2.492  15.702  0.2072  0.8276  0.3658
  636MPD2    C5 9418   1.394   2.621  15.661 -0.0752 -0.7301 -0.0196
  636MPD2     H 9419   1.306   2.542  16.024 -0.6210 -1.1466 -0.3593
  636MPD2    H1 9420   1.454   2.431  15.625 -0.7421  0.8686 -0.2271
  636MPD2    H2 9421   1.345   2.815  15.699  2.5396  0.0080 -0.2685
  636MPD2    H3 9422   1.416   2.644  15.557 -0.3535  3.5868  0.8482
  636MPD2     N 9423   1.397   2.321  15.874 -0.2815  0.2773 -0.8313
  636MPD2    H5 9424   1.399   2.300  15.974 -0.2268 -0.2278 -0.9369
  636MPD2    N1 9425   1.267   2.777  15.964  0.5692 -0.9809 -0.1112
  636MPD2    H7 9426   1.274   2.740  16.059 -0.4267 -0.7150  0.0622
  637TMC3    C1 9427   1.471   2.090  15.850 -0.3936 -0.0955 -0.0169
  637TMC3    C2 9428   1.525   2.089  15.979  0.0258  0.6730 -0.0340
  637TMC3    C3 9429   1.657   2.057  16.002  0.2398  0.3366  0.3835
  637TMC3    C4 9430   1.538   2.025  15.746 -0.3393  0.1359 -0.3495
  637TMC3    C5 9431   1.676   2.006  15.765 -0.5877 -0.2911  0.0294
  637TMC3    C6 9432   1.731   2.016  15.891 -0.1356 -0.4906  0.0280
  637TMC3     C 9433   1.432   2.215  15.791  0.3611  0.3154 -0.2145
  637TMC3     O 9434   1.437   2.207  15.670  0.1182  0.2116  0.3088
  637TMC3     H 9435   1.456   2.113  16.059 -1.2979 -1.9497 -0.3953
  637TMC3    H1 9436   1.486   1.991  15.658 -1.2064  1.1106 -0.2175
  637TMC3    H2 9437   1.834   1.986  15.906 -0.2640 -1.5983 -1.2887
  637TMC3    C7 9438   1.741   2.086  15.668 -0.5876  0.2266  0.4334
  637TMC3    C8 9439   1.731   2.156  16.068 -0.4628  0.3296 -0.5356
  637TMC3    O1 9440   1.718   2.085  15.547 -0.9768 -0.0761 -0.5674
  637TMC3    O2 9441   1.834   2.198  16.018  0.4082  0.0337  0.2412
  638MPD2     C 9442   1.143   1.976  14.690 -0.9520  0.3269  0.3133
  638MPD2    C1 9443   1.117   1.850  14.642 -0.1940  0.3672  0.2269
  638MPD2    C2 9444   1.051   1.762  14.726 -0.5548 -0.6133 -0.9378
  638MPD2    C3 9445   1.013   1.800  14.860  0.7871 -0.4475  0.0247
  638MPD2    C4 9446   1.046   1.927  14.901  0.3489  0.0293 -0.0363
  638MPD2    C5 9447   1.106   2.015  14.815  0.4404  0.3088 -0.4032
  638MPD2     H 9448   1.025   1.663  14.689  0.2956 -0.4232 -2.0328
  638MPD2    H1 9449   1.014   1.968  14.996  0.9922 -0.1000  0.2310
  638MPD2    H2 9450   1.202   2.050  14.637  0.6521 -0.3281  1.1760
  638MPD2    H3 9451   1.130   2.119  14.835 -1.1152  0.0415  2.8523
  638MPD2     N 9452   0.939   1.703  14.942  0.5710  0.3344  0.3094
  638MPD2    H5 9453   0.913   1.617  14.896  0.5793  1.1917 -1.3240
  638MPD2    N1 9454   1.162   1.818  14.512 -0.0153  0.3464 -0.5642
  638MPD2    H7 9455   1.195   1.898  14.458  0.6341  0.2632 -0.2923
  639TMC3    C1 9456   0.851   1.610  15.130  0.6143 -0.2013 -0.0017
  639TMC3    C2 9457   0.724   1.573  15.084  0.2330  0.2859  0.2479
  639TMC3    C3 9458   0.681   1.446  15.130  0.8997 -0.4848 -0.2326
  639TMC3    C4 9459   0.933   1.535  15.209  0.6658  0.1620 -0.2918
  639TMC3    C5 9460   0.886   1.403  15.240  0.4409 -0.3105 -0.4836
  639TMC3    C6 9461   0.760   1.365  15.207 -0.2590  0.8202  0.3568
  639TMC3     C 9462   0.919   1.718  15.074 -0.2815 -0.3146  0.2526
  639TMC3     O 9463   0.959   1.803  15.154  0.5591 -0.6558 -0.0602
  639TMC3     H 9464   0.670   1.622  15.005  1.8411  0.1630 -0.9147
  639TMC3    H1 9465   1.032   1.575  15.229  0.5854 -0.9715  2.4080
  639TMC3    H2 9466   0.737   1.261  15.223  0.0017  0.9021  1.2269
  639TMC3    C7 9467   0.975   1.302  15.287  0.0746  0.0825  0.1109
  639TMC3    C8 9468   0.625   1.367  15.023  0.6594  0.6943  0.5335
  639TMC3    O1 9469   0.931   1.221  15.363  0.0128 -0.4102 -0.2355
  639TMC3    O2 9470   0.699   1.282  14.980  0.4044  0.4123 -0.5396
  640MPD2     C 9471   1.147   0.344  10.736  0.2977 -0.3289  0.1951
  640MPD2    C1 9472   1.179   0.391  10.608 -0.3575  0.4593  0.3009
  640MPD2    C2 9473   1.088   0.465  10.539 -1.5876 -0.5672  0.0699
  640MPD2    C3 9474   0.964   0.495  10.591 -0.4858 -0.3490  0.1892
  640MPD2    C4 9475   0.930   0.445  10.712 -0.4698 -0.0025 -0.3124
  640MPD2    C5 9476   1.020   0.370  10.782 -0.1052  0.0887  0.1758
  640MPD2     H 9477   1.108   0.512  10.443  0.0848 -1.3123  0.0498
  640MPD2    H1 9478   0.826   0.449  10.740 -0.1848 -1.2997  0.9238
  640MPD2    H2 9479   1.206   0.279  10.799  1.4904  0.8477  0.2997
  640MPD2    H3 9480   1.000   0.330  10.880  1.5160 -2.3522 -0.4688
  640MPD2     N 9481   0.864   0.563  10.517 -0.6021 -0.0826 -0.4550
  640MPD2    H5 9482   0.775   0.574  10.565  0.2272  1.2988  0.7751
  640MPD2    N1 9483   1.307   0.363  10.552  0.2539  0.4936 -0.0973
  640MPD2    H7 9484   1.360   0.295  10.605  1.5463  1.0819 -0.6502
  641TMC3    C1 9485   1.495   0.395  10.412  0.3930  0.1710  0.2022
  641TMC3    C2 9486   1.568   0.312  10.486  0.5724  0.3129 -0.3229
  641TMC3    C3 9487   1.701   0.302  10.450 -0.1358 -0.1347  0.2923
  641TMC3    C4 9488   1.554   0.466  10.305  0.3217 -0.3646  0.7865
  641TMC3    C5 9489   1.687   0.454  10.278 -0.2149 -0.1258  0.2100
  641TMC3    C6 9490   1.764   0.377  10.356 -0.3541 -0.1944  1.2115
  641TMC3     C 9491   1.363   0.436  10.445  0.0436  0.2118  0.6646
  641TMC3     O 9492   1.323   0.533  10.386 -0.3429  0.1918 -0.5694
  641TMC3     H 9493   1.539   0.259  10.576  0.0850  1.4294  0.1745
  641TMC3    H1 9494   1.489   0.541  10.261 -0.5735 -2.0147 -0.6906
  641TMC3    H2 9495   1.872   0.385  10.349 -0.3700 -0.9854  0.1778
  641TMC3    C7 9496   1.746   0.573  10.208 -0.0324 -0.0292 -0.4793
  641TMC3    C8 9497   1.777   0.199  10.513  0.1604  0.4726  0.0117
  641TMC3    O1 9498   1.678   0.673  10.204 -0.0058 -0.1960 -0.3985
  641TMC3    O2 9499   1.728   0.137  10.604 -0.5337 -0.3704  0.0206
  642TMC3    C1 9500   2.670   1.639  12.433  0.6133  0.3987  0.9010
  642TMC3    C2 9501   2.742   1.613  12.549  0.2641 -0.8629  0.4824
  642TMC3    C3 9502   2.769   1.477  12.581 -0.4890  0.1357 -0.8073
  642TMC3    C4 9503   2.626   1.544  12.353 -0.2740 -0.1256 -0.0727
  642TMC3    C5 9504   2.646   1.415  12.385 -0.1996 -0.3764 -1.0421
  642TMC3    C6 9505   2.714   1.381  12.497  0.0770  0.7635  0.2821
  642TMC3     C 9506   2.640   1.774  12.397 -0.3698  0.3315  0.5317
  642TMC3     O 9507   2.632   1.806  12.281 -0.2039 -0.3924  0.2428
  642TMC3     H 9508   2.774   1.698  12.609 -0.9289 -0.9580  1.2463
  642TMC3    H1 9509   2.560   1.571  12.271 -0.6850 -2.9442 -0.7067
  642TMC3    H2 9510   2.724   1.274  12.516 -1.9895  0.5051 -0.1228
  642TMC3    C7 9511   2.579   1.316  12.313  0.4562 -0.2413  0.5192
  642TMC3    C8 9512   2.803   1.446  12.718 -0.0600  0.0541 -0.1614
  642TMC3    O1 9513   2.539   1.348  12.202 -0.6685 -0.1514 -0.8151
  642TMC3    O2 9514   2.803   1.326  12.738  0.1623  0.4268  0.4911
  643TMC3    C1 9515   1.884   0.875   0.737  0.1452 -0.6029 -0.5085
  643TMC3    C2 9516   1.752   0.882   0.730  0.5275 -0.6264 -0.4067
  643TMC3    C3 9517   1.686   0.873   0.610 -0.4559 -0.6066 -0.0135
  643TMC3    C4 9518   1.955   0.847   0.623  0.8725  0.1383  0.1117
  643TMC3    C5 9519   1.889   0.827   0.505  0.3942 -0.7204 -0.1531
  643TMC3    C6 9520   1.755   0.841   0.493 -0.2992 -0.2445  0.6403
  643TMC3     C 9521   1.937   0.902   0.869  0.1189 -0.3409 -0.0036
  643TMC3     O 9522   1.854   0.893   0.960  0.1857 -0.7807  0.8796
  643TMC3     H 9523   1.698   0.919   0.816 -0.9085 -0.2492 -1.4641
  643TMC3    H1 9524   2.063   0.848   0.631  0.8465  0.8684  0.3150
  643TMC3    H2 9525   1.710   0.836   0.394 -0.0509 -1.8331  0.6155
  643TMC3    C7 9526   1.958   0.870   0.385 -0.1419  0.5332  0.6523
  643TMC3    C8 9527   1.610   0.993   0.581  0.8720  0.0328 -0.0630
  643TMC3    O1 9528   1.886   0.926   0.304 -0.1614 -0.3518 -0.9294
  643TMC3    O2 9529   1.533   1.039   0.661 -0.4775 -0.3365 -0.3554
  644MPD2     C 9530   1.979   0.399   9.782  0.0536  0.3111  0.6698
  644MPD2    C1 9531   2.035   0.470   9.678 -0.2442  0.6491  0.5519
  644MPD2    C2 9532   1.971   0.584   9.632 -0.8760 -0.8709 -0.1227
  644MPD2    C3 9533   1.839   0.600   9.665 -0.5385 -0.4535 -0.1820
  644MPD2    C4 9534   1.781   0.527   9.767  0.0149  0.4231 -0.9058
  644MPD2    C5 9535   1.848   0.425   9.823  0.5082 -0.1525  0.2537
  644MPD2     H 9536   2.020   0.649   9.561 -1.9019  0.9019  0.8048
  644MPD2    H1 9537   1.678   0.538   9.801  0.1130  0.2831 -0.5613
  644MPD2    H2 9538   2.024   0.311   9.828 -1.0514 -1.0338 -0.8645
  644MPD2    H3 9539   1.804   0.359   9.896 -2.8753  2.5061  0.5619
  644MPD2     N 9540   1.781   0.717   9.607 -0.5306 -0.2695  0.0098
  644MPD2    H5 9541   1.835   0.782   9.551  1.3058 -2.5588 -0.8503
  644MPD2    N1 9542   2.160   0.426   9.616 -0.3778 -0.3477  0.1399
  644MPD2    H7 9543   2.204   0.355   9.674 -2.0791 -1.0195  0.6225
  645TMC3    C1 9544   1.592   0.856   9.556 -0.0210 -0.5366 -0.2152
  645TMC3    C2 9545   1.459   0.857   9.507 -0.1378  0.3566 -0.0076
  645TMC3    C3 9546   1.411   0.980   9.470  0.3319  0.3620 -0.1345
  645TMC3    C4 9547   1.675   0.969   9.552  0.0981  0.0245  0.0238
  645TMC3    C5 9548   1.622   1.080   9.496 -0.3623 -0.4490 -1.2171
  645TMC3    C6 9549   1.486   1.088   9.459  0.1666 -0.7166  0.2453
  645TMC3     C 9550   1.640   0.728   9.606  0.2704 -0.4403 -0.4338
  645TMC3     O 9551   1.556   0.641   9.599  0.2684 -0.0330  0.0842
  645TMC3     H 9552   1.389   0.775   9.511 -1.6555  1.6319 -0.6369
  645TMC3    H1 9553   1.771   0.971   9.602  0.1163  0.8161 -0.0319
  645TMC3    H2 9554   1.447   1.182   9.421  0.8665 -0.2649  0.6337
  645TMC3    C7 9555   1.677   1.209   9.536 -0.6060  0.0509  0.1901
  645TMC3    C8 9556   1.264   0.984   9.451  0.2703  0.5255  0.3338
  645TMC3    O1 9557   1.602   1.301   9.542 -0.1315  0.8556 -0.2128
  645TMC3    O2 9558   1.226   1.059   9.365 -0.2810 -0.3463 -0.3038
  646MPD2     C 9559   1.077   0.690  14.796  0.3268 -0.6026  0.3152
  646MPD2    C1 9560   0.963   0.646  14.855  0.5743 -0.3837  0.2564
  646MPD2    C2 9561   0.846   0.668  14.783 -0.2869  0.4999  0.5859
  646MPD2    C3 9562   0.853   0.706  14.648  0.6397 -0.4863  0.1280
  646MPD2    C4 9563   0.975   0.749  14.597 -0.5289 -0.3169 -0.9702
  646MPD2    C5 9564   1.090   0.745  14.672  0.3118 -0.5429 -0.3249
  646MPD2     H 9565   0.758   0.622  14.826 -0.1244 -0.2539  0.1000
  646MPD2    H1 9566   0.986   0.775  14.492 -0.0286 -1.4260 -1.2022
  646MPD2    H2 9567   1.167   0.686  14.856  1.2542 -2.7470 -1.1930
  646MPD2    H3 9568   1.184   0.785  14.635  0.4904  1.3328  2.1069
  646MPD2     N 9569   0.736   0.721  14.576 -0.0532  0.1513 -0.6378
  646MPD2    H5 9570   0.655   0.699  14.632 -0.1141 -2.4916 -1.7623
  646MPD2    N1 9571   0.978   0.591  14.991  0.3308 -0.2231 -0.0152
  646MPD2    H7 9572   1.072   0.596  15.030 -0.5469  0.1200  2.0323
  647TMC3    C1 9573   0.930   0.435  15.162  0.4330  0.9801 -0.4934
  647TMC3    C2 9574   0.863   0.321  15.196 -0.1831  0.1733 -0.3332
  647TMC3    C3 9575   0.906   0.240  15.301  0.3227  0.2633  0.1721
  647TMC3    C4 9576   1.047   0.465  15.228  0.3163  0.2221 -0.5436
  647TMC3    C5 9577   1.087   0.382  15.326  0.2760  0.0813  0.5858
  647TMC3    C6 9578   1.022   0.277  15.364 -0.3515  0.2382 -0.1565
  647TMC3     C 9579   0.877   0.518  15.051  0.2006 -0.4356 -0.1848
  647TMC3     O 9580   0.757   0.526  15.044 -0.5767  0.2185  0.4537
  647TMC3     H 9581   0.774   0.303  15.137  0.6389  1.4418 -1.9558
  647TMC3    H1 9582   1.105   0.552  15.198 -0.2825  1.0106  0.5558
  647TMC3    H2 9583   1.074   0.217  15.438  0.7903 -0.3504 -1.4501
  647TMC3    C7 9584   1.232   0.392  15.368 -0.4243  0.1254  0.0573
  647TMC3    C8 9585   0.906   0.100  15.276 -0.1210 -0.2077 -0.0814
  647TMC3    O1 9586   1.292   0.289  15.400  0.5971 -0.5036  0.1154
  647TMC3    O2 9587   0.836   0.057  15.189 -0.1641 -0.1811  0.4699
  648TMC3    C1 9588   0.693   3.086  16.297 -0.6951  0.0247  0.3291
  648TMC3    C2 9589   0.806   3.017  16.271 -0.2023 -0.2480  0.2791
  648TMC3    C3 9590   0.824   2.957  16.153 -0.7401  0.1236  0.1377
  648TMC3    C4 9591   0.594   3.102  16.195  0.6813  0.1741 -0.2056
  648TMC3    C5 9592   0.622   3.041  16.073  0.1370 -0.3470 -0.5563
  648TMC3    C6 9593   0.734   2.965  16.052  0.3823  0.3640 -0.7378
  648TMC3     C 9594   0.666   3.155  16.425  0.2358  0.5937 -0.5600
  648TMC3     O 9595   0.572   3.233  16.422 -0.1001  0.3893 -0.3420
  648TMC3     H 9596   0.876   3.006  16.353 -1.5330  0.6290  1.5282
  648TMC3    H1 9597   0.511   3.172  16.203  1.4059  1.0008  0.1375
  648TMC3    H2 9598   0.736   2.913  15.957  0.4145 -0.5666 -0.2297
  648TMC3    C7 9599   0.513   3.017  15.980  0.7575  0.0493 -1.2204
  648TMC3    C8 9600   0.896   2.837  16.170  0.0695  0.2060 -0.1602
  648TMC3    O1 9601   0.516   2.915  15.915 -0.1005  0.1884 -0.6877
  648TMC3    O2 9602   0.985   2.834  16.257  0.3259  0.0127  0.3179
  649TMC3    C1 9603   3.751   3.749  12.897  0.2244  0.4676  0.8460
  649TMC3    C2 9604   3.882   3.790  12.895  0.1177  0.0013 -0.5855
  649TMC3    C3 9605   3.973   3.732  12.976 -0.3721 -0.3003  0.3446
  649TMC3    C4 9606   3.712   3.649  12.978 -0.2833 -0.4789  0.1243
  649TMC3    C5 9607   3.801   3.602  13.068 -0.6792  0.0701 -0.1906
  649TMC3    C6 9608   3.936   3.635  13.067 -0.1283  1.3324 -0.4483
  649TMC3     C 9609   3.652   3.844  12.848 -0.1084 -0.5813 -1.1012
  649TMC3     O 9610   3.539   3.848  12.890 -0.2279 -0.3629  0.5863
  649TMC3     H 9611   3.908   3.871  12.829 -0.7344  0.8362  0.0911
  649TMC3    H1 9612   3.607   3.625  12.971 -0.5766  1.5456 -2.2774
  649TMC3    H2 9613   3.991   3.611  13.157 -0.2744 -2.8046 -1.4471
  649TMC3    C7 9614   3.748   3.542  13.184 -0.1299  0.6580 -0.4098
  649TMC3    C8 9615   4.111   3.767  12.974 -0.9474 -0.2374  0.5677
  649TMC3    O1 9616   3.802   3.559  13.292 -0.0945 -0.0098  0.1611
  649TMC3    O2 9617   4.179   3.722  13.067 -1.0071  0.7958  0.6895
  650TMC3    C1 9618   2.295   0.887  13.006  0.3027 -0.3682 -0.1488
  650TMC3    C2 9619   2.261   1.021  13.015 -0.2340 -0.1966  0.3583
  650TMC3    C3 9620   2.207   1.083  12.907 -0.1715 -0.1043 -0.3112
  650TMC3    C4 9621   2.263   0.813  12.895  0.1522  0.1982  0.3452
  650TMC3    C5 9622   2.203   0.879  12.794 -0.2409  0.2276  0.6357
  650TMC3    C6 9623   2.176   1.011  12.798  0.1302 -0.0084  0.2459
  650TMC3     C 9624   2.346   0.826  13.126 -0.4462 -0.6286 -0.6439
  650TMC3     O 9625   2.388   0.894  13.217  0.0467  0.2625  0.4293
  650TMC3     H 9626   2.284   1.082  13.102  1.3230  0.1340 -0.2759
  650TMC3    H1 9627   2.300   0.712  12.882 -0.0418  0.2924 -0.9974
  650TMC3    H2 9628   2.146   1.063  12.708  2.4935  0.0707 -0.4968
  650TMC3    C7 9629   2.132   0.793  12.698 -0.4988 -0.6497  0.3630
  650TMC3    C8 9630   2.155   1.216  12.925  0.5495  0.0007  0.4122
  650TMC3    O1 9631   2.194   0.705  12.649  0.2332  0.2690  0.0992
  650TMC3    O2 9632   2.218   1.298  12.991  0.7836 -0.0774  0.5527
  651MPD2     C 9633   1.177   2.333  11.213 -0.3555  0.2864  0.6461
  651MPD2    C1 9634   1.098   2.396  11.117 -0.5239  0.1447 -0.2455
  651MPD2    C2 9635   1.159   2.443  11.001  0.0454 -0.0187 -0.6710
  651MPD2    C3 9636   1.297   2.433  10.982  0.0932 -0.3071 -0.2829
  651MPD2    C4 9637   1.367   2.357  11.070 -0.7543  0.0996  0.0591
  651MPD2    C5 9638   1.313   2.309  11.186 -0.3118  0.1612 -0.1537
  651MPD2     H 9639   1.100   2.499  10.929  1.5779  1.4280 -0.7823
  651MPD2    H1 9640   1.473   2.343  11.052 -0.4918  0.1379  1.6073
  651MPD2    H2 9641   1.134   2.280  11.297 -1.5770  2.3392  1.3017
  651MPD2    H3 9642   1.368   2.239  11.249 -0.6918  0.2990  0.3296
  651MPD2     N 9643   1.362   2.493  10.872 -0.7370 -0.5034  0.0570
  651MPD2    H5 9644   1.300   2.517  10.795  0.5210 -0.1421 -0.8556
  651MPD2    N1 9645   0.956   2.423  11.140  0.1536  0.3709 -0.2627
  651MPD2    H7 9646   0.902   2.458  11.063 -1.9699 -0.1576  0.9997
  652TMC3    C1 9647   1.729   2.693  10.662  0.0506  0.0719 -0.1665
  652TMC3    C2 9648   1.673   2.574  10.701 -0.1624 -0.1345 -0.5158
  652TMC3    C3 9649   1.533   2.569  10.720 -0.3626  0.0546  0.2808
  652TMC3    C4 9650   1.651   2.807  10.626 -0.3873  0.3097  0.6594
  652TMC3    C5 9651   1.512   2.792  10.636 -1.1614  0.6057  0.1938
  652TMC3    C6 9652   1.455   2.676  10.685 -0.7295  0.4838  0.8023
  652TMC3     C 9653   1.845   2.719  10.732 -0.4646  0.5471 -0.7572
  652TMC3     O 9654   1.861   2.646  10.829  0.3248  0.5088 -0.0436
  652TMC3     H 9655   1.726   2.485  10.732  1.2251  0.7292 -0.4136
  652TMC3    H1 9656   1.695   2.894  10.580  0.5842 -0.1840  0.6411
  652TMC3    H2 9657   1.347   2.671  10.692 -0.9366  1.6210 -1.2616
  652TMC3    C7 9658   1.431   2.915  10.640 -0.5227 -0.1936  0.2827
  652TMC3    C8 9659   1.497   2.503  10.842 -0.2819  0.3157 -0.3094
  652TMC3    O1 9660   1.308   2.909  10.635 -0.5010 -0.7575  0.1159
  652TMC3    O2 9661   1.595   2.470  10.913 -0.0097 -0.1762  0.2420
  653MPD2     C 9662   4.369   3.158   0.171  0.1641 -0.2676  0.7617
  653MPD2    C1 9663   4.316   3.239   0.081 -0.6070  0.8504 -0.0350
  653MPD2    C2 9664   4.228   3.189  17.671  0.3366 -0.4856  0.1581
  653MPD2    C3 9665   4.222   3.050  17.657  0.6220 -0.0220 -0.5055
  653MPD2    C4 9666   4.280   2.967   0.059  0.2726  0.4617 -0.0702
  653MPD2    C5 9667   4.362   3.022   0.159 -0.0191 -0.1680  0.3181
  653MPD2     H 9668   4.171   3.255  17.608 -2.3148 -2.5217  0.4127
  653MPD2    H1 9669   4.284   2.859   0.062 -0.7265  0.4053 -0.7365
  653MPD2    H2 9670   4.434   3.201   0.246 -0.4493 -0.8027  1.5934
  653MPD2    H3 9671   4.424   2.958   0.221 -1.1113 -0.0272  1.5695
  653MPD2     N 9672   4.160   2.991  17.539  0.2543  0.7412 -0.3796
  653MPD2    H5 9673   4.083   3.051  17.509  2.2942  3.4574 -0.2421
  653MPD2    N1 9674   4.345   3.376   0.085 -0.2209 -0.7974  0.1128
  653MPD2    H7 9675   4.413   3.396   0.157  0.2175 -0.6102 -0.3537
  654TMC3    C1 9676   4.074   2.809  17.410  0.0437  0.2440 -0.0111
  654TMC3    C2 9677   3.944   2.854  17.407 -0.0449 -0.5272 -0.4657
  654TMC3    C3 9678   3.861   2.786  17.320  0.4151  0.2842 -0.7688
  654TMC3    C4 9679   4.123   2.702  17.333 -0.3105  0.3924  0.5900
  654TMC3    C5 9680   4.029   2.641  17.249  0.0666 -0.4321  0.0565
  654TMC3    C6 9681   3.899   2.678  17.242  0.1407 -0.2071 -0.5150
  654TMC3     C 9682   4.177   2.862  17.498  0.3869  0.1001 -0.0773
  654TMC3     O 9683   4.277   2.788  17.509  0.0630  0.0587  0.2420
  654TMC3     H 9684   3.914   2.937  17.470 -0.5640 -1.2009  0.1709
  654TMC3    H1 9685   4.227   2.678  17.317 -0.4473 -0.0954  0.4440
  654TMC3    H2 9686   3.824   2.617  17.193  1.5836 -1.9179 -0.6119
  654TMC3    C7 9687   4.066   2.519  17.183  0.6152 -0.7112 -0.3785
  654TMC3    C8 9688   3.722   2.824  17.320  0.1032  1.0276 -0.2343
  654TMC3    O1 9689   4.012   2.498  17.075 -0.1202 -0.1745 -0.1969
  654TMC3    O2 9690   3.674   2.855  17.428 -0.2949 -0.0741 -0.8486
  655MPD2     C 9691   0.939   2.911  15.749 -0.7056  0.8141 -0.0272
  655MPD2    C1 9692   0.866   2.966  15.648 -0.1556  0.1562  0.2230
  655MPD2    C2 9693   0.850   2.896  15.533  0.0693 -0.3262  0.5208
  655MPD2    C3 9694   0.924   2.778  15.503  0.3936  0.3418 -0.2395
  655MPD2    C4 9695   1.004   2.724  15.602  0.0014  0.9483 -0.4359
  655MPD2    C5 9696   1.006   2.791  15.720 -0.2401  0.2308 -0.8168
  655MPD2     H 9697   0.772   2.935  15.469 -1.4779 -1.9811  1.3983
  655MPD2    H1 9698   1.046   2.626  15.584  0.6072  0.9552  0.9742
  655MPD2    H2 9699   0.944   2.961  15.845 -0.2011 -3.5121  2.1486
  655MPD2    H3 9700   1.055   2.737  15.800 -0.0110 -1.4804 -2.1062
  655MPD2     N 9701   0.906   2.693  15.387 -0.0605  0.3004 -0.1690
  655MPD2    H5 9702   0.973   2.616  15.384 -0.1243  0.2523 -0.3616
  655MPD2    N1 9703   0.789   3.082  15.667  0.3825  0.1402  0.0655
  655MPD2    H7 9704   0.729   3.117  15.593  1.1704  1.6135  0.1063
  656TMC3    C1 9705   0.695   3.279  15.755 -0.0598 -0.3495  0.0551
  656TMC3    C2 9706   0.694   3.380  15.840 -0.1226  0.1233  0.1946
  656TMC3    C3 9707   0.589   3.463  15.852 -0.0740  0.0382  0.0715
  656TMC3    C4 9708   0.598   3.274  15.659 -0.6226 -0.3934 -0.1842
  656TMC3    C5 9709   0.494   3.361  15.667 -0.4413  0.3495  0.3972
  656TMC3    C6 9710   0.487   3.460  15.762  0.2893 -0.3787  0.9496
  656TMC3     C 9711   0.793   3.167  15.770  0.7609 -0.2883 -0.1130
  656TMC3     O 9712   0.879   3.185  15.852 -0.4962 -0.5509 -0.1179
  656TMC3     H 9713   0.771   3.383  15.916  0.1020 -0.1710 -0.0242
  656TMC3    H1 9714   0.592   3.198  15.582  0.7222  0.5622 -1.2413
  656TMC3    H2 9715   0.405   3.530  15.766  0.4726 -0.1543  0.7968
  656TMC3    C7 9716   0.396   3.359  15.558  1.0753  0.1141 -1.0161
  656TMC3    C8 9717   0.539   3.459  15.990  0.1413 -0.8608 -0.6960
  656TMC3    O1 9718   0.444   3.322  15.449  0.3950 -0.0563 -0.2759
  656TMC3    O2 9719   0.583   3.373  16.064 -0.4301  0.5668  0.3068
  657TMC3    C1 9720   0.005   2.433  14.856  0.1279 -0.6961 -0.5598
  657TMC3    C2 9721   4.676   2.345  14.950 -0.4539 -0.3494  0.2870
  657TMC3    C3 9722   4.564   2.371  15.026 -0.5160  0.4262  0.2362
  657TMC3    C4 9723   4.653   2.541  14.834  0.1281  0.1015  0.0389
  657TMC3    C5 9724   4.538   2.568  14.909  0.4906 -0.3658  0.0270
  657TMC3    C6 9725   4.485   2.489  15.007  0.0548 -0.0534 -0.1994
  657TMC3     C 9726   0.132   2.419  14.799 -0.0694 -0.3296  0.1259
  657TMC3     O 9727   0.137   2.414  14.677  0.0141 -0.6028 -0.2631
  657TMC3     H 9728   0.017   2.264  14.986 -2.3558 -1.9432  0.0342
  657TMC3    H1 9729   4.687   2.614  14.761 -0.8707  1.5427  1.0080
  657TMC3    H2 9730   4.396   2.510  15.066  0.5431 -0.5370  0.6997
  657TMC3    C7 9731   4.477   2.699  14.886  0.1365  0.1691  0.2029
  657TMC3    C8 9732   4.547   2.294  15.151  0.2593 -0.2202 -0.3362
  657TMC3    O1 9733   4.510   2.753  14.780 -0.5704  0.3502  0.2886
  657TMC3    O2 9734   4.497   2.367  15.236 -0.4482 -0.5754  0.1479
  658MPD2     C 9735   1.287   2.961  14.989  0.2948 -0.0305 -0.1976
  658MPD2    C1 9736   1.179   2.945  14.917  0.4667 -0.0475  0.8864
  658MPD2    C2 9737   1.171   3.011  14.789 -0.8807  0.4911 -0.3409
  658MPD2    C3 9738   1.261   3.110  14.763  0.0263 -1.0179  0.2418
  658MPD2    C4 9739   1.371   3.129  14.842  0.3225 -0.2737 -0.3118
  658MPD2    C5 9740   1.376   3.060  14.959  0.0700  0.7356  0.0820
  658MPD2     H 9741   1.083   3.005  14.726 -0.3106 -1.9227 -0.9162
  658MPD2    H1 9742   1.440   3.212  14.833  2.5065 -1.8990  1.5996
  658MPD2    H2 9743   1.305   2.912  15.084 -2.3228 -0.3307  0.1474
  658MPD2    H3 9744   1.457   3.090  15.025 -0.8451  0.6647  1.2258
  658MPD2     N 9745   1.220   3.199  14.656 -0.2285 -0.2792  0.2457
  658MPD2    H5 9746   1.150   3.165  14.592  0.2627 -1.0388  0.1132
  658MPD2    N1 9747   1.089   2.851  14.965  0.1811 -0.8691 -0.0353
  658MPD2    H7 9748   1.093   2.829  15.064 -1.2907 -0.4155  0.1383
  659TMC3    C1 9749   0.915   2.696  14.955  0.5582  0.6209  1.0043
  659TMC3    C2 9750   0.939   2.679  15.091 -0.5944  0.1382 -0.1652
  659TMC3    C3 9751   0.832   2.643  15.169  0.6330  0.1509 -0.5288
  659TMC3    C4 9752   0.794   2.662  14.900  0.1971 -0.3970  0.1817
  659TMC3    C5 9753   0.682   2.628  14.974 -0.0693 -0.3248 -0.0794
  659TMC3    C6 9754   0.709   2.621  15.116  0.2318 -0.1332 -0.1625
  659TMC3     C 9755   1.003   2.780  14.884  0.5246 -0.4890  0.5388
  659TMC3     O 9756   0.973   2.793  14.766 -0.5131 -0.3769 -0.2336
  659TMC3     H 9757   1.035   2.683  15.141 -0.3753 -1.8643 -0.3987
  659TMC3    H1 9758   0.779   2.677  14.794 -0.4291 -1.2827  0.1484
  659TMC3    H2 9759   0.624   2.607  15.182  1.5405  0.4974  1.6430
  659TMC3    C7 9760   0.544   2.685  14.949 -0.3366  0.9837  0.2190
  659TMC3    C8 9761   0.818   2.714  15.289  0.4154  0.0746 -0.8087
  659TMC3    O1 9762   0.480   2.732  15.038  0.1342  0.1584 -0.9304
  659TMC3    O2 9763   0.740   2.804  15.276  0.0942 -0.2022  0.2581
  660MPD2     C 9764   4.081   1.088  12.993 -0.6724  0.4989 -0.1701
  660MPD2    C1 9765   3.965   1.044  12.940  0.8698 -0.0774 -1.2936
  660MPD2    C2 9766   3.901   0.931  12.994 -0.8137 -0.1356 -0.3678
  660MPD2    C3 9767   3.969   0.856  13.086 -0.5599 -0.2565 -0.0707
  660MPD2    C4 9768   4.088   0.901  13.134  0.0487 -0.0277  0.4798
  660MPD2    C5 9769   4.140   1.018  13.093  0.2929  0.2880  0.0427
  660MPD2     H 9770   3.808   0.898  12.950 -0.0250  0.3680 -2.4178
  660MPD2    H1 9771   4.140   0.845  13.211 -1.2157 -0.2386  1.1799
  660MPD2    H2 9772   4.130   1.179  12.958 -1.0052  0.3907 -0.9103
  660MPD2    H3 9773   4.232   1.046  13.144  0.4314  1.3545 -0.7855
  660MPD2     N 9774   3.912   0.741  13.151  0.1225  0.4382 -0.0506
  660MPD2    H5 9775   3.965   0.700  13.228  1.1348  3.4520  0.8527
  660MPD2    N1 9776   3.897   1.114  12.835  0.1146  0.3446  0.8016
  660MPD2    H7 9777   3.810   1.074  12.800  1.0767  0.9312 -2.2140
  661TMC3    C1 9778   3.857   1.276  12.662  0.3596  0.3924 -0.5776
  661TMC3    C2 9779   3.914   1.323  12.545 -0.1823 -0.3447  0.1708
  661TMC3    C3 9780   3.824   1.334  12.446  0.1021 -0.4129 -0.2793
  661TMC3    C4 9781   3.725   1.234  12.673  0.1711 -0.3334 -0.2294
  661TMC3    C5 9782   3.648   1.239  12.568  0.0580  0.1151 -1.1284
  661TMC3    C6 9783   3.695   1.303  12.452 -0.5358  0.9028 -0.4008
  661TMC3     C 9784   3.948   1.221  12.755 -0.2296  0.0333  0.8184
  661TMC3     O 9785   4.058   1.271  12.756 -0.6648  0.6525  0.8395
  661TMC3     H 9786   4.019   1.346  12.535 -0.4837  0.9121 -0.0371
  661TMC3    H1 9787   3.691   1.189  12.766  1.1930  2.1755  1.3538
  661TMC3    H2 9788   3.635   1.313  12.363 -1.0810  0.8476 -0.0411
  661TMC3    C7 9789   3.501   1.227  12.585  0.0639 -0.0309  0.6435
  661TMC3    C8 9790   3.873   1.384  12.316  0.0995  0.0756 -0.1985
  661TMC3    O1 9791   3.465   1.124  12.640  0.1469  0.1263 -0.6680
  661TMC3    O2 9792   3.986   1.353  12.282 -0.0369  0.1102  0.4926
  662MPD2     C 9793   4.017   0.561   0.447  0.5841 -0.2660 -0.4948
  662MPD2    C1 9794   4.050   0.555   0.311  0.3878 -0.0344 -0.2587
  662MPD2    C2 9795   4.056   0.671   0.230  0.4279 -0.7032 -0.0267
  662MPD2    C3 9796   4.018   0.790   0.293  0.0759  0.3998 -0.0234
  662MPD2    C4 9797   3.989   0.794   0.430 -0.3167  0.2908 -0.4038
  662MPD2    C5 9798   3.985   0.681   0.508 -0.9898 -0.2882  0.2798
  662MPD2     H 9799   4.067   0.654   0.124  0.7162 -0.1900 -0.0763
  662MPD2    H1 9800   3.973   0.893   0.472  0.2571 -0.1647  0.8776
  662MPD2    H2 9801   4.019   0.473   0.510  2.1476 -1.0708 -1.6932
  662MPD2    H3 9802   3.975   0.705   0.613 -1.5908 -0.5687  0.2850
  662MPD2     N 9803   4.023   0.914   0.231  0.3388  0.8688  0.5249
  662MPD2    H5 9804   3.983   0.994   0.279  1.4523  1.4199  0.5395
  662MPD2    N1 9805   4.078   0.435   0.245  0.6486  0.1673 -0.7893
  662MPD2    H7 9806   4.103   0.445   0.147  0.3409 -1.4896 -1.0269
  663TMC3    C1 9807   4.074   0.199   0.213 -0.1582 -0.8274 -0.2701
  663TMC3    C2 9808   4.055   0.074   0.268 -0.7102 -1.2885 -0.2596
  663TMC3    C3 9809   4.018   4.689   0.195  0.6314 -0.7830 -0.0481
  663TMC3    C4 9810   4.036   0.219   0.084  0.5521  0.2899  0.0022
  663TMC3    C5 9811   3.992   0.109   0.015  0.0084 -0.2122  0.5297
  663TMC3    C6 9812   3.978   4.704   0.064 -0.6070  0.2640  0.9288
  663TMC3     C 9813   4.066   0.312   0.306  0.6134 -0.9847  0.1459
  663TMC3     O 9814   4.053   0.282   0.423  0.0283 -0.2882 -0.1841
  663TMC3     H 9815   4.106   0.047   0.360 -2.5277 -0.2716  1.0375
  663TMC3    H1 9816   4.016   0.320   0.051 -2.5092  0.2676  1.7287
  663TMC3    H2 9817   3.966   4.615   0.004  1.0201  0.6533  0.0435
  663TMC3    C7 9818   3.890   0.141  17.609 -0.6675 -0.1084  0.4807
  663TMC3    C8 9819   3.906   4.619   0.253  0.1770  0.9988 -0.0139
  663TMC3    O1 9820   3.901   0.243  17.541  0.0425 -0.1657  0.4739
  663TMC3    O2 9821   3.813   4.607   0.175  0.1948 -0.1416 -0.0539
  664MPD2     C 9822   1.933   4.666   0.114 -0.0927  0.0055  0.4260
  664MPD2    C1 9823   2.008   0.063   0.124  0.5495  0.0029  0.6900
  664MPD2    C2 9824   2.097   0.073   0.223  0.3450  0.2608 -0.0940
  664MPD2    C3 9825   2.121   4.692   0.314  0.1514 -0.4238 -0.4564
  664MPD2    C4 9826   2.038   4.579   0.316  0.2142 -0.0684  0.2203
  664MPD2    C5 9827   1.945   4.573   0.213 -0.7341 -0.8934  0.2633
  664MPD2     H 9828   2.154   0.165   0.235  2.5620 -1.2953  1.5321
  664MPD2    H1 9829   2.036   4.503   0.393 -1.3674 -0.1967  0.0605
  664MPD2    H2 9830   1.863   4.642   0.035 -1.4964 -1.8602  2.2362
  664MPD2    H3 9831   1.882   4.487   0.194  0.9302 -1.4783 -2.5683
  664MPD2     N 9832   2.217   4.720   0.408  0.2020  0.0378 -0.0465
  664MPD2    H5 9833   2.273   0.083   0.391  0.6172 -0.9303 -3.4533
  664MPD2    N1 9834   1.994   0.168   0.034 -0.0085 -0.0941 -0.5544
  664MPD2    H7 9835   2.050   0.249   0.056  0.4212 -0.8792  1.2319
  665TMC3    C1 9836   2.346   4.682   0.612 -0.4110 -0.0325  0.2406
  665TMC3    C2 9837   2.365   4.592   0.708 -0.7335 -0.3893  0.5525
  665TMC3    C3 9838   2.431   4.627   0.825 -0.0143  0.6599 -0.3261
  665TMC3    C4 9839   2.388   0.087   0.630  0.5752 -0.3166  0.1273
  665TMC3    C5 9840   2.445   0.127   0.747 -0.4448 -0.0484 -0.0302
  665TMC3    C6 9841   2.477   0.033   0.840  0.0739 -0.1682 -0.3946
  665TMC3     C 9842   2.270   4.628   0.500 -0.3662 -0.8886 -0.1605
  665TMC3     O 9843   2.262   4.508   0.481 -0.1810 -0.2722  0.0232
  665TMC3     H 9844   2.338   4.489   0.685 -1.1008 -0.0568 -0.5052
  665TMC3    H1 9845   2.370   0.157   0.548  2.7030 -1.2453 -1.1455
  665TMC3    H2 9846   2.523   0.054   0.936 -0.2869 -0.7020 -0.1058
  665TMC3    C7 9847   2.411   0.259   0.790 -0.4246 -0.8493  0.2137
  665TMC3    C8 9848   2.411   4.550   0.948  0.2625  0.3258 -0.0133
  665TMC3    O1 9849   2.328   0.315   0.723  0.1691 -0.2071 -0.4321
  665TMC3    O2 9850   2.417   4.608   1.055  0.1948 -0.2105  0.4062
  666TMC3    C1 9851   1.729   4.434  10.219  0.6041 -0.1219 -0.1106
  666TMC3    C2 9852   1.765   4.381  10.332  0.4737 -0.4941  0.0395
  666TMC3    C3 9853   1.742   4.452  10.441 -0.1662  0.4482 -0.2470
  666TMC3    C4 9854   1.653   4.546  10.206  0.0716  0.3392 -0.0935
  666TMC3    C5 9855   1.619   4.611  10.320 -0.5191  0.4206  0.0117
  666TMC3    C6 9856   1.672   4.571  10.441  0.1903  0.8782  0.4566
  666TMC3     C 9857   1.747   4.366  10.094 -0.2811 -0.6283  0.5326
  666TMC3     O 9858   1.731   4.430   9.990  0.2966 -0.4253 -0.0206
  666TMC3     H 9859   1.813   4.284  10.341 -0.7982 -1.2781 -1.5264
  666TMC3    H1 9860   1.623   4.580  10.107  1.7366  1.7357 -0.1164
  666TMC3    H2 9861   1.650   4.617  10.537  1.1307 -0.4263  1.2982
  666TMC3    C7 9862   1.514   4.715  10.315 -0.1662  0.7902 -0.1494
  666TMC3    C8 9863   1.777   4.394  10.570  0.7074  0.0964 -0.1185
  666TMC3    O1 9864   1.473   0.039  10.419 -0.7989  0.2353  0.4389
  666TMC3    O2 9865   1.833   4.284  10.569  0.1041  0.7716 -0.1993
  667MPD2     C 9866   3.257   0.103  15.091  0.1422  0.4022 -0.0043
  667MPD2    C1 9867   3.215   0.096  15.220 -0.8518  0.1150  0.4138
  667MPD2    C2 9868   3.123   4.715  15.244  0.0753  0.0173  0.0761
  667MPD2    C3 9869   3.081   4.625  15.153 -0.1312 -0.4586  0.0610
  667MPD2    C4 9870   3.112   4.649  15.023  0.3413  0.2932 -0.0309
  667MPD2    C5 9871   3.209   0.018  14.997  0.3143 -0.2084 -0.4954
  667MPD2     H 9872   3.088   4.703  15.345  1.0535 -1.4348  0.2405
  667MPD2    H1 9873   3.071   4.589  14.942 -1.3364  2.1387 -0.5640
  667MPD2    H2 9874   3.319   0.182  15.049  0.8700 -0.9667 -1.5106
  667MPD2    H3 9875   3.233   0.046  14.895 -1.6615  3.0312 -0.0984
  667MPD2     N 9876   2.998   4.515  15.176 -0.4379 -1.4975 -0.4142
  667MPD2    H5 9877   2.983   4.456  15.095  2.9424 -3.0439  0.0498
  667MPD2    N1 9878   3.245   0.190  15.325  0.1885 -0.2901  0.4293
  667MPD2    H7 9879   3.192   0.181  15.411 -0.3684 -1.3995 -0.0329
  668TMC3    C1 9880   3.313   0.397  15.415 -1.2662  0.4661 -0.3760
  668TMC3    C2 9881   3.390   0.511  15.407 -0.3454  0.1064 -0.0952
  668TMC3    C3 9882   3.362   0.603  15.503 -0.9834  0.1081 -0.1042
  668TMC3    C4 9883   3.227   0.374  15.519 -0.4319 -0.2098 -0.2629
  668TMC3    C5 9884   3.199   0.476  15.610  0.3563  0.8321 -0.0389
  668TMC3    C6 9885   3.269   0.591  15.602 -0.5708  0.5166 -0.1280
  668TMC3     C 9886   3.329   0.299  15.305 -0.3497 -0.7215 -0.1010
  668TMC3     O 9887   3.399   0.328  15.209  0.5273 -0.2424  0.2591
  668TMC3     H 9888   3.468   0.528  15.334  1.3335 -1.2731  1.3651
  668TMC3    H1 9889   3.178   0.278  15.532  2.3662 -1.4827  0.8920
  668TMC3    H2 9890   3.257   0.670  15.675 -2.6065  0.0636  0.0137
  668TMC3    C7 9891   3.090   0.476  15.707  0.5339 -0.5259  0.0654
  668TMC3    C8 9892   3.388   0.741  15.469  0.4413 -0.7509  0.4730
  668TMC3    O1 9893   3.081   0.559  15.795 -0.1308 -0.0350 -0.2028
  668TMC3    O2 9894   3.357   0.827  15.549  0.0862 -0.8976 -0.1098
  669TMC3    C1 9895   1.007   4.389  14.699  1.1812 -0.3537  0.1931
  669TMC3    C2 9896   0.893   4.406  14.622 -0.6039 -0.2218  0.5407
  669TMC3    C3 9897   0.906   4.492  14.509  0.0493 -0.0599  1.1883
  669TMC3    C4 9898   1.123   4.445  14.674 -0.4601  0.1576 -0.6352
  669TMC3    C5 9899   1.136   4.507  14.553  0.4413  0.4647  0.2385
  669TMC3    C6 9900   1.029   4.539  14.469  0.1734  0.4410 -0.0784
  669TMC3     C 9901   0.998   4.275  14.789 -0.0942 -0.1363  0.4702
  669TMC3     O 9902   0.910   4.190  14.766  0.4739 -0.4006  0.3227
  669TMC3     H 9903   0.797   4.380  14.665 -0.5483 -1.8433 -0.2920
  669TMC3    H1 9904   1.217   4.406  14.711 -0.7644  0.7143  0.7119
  669TMC3    H2 9905   1.036   4.604  14.382 -0.3675 -0.8633 -1.0992
  669TMC3    C7 9906   1.262   4.583  14.536 -0.4701  0.1366 -0.2779
  669TMC3    C8 9907   0.786   4.535  14.440  0.0099  0.1793  0.6266
  669TMC3    O1 9908   1.312   4.622  14.642  0.1365  0.5401 -0.1984
  669TMC3    O2 9909   0.686   4.465  14.452 -0.4325 -0.2099 -0.0137
  670MPD2     C 9910   3.883   2.221  13.497 -0.6365 -1.1375  0.0779
  670MPD2    C1 9911   3.980   2.284  13.571  0.6565 -1.6839  0.3965
  670MPD2    C2 9912   3.964   2.310  13.707 -0.8002  0.3910 -0.0029
  670MPD2    C3 9913   3.859   2.249  13.778 -0.0812 -0.1108 -1.0346
  670MPD2    C4 9914   3.769   2.169  13.700 -0.3085 -0.1432  0.1077
  670MPD2    C5 9915   3.781   2.163  13.566  0.0989  0.2529 -0.5921
  670MPD2     H 9916   4.035   2.362  13.770  0.3253  0.7028 -1.5559
  670MPD2    H1 9917   3.692   2.110  13.748  1.0529 -0.7051  1.6010
  670MPD2    H2 9918   3.895   2.213  13.389 -1.8675 -2.3747  0.0292
  670MPD2    H3 9919   3.706   2.104  13.513 -2.0865  0.4507  2.3049
  670MPD2     N 9920   3.867   2.250  13.922  0.1234  0.3491 -0.4742
  670MPD2    H5 9921   3.945   2.294  13.968 -1.4591 -0.2156  2.7250
  670MPD2    N1 9922   4.089   2.353  13.506 -0.5541 -0.6407 -0.4047
  670MPD2    H7 9923   4.149   2.402  13.571 -0.7716 -0.0669 -0.6426
  671TMC3    C1 9924   3.850   2.146  14.118 -0.4329  0.1547  0.5857
  671TMC3    C2 9925   3.985   2.141  14.101 -0.5301  0.4528  0.3702
  671TMC3    C3 9926   4.047   2.020  14.126 -0.3888 -0.5943  0.6257
  671TMC3    C4 9927   3.786   2.035  14.167 -0.2682 -0.2648  0.0898
  671TMC3    C5 9928   3.846   1.914  14.189  0.1672 -0.4604  0.6029
  671TMC3    C6 9929   3.982   1.902  14.162  0.3039  0.2050 -0.1075
  671TMC3     C 9930   3.776   2.190  14.002 -0.3031  0.2632 -0.1276
  671TMC3     O 9931   3.669   2.133  13.982 -0.7073  0.5265 -0.2859
  671TMC3     H 9932   4.054   2.218  14.134 -1.2477  1.2099  0.1107
  671TMC3    H1 9933   3.680   2.045  14.188 -0.5981  2.6139 -2.9236
  671TMC3    H2 9934   4.027   1.804  14.172 -0.3734 -0.3548 -2.6373
  671TMC3    C7 9935   3.778   1.810  14.120  0.8003  0.5148  0.1249
  671TMC3    C8 9936   4.176   1.998  14.065 -0.1355 -0.7994  0.0098
  671TMC3    O1 9937   3.839   1.774  14.019 -0.2913 -0.6315 -0.7601
  671TMC3    O2 9938   4.238   1.900  14.103 -0.1146 -0.0104  0.0444
  672MPD2     C 9939   3.843   2.496   1.194 -0.3358  0.2309 -0.9317
  672MPD2    C1 9940   3.930   2.593   1.157 -0.2948  0.1545 -0.0079
  672MPD2    C2 9941   3.962   2.694   1.244  0.6543  0.4039  0.4072
  672MPD2    C3 9942   3.935   2.682   1.379  0.3771  0.0702  1.1847
  672MPD2    C4 9943   3.857   2.582   1.422  0.3935 -0.4554 -0.3051
  672MPD2    C5 9944   3.821   2.489   1.330  0.3590 -0.1896  0.0823
  672MPD2     H 9945   4.037   2.765   1.210 -0.3478  0.7586 -1.1056
  672MPD2    H1 9946   3.817   2.581   1.523 -0.3399 -0.0691 -0.5982
  672MPD2    H2 9947   3.816   2.422   1.119  1.2002  0.4305 -1.6867
  672MPD2    H3 9948   3.751   2.417   1.370  0.4785 -1.3609 -1.8311
  672MPD2     N 9949   4.004   2.773   1.466 -0.7124  0.1944  0.1705
  672MPD2    H5 9950   4.047   2.854   1.423 -0.1500  0.9865  2.2376
  672MPD2    N1 9951   3.998   2.587   1.035  0.2355  0.2402  0.5574
  672MPD2    H7 9952   4.068   2.660   1.027 -1.7412  1.6605 -3.6504
  673TMC3    C1 9953   4.076   2.509   0.827 -0.5507 -0.1172  0.3389
  673TMC3    C2 9954   4.202   2.551   0.867  0.2900 -0.5221  0.0884
  673TMC3    C3 9955   4.287   2.593   0.772 -0.7155  0.1042 -0.3149
  673TMC3    C4 9956   4.030   2.518   0.695  0.3783 -0.4110 -0.5546
  673TMC3    C5 9957   4.118   2.564   0.602 -0.4006  0.0915 -0.0158
  673TMC3    C6 9958   4.242   2.601   0.639 -0.0105 -0.3916  0.5620
  673TMC3     C 9959   3.985   2.481   0.938  0.6089  0.3243 -0.7374
  673TMC3     O 9960   3.904   2.386   0.919 -0.6273 -0.6798 -0.1932
  673TMC3     H 9961   4.237   2.534   0.969 -2.0140 -0.1006  0.9491
  673TMC3    H1 9962   3.932   2.476   0.671 -0.0323 -0.7193  1.6909
  673TMC3    H2 9963   4.311   2.628   0.560 -0.0473 -0.7511  0.4088
  673TMC3    C7 9964   4.063   2.621   0.479  0.5624  0.3649 -0.0398
  673TMC3    C8 9965   4.427   2.635   0.804 -0.8862 -0.3422  0.1381
  673TMC3    O1 9966   3.951   2.580   0.452 -0.0343 -0.4196  0.2564
  673TMC3    O2 9967   4.478   2.714   0.723 -0.1715 -0.0148  0.4867
  674MPD2     C 9968   4.541   2.611   0.378 -0.2291 -0.1836  0.3109
  674MPD2    C1 9969   4.538   2.490   0.443 -0.3896  0.4522 -0.6933
  674MPD2    C2 9970   4.444   2.403   0.407  0.1645  0.1850  0.0851
  674MPD2    C3 9971   4.341   2.436   0.322  0.6130 -0.6454  0.2253
  674MPD2    C4 9972   4.339   2.567   0.269 -0.2897 -0.0085  0.5772
  674MPD2    C5 9973   4.444   2.655   0.294 -0.5283 -0.5002  0.0308
  674MPD2     H 9974   4.449   2.301   0.445 -0.1060 -0.4134 -1.4729
  674MPD2    H1 9975   4.254   2.610   0.217 -1.3141 -0.8405  1.5583
  674MPD2    H2 9976   4.619   2.684   0.400 -0.8928  0.9988 -1.1833
  674MPD2    H3 9977   4.445   2.754   0.250  1.3923 -0.3303  0.4662
  674MPD2     N 9978   4.244   2.341   0.296  0.7936  0.0699 -0.1934
  674MPD2    H5 9979   4.246   2.261   0.359  0.2758  0.4293  0.2931
  674MPD2    N1 9980   4.632   2.466   0.549 -0.1345 -0.0363 -0.0170
  674MPD2    H7 9981   4.690   2.542   0.584 -0.0552  0.0663 -0.3669
  675TMC3    C1 9982   0.026   2.347   0.718 -0.1801 -0.4974  0.1655
  675TMC3    C2 9983   0.008   2.272   0.829  0.2250  0.1099 -0.4124
  675TMC3    C3 9984   0.114   2.260   0.918  0.0746 -0.6632 -0.0851
  675TMC3    C4 9985   0.147   2.403   0.680  0.3889 -0.7418 -0.0629
  675TMC3    C5 9986   0.240   2.396   0.782 -0.7456  0.0229  0.1305
  675TMC3    C6 9987   0.226   2.326   0.894 -0.1222  0.2419 -0.3943
  675TMC3     C 9988   4.627   2.357   0.633  0.1136 -0.0215  0.6611
  675TMC3     O 9989   4.557   2.257   0.644  1.0486  0.2016 -0.5717
  675TMC3     H 9990   4.628   2.244   0.859  0.0289  1.1846 -0.0978
  675TMC3    H1 9991   0.156   2.459   0.587 -1.8536  3.0179  1.9832
  675TMC3    H2 9992   0.286   2.348   0.982  0.8090  1.6913 -1.4084
  675TMC3    C7 9993   0.350   2.477   0.755 -0.5655 -0.7064  0.4918
  675TMC3    C8 9994   0.091   2.209   1.061  0.2101 -0.2086  0.2624
  675TMC3    O1 9995   0.332   2.566   0.673  0.2863 -0.8083 -0.1902
  675TMC3    O2 9996   4.702   2.183   1.102 -0.6929 -0.0302 -0.3485
  676MPD2     C 9997   1.863   1.150  11.212 -0.3690 -0.5168  0.7405
  676MPD2    C1 9998   1.773   1.075  11.287 -0.0402  0.0355  0.0864
  676MPD2    C2 9999   1.750   0.942  11.252 -0.3887 -0.4599 -0.2431
  676MPD2    C310000   1.811   0.892  11.143 -0.3151 -0.8273 -0.2044
  676MPD2    C410001   1.895   0.968  11.065  0.0388  0.5184  0.4619
  676MPD2    C510002   1.916   1.100  11.094 -0.6610 -0.4711  0.1206
  676MPD2     H10003   1.674   0.884  11.304 -1.1206  0.5030 -0.2413
  676MPD2    H110004   1.941   0.924  10.978 -0.1587  0.8330  0.1983
  676MPD2    H210005   1.878   1.257  11.229 -0.1158 -0.7974  2.2693
  676MPD2    H310006   1.968   1.170  11.029  0.2698 -1.3672 -0.1079
  676MPD2     N10007   1.791   0.764  11.100 -0.7139  0.0589 -0.3951
  676MPD2    H510008   1.821   0.744  11.005  0.5030  1.6520 -0.3283
  676MPD2    N110009   1.688   1.128  11.387  0.4976  0.3966 -0.1154
  676MPD2    H710010   1.608   1.076  11.421  1.1158 -0.8732 -0.5898
  677TMC3    C110011   1.651   1.261  11.586  0.0059 -0.5038  0.1321
  677TMC3    C210012   1.529   1.191  11.586 -0.0857  0.5001 -0.2050
  677TMC3    C310013   1.481   1.151  11.708  0.6856  0.0381  0.0182
  677TMC3    C410014   1.722   1.298  11.693  0.2115  0.8238 -0.1696
  677TMC3    C510015   1.672   1.249  11.815 -0.0932 -0.1690 -0.5554
  677TMC3    C610016   1.543   1.190  11.822  0.2769 -0.1403 -0.1112
  677TMC3     C10017   1.730   1.234  11.467  0.1866  0.5816  0.0035
  677TMC3     O10018   1.835   1.294  11.463 -0.4411 -0.4341 -0.1002
  677TMC3     H10019   1.480   1.173  11.491  1.2408 -0.0100 -0.7978
  677TMC3    H110020   1.816   1.352  11.689  0.1772  0.9932  1.0611
  677TMC3    H210021   1.501   1.154  11.916 -1.2066  0.6333 -0.4842
  677TMC3    C710022   1.770   1.199  11.906  0.1003  0.6483  0.1014
  677TMC3    C810023   1.355   1.072  11.719  0.5883  0.2233 -0.2248
  677TMC3    O110024   1.733   1.132  11.998  0.5105 -0.4093  0.0499
  677TMC3    O210025   1.255   1.121  11.669 -0.4778 -0.0699  0.8228
  678MPD2     C10026   3.961   1.029   1.788  0.3501 -0.3639 -0.0974
  678MPD2    C110027   3.984   0.908   1.724  0.8245 -0.6047 -0.1448
  678MPD2    C210028   3.867   0.846   1.676 -0.1825 -0.3222 -0.8657
  678MPD2    C310029   3.739   0.902   1.697 -0.0258 -0.0887  0.0825
  678MPD2    C410030   3.725   1.012   1.774 -0.1473 -0.1117  0.5580
  678MPD2    C510031   3.839   1.080   1.812 -0.6716 -0.1569  0.2359
  678MPD2     H10032   3.865   0.750   1.627 -0.1955 -0.7359 -0.0564
  678MPD2    H110033   3.628   1.055   1.798 -0.4053 -0.2442 -0.2579
  678MPD2    H210034   4.041   1.083   1.837  0.3358  0.3923 -0.9001
  678MPD2    H310035   3.837   1.166   1.878  1.0037  1.4985 -1.8719
  678MPD2     N10036   3.628   0.834   1.641  0.5423 -0.4700  0.6128
  678MPD2    H510037   3.653   0.763   1.572 -0.2292  0.1516 -0.3068
  678MPD2    N110038   4.105   0.833   1.709 -0.1979 -0.2735 -0.7011
  678MPD2    H710039   4.097   0.733   1.692  1.0941 -0.1618 -1.9089
  679TMC3    C110040   4.434   0.594   1.686 -0.3844  0.1086  0.1650
  679TMC3    C210041   4.353   0.680   1.744 -0.3081 -0.3361  0.2430
  679TMC3    C310042   4.337   0.803   1.690 -0.9545 -0.9963 -0.5567
  679TMC3    C410043   4.490   0.620   1.568  0.8353 -0.4735 -0.1769
  679TMC3    C510044   4.444   0.734   1.503 -0.6011 -0.1500  0.0300
  679TMC3    C610045   4.378   0.834   1.564  0.0333  0.2235  0.4151
  679TMC3     C10046   4.443   0.452   1.729  0.4373  0.0211 -0.4773
  679TMC3     O10047   4.435   0.362   1.642 -0.4083  0.6892 -0.2054
  679TMC3     H10048   4.289   0.651   1.826  0.7364  1.3598  1.6600
  679TMC3    H110049   4.532   0.542   1.505 -2.8709 -0.8064 -2.2843
  679TMC3    H210050   4.329   0.912   1.509  0.2871  0.9739  1.2437
  679TMC3    C710051   4.376   0.690   1.383  0.1190  0.8654  0.1157
  679TMC3    C810052   4.226   0.888   1.728  0.3883 -0.2996 -0.5046
  679TMC3    O110053   4.256   0.722   1.374  0.0457  0.0771 -0.1499
  679TMC3    O210054   4.251   1.009   1.744 -0.2508 -0.1457 -0.5996
  680MPD2     C10055   3.123   4.234  13.712 -0.2270 -0.0651 -0.0010
  680MPD2    C110056   3.235   4.192  13.776 -0.2653 -0.5770  1.3762
  680MPD2    C210057   3.327   4.273  13.829 -0.1454  0.5790 -0.0528
  680MPD2    C310058   3.317   4.410  13.802 -0.1646 -0.5939  0.3647
  680MPD2    C410059   3.204   4.457  13.738  0.2668  0.1578  0.0310
  680MPD2    C510060   3.109   4.368  13.704  0.4284  0.7232  0.6477
  680MPD2     H10061   3.417   4.231  13.873 -1.0535 -2.6030 -1.2860
  680MPD2    H110062   3.192   4.563  13.717  0.9478  0.0073 -1.1043
  680MPD2    H210063   3.036   4.178  13.679  0.9757 -0.0120 -3.1777
  680MPD2    H310064   3.016   4.403  13.660  1.4169  2.9423  0.3210
  680MPD2     N10065   3.418   4.504  13.840  0.7644  0.0606  0.2417
  680MPD2    H510066   3.427   4.587  13.782  1.5959  1.7187  2.7601
  680MPD2    N110067   3.257   4.054  13.789  0.4927 -0.2069  0.3832
  680MPD2    H710068   3.337   4.030  13.847  0.9801  1.3038  0.3226
  681TMC3    C110069   3.240   3.823  13.755 -0.4169  0.8684  0.4882
  681TMC3    C210070   3.333   3.805  13.858 -0.2154 -0.2736  0.0171
  681TMC3    C310071   3.391   3.679  13.871  0.6635  1.1700  0.2750
  681TMC3    C410072   3.197   3.722  13.676  0.1328 -0.1437 -0.1774
  681TMC3    C510073   3.259   3.602  13.687 -0.3275  0.3969 -0.1863
  681TMC3    C610074   3.360   3.580  13.778 -0.5915 -0.5340  1.0451
  681TMC3     C10075   3.197   3.959  13.713 -0.2458 -0.4237  0.0121
  681TMC3     O10076   3.128   3.973  13.609  0.3509 -0.6968  0.0968
  681TMC3     H10077   3.344   3.878  13.937  0.9958 -0.6706  0.2164
  681TMC3    H110078   3.117   3.732  13.603  1.0529  0.4177 -1.1081
  681TMC3    H210079   3.402   3.480  13.789  1.5143  0.4308  1.8236
  681TMC3    C710080   3.251   3.500  13.581  0.6730  0.0589 -0.1283
  681TMC3    C810081   3.473   3.638  13.983  0.5381 -0.1437 -0.2764
  681TMC3    O110082   3.143   3.484  13.528  0.5006  0.8144 -0.8578
  681TMC3    O210083   3.465   3.525  14.021  0.8134  0.0961 -0.6162
  682MPD2     C10084   0.567   0.390  10.842  0.2796  0.0572  0.3112
  682MPD2    C110085   0.611   0.266  10.814  0.2614 -0.7243  0.2784
  682MPD2    C210086   0.653   0.178  10.913 -0.7376  0.8968  0.1086
  682MPD2    C310087   0.662   0.224  11.043 -0.1259  0.0791  0.0971
  682MPD2    C410088   0.629   0.353  11.069 -0.0047  0.8683 -0.4280
  682MPD2    C510089   0.581   0.440  10.972  0.4190 -0.8356  0.0546
  682MPD2     H10090   0.683   0.078  10.885  0.7886  1.4573 -0.2272
  682MPD2    H110091   0.644   0.393  11.168 -1.0172  0.2774 -0.0312
  682MPD2    H210092   0.539   0.459  10.762 -0.8683  0.9853  1.5062
  682MPD2    H310093   0.572   0.546  10.993 -0.0690 -0.7053 -0.8143
  682MPD2     N10094   0.717   0.142  11.148 -0.2693  0.0294 -0.4794
  682MPD2    H510095   0.726   0.173  11.244 -0.0524  0.8536 -0.7645
  682MPD2    N110096   0.611   0.213  10.682  0.0123  0.3573 -0.2669
  682MPD2    H710097   0.637   0.116  10.689 -0.3332  0.2416 -0.5590
  683TMC3    C110098   0.878   4.703  11.477 -0.3218 -0.5191 -0.6243
  683TMC3    C210099   0.871   4.566  11.502  0.3277  0.0863 -0.0939
  683TMC3    C310100   0.829   4.488  11.398  0.2152 -0.1457  0.2992
  683TMC3    C410101   0.849   0.033  11.356 -1.2846  0.0920 -0.3501
  683TMC3    C510102   0.805   4.667  11.256 -0.0833  0.4165 -0.6900
  683TMC3    C610103   0.794   4.533  11.277 -0.5801 -0.1588  0.4405
  683TMC3     C10104   0.916   0.083  11.578 -0.8039  0.1449  0.1508
  683TMC3     O10105   0.880   0.202  11.563 -0.0761 -0.4010  0.2676
  683TMC3     H10106   0.899   4.526  11.598  0.7691 -0.1439 -0.3217
  683TMC3    H110107   0.863   0.140  11.344  0.0352  0.1119  1.2718
  683TMC3    H210108   0.757   4.463  11.203 -1.2519  1.9298 -1.2059
  683TMC3    C710109   0.758   0.011  11.134  0.3558 -0.1387  0.4421
  683TMC3    C810110   0.814   4.342  11.425 -0.3812  0.4549 -0.6545
  683TMC3    O110111   0.776   4.668  11.032 -0.6737  0.5558  0.3644
  683TMC3    O210112   0.723   4.290  11.362  0.2778  0.5013  0.0964
  684MPD2     C10113   3.655   0.356  16.364  0.5925  0.0002  0.0554
  684MPD2    C110114   3.759   0.374  16.285  0.0953 -0.4583  0.6490
  684MPD2    C210115   3.852   0.472  16.320 -0.5836  0.7119  0.0978
  684MPD2    C310116   3.842   0.546  16.438  0.2853  0.3464 -0.0060
  684MPD2    C410117   3.726   0.519  16.514 -0.1987 -0.1042  0.0300
  684MPD2    C510118   3.631   0.423  16.478  0.1248 -0.1514 -0.5165
  684MPD2     H10119   3.938   0.492  16.257 -1.2452  1.1575 -0.6461
  684MPD2    H110120   3.709   0.567  16.610  1.0742 -1.7083  1.0822
  684MPD2    H210121   3.578   0.284  16.339  0.4259  0.6382 -1.2823
  684MPD2    H310122   3.534   0.405  16.524 -0.6698 -0.7684 -2.4281
  684MPD2     N10123   3.933   0.644  16.468 -0.0998  0.3379  0.2463
  684MPD2    H510124   4.008   0.652  16.400  0.9071 -0.8830  1.2093
  684MPD2    N110125   3.783   0.298  16.161 -0.2334  0.1157  0.4031
  684MPD2    H710126   3.878   0.302  16.126 -0.7669  3.3654 -0.7176
  685TMC3    C110127   3.750   0.130  15.987 -0.3713 -0.1065  0.4681
  685TMC3    C210128   3.701   0.006  15.972 -0.2387 -0.5875 -0.1725
  685TMC3    C310129   3.771   4.629  15.896 -0.0533  0.5980 -0.0202
  685TMC3    C410130   3.868   0.161  15.930  0.5620  0.1227  0.6385
  685TMC3    C510131   3.944   0.067  15.864  0.4797  0.6435  0.6566
  685TMC3    C610132   3.898   4.661  15.842 -0.2644  0.6765  0.1146
  685TMC3     C10133   3.695   0.211  16.103  1.1136 -0.3947 -0.5758
  685TMC3     O10134   3.595   0.165  16.162  0.7288  0.1949  0.2244
  685TMC3     H10135   3.635   4.693  16.050  0.5243 -0.3617  0.5768
  685TMC3    H110136   3.902   0.264  15.925 -0.3228  0.3618 -0.5580
  685TMC3    H210137   3.951   4.584  15.788 -2.9061 -2.2256  1.6673
  685TMC3    C710138   4.079   0.109  15.830 -0.4101 -0.0223  0.3288
  685TMC3    C810139   3.714   4.493  15.875 -0.3200 -0.2233  0.3721
  685TMC3    O110140   4.101   0.231  15.830  0.3327  0.4031 -0.0609
  685TMC3    O210141   3.788   4.412  15.820 -0.5136  0.3174  0.4896
  686MPD2     C10142   0.586   4.102  15.008 -0.0390 -0.6417 -0.2221
  686MPD2    C110143   0.463   4.105  15.066 -0.0774 -0.3342  0.2693
  686MPD2    C210144   0.380   3.997  15.062  0.2875  0.5006 -0.0619
  686MPD2    C310145   0.432   3.872  15.021  0.0101 -1.0269 -0.2421
  686MPD2    C410146   0.553   3.872  14.959  0.7078  0.3240  0.2475
  686MPD2    C510147   0.618   3.994  14.937  0.2223  0.2733 -0.0210
  686MPD2     H10148   0.280   4.004  15.104 -0.2045 -1.7819 -0.8874
  686MPD2    H110149   0.606   3.787  14.917 -0.8282 -0.6468  0.2699
  686MPD2    H210150   0.647   4.192  15.006 -1.3497  0.2546 -0.1095
  686MPD2    H310151   0.716   3.994  14.893  0.2792  0.0846  0.1047
  686MPD2     N10152   0.359   3.749  15.048 -0.7816 -0.2811 -0.1203
  686MPD2    H510153   0.420   3.668  15.057  0.0980  0.2346 -1.3811
  686MPD2    N110154   0.423   4.223  15.129  0.1139 -0.3613 -0.0504
  686MPD2    H710155   0.483   4.304  15.117 -2.3137  1.3227 -0.8751
  687TMC3    C110156   0.219   3.721  15.230  0.2200  0.4721  0.0757
  687TMC3    C210157   0.109   3.770  15.296 -0.4435  0.0975 -0.2393
  687TMC3    C310158   0.115   3.788  15.431  0.1249  0.2446 -0.0303
  687TMC3    C410159   0.334   3.718  15.299  0.1395  0.6259  0.0635
  687TMC3    C510160   0.333   3.747  15.432 -0.0819 -0.0312 -0.2546
  687TMC3    C610161   0.222   3.776  15.501 -0.1193 -0.1521  0.1908
  687TMC3     C10162   0.229   3.748  15.090 -0.1337 -0.0454  0.4629
  687TMC3     O10163   0.134   3.810  15.044  0.6573 -0.4602 -0.5360
  687TMC3     H10164   0.015   3.782  15.244  0.1039 -1.2688 -1.5583
  687TMC3    H110165   0.428   3.681  15.260  0.0707  1.2426 -0.6878
  687TMC3    H210166   0.231   3.791  15.608 -1.0218 -1.0941  0.3981
  687TMC3    C710167   0.441   3.809  15.491 -0.2253 -0.0543  0.2420
  687TMC3    C810168   0.009   3.861  15.488 -0.0613 -0.1143  0.3180
  687TMC3    O110169   0.440   3.824  15.612 -0.2490 -0.5818 -0.3967
  687TMC3    O210170   4.708   3.844  15.611  0.2818 -0.4320 -0.2417
  688MPD2     C10171   4.525   4.056  17.292 -0.1584  0.4709  0.2671
  688MPD2    C110172   4.565   3.923  17.322  0.1919 -0.1896  0.7470
  688MPD2    C210173   4.643   3.843  17.241 -0.1255  0.5280  0.5146
  688MPD2    C310174   4.693   3.898  17.126 -0.3665 -0.3837  0.4811
  688MPD2    C410175   4.656   4.032  17.089  0.2085 -0.5081 -0.0062
  688MPD2    C510176   4.572   4.102  17.169  0.4818  0.7507  0.5999
  688MPD2     H10177   4.657   3.739  17.266  1.9584  0.5147 -0.7262
  688MPD2    H110178   4.706   4.073  17.002  0.0937  0.6675  0.4886
  688MPD2    H210179   4.452   4.108  17.352 -0.1850 -0.9030  1.4400
  688MPD2    H310180   4.555   4.207  17.146 -0.7057  0.3270 -0.4814
  688MPD2     N10181   0.066   3.835  17.043 -0.8953 -0.5810 -1.2529
  688MPD2    H510182   0.091   3.867  16.950 -0.7024  2.4578 -0.1586
  688MPD2    N110183   4.521   3.864  17.444  0.6512  0.0474  0.1013
  688MPD2    H710184   4.545   3.768  17.469 -1.2947 -0.3248  0.5241
  689TMC3    C110185   4.426   3.826  17.654 -0.0408 -0.2870 -0.5002
  689TMC3    C210186   4.439   3.862   0.099 -0.3134 -0.2843  0.1825
  689TMC3    C310187   4.409   3.773   0.193 -0.5570 -0.0069 -0.2788
  689TMC3    C410188   4.375   3.700  17.619  0.4713  0.7262  0.1593
  689TMC3    C510189   4.338   3.615   0.030  0.6317 -0.0767  0.2479
  689TMC3    C610190   4.359   3.648   0.157  0.0153  0.0502 -0.0802
  689TMC3     C10191   4.463   3.924  17.555 -0.1056 -0.0840 -0.1794
  689TMC3     O10192   4.461   4.040  17.594 -0.0243  0.0939 -0.5997
  689TMC3     H10193   4.504   3.947   0.120 -1.3570  1.1239 -2.2986
  689TMC3    H110194   4.363   3.673  17.515 -0.3032  0.6572  0.2640
  689TMC3    H210195   4.338   3.573   0.233  0.0856  1.6660  1.5450
  689TMC3    C710196   4.306   3.474  17.681  0.7943  0.8097  0.8557
  689TMC3    C810197   4.423   3.798   0.334  0.1955 -0.4886 -0.4823
  689TMC3    O110198   4.255   3.467  17.571 -0.7735 -0.5244 -0.3958
  689TMC3    O210199   4.352   3.728   0.408  0.8551  0.3180  0.4222
  690MPD2     C10200   1.447   1.099  15.778  0.0666 -0.0198 -0.1506
  690MPD2    C110201   1.507   0.981  15.769 -0.1851 -0.1056 -0.7405
  690MPD2    C210202   1.640   0.969  15.725 -0.0482 -0.4593  0.7329
  690MPD2    C310203   1.710   1.081  15.683 -0.6423 -0.4488 -0.0638
  690MPD2    C410204   1.643   1.204  15.693  0.0268 -0.7240  0.0036
  690MPD2    C510205   1.517   1.212  15.739 -0.1767 -0.3457  0.2733
  690MPD2     H10206   1.679   0.868  15.712 -1.1280 -0.9580  1.4375
  690MPD2    H110207   1.694   1.293  15.659 -0.3008 -1.3802 -2.1859
  690MPD2    H210208   1.347   1.112  15.818  0.2768 -0.8370  0.6307
  690MPD2    H310209   1.465   1.307  15.747 -1.6963 -1.0602 -1.2301
  690MPD2     N10210   1.837   1.083  15.629 -0.3274  0.0698 -0.7799
  690MPD2    H510211   1.866   1.160  15.569 -0.5910  0.4040 -0.4812
  690MPD2    N110212   1.436   0.863  15.807 -0.2995  0.2105  0.0384
  690MPD2    H710213   1.491   0.781  15.829  1.4248  1.3294 -0.0795
  691TMC3    C110214   1.270   0.702  15.793  0.2778 -0.3880  0.1724
  691TMC3    C210215   1.166   0.654  15.714  0.1349 -0.8757  0.0278
  691TMC3    C310216   1.139   0.517  15.718 -0.1211  0.2091  0.3694
  691TMC3    C410217   1.342   0.615  15.871 -0.0925  0.0832 -0.1746
  691TMC3    C510218   1.313   0.484  15.864 -0.1195 -0.0290  0.1066
  691TMC3    C610219   1.214   0.428  15.791  0.4876 -0.2075 -0.4089
  691TMC3     C10220   1.300   0.841  15.778 -0.4027  0.5512 -0.3643
  691TMC3     O10221   1.214   0.916  15.741 -0.3561 -0.1707  0.1937
  691TMC3     H10222   1.121   0.718  15.640 -1.2312 -1.2009  0.5840
  691TMC3    H110223   1.416   0.661  15.936 -1.3783  1.4169  0.3502
  691TMC3    H210224   1.185   0.324  15.803  2.1080 -0.7171 -0.8422
  691TMC3    C710225   1.381   0.398  15.962  0.1871 -0.8398 -0.1618
  691TMC3    C810226   1.001   0.492  15.729 -0.8005  0.6985  0.0049
  691TMC3    O110227   1.415   0.461  16.059  0.2449  0.1940  0.1013
  691TMC3    O210228   0.962   0.377  15.702 -0.0528 -0.2589 -0.6350
  692TMC3    C110229   3.897   1.875  15.812  0.0706  0.1511 -0.1469
  692TMC3    C210230   3.997   1.945  15.871  0.2036  0.5295 -0.0720
  692TMC3    C310231   4.104   1.884  15.930 -0.0903  0.1309 -0.6902
  692TMC3    C410232   3.888   1.739  15.821 -0.2750  0.5426  0.1747
  692TMC3    C510233   3.988   1.680  15.893  0.2315  0.6801  0.3081
  692TMC3    C610234   4.092   1.751  15.951  0.0822 -0.2029 -0.6119
  692TMC3     C10235   3.771   1.944  15.792  0.1072 -0.1995  0.1782
  692TMC3     O10236   3.674   1.873  15.770  0.3958 -0.4069 -0.2198
  692TMC3     H10237   4.026   2.036  15.821 -1.7453  1.6083  0.7413
  692TMC3    H110238   3.813   1.687  15.762 -0.1121  0.6601 -0.1390
  692TMC3    H210239   4.181   1.701  15.989  0.1507  0.1888 -0.2515
  692TMC3    C710240   3.988   1.534  15.883 -0.2419 -0.1620  0.2161
  692TMC3    C810241   4.168   1.953  16.040 -0.3535  0.5947  0.2811
  692TMC3    O110242   3.934   1.491  15.781 -0.1331  0.0133 -0.5259
  692TMC3    O210243   4.230   1.876  16.112  0.0300 -0.5091  0.1830
  693MPD2     C10244   2.984   4.656  10.653 -1.0159 -0.7960  0.1988
  693MPD2    C110245   3.043   4.599  10.763  0.8181 -0.0181 -0.3305
  693MPD2    C210246   3.159   4.525  10.751  0.2937 -0.1045  1.1774
  693MPD2    C310247   3.221   4.511  10.628 -0.9127  0.0059  0.0648
  693MPD2    C410248   3.166   4.580  10.518  0.3937  1.0519  0.6125
  693MPD2    C510249   3.047   4.648  10.535 -0.4799 -0.7249 -1.2181
  693MPD2     H10250   3.212   4.488  10.838 -1.0444  1.2872  2.5787
  693MPD2    H110251   3.201   4.563  10.417  1.5849  0.4220  1.1367
  693MPD2    H210252   2.881   4.689  10.656 -0.4045  1.3864 -3.0503
  693MPD2    H310253   3.006   4.697  10.446 -1.7690  1.4350  0.5507
  693MPD2     N10254   3.330   4.427  10.614 -0.3638 -0.2587  0.0841
  693MPD2    H510255   3.375   4.397  10.699 -1.7641  0.5687  1.1179
  693MPD2    N110256   2.971   4.604  10.887  1.0606 -0.6771  0.1123
  693MPD2    H710257   2.878   4.644  10.875  0.4968 -1.6375  1.3159
  694TMC3    C110258   2.916   4.540  11.097  0.4450  0.1829  0.1501
  694TMC3    C210259   2.815   4.471  11.040 -0.2591  0.0019 -0.0617
  694TMC3    C310260   2.754   4.386  11.122 -0.7326 -0.3990 -0.4862
  694TMC3    C410261   2.945   4.538  11.231  0.2724 -0.7701 -0.2198
  694TMC3    C510262   2.893   4.441  11.303 -0.2364 -0.1717 -0.0246
  694TMC3    C610263   2.800   4.359  11.248  0.3038  0.2348 -0.5999
  694TMC3     C10264   3.021   4.567  11.009  0.3291 -0.8096 -0.0809
  694TMC3     O10265   3.134   4.568  11.046  0.1419  0.4779 -0.2650
  694TMC3     H10266   2.794   4.471  10.934 -0.2709  1.7682 -0.0611
  694TMC3    H110267   3.040   4.583  11.257 -0.8753  1.2410  0.5329
  694TMC3    H210268   2.729   4.305  11.310  0.3459  1.3955  0.4608
  694TMC3    C710269   2.889   4.462  11.448 -0.4307  0.1101  0.1610
  694TMC3    C810270   2.673   4.285  11.062 -0.1621  0.2482 -0.6574
  694TMC3    O110271   2.887   4.577  11.490  0.0340 -0.1266  0.4836
  694TMC3    O210272   2.683   4.169  11.102  1.1760  0.1125 -0.2045
  695MPD2     C10273   4.258   1.386  13.212  0.0743 -0.7869  0.4995
  695MPD2    C110274   4.232   1.429  13.340  0.5822  0.3586 -0.7458
  695MPD2    C210275   4.115   1.481  13.377 -0.7414  0.6688  0.4191
  695MPD2    C310276   4.023   1.513  13.278  0.2296  0.6563  0.0618
  695MPD2    C410277   4.054   1.477  13.148  0.4268 -0.5041 -0.1206
  695MPD2    C510278   4.169   1.415  13.121  0.2468 -0.4691 -0.0531
  695MPD2     H10279   4.088   1.501  13.480 -1.2928 -0.3785  0.4792
  695MPD2    H110280   3.979   1.492  13.070 -0.0581  0.3930  0.5154
  695MPD2    H210281   4.351   1.341  13.179 -0.0891 -0.9934  0.3213
  695MPD2    H310282   4.178   1.375  13.020  2.2762  1.3889 -0.5988
  695MPD2     N10283   3.902   1.577  13.312  0.0315 -0.4382  0.2852
  695MPD2    H510284   3.894   1.593  13.412  0.4455  0.7633  0.1276
  695MPD2    N110285   4.323   1.416  13.446 -0.4735 -0.8458  0.7473
  695MPD2    H710286   4.307   1.462  13.535  1.3195  0.4178  0.4295
  696TMC3    C110287   3.689   1.658  13.293  0.2151  1.6138 -0.3145
  696TMC3    C210288   3.677   1.625  13.423 -0.0450 -0.4457  0.1934
  696TMC3    C310289   3.564   1.654  13.493  0.3189 -0.3702 -0.4396
  696TMC3    C410290   3.594   1.729  13.235 -0.2562 -0.1610 -0.4428
  696TMC3    C510291   3.488   1.776  13.310  0.5535  0.1890  0.1835
  696TMC3    C610292   3.469   1.731  13.440  0.2041 -0.3571  0.7489
  696TMC3     C10293   3.813   1.631  13.223 -0.0773 -0.5609 -0.5200
  696TMC3     O10294   3.828   1.662  13.106  0.1316 -0.3188 -0.2031
  696TMC3     H10295   3.742   1.555  13.474  0.4766  0.2820  0.5393
  696TMC3    H110296   3.607   1.766  13.134 -0.0036 -1.6641 -0.9584
  696TMC3    H210297   3.392   1.774  13.504 -0.4676 -3.0736  1.7388
  696TMC3    C710298   3.456   1.912  13.277  0.4200 -0.1018 -0.0437
  696TMC3    C810299   3.576   1.653  13.639 -0.6437  0.3570 -0.1903
  696TMC3    O110300   3.430   1.942  13.164  0.1996 -0.3104  0.1207
  696TMC3    O210301   3.689   1.663  13.684  0.0215 -0.0093 -0.3898
  697MPD2     C10302   3.584   3.395  15.836  0.1002 -0.3418 -0.8103
  697MPD2    C110303   3.548   3.375  15.703 -0.0894 -0.1252 -0.6656
  697MPD2    C210304   3.526   3.485  15.621  0.6856 -0.4546 -0.2059
  697MPD2    C310305   3.534   3.614  15.664  1.1588  0.0344  0.0316
  697MPD2    C410306   3.546   3.631  15.798  0.8334 -0.4723  0.1029
  697MPD2    C510307   3.584   3.527  15.879 -1.2607  0.1421 -0.2675
  697MPD2     H10308   3.509   3.464  15.516  0.1175  0.0228 -0.2046
  697MPD2    H110309   3.552   3.731  15.840 -0.1862 -0.4188  0.1097
  697MPD2    H210310   3.614   3.307  15.891  1.5528 -0.6307 -2.0643
  697MPD2    H310311   3.596   3.561  15.981 -0.0596  2.5038 -1.2022
  697MPD2     N10312   3.518   3.717  15.568 -0.5512 -0.3762  0.0181
  697MPD2    H510313   3.523   3.692  15.469 -0.0315 -0.4496  0.0632
  697MPD2    N110314   3.509   3.253  15.649  0.4572 -0.0849 -0.3398
  697MPD2    H710315   3.494   3.248  15.549  1.8726  2.9254 -0.7027
  698TMC3    C110316   3.478   3.932  15.488  0.0802 -0.1103  0.5593
  698TMC3    C210317   3.533   4.059  15.509  0.5113 -0.2281 -0.3400
  698TMC3    C310318   3.552   4.134  15.397 -0.0120 -0.5144  0.6309
  698TMC3    C410319   3.437   3.886  15.370 -0.2259  0.2164  0.1957
  698TMC3    C510320   3.464   3.962  15.258  0.5019  0.5139  0.1257
  698TMC3    C610321   3.531   4.083  15.267  0.0863 -0.1248 -1.0706
  698TMC3     C10322   3.482   3.845  15.603  0.5060 -0.0455 -0.4508
  698TMC3     O10323   3.455   3.884  15.718  0.0676  0.2943  0.6983
  698TMC3     H10324   3.563   4.090  15.608 -2.2329  0.3954  0.2981
  698TMC3    H110325   3.400   3.785  15.361  2.1195 -0.5553 -1.0030
  698TMC3    H210326   3.530   4.154  15.186 -1.6811  1.0879  0.0073
  698TMC3    C710327   3.433   3.908  15.126 -0.3284  0.2858 -0.4632
  698TMC3    C810328   3.610   4.263  15.424 -0.1294  0.7591 -0.2433
  698TMC3    O110329   3.368   3.805  15.118  0.3057 -0.5891  0.4207
  698TMC3    O210330   3.569   4.315  15.521  0.0527 -0.4546  0.0406
  699TMC3    C110331   3.772   0.555  13.173  0.0741 -0.2056  0.3952
  699TMC3    C210332   3.749   0.566  13.313 -0.6876 -1.0428  0.6408
  699TMC3    C310333   3.638   0.500  13.366 -0.3065  0.0286 -0.1109
  699TMC3    C410334   3.683   0.481  13.099 -0.0148  0.2170  0.6208
  699TMC3    C510335   3.578   0.416  13.161  0.5343  0.4277 -0.4448
  699TMC3    C610336   3.552   0.419  13.298  0.3050  0.1557 -0.0108
  699TMC3     C10337   3.801   0.678  13.100  0.0869  0.1113  0.3295
  699TMC3     O10338   3.725   0.697  13.005 -0.3852  0.2233 -0.0293
  699TMC3     H10339   3.797   0.631  13.385  0.1375 -1.2964  0.3229
  699TMC3    H110340   3.692   0.463  12.992 -1.9613 -0.7128  0.6067
  699TMC3    H210341   3.453   0.396  13.335 -0.3390  0.4278 -1.5429
  699TMC3    C710342   3.459   0.439  13.091 -0.6881 -1.0355 -0.4412
  699TMC3    C810343   3.573   0.547  13.492 -0.1194  0.3933  0.8767
  699TMC3    O110344   3.364   0.368  13.120  0.1849  0.1779  0.1190
  699TMC3    O210345   3.492   0.472  13.548  0.0269  0.3275  0.2260
  700TMC3    C110346   1.999   3.590  17.571  0.3225 -0.8567 -0.4584
  700TMC3    C210347   2.052   3.466  17.579  0.9954  0.9231  0.1248
  700TMC3    C310348   2.141   3.450  17.680  0.3410  0.0916  0.3035
  700TMC3    C410349   2.027   3.694  17.663 -0.0305  0.0783 -0.1019
  700TMC3    C510350   2.119   3.670   0.070  0.1753 -0.3440  0.2546
  700TMC3    C610351   2.189   3.555   0.071  0.2675 -0.3478 -0.9404
  700TMC3     C10352   1.934   3.618  17.451 -0.8904  0.2115 -0.2756
  700TMC3     O10353   1.889   3.524  17.391 -0.2295  0.0187 -0.5266
  700TMC3     H10354   2.023   3.382  17.516 -0.3719  1.0952  0.5232
  700TMC3    H110355   1.971   3.787  17.660  2.2443  1.4400 -0.1219
  700TMC3    H210356   2.252   3.541   0.158 -2.3745 -0.6426  0.9177
  700TMC3    C710357   2.175   3.783   0.138 -0.6392 -0.1600 -0.3593
  700TMC3    C810358   2.239   3.345  17.685  0.3303 -0.1019 -0.0181
  700TMC3    O110359   2.296   3.792   0.129 -0.7031  0.0002 -0.4438
  700TMC3    O210360   2.347   3.360   0.057 -0.6694 -0.1705  0.2996
  701TMC3    C110361   2.356   2.619  15.630 -0.0023 -0.6176  0.1828
  701TMC3    C210362   2.379   2.606  15.499 -0.4470  0.1385 -0.5040
  701TMC3    C310363   2.440   2.715  15.433 -0.3915 -0.1525  0.5448
  701TMC3    C410364   2.373   2.735  15.697  0.5030  0.9013  0.7301
  701TMC3    C510365   2.422   2.842  15.631 -0.1169 -0.1180  0.0720
  701TMC3    C610366   2.474   2.829  15.499  0.2132 -0.3535 -0.5945
  701TMC3     C10367   2.280   2.514  15.692  0.4678  0.0007 -0.9018
  701TMC3     O10368   2.286   2.522  15.813 -0.4035  0.2594  0.7692
  701TMC3     H10369   2.392   2.512  15.448 -1.6066  0.1883 -0.8832
  701TMC3    H110370   2.355   2.746  15.803 -1.6552  1.2860  0.3258
  701TMC3    H210371   2.511   2.911  15.440 -1.5350  0.4294 -0.6210
  701TMC3    C710372   2.438   2.971  15.690 -0.0481 -0.7770 -0.2100
  701TMC3    C810373   2.507   2.688  15.302  0.1125  0.4939 -1.0005
  701TMC3    O110374   2.528   3.038  15.646 -0.3807 -0.1531 -0.1876
  701TMC3    O210375   2.598   2.762  15.262  0.2641 -0.3939 -0.4230
  702MPD2     C10376   2.133   0.342  10.646  0.0317  0.3835  1.1500
  702MPD2    C110377   2.060   0.446  10.682 -0.1139  0.0130  0.0674
  702MPD2    C210378   2.053   0.556  10.596  0.1298 -0.6706 -0.1511
  702MPD2    C310379   2.139   0.566  10.495  0.4502  0.4081  0.4771
  702MPD2    C410380   2.215   0.459  10.456 -0.3312 -0.2213 -0.0422
  702MPD2    C510381   2.209   0.349  10.535  0.2622  0.4260 -0.2808
  702MPD2     H10382   1.990   0.635  10.634 -0.4184 -1.1542 -0.0573
  702MPD2    H110383   2.286   0.446  10.375  1.7520  0.8323  1.6331
  702MPD2    H210384   2.148   0.250  10.702  0.5771  1.3556  2.6020
  702MPD2    H310385   2.265   0.259  10.512  1.1785  1.7585 -3.2607
  702MPD2     N10386   2.148   0.690  10.428 -0.3214 -0.4306  0.3784
  702MPD2    H510387   2.087   0.766  10.459  0.1669 -0.3914  1.2240
  702MPD2    N110388   1.979   0.451  10.800 -0.8264 -0.1326  0.8188
  702MPD2    H710389   1.927   0.537  10.813 -2.0167 -0.8004  0.4672
  703TMC3    C110390   2.226   0.874  10.325 -0.8915 -0.5103 -0.4702
  703TMC3    C210391   2.111   0.915  10.378 -0.4600 -0.4287  0.4682
  703TMC3    C310392   2.121   1.005  10.479 -0.2541  0.0910 -1.1045
  703TMC3    C410393   2.346   0.923  10.365 -0.0679  0.5414  0.4333
  703TMC3    C510394   2.358   0.997  10.476 -0.0543  0.5584 -0.0384
  703TMC3    C610395   2.245   1.037  10.532 -0.8000  0.5035  0.5965
  703TMC3     C10396   2.226   0.725  10.323 -0.4211  0.1309  0.0028
  703TMC3     O10397   2.318   0.663  10.269 -0.3354 -0.0845 -0.0184
  703TMC3     H10398   2.013   0.886  10.343 -0.4740  1.1668 -0.8146
  703TMC3    H110399   2.431   0.883  10.310  0.9711 -0.5753  2.8585
  703TMC3    H210400   2.256   1.104  10.616  1.2300  1.2883 -0.2942
  703TMC3    C710401   2.464   1.092  10.449 -1.1904  0.4593  0.7111
  703TMC3    C810402   2.017   0.996  10.572  0.0521  0.4563  0.6183
  703TMC3    O110403   2.508   1.100  10.334  0.0052  0.1654  0.0735
  703TMC3    O210404   1.948   0.894  10.562 -0.0376  0.0136 -0.2881
  704TMC3    C110405   4.214   2.897  12.480 -0.5655 -0.1043  0.2730
  704TMC3    C210406   4.334   2.966  12.504 -0.0166 -0.2327 -0.1404
  704TMC3    C310407   4.424   2.899  12.580 -0.1141  1.4045  0.7516
  704TMC3    C410408   4.180   2.783  12.543 -0.4900 -0.8301  0.0693
  704TMC3    C510409   4.276   2.726  12.616 -0.3951 -0.3765 -0.3206
  704TMC3    C610410   4.399   2.778  12.642 -0.2911 -0.4826 -0.3308
  704TMC3     C10411   4.119   2.944  12.372 -0.4790 -0.3850  0.1215
  704TMC3     O10412   4.000   2.923  12.387  0.3720  0.1417 -0.1600
  704TMC3     H10413   4.365   3.062  12.464  1.0465 -0.3027  0.5154
  704TMC3    H110414   4.081   2.743  12.523 -1.3613  2.0233 -1.2655
  704TMC3    H210415   4.483   2.730  12.690 -0.5639 -1.5421 -0.9153
  704TMC3    C710416   4.259   2.592  12.660  0.1679  0.5360  0.2010
  704TMC3    C810417   4.558   2.914  12.533  0.1086 -0.1163 -1.2043
  704TMC3    O110418   4.364   2.530  12.678  0.3622 -0.2106 -0.4160
  704TMC3    O210419   4.572   2.930  12.413 -0.6463  0.2232  0.3407
  705MPD2     C10420   4.271   1.654  17.024  0.5668  0.4768  0.2032
  705MPD2    C110421   4.244   1.741  16.922  0.4437 -0.3280  0.0447
  705MPD2    C210422   4.128   1.815  16.934 -0.2877  0.5786  0.5956
  705MPD2    C310423   4.041   1.802  17.037 -0.1936  0.9048  0.0480
  705MPD2    C410424   4.075   1.725  17.147 -0.1871  0.0247  0.7538
  705MPD2    C510425   4.195   1.658  17.142  0.7309 -0.8187  0.6114
  705MPD2     H10426   4.115   1.889  16.856  0.2942 -1.6582 -1.6230
  705MPD2    H110427   4.017   1.710  17.237  1.5627 -0.3631  1.8269
  705MPD2    H210428   4.367   1.604  17.031 -0.0539 -0.7347  0.0348
  705MPD2    H310429   4.223   1.585  17.218  0.9412 -1.8717 -0.4724
  705MPD2     N10430   3.914   1.867  17.037 -0.1273  0.0859  0.4360
  705MPD2    H510431   3.852   1.853  17.116  1.0916 -2.1526  1.0053
  705MPD2    N110432   4.328   1.768  16.810 -0.3733  0.1741 -0.3131
  705MPD2    H710433   4.305   1.841  16.743 -1.3524 -0.2383 -0.4202
  706TMC3    C110434   4.601   1.679  16.451  0.1730  0.6512  0.5192
  706TMC3    C210435   4.610   1.808  16.409  0.0988  0.5192 -0.5197
  706TMC3    C310436   4.551   1.900  16.491 -0.0786  0.5599  0.4499
  706TMC3    C410437   4.549   1.641  16.568 -0.6732 -0.0745  0.2835
  706TMC3    C510438   4.493   1.731  16.652 -0.8699 -0.0658  0.4302
  706TMC3    C610439   4.491   1.863  16.616 -0.0954  0.1502 -0.4546
  706TMC3     C10440   4.691   1.587  16.386  0.0320  0.3201  0.0834
  706TMC3     O10441   0.040   1.511  16.454 -0.5509 -0.1524  0.0598
  706TMC3     H10442   4.670   1.828  16.322 -2.0090  1.8633 -1.6762
  706TMC3    H110443   4.550   1.536  16.593 -1.2158 -0.4063 -1.1434
  706TMC3    H210444   4.457   1.950  16.671 -2.6022 -0.8997 -0.3253
  706TMC3    C710445   4.442   1.695  16.785 -0.3050 -0.1776  0.3162
  706TMC3    C810446   4.569   2.038  16.450  0.2784  0.1962 -0.6365
  706TMC3    O110447   4.484   1.586  16.833  0.1124  0.5022 -0.2478
  706TMC3    O210448   4.604   2.049  16.334  0.1769 -0.2896  0.7331
  707TMC3    C110449   1.394   0.472   1.701 -0.3520 -0.1760  0.0283
  707TMC3    C210450   1.406   0.352   1.766 -0.3085 -0.3041  0.0020
  707TMC3    C310451   1.295   0.272   1.767  0.0744 -0.6349 -0.1898
  707TMC3    C410452   1.279   0.506   1.639 -0.5265  0.1370  0.3664
  707TMC3    C510453   1.169   0.432   1.663 -0.2662  0.7110  0.3555
  707TMC3    C610454   1.173   0.309   1.719 -0.3375 -0.3617  0.0167
  707TMC3     C10455   1.522   0.524   1.652  0.2025  0.1683 -0.3307
  707TMC3     O10456   1.621   0.454   1.672  0.1686 -0.5109  0.3908
  707TMC3     H10457   1.497   0.318   1.812  0.4671  0.9580 -0.6031
  707TMC3    H110458   1.271   0.600   1.584  0.1623 -0.0405 -0.0267
  707TMC3    H210459   1.089   0.246   1.746 -0.4587  0.0592  0.6162
  707TMC3    C710460   1.040   0.467   1.613 -0.1091  0.0383  0.2914
  707TMC3    C810461   1.296   0.133   1.813 -0.1391 -0.2962  0.0843
  707TMC3    O110462   0.946   0.398   1.648  0.0361 -0.1394 -0.0861
  707TMC3    O210463   1.201   0.115   1.891 -1.2229 -0.7692 -0.0240
  708MPD2     C10464   2.418   0.207  14.122  0.0203 -0.2065  0.1872
  708MPD2    C110465   2.297   0.153  14.171 -0.4119 -0.1497  0.3699
  708MPD2    C210466   2.311   0.056  14.272  0.0345 -0.0633  0.2562
  708MPD2    C310467   2.438   0.017  14.317 -0.4636 -0.3882 -0.4623
  708MPD2    C410468   2.549   0.086  14.273 -0.2011 -0.4551  0.3328
  708MPD2    C510469   2.539   0.183  14.178  0.1256 -0.1718 -0.7787
  708MPD2     H10470   2.223   0.018  14.322 -1.2784 -0.2093 -2.2017
  708MPD2    H110471   2.645   0.069  14.321  1.0192 -0.5036 -2.1607
  708MPD2    H210472   2.408   0.257  14.026  1.0943 -0.1100  0.1256
  708MPD2    H310473   2.630   0.224  14.135 -1.2797  2.3329 -1.3353
  708MPD2     N10474   2.464   4.641  14.411 -0.1636  0.3553  0.3467
  708MPD2    H510475   2.555   4.627  14.455  0.2913  0.7163 -0.4809
  708MPD2    N110476   2.172   0.182  14.114  0.0627 -0.2789  0.6235
  708MPD2    H710477   2.094   0.148  14.169 -1.1348 -0.3676 -1.1145
  709TMC3    C110478   2.000   0.231  13.968  0.1461  0.2553 -0.3655
  709TMC3    C210479   1.963   0.137  13.874 -0.2440 -0.7250  1.1321
  709TMC3    C310480   1.868   0.045  13.902  0.2359 -0.8257 -0.5772
  709TMC3    C410481   1.948   0.219  14.097  0.1761  0.4996  0.1626
  709TMC3    C510482   1.849   0.126  14.123  0.1007 -0.1712 -0.2153
  709TMC3    C610483   1.811   0.044  14.021  0.0396  0.0874 -0.6551
  709TMC3     C10484   2.145   0.229  13.984  0.2271 -0.1075  0.2998
  709TMC3     O10485   2.218   0.213  13.885 -0.7117  0.2633  0.1185
  709TMC3     H10486   2.016   0.136  13.779 -1.2660 -0.8592  0.5723
  709TMC3    H110487   1.975   0.289  14.175  2.1030  0.1419 -0.1885
  709TMC3    H210488   1.729   4.696  14.034  0.5721 -0.6678 -1.3283
  709TMC3    C710489   1.873   0.062  14.244  0.4706 -0.4786  0.0946
  709TMC3    C810490   1.819   4.670  13.810 -0.1181  0.0040 -0.4142
  709TMC3    O110491   1.991   0.072  14.279  0.3555  0.1150 -0.5703
  709TMC3    O210492   1.695   4.662  13.798  0.3405  0.4609  0.0628
  710TMC3    C110493   3.666   0.276   1.082 -0.0038 -0.3261  0.1453
  710TMC3    C210494   3.684   0.169   1.002 -0.5038  0.2767  0.2990
  710TMC3    C310495   3.812   0.116   0.987 -0.4217  0.1366 -0.7986
  710TMC3    C410496   3.773   0.338   1.142 -0.2933  0.0675 -0.3177
  710TMC3    C510497   3.901   0.287   1.117  0.3018 -0.1339  0.3685
  710TMC3    C610498   3.922   0.175   1.040  0.3700 -0.5165 -0.1571
  710TMC3     C10499   3.542   0.352   1.068 -0.0189  0.2542 -0.4981
  710TMC3     O10500   3.450   0.286   1.020 -1.0973  0.3624 -0.6572
  710TMC3     H10501   3.597   0.112   0.972  1.0769 -1.1348 -1.6862
  710TMC3    H110502   3.765   0.428   1.202 -0.9509 -1.1031  1.3701
  710TMC3    H210503   4.016   0.121   1.038  1.0404  0.6775 -0.9826
  710TMC3    C710504   4.021   0.357   1.155 -0.0949  0.8896  0.6791
  710TMC3    C810505   3.847   0.020   0.883  0.3951  0.4465 -0.3584
  710TMC3    O110506   4.008   0.423   1.257  0.0678 -0.1394 -0.6038
  710TMC3    O210507   3.964   4.720   0.857  1.0695  0.1310  0.1815
  711TMC3    C110508   3.347   2.432  15.152  0.2971  0.0904 -0.2204
  711TMC3    C210509   3.394   2.499  15.260 -0.4830  0.5890  0.3877
  711TMC3    C310510   3.534   2.504  15.278 -0.3072  0.1106 -0.2638
  711TMC3    C410511   3.426   2.357  15.072  0.4647  0.7366 -0.7058
  711TMC3    C510512   3.562   2.366  15.091  0.2623  0.1952 -0.1905
  711TMC3    C610513   3.622   2.443  15.186  0.0492 -0.3880  0.2540
  711TMC3     C10514   3.200   2.407  15.147  0.1688  0.0078 -0.4455
  711TMC3     O10515   3.165   2.316  15.078 -0.3916 -0.2730 -0.0485
  711TMC3     H10516   3.330   2.529  15.342 -2.0023 -0.4874 -0.3923
  711TMC3    H110517   3.380   2.285  15.005  0.1796  0.0326  0.2455
  711TMC3    H210518   3.729   2.436  15.198  0.2046 -0.6838 -1.2982
  711TMC3    C710519   3.640   2.243  15.055 -0.3368  0.4478  0.1324
  711TMC3    C810520   3.580   2.548  15.409  0.2666  0.1236 -0.2679
  711TMC3    O110521   3.756   2.240  15.088 -0.0616  0.5875  0.6866
  711TMC3    O210522   3.491   2.567  15.490 -0.0644  0.2637  0.2601
  712MPD2     C10523   4.313   2.993  13.581  0.0730 -0.0382  0.6010
  712MPD2    C110524   4.256   3.111  13.553 -0.4403  0.9289  0.6925
  712MPD2    C210525   4.325   3.228  13.502 -0.3328 -0.3909  0.2072
  712MPD2    C310526   4.457   3.213  13.467 -0.2603 -0.7369 -0.0121
  712MPD2    C410527   4.517   3.088  13.488 -0.4734  0.1591 -0.3596
  712MPD2    C510528   4.445   2.984  13.537  0.2223 -0.2672 -0.3393
  712MPD2     H10529   4.275   3.321  13.480  1.9386  1.0451  1.1179
  712MPD2    H110530   4.619   3.065  13.460 -0.4053  1.6649 -1.3390
  712MPD2    H210531   4.266   2.909  13.632 -2.8495  1.5157  0.4835
  712MPD2    H310532   4.497   2.890  13.551 -0.5604 -0.6066  0.3496
  712MPD2     N10533   4.523   3.321  13.411  0.4603  0.8240  0.4145
  712MPD2    H510534   4.624   3.319  13.418  0.5713  1.2505 -0.9732
  712MPD2    N110535   4.116   3.121  13.557  0.2208  0.3013  0.1090
  712MPD2    H710536   4.082   3.216  13.544  1.3340  0.5302 -1.1580
  713TMC3    C110537   4.572   3.542  13.344  0.0242 -0.1374 -0.0993
  713TMC3    C210538   4.697   3.517  13.400 -0.2469  0.5804  1.0043
  713TMC3    C310539   0.043   3.620  13.452  0.0168 -0.0171 -0.2325
  713TMC3    C410540   4.528   3.668  13.328  0.0393  0.5591  0.4863
  713TMC3    C510541   4.603   3.770  13.380  0.4494  0.5274  0.4381
  713TMC3    C610542   0.006   3.751  13.439 -0.2988 -0.6412 -0.0717
  713TMC3     C10543   4.471   3.439  13.365 -0.3364  0.2573  0.3280
  713TMC3     O10544   4.356   3.472  13.337 -0.6882  0.2454 -0.0759
  713TMC3     H10545   0.020   3.418  13.406  0.2989  0.7505 -0.3274
  713TMC3    H110546   4.435   3.679  13.274 -0.2248 -0.7705  0.6736
  713TMC3    H210547   0.062   3.830  13.488 -0.5059  1.1338 -2.7152
  713TMC3    C710548   4.540   3.895  13.401 -0.2187  0.0452 -0.1592
  713TMC3    C810549   0.161   3.581  13.529 -0.2375  0.3632 -0.2352
  713TMC3    O110550   4.615   3.984  13.425  0.0926  0.0355 -0.1244
  713TMC3    O210551   0.181   3.466  13.557 -0.4203  0.0280  0.1228
  714MPD2     C10552   2.337   1.946   1.980 -0.5595  0.5640 -0.3987
  714MPD2    C110553   2.370   1.853   1.881  0.1010  1.1797  0.1435
  714MPD2    C210554   2.323   1.878   1.749 -0.9286  0.8382  0.4287
  714MPD2    C310555   2.249   1.992   1.723  0.2542  0.1477  0.0979
  714MPD2    C410556   2.219   2.080   1.823  0.0676  0.3507  0.7009
  714MPD2    C510557   2.256   2.057   1.952 -0.2902  1.2474 -0.0256
  714MPD2     H10558   2.350   1.808   1.671  2.6029  0.8895  1.5876
  714MPD2    H110559   2.163   2.172   1.810 -0.5334 -0.2455 -0.8718
  714MPD2    H210560   2.369   1.925   2.082  1.7416  1.3304 -0.9698
  714MPD2    H310561   2.237   2.123   2.036  2.1276  1.8855  0.0157
  714MPD2     N10562   2.208   2.015   1.591  0.0142  0.0944  0.6633
  714MPD2    H510563   2.152   2.097   1.570  3.3559  2.1279 -0.3166
  714MPD2    N110564   2.458   1.748   1.917  0.1372 -0.1909  0.2227
  714MPD2    H710565   2.498   1.751   2.010  0.7401 -0.6727 -0.0196
  715TMC3    C110566   2.590   1.552   1.881  0.4976 -0.1582  0.3013
  715TMC3    C210567   2.596   1.432   1.807 -0.1702 -0.0926 -0.0557
  715TMC3    C310568   2.706   1.357   1.819  1.1513  0.1711 -0.0251
  715TMC3    C410569   2.691   1.594   1.966 -0.3850 -0.9708  0.4031
  715TMC3    C510570   2.796   1.504   1.980 -0.1115 -0.3229 -0.9402
  715TMC3    C610571   2.796   1.384   1.913  0.0076  0.5057 -0.0562
  715TMC3     C10572   2.488   1.644   1.833  0.1940 -0.0861 -0.2148
  715TMC3     O10573   2.421   1.605   1.738  0.6918 -0.1248  0.1444
  715TMC3     H10574   2.515   1.396   1.745  0.6120 -0.6079 -0.7812
  715TMC3    H110575   2.700   1.692   2.012  1.4650 -1.2962  0.7153
  715TMC3    H210576   2.880   1.318   1.933 -0.5870 -0.0237  0.6822
  715TMC3    C710577   2.901   1.536   2.072 -0.2357 -0.4744  0.6110
  715TMC3    C810578   2.736   1.267   1.710  0.0545  0.4490  0.4322
  715TMC3    O110579   2.971   1.439   2.097 -0.1744  0.0799  0.5832
  715TMC3    O210580   2.651   1.261   1.621 -0.0123  0.6849  0.2620
  716MPD2     C10581   1.977   4.718  10.606  0.1413  0.5741 -0.1551
  716MPD2    C110582   1.976   0.056  10.482 -0.6190  0.4960 -0.1637
  716MPD2    C210583   2.075   0.014  10.386 -0.0907  0.5525 -0.0573
  716MPD2    C310584   2.164   4.641  10.425  0.1229  1.2828  0.2156
  716MPD2    C410585   2.146   4.570  10.544  0.6403 -0.2985 -0.2982
  716MPD2    C510586   2.040   4.605  10.624 -1.0855 -0.6587 -0.0249
  716MPD2     H10587   2.089   0.059  10.288 -0.2619  0.8945  0.0762
  716MPD2    H110588   2.210   4.488  10.575  1.0425  0.4780  0.8956
  716MPD2    H210589   1.909   0.036  10.680  0.4206 -0.3690  0.5922
  716MPD2    H310590   2.027   4.551  10.718 -0.0200 -0.6392  0.1292
  716MPD2     N10591   2.267   4.616  10.337  0.3115  0.6887 -0.3135
  716MPD2    H510592   2.254   4.655  10.244  0.1485 -0.6043 -0.8258
  716MPD2    N110593   1.889   0.163  10.446 -0.0845 -0.1848 -0.0978
  716MPD2    H710594   1.899   0.210  10.356 -1.8149  1.9559  0.8508
  717TMC3    C110595   2.450   4.524  10.218  0.0670 -0.4838  0.0833
  717TMC3    C210596   2.402   4.594  10.110 -0.1900 -0.5609  0.6025
  717TMC3    C310597   2.429   4.562   9.984 -0.3147  0.2687 -0.6851
  717TMC3    C410598   2.528   4.408  10.194  0.5929  0.6652 -0.0290
  717TMC3    C510599   2.552   4.374  10.064 -0.3285  0.6292  0.9399
  717TMC3    C610600   2.502   4.450   9.954  0.5093  0.1706  1.0428
  717TMC3     C10601   2.374   4.528  10.348 -0.1870 -0.2267 -0.2284
  717TMC3     O10602   2.413   4.452  10.439  0.2477 -0.0785  0.1768
  717TMC3     H10603   2.352   4.689  10.126 -0.1253  0.0077 -2.5500
  717TMC3    H110604   2.551   4.340  10.275 -1.0380 -0.1043 -0.1965
  717TMC3    H210605   2.537   4.429   9.854 -1.2043  1.0056  0.2812
  717TMC3    C710606   2.571   4.234  10.041  0.7038 -0.0654 -0.2521
  717TMC3    C810607   2.379   4.650   9.872 -0.0410  0.1341  0.2896
  717TMC3    O110608   2.512   4.185   9.949 -0.6440 -0.3439  0.2066
  717TMC3    O210609   2.277   4.709   9.902  0.4706 -0.2969 -0.6601
  718MPD2     C10610   1.111   3.435  12.611  0.2629 -0.2380  1.0430
  718MPD2    C110611   1.042   3.559  12.586  0.4027 -0.3807  0.7275
  718MPD2    C210612   0.925   3.578  12.658 -0.5341  0.1486  0.3686
  718MPD2    C310613   0.884   3.491  12.760  0.3793  0.1585 -0.1947
  718MPD2    C410614   0.956   3.382  12.787 -0.1826  0.6086  0.3717
  718MPD2    C510615   1.067   3.351  12.708 -0.3738 -0.2485  0.1119
  718MPD2     H10616   0.863   3.664  12.635 -1.9316 -0.6732  1.0132
  718MPD2    H110617   0.926   3.305  12.857 -0.8796  1.6448  1.2034
  718MPD2    H210618   1.182   3.402  12.537 -0.4923  0.2378  0.0997
  718MPD2    H310619   1.118   3.256  12.720 -1.0098 -0.5429  0.4511
  718MPD2     N10620   0.764   3.521  12.826  0.1862  0.7184 -0.3341
  718MPD2    H510621   0.709   3.593  12.780 -1.1842  0.1223  0.3692
  718MPD2    N110622   1.094   3.660  12.495 -0.0255  0.3287  0.3593
  718MPD2    H710623   1.183   3.634  12.453 -0.5347  0.6636 -0.9371
  719TMC3    C110624   1.124   3.868  12.410  0.2545 -0.7381 -0.3179
  719TMC3    C210625   1.060   3.979  12.363  0.5912  0.3565  0.7524
  719TMC3    C310626   1.101   4.103  12.398  0.7659 -0.4771 -0.2928
  719TMC3    C410627   1.245   3.875  12.470  0.6270  0.4133 -0.0797
  719TMC3    C510628   1.288   4.003  12.496 -0.4188 -0.0098  0.0662
  719TMC3    C610629   1.219   4.114  12.462  0.3731 -0.6190 -0.3546
  719TMC3     C10630   1.033   3.778  12.471 -0.3103  0.5247 -0.6269
  719TMC3     O10631   0.917   3.802  12.470  0.1540  0.3837 -0.0106
  719TMC3     H10632   0.968   3.970  12.306  1.5283  0.3364 -0.7306
  719TMC3    H110633   1.299   3.787  12.503  0.6920  0.8636  0.9999
  719TMC3    H210634   1.246   4.208  12.509 -0.6433 -0.7327  0.4563
  719TMC3    C710635   1.409   4.036  12.570  0.5566 -0.4075  0.3708
  719TMC3    C810636   1.002   4.184  12.466  0.4032 -0.3253  0.2593
  719TMC3    O110637   1.470   4.133  12.530 -0.1165  0.2141 -0.3077
  719TMC3    O210638   1.024   4.303  12.477  0.6745  0.7706 -0.3612
  720MPD2     C10639   4.317   0.592  14.200 -0.5122 -0.5102  0.3184
  720MPD2    C110640   4.399   0.586  14.085  0.0539 -0.8369 -0.3160
  720MPD2    C210641   4.521   0.526  14.097 -0.0757 -0.1323 -0.5555
  720MPD2    C310642   4.568   0.472  14.210  0.6229 -0.1786  0.8341
  720MPD2    C410643   4.487   0.480  14.330  0.2817 -0.4559 -0.9389
  720MPD2    C510644   4.363   0.540  14.320 -0.0297  0.0930  0.0436
  720MPD2     H10645   4.592   0.522  14.015  0.2659  0.1356 -0.2790
  720MPD2    H110646   4.517   0.445  14.428  2.1578  0.0203 -1.3436
  720MPD2    H210647   4.226   0.650  14.203  0.2722  0.7238  0.3625
  720MPD2    H310648   4.306   0.560  14.411  0.5005 -0.2865  0.4596
  720MPD2     N10649   4.703   0.412  14.210 -0.0594 -0.1628  0.5038
  720MPD2    H510650   0.035   0.418  14.124 -1.0464  2.6990  0.0882
  720MPD2    N110651   4.368   0.652  13.964 -0.1798 -0.6655  0.5996
  720MPD2    H710652   4.438   0.653  13.890 -1.0549 -1.7982 -0.2418
  721TMC3    C110653   0.183   0.388  14.322 -0.1656 -0.2858  0.5909
  721TMC3    C210654   0.244   0.387  14.448  0.0294  0.1519  0.1847
  721TMC3    C310655   0.372   0.447  14.456 -0.5305  0.0654 -0.1504
  721TMC3    C410656   0.256   0.413  14.210  0.1083  0.1790 -0.2577
  721TMC3    C510657   0.388   0.456  14.220  1.0323 -0.1470 -0.1095
  721TMC3    C610658   0.448   0.480  14.341  0.0541  0.1974  0.0472
  721TMC3     C10659   0.041   0.364  14.323 -0.1950  0.2619 -0.4630
  721TMC3     O10660   4.719   0.330  14.431  0.1243  0.7667 -0.2800
  721TMC3     H10661   0.183   0.365  14.535  0.6472 -1.4576  0.1980
  721TMC3    H110662   0.214   0.390  14.112 -1.7460 -0.0322  0.5865
  721TMC3    H210663   0.548   0.522  14.350  0.0679 -0.1977  1.8009
  721TMC3    C710664   0.467   0.485  14.103 -0.0057  0.1311  0.1628
  721TMC3    C810665   0.432   0.457  14.592  0.1869  0.5176 -0.6746
  721TMC3    O110666   0.586   0.518  14.120 -0.2429 -0.2492  0.3721
  721TMC3    O210667   0.512   0.548  14.611 -0.1185 -0.0518  0.1750
  722MPD2     C10668   3.360   3.701  13.208  0.2475 -0.0993  0.6126
  722MPD2    C110669   3.299   3.788  13.299  0.1184  0.3652  0.5117
  722MPD2    C210670   3.158   3.777  13.303 -0.1735  0.0348 -0.0846
  722MPD2    C310671   3.084   3.691  13.233  0.4551 -0.4196 -0.1983
  722MPD2    C410672   3.140   3.602  13.150 -0.3809 -0.1166 -0.7227
  722MPD2    C510673   3.284   3.604  13.139 -0.3746 -0.2360  0.0869
  722MPD2     H10674   3.106   3.848  13.366 -1.9290 -1.5999  0.3300
  722MPD2    H110675   3.089   3.528  13.090  0.7489 -1.2905 -0.2174
  722MPD2    H210676   3.468   3.704  13.196  0.1344 -2.3826 -1.0675
  722MPD2    H310677   3.330   3.532  13.072 -3.0736 -1.0180 -0.9257
  722MPD2     N10678   2.944   3.705  13.247 -0.0494  0.2489 -0.1027
  722MPD2    H510679   2.911   3.777  13.310 -4.2508 -1.0739 -0.8436
  722MPD2    N110680   3.363   3.875  13.389  0.0254  0.4023  0.7330
  722MPD2    H710681   3.308   3.930  13.453  0.1767 -1.6230  2.6287
  723TMC3    C110682   2.714   3.634  13.213 -0.3281 -0.4160 -0.6509
  723TMC3    C210683   2.630   3.534  13.251  0.3109 -0.1287  0.7384
  723TMC3    C310684   2.495   3.560  13.226  0.3275 -0.1993 -0.1356
  723TMC3    C410685   2.673   3.761  13.175 -0.9689 -0.8031 -0.1735
  723TMC3    C510686   2.536   3.787  13.176  0.1496 -0.0066 -0.3787
  723TMC3    C610687   2.440   3.685  13.198  0.5508 -0.4168  0.0323
  723TMC3     C10688   2.858   3.607  13.204  0.0426 -0.3156 -0.2215
  723TMC3     O10689   2.884   3.493  13.165 -0.2881 -0.8762  0.0480
  723TMC3     H10690   2.663   3.433  13.274 -0.0437 -0.5899 -0.8213
  723TMC3    H110691   2.740   3.845  13.162  1.0191 -2.3502  0.0111
  723TMC3    H210692   2.335   3.707  13.183  0.3107 -1.4246  0.2636
  723TMC3    C710693   2.487   3.912  13.112  0.2079 -0.5354  0.4859
  723TMC3    C810694   2.400   3.452  13.207  0.3089 -0.3114 -0.1832
  723TMC3    O110695   2.388   3.902  13.042 -0.5781 -0.4028 -0.3417
  723TMC3    O210696   2.283   3.485  13.219  0.6988 -0.4904  0.1915
  724TMC3    C110697   3.959   1.741  10.079 -0.1560 -0.8275 -0.0194
  724TMC3    C210698   3.905   1.862  10.043  0.3158  0.1834 -0.0248
  724TMC3    C310699   3.993   1.959   9.998 -0.0258 -0.2559 -0.0307
  724TMC3    C410700   4.090   1.723  10.104  0.4596 -0.0690 -0.6315
  724TMC3    C510701   4.173   1.828  10.078  0.1718  0.9418 -0.5010
  724TMC3    C610702   4.133   1.947  10.025  0.1090  0.1082 -0.6850
  724TMC3     C10703   3.856   1.637  10.113 -0.2081 -0.5555 -0.3931
  724TMC3     O10704   3.760   1.638  10.041  0.6451  0.1592 -0.2912
  724TMC3     H10705   3.801   1.877  10.015  0.4526 -2.4664 -2.0614
  724TMC3    H110706   4.131   1.627  10.135 -2.0033 -0.0878  2.5585
  724TMC3    H210707   4.210   2.017   9.995  0.0672  0.0854 -0.8446
  724TMC3    C710708   4.312   1.805  10.090 -0.4577  0.7131  0.1684
  724TMC3    C810709   3.943   2.076   9.922  0.0442 -0.1252 -0.2159
  724TMC3    O110710   4.386   1.880  10.031  0.7650 -0.6893  0.1110
  724TMC3    O210711   3.828   2.076   9.880  0.4558 -0.3749  0.0601
  725TMC3    C110712   0.750   0.686  13.084  0.3068 -0.7597 -0.1951
  725TMC3    C210713   0.629   0.664  13.025  0.0938 -0.7070 -0.3792
  725TMC3    C310714   0.612   0.557  12.945  0.1193  0.7846  0.7512
  725TMC3    C410715   0.859   0.595  13.054  0.4370  0.4162  0.2845
  725TMC3    C510716   0.833   0.488  12.967 -0.2223 -0.0838 -0.5628
  725TMC3    C610717   0.711   0.466  12.910  0.0736 -1.0992 -0.4205
  725TMC3     C10718   0.805   0.819  13.085 -0.2235 -1.1100 -0.0084
  725TMC3     O10719   0.760   0.912  13.149 -0.6027  0.0440  0.3211
  725TMC3     H10720   0.559   0.746  13.035 -0.3418 -1.2250  0.8155
  725TMC3    H110721   0.949   0.604  13.113  0.3301  0.1275  0.4908
  725TMC3    H210722   0.694   0.383  12.842  3.1271 -0.6252 -1.7751
  725TMC3    C710723   0.928   0.379  12.933  0.5288 -0.0240  0.3325
  725TMC3    C810724   0.497   0.567  12.860  0.1097  0.7550 -0.3244
  725TMC3    O110725   0.892   0.275  12.875 -0.2114 -0.1454 -0.4551
  725TMC3    O210726   0.389   0.582  12.919 -0.1632 -0.2286  0.2166
  726MPD2     C10727   3.511   1.818  11.143 -0.0260 -0.3532 -0.0275
  726MPD2    C110728   3.457   1.921  11.072 -0.1481  0.1336 -0.4024
  726MPD2    C210729   3.343   1.985  11.122 -0.4280 -0.1987 -0.4249
  726MPD2    C310730   3.283   1.936  11.238 -0.3244 -0.6115  0.1742
  726MPD2    C410731   3.336   1.833  11.311  0.2839  0.1444  0.4580
  726MPD2    C510732   3.448   1.774  11.254 -0.3387 -0.1048  0.2622
  726MPD2     H10733   3.309   2.075  11.071  0.7883  0.2409 -0.4442
  726MPD2    H110734   3.306   1.803  11.411 -0.7114  0.1146  0.1528
  726MPD2    H210735   3.593   1.758  11.106 -0.6003 -1.3459  0.2908
  726MPD2    H310736   3.495   1.691  11.305 -0.0849  0.4962  1.0018
  726MPD2     N10737   3.180   2.012  11.301 -0.2564 -0.4620 -0.2846
  726MPD2    H510738   3.158   1.983  11.395  0.9088 -1.3165 -0.2720
  726MPD2    N110739   3.539   1.970  10.964 -0.5584 -0.0567 -0.2760
  726MPD2    H710740   3.629   1.923  10.959 -0.8151 -0.5715 -0.0184
  727TMC3    C110741   3.615   2.095  10.794  0.4325 -0.5118 -0.2522
  727TMC3    C210742   3.738   2.028  10.798  0.0631 -0.7404  0.8875
  727TMC3    C310743   3.840   2.096  10.735 -0.3165 -0.3873  0.2228
  727TMC3    C410744   3.596   2.218  10.747  0.2303 -1.0979  0.1797
  727TMC3    C510745   3.706   2.282  10.687 -0.3315 -0.2519 -0.8940
  727TMC3    C610746   3.826   2.222  10.681  0.6019 -0.5452 -0.5360
  727TMC3     C10747   3.505   2.070  10.882  0.4164  0.3573  0.6368
  727TMC3     O10748   3.391   2.116  10.858 -0.1207  0.0119 -0.2058
  727TMC3     H10749   3.757   1.935  10.850 -0.1848 -1.2747  0.0204
  727TMC3    H110750   3.505   2.276  10.751  1.4474  0.8785 -0.6232
  727TMC3    H210751   3.910   2.273  10.637 -1.7552  2.6932 -1.2931
  727TMC3    C710752   3.688   2.408  10.616 -0.1455 -0.2598  0.1526
  727TMC3    C810753   3.978   2.047  10.721  0.1994  0.1484  0.3735
  727TMC3    O110754   3.583   2.437  10.558  0.5929  0.1061 -0.6077
  727TMC3    O210755   4.049   2.099  10.633  0.1019  0.1411 -0.0433
  728TMC3    C110756   2.059   1.034  15.606  0.4263  0.3578 -0.1720
  728TMC3    C210757   2.167   1.047  15.686  0.4768  0.1140  0.2957
  728TMC3    C310758   2.279   1.116  15.640  0.1787  0.5084 -0.2927
  728TMC3    C410759   2.055   1.099  15.483 -0.0655 -0.0180  0.0642
  728TMC3    C510760   2.169   1.172  15.442  0.3810  0.3114 -0.1071
  728TMC3    C610761   2.277   1.184  15.518 -0.3208 -0.5178  0.8518
  728TMC3     C10762   1.936   0.990  15.656 -0.1263  0.8399 -0.2520
  728TMC3     O10763   1.937   0.912  15.750 -0.0233 -0.0738  0.1121
  728TMC3     H10764   2.174   0.990  15.778 -1.9432 -2.9186 -1.4150
  728TMC3    H110765   1.971   1.085  15.417 -1.1556 -0.8783  1.6246
  728TMC3    H210766   2.370   1.227  15.485  0.6986 -2.6294  0.9801
  728TMC3    C710767   2.161   1.219  15.300  0.4330 -0.3413  0.2689
  728TMC3    C810768   2.409   1.100  15.690 -0.5594  0.1371 -0.3305
  728TMC3    O110769   2.061   1.185  15.235  0.2084  0.3920  0.1935
  728TMC3    O210770   2.506   1.166  15.654  0.1078 -0.4050 -0.4973
  729MPD2     C10771   4.656   2.478  16.925  0.0067  0.0374  0.1739
  729MPD2    C110772   0.011   2.372  16.975  0.1423  0.0226 -0.3104
  729MPD2    C210773   4.719   2.325  17.104 -0.5622 -0.4135 -0.7602
  729MPD2    C310774   4.628   2.407  17.179  0.1955 -1.1186 -0.0384
  729MPD2    C410775   4.539   2.502  17.130  0.5492  0.0490 -0.5407
  729MPD2    C510776   4.556   2.533  16.995  0.0539  0.1168  0.4340
  729MPD2     H10777   0.061   2.250  17.149 -0.9400  1.1284  2.3020
  729MPD2    H110778   4.469   2.559  17.191  0.7836 -1.5700  1.2534
  729MPD2    H210779   4.655   2.503  16.820 -0.6511 -0.1905  0.1244
  729MPD2    H310780   4.496   2.613  16.954  1.4489 -0.1360 -2.0634
  729MPD2     N10781   4.634   2.404  17.313 -0.0613  0.3780  0.2773
  729MPD2    H510782   4.583   2.476  17.362  0.6837  1.2743 -0.2657
  729MPD2    N110783   0.110   2.331  16.883  0.2943 -0.1827  0.2642
  729MPD2    H710784   0.117   2.397  16.806  0.9006 -1.7133 -0.9979
  730TMC3    C110785   4.706   2.369  17.529 -0.2056  0.8106 -0.1221
  730TMC3    C210786   4.695   2.293  17.639  0.2476  1.1818 -0.0803
  730TMC3    C310787   4.702   2.347   0.080 -0.1582 -0.3212 -0.3678
  730TMC3    C410788   4.710   2.503  17.542  0.0114 -0.0687  0.3573
  730TMC3    C510789   4.715   2.554  17.669  0.6777  0.4207  0.5569
  730TMC3    C610790   4.698   2.479   0.097 -0.0683  0.2962 -0.5574
  730TMC3     C10791   4.693   2.313  17.397  0.5617  0.0690 -0.7431
  730TMC3     O10792   0.014   2.204  17.370 -0.3813 -0.0262 -0.3363
  730TMC3     H10793   4.694   2.186  17.622  0.8065  1.2197 -0.3675
  730TMC3    H110794   0.006   2.569  17.458 -0.8892 -1.7837 -1.1910
  730TMC3    H210795   4.697   2.532   0.192  2.3317  3.2314 -2.1404
  730TMC3    C710796   4.706   2.701  17.672 -0.0127 -1.0415  0.6590
  730TMC3    C810797   4.715   2.273   0.197 -0.0913 -0.4571  0.2001
  730TMC3    O110798   4.674   2.753   0.093 -0.5841 -0.3931 -0.2892
  730TMC3    O210799   4.654   2.165   0.206 -0.2549 -0.2512  0.7467
  731MPD2     C10800   4.600   4.444  12.263  0.0702 -0.0220 -0.3936
  731MPD2    C110801   0.014   4.417  12.270  0.3094  0.1655  0.8016
  731MPD2    C210802   0.070   4.371  12.389 -0.5918  0.2735  0.1897
  731MPD2    C310803   4.709   4.355  12.503 -0.8692  0.3363  0.1695
  731MPD2    C410804   4.571   4.390  12.489 -0.0367 -0.2105  0.5201
  731MPD2    C510805   4.517   4.417  12.367 -0.0939 -0.5773 -0.3005
  731MPD2     H10806   0.175   4.343  12.392 -1.4869 -3.2191 -0.6169
  731MPD2    H110807   4.497   4.358  12.560  0.4963  2.1753  2.1443
  731MPD2    H210808   4.552   4.482  12.174 -3.3442 -1.2190  0.9142
  731MPD2    H310809   4.409   4.425  12.364 -0.0493  0.6818  1.3938
  731MPD2     N10810   0.045   4.314  12.626  0.5684  0.5990 -0.5020
  731MPD2    H510811   0.140   4.280  12.624 -0.0648 -1.2802  1.1260
  731MPD2    N110812   0.088   4.443  12.154  0.0151  0.3742  0.5802
  731MPD2    H710813   0.036   4.468  12.070  0.5851 -1.5111 -0.3250
  732TMC3    C110814   0.260   4.460  12.004 -0.2251  1.3057 -0.4214
  732TMC3    C210815   0.179   4.490  11.906  0.6913 -0.6681 -0.3075
  732TMC3    C310816   0.224   4.490  11.772  0.4648  0.1173 -0.1345
  732TMC3    C410817   0.393   4.425  11.974  0.7827 -0.2619  0.8420
  732TMC3    C510818   0.424   4.413  11.841  0.4267 -0.0093 -0.0721
  732TMC3    C610819   0.342   4.447  11.737  0.1461  0.5391  0.1149
  732TMC3     C10820   0.220   4.438  12.139  0.0340  0.6747 -0.1302
  732TMC3     O10821   0.311   4.437  12.220 -0.8469 -0.1657  0.2621
  732TMC3     H10822   0.086   4.541  11.926  0.4709 -0.9575 -0.6076
  732TMC3    H110823   0.457   4.395  12.056  0.2646  0.0996  1.3842
  732TMC3    H210824   0.382   4.435  11.636  2.7127 -1.3232  1.3366
  732TMC3    C710825   0.550   4.355  11.814  0.5970 -0.6390 -0.1505
  732TMC3    C810826   0.131   4.517  11.663  0.0457  0.3451  0.1426
  732TMC3    O110827   0.564   4.284  11.714 -0.7103 -0.1380 -0.5765
  732TMC3    O210828   0.190   4.558  11.563 -0.1140  0.1100  0.2520
  733TMC3    C110829   0.447   3.601  13.125 -0.5073 -0.0675  0.1721
  733TMC3    C210830   0.544   3.512  13.083 -0.4278 -0.4178  0.2113
  733TMC3    C310831   0.638   3.567  13.003 -0.1125  0.1448 -0.4726
  733TMC3    C410832   0.455   3.740  13.108  1.0498 -0.1481  0.2147
  733TMC3    C510833   0.555   3.783  13.025 -0.1942  1.1687  0.8091
  733TMC3    C610834   0.656   3.698  12.986 -0.1004 -0.0821  0.2823
  733TMC3     C10835   0.309   3.542  13.136 -0.0037  0.6106 -0.0334
  733TMC3     O10836   0.217   3.619  13.138 -0.6132 -0.0905 -0.0865
  733TMC3     H10837   0.552   3.404  13.077  0.0998 -0.3040 -1.1494
  733TMC3    H110838   0.370   3.804  13.128  0.5229 -1.1404  1.1355
  733TMC3    H210839   0.745   3.736  12.937  0.5119 -0.6984  0.9229
  733TMC3    C710840   0.557   3.922  12.983  0.1596  0.0902  0.3595
  733TMC3    C810841   0.723   3.466  12.940 -0.3349 -0.6579 -0.1433
  733TMC3    O110842   0.482   4.009  13.035 -0.4020 -0.1022 -0.1723
  733TMC3    O210843   0.772   3.381  13.015 -0.2660 -0.0633  0.7512
  734MPD2     C10844   3.097   0.971  12.198  0.3267 -0.5289  0.2769
  734MPD2    C110845   2.971   0.973  12.142  0.0512 -0.4025 -0.1711
  734MPD2    C210846   2.933   1.077  12.060 -0.2418 -0.0219  0.2345
  734MPD2    C310847   3.024   1.175  12.026 -0.2470  0.0934 -0.4743
  734MPD2    C410848   3.142   1.187  12.095 -0.3197 -0.0479 -0.1562
  734MPD2    C510849   3.177   1.080  12.169 -0.3262 -0.0980 -0.5923
  734MPD2     H10850   2.833   1.080  12.019 -0.7227 -3.6501  1.2029
  734MPD2    H110851   3.210   1.271  12.096 -0.5087  0.1175 -1.2951
  734MPD2    H210852   3.138   0.895  12.262 -1.6304 -3.6626 -2.1672
  734MPD2    H310853   3.266   1.098  12.228  0.3391  1.3102 -2.0248
  734MPD2     N10854   2.985   1.274  11.937 -0.0771  0.1062  0.2347
  734MPD2    H510855   2.891   1.254  11.905 -0.2084  0.4980  0.3722
  734MPD2    N110856   2.892   0.850  12.164 -0.8563 -0.1195 -0.4185
  734MPD2    H710857   2.938   0.776  12.216 -0.6523 -0.4351 -1.0372
  735TMC3    C110858   2.736   0.675  12.110 -1.1696 -0.8852  0.1749
  735TMC3    C210859   2.610   0.641  12.061 -0.1757 -0.1754 -0.4117
  735TMC3    C310860   2.593   0.540  11.962 -0.8796 -0.8564 -0.7867
  735TMC3    C410861   2.844   0.598  12.068  0.2320 -0.3396 -0.1936
  735TMC3    C510862   2.819   0.495  11.986  0.1657  0.2844 -0.1174
  735TMC3    C610863   2.701   0.460  11.934 -0.3525 -0.1675  0.0951
  735TMC3     C10864   2.761   0.823  12.118  0.0842  0.6140 -0.5314
  735TMC3     O10865   2.687   0.897  12.054 -0.1566 -0.2249  0.1048
  735TMC3     H10866   2.518   0.693  12.088 -1.2712 -2.1989 -0.1968
  735TMC3    H110867   2.943   0.641  12.082  0.7401 -0.8986 -2.1066
  735TMC3    H210868   2.695   0.379  11.862  0.0786 -0.0169 -0.1093
  735TMC3    C710869   2.942   0.441  11.936 -0.1493 -0.0216 -0.7580
  735TMC3    C810870   2.529   0.594  11.842 -0.1712 -0.5047  0.7040
  735TMC3    O110871   3.038   0.517  11.910  0.0320  0.0323 -0.1003
  735TMC3    O210872   2.519   0.520  11.746  0.0693 -0.7205  0.0678
  736MPD2     C10873   3.039   0.095  11.892  0.0718 -0.3347 -0.1739
  736MPD2    C110874   3.045   0.232  11.870  0.1855 -0.4125  0.7252
  736MPD2    C210875   3.153   0.282  11.798 -0.0951  0.0357 -0.5274
  736MPD2    C310876   3.259   0.196  11.761  0.4739 -0.2335 -0.4883
  736MPD2    C410877   3.255   0.059  11.789  0.0406 -0.4330 -0.7355
  736MPD2    C510878   3.135   0.008  11.838  0.3873  0.0996  0.2884
  736MPD2     H10879   3.163   0.387  11.777 -0.0562  0.7188  2.8965
  736MPD2    H110880   3.322   4.710  11.741  1.6539  0.7195 -0.1713
  736MPD2    H210881   2.956   0.047  11.944 -1.0563  1.7440 -0.0647
  736MPD2    H310882   3.125   4.622  11.853  1.3620  0.0694  0.7170
  736MPD2     N10883   3.368   0.245  11.683  0.5216  0.0588 -0.2589
  736MPD2    H510884   3.443   0.184  11.655  0.1346  0.1299 -1.4479
  736MPD2    N110885   2.937   0.306  11.912 -0.2376 -0.8467 -0.5097
  736MPD2    H710886   2.850   0.264  11.943  0.9522 -1.9474  1.3348
  737TMC3    C110887   3.542   0.390  11.595 -0.1329 -0.4149  0.6828
  737TMC3    C210888   3.597   0.512  11.612 -0.2550  0.0799  0.2881
  737TMC3    C310889   3.694   0.541  11.527 -0.2036  0.3148  0.0169
  737TMC3    C410890   3.583   0.301  11.502 -0.3037  0.6165  0.0008
  737TMC3    C510891   3.689   0.335  11.418 -0.2871  0.9022 -1.3940
  737TMC3    C610892   3.744   0.464  11.428  0.0801 -0.8429 -0.0908
  737TMC3     C10893   3.401   0.377  11.646 -0.3929 -0.0836 -0.9162
  737TMC3     O10894   3.339   0.481  11.668 -0.3618  0.4093  0.1493
  737TMC3     H10895   3.551   0.584  11.678 -0.4115 -0.7070  1.0478
  737TMC3    H110896   3.539   0.203  11.488  1.4440  0.0304 -1.2883
  737TMC3    H210897   3.826   0.495  11.365 -1.0289 -0.0308 -1.1227
  737TMC3    C710898   3.746   0.220  11.342 -1.0917  0.1516 -0.2382
  737TMC3    C810899   3.700   0.684  11.490 -0.8170  0.8547 -0.2149
  737TMC3    O110900   3.678   0.114  11.331  0.7160  0.0744 -0.6162
  737TMC3    O210901   3.689   0.764  11.580  0.8138  0.2756 -0.2846
  738MPD2     C10902   3.787   4.486  15.458  0.2799  0.1547 -0.5999
  738MPD2    C110903   3.774   4.428  15.334 -0.0206  0.5090 -0.2653
  738MPD2    C210904   3.838   4.487  15.224  0.0058  0.1371  0.7043
  738MPD2    C310905   3.927   4.599  15.245 -0.2257 -0.3516 -0.3131
  738MPD2    C410906   3.940   4.647  15.372  0.2927 -0.0340  0.7760
  738MPD2    C510907   3.876   4.586  15.477  0.2070 -0.4814 -0.2081
  738MPD2     H10908   3.823   4.448  15.124 -1.5747  1.8704  0.2656
  738MPD2    H110909   4.019   4.720  15.387 -0.2696  0.4723  1.3135
  738MPD2    H210910   3.736   4.457  15.548 -0.3613  1.4978 -0.5198
  738MPD2    H310911   3.877   4.636  15.573 -0.0224 -0.8725 -0.0036
  738MPD2     N10912   4.003   4.664  15.146  0.0143 -0.2203 -0.1187
  738MPD2    H510913   4.062   0.021  15.172  0.1549 -0.8426  1.4704
  738MPD2    N110914   3.689   4.314  15.318 -0.4981  0.0954  0.5326
  738MPD2    H710915   3.688   4.258  15.233 -0.3267 -0.5649  0.9665
  739TMC3    C110916   4.097   4.710  14.937 -0.2746 -0.7277 -0.6781
  739TMC3    C210917   4.082   4.703  14.798 -0.1607  0.6452  0.4897
  739TMC3    C310918   4.163   0.066  14.723  0.0185 -0.7755  0.3821
  739TMC3    C410919   4.196   0.069  14.997 -0.3588 -0.3638 -0.0641
  739TMC3    C510920   4.274   0.143  14.914 -0.5364 -0.0043  0.6907
  739TMC3    C610921   4.250   0.154  14.776  0.3117  0.4648 -0.1986
  739TMC3     C10922   4.003   4.626  15.013  0.6218 -0.4405  0.3887
  739TMC3     O10923   3.960   4.531  14.948  0.2802 -0.3278 -0.5822
  739TMC3     H10924   4.009   4.636  14.754 -0.4352  0.4773  1.2047
  739TMC3    H110925   4.219   0.079  15.102 -1.5651 -0.7720  0.2312
  739TMC3    H210926   4.304   0.227  14.717  1.9661 -0.1315  0.5721
  739TMC3    C710927   4.375   0.234  14.973 -0.9084 -0.2114 -0.0846
  739TMC3    C810928   4.131   0.076  14.578 -0.9129  0.0448  0.0987
  739TMC3    O110929   4.392   0.223  15.097 -0.1634 -0.1517 -0.0957
  739TMC3    O210930   4.013   0.055  14.549  0.3761 -0.8305  0.6654
  740TMC3    C110931   4.621   0.922  14.142 -0.4672 -0.1668  0.9766
  740TMC3    C210932   4.667   0.886  14.263  0.0377 -0.2101  0.4446
  740TMC3    C310933   0.057   0.807  14.256  0.0177 -0.0334 -1.1004
  740TMC3    C410934   4.667   0.880  14.017  0.4930 -0.2292 -0.5668
  740TMC3    C510935   0.061   0.808  14.011  0.8083  0.2827  0.2301
  740TMC3    C610936   0.108   0.764  14.133  0.2888 -0.3505  0.1022
  740TMC3     C10937   4.488   0.982  14.130  0.1725  0.7953  0.5627
  740TMC3     O10938   4.469   1.048  14.031 -0.2782  0.2129 -0.0636
  740TMC3     H10939   4.640   0.942  14.352 -0.7686  0.6616 -0.3421
  740TMC3    H110940   4.617   0.918  13.929 -0.5356  0.0663  0.1472
  740TMC3    H210941   0.190   0.694  14.144 -0.6681 -1.1787  2.0080
  740TMC3    C710942   0.063   0.704  13.903  0.0750  0.0186  0.0892
  740TMC3    C810943   0.130   0.784  14.377  0.5542  0.1391  0.4697
  740TMC3    O110944   0.090   0.593  13.939 -0.3699 -0.1327  0.5207
  740TMC3    O210945   0.232   0.720  14.359 -0.3258 -0.1398 -0.2324
  741TMC3    C110946   3.958   0.354  14.046  0.7967  0.5707 -0.6740
  741TMC3    C210947   3.837   0.299  14.045 -1.0733  0.7931 -0.0247
  741TMC3    C310948   3.785   0.263  14.163  0.0414  0.7088 -0.1184
  741TMC3    C410949   4.034   0.366  14.160  0.3655  0.5068  0.5571
  741TMC3    C510950   3.977   0.319  14.275 -0.5974 -0.0837 -0.3024
  741TMC3    C610951   3.849   0.265  14.280  0.4332  0.5501  0.1049
  741TMC3     C10952   4.030   0.305  13.933 -0.3261  0.3892 -0.2299
  741TMC3     O10953   3.978   0.234  13.848 -0.2685  0.1536  0.4237
  741TMC3     H10954   3.782   0.294  13.952  2.9819 -2.5565 -2.2261
  741TMC3    H110955   4.127   0.421  14.159 -1.3241  3.4403  1.0472
  741TMC3    H210956   3.803   0.244  14.376  1.5359 -1.6578  0.1646
  741TMC3    C710957   4.010   0.398  14.385  0.3142 -0.1907  0.5681
  741TMC3    C810958   3.661   0.189  14.163  0.1906  0.4716  0.5048
  741TMC3    O110959   4.077   0.501  14.362 -0.0268 -0.0982  0.1417
  741TMC3    O210960   3.641   0.128  14.268  1.0573 -0.5804  0.3353
  742TMC3    C110961   3.864   3.730  15.184 -0.2041 -0.0159 -0.3878
  742TMC3    C210962   3.773   3.691  15.082  0.3629  0.4792 -0.1409
  742TMC3    C310963   3.818   3.596  14.995 -0.4549 -0.3568  0.5466
  742TMC3    C410964   3.972   3.659  15.210 -0.7383  0.3643  0.2527
  742TMC3    C510965   4.012   3.563  15.124 -0.1911 -0.0735 -0.2004
  742TMC3    C610966   3.942   3.530  15.013 -0.6652 -0.8976 -0.6539
  742TMC3     C10967   3.852   3.845  15.262 -0.6135 -0.1951  0.5046
  742TMC3     O10968   3.770   3.928  15.230  0.3358  0.0244  0.1651
  742TMC3     H10969   3.685   3.753  15.070  0.8616  1.3053  0.4570
  742TMC3    H110970   4.050   3.692  15.278  0.3244 -0.8586 -0.3632
  742TMC3    H210971   3.965   3.441  14.956  2.8105 -2.2432  2.8002
  742TMC3    C710972   4.124   3.480  15.159  0.0966  0.1886 -0.8711
  742TMC3    C810973   3.725   3.517  14.916 -0.1278  0.5427 -0.3518
  742TMC3    O110974   4.178   3.410  15.072 -0.0567  0.8035  0.6894
  742TMC3    O210975   3.777   3.441  14.836 -0.7875 -0.1223 -0.9426
  743MPD2     C10976   2.052   3.961   2.081 -0.0639  0.9014 -1.1853
  743MPD2    C110977   2.161   4.030   2.028 -0.3286  0.8304  0.2310
  743MPD2    C210978   2.291   3.993   2.054 -0.0355 -0.1329  0.6916
  743MPD2    C310979   2.310   3.889   2.146  0.4345 -0.5723  0.3740
  743MPD2    C410980   2.203   3.824   2.207  0.3450 -1.1027 -0.2356
  743MPD2    C510981   2.075   3.858   2.168 -0.1329  0.4447 -0.4009
  743MPD2     H10982   2.371   4.038   1.997 -0.0500 -0.2765  0.5580
  743MPD2    H110983   2.216   3.741   2.275 -2.5380  1.1089  3.0018
  743MPD2    H210984   1.951   3.987   2.052 -0.5847  0.5343  0.2534
  743MPD2    H310985   1.986   3.808   2.204  1.0866 -0.4182  1.3749
  743MPD2     N10986   2.437   3.834   2.159  1.1233 -0.2662  0.2714
  743MPD2    H510987   2.510   3.890   2.116  0.2994 -0.6056 -1.5519
  743MPD2    N110988   2.126   4.125   1.933  0.0764  0.5848  0.1289
  743MPD2    H710989   2.028   4.125   1.906  0.1161  2.1578 -0.0506
  744TMC3    C110990   2.143   4.300   1.773  0.5647  0.3391  0.1560
  744TMC3    C210991   2.022   4.363   1.805  0.0457  0.5651 -0.7180
  744TMC3    C310992   1.971   4.447   1.709 -0.4976  0.0780 -0.0569
  744TMC3    C410993   2.218   4.315   1.657  0.3764  0.4066 -0.1419
  744TMC3    C510994   2.161   4.401   1.568  0.0715  0.1314 -0.0999
  744TMC3    C610995   2.044   4.475   1.597 -0.2227  0.2188  0.9887
  744TMC3     C10996   2.213   4.204   1.855 -0.2106 -0.3375  0.1560
  744TMC3     O10997   2.330   4.226   1.872 -0.0301 -0.0633  0.3904
  744TMC3     H10998   1.981   4.357   1.905  1.0546 -0.7851 -0.3771
  744TMC3    H110999   2.317   4.271   1.655 -1.1709 -3.1779  1.0663
  744TMC3    H211000   2.009   4.549   1.526 -3.5678 -1.0647  1.3246
  744TMC3    C711001   2.210   4.410   1.424 -0.1103  0.2120  0.5021
  744TMC3    C811002   1.832   4.503   1.717 -0.1733  0.4090  0.5029
  744TMC3    O111003   2.181   4.509   1.357 -0.5052 -0.4978  0.7907
  744TMC3    O211004   1.818   4.591   1.638  0.2426 -0.0002  0.4161
  745TMC3    C111005   3.894   3.062  13.588 -0.4121 -0.1871  0.2614
  745TMC3    C211006   3.872   3.191  13.623 -0.3121  0.6109  0.4879
  745TMC3    C311007   3.747   3.242  13.603 -0.5239 -0.5617  0.3101
  745TMC3    C411008   3.794   2.985  13.535  0.3688  0.2543  0.2386
  745TMC3    C511009   3.667   3.029  13.530  0.2748  0.4458  0.1155
  745TMC3    C611010   3.645   3.156  13.570  0.1462  0.6359  0.1991
  745TMC3     C11011   4.025   3.018  13.575 -0.3195  0.6219  0.3859
  745TMC3     O11012   4.039   2.896  13.566  0.0936  0.7507  1.0856
  745TMC3     H11013   3.953   3.245  13.670  1.8211 -2.3948  0.2857
  745TMC3    H111014   3.810   2.882  13.505  0.7076 -0.0684  1.5296
  745TMC3    H211015   3.545   3.198  13.577 -0.6231 -1.0824 -0.5620
  745TMC3    C711016   3.620   2.998  13.396 -0.3668  0.5784 -0.3356
  745TMC3    C811017   3.731   3.383  13.629  0.2222 -0.3080 -0.4150
  745TMC3    O111018   3.578   2.882  13.377 -0.2486 -0.3291  0.3566
  745TMC3    O211019   3.623   3.432  13.659 -0.0435  0.1540  0.1136
  746TMC3    C111020   1.734   0.534  11.110  0.3352  0.0822 -0.1434
  746TMC3    C211021   1.841   0.517  11.027 -0.6052  0.3683 -0.1987
  746TMC3    C311022   1.872   0.387  10.995 -0.4156  0.5241  0.0634
  746TMC3    C411023   1.662   0.433  11.169  0.7021 -0.2839  0.2316
  746TMC3    C511024   1.704   0.304  11.138 -0.5611 -0.2977 -0.3227
  746TMC3    C611025   1.807   0.276  11.049  0.5788  0.0134 -0.1777
  746TMC3     C11026   1.724   0.667  11.173 -0.2113  0.6459  0.0750
  746TMC3     O11027   1.669   0.677  11.279  0.1122 -0.4729  0.2233
  746TMC3     H11028   1.900   0.604  11.002  0.3114 -0.6327 -1.4811
  746TMC3    H111029   1.574   0.459  11.228  0.1605 -1.1217 -0.1945
  746TMC3    H211030   1.826   0.180  11.002  1.4392  0.0685  0.0558
  746TMC3    C711031   1.609   0.197  11.145  0.6418  0.2682  0.0158
  746TMC3    C811032   1.977   0.359  10.906 -0.1928  0.0451  0.0492
  746TMC3    O111033   1.624   0.092  11.080  0.1625 -0.4134 -0.0529
  746TMC3    O211034   2.045   0.259  10.922  0.3814 -0.1582  0.7349
  747TMC3    C111035   4.403   0.424  10.502  0.7120  0.0297  0.4209
  747TMC3    C211036   4.298   0.346  10.558 -0.4995  0.3994 -0.2734
  747TMC3    C311037   4.292   0.353  10.696  0.3552  0.1305 -0.3191
  747TMC3    C411038   4.498   0.490  10.575 -0.1025 -0.4904  0.8687
  747TMC3    C511039   4.488   0.488  10.707 -0.2609 -0.6754  1.0621
  747TMC3    C611040   4.386   0.421  10.776 -0.0450  0.1692 -0.3023
  747TMC3     C11041   4.388   0.442  10.362 -0.0331  0.3312 -0.0327
  747TMC3     O11042   4.413   0.557  10.323 -0.0420  0.1702 -0.4604
  747TMC3     H11043   4.211   0.315  10.500  0.3908 -0.4873 -1.1456
  747TMC3    H111044   4.573   0.540  10.514  1.4571 -0.7423  2.5774
  747TMC3    H211045   4.378   0.425  10.884 -0.1113  1.4472 -0.3583
  747TMC3    C711046   4.599   0.531  10.788  0.1456  0.6752 -0.6274
  747TMC3    C811047   4.188   0.270  10.754  0.3347  0.8069 -0.1947
  747TMC3    O111048   4.624   0.462  10.886  0.1582  0.5900 -0.8499
  747TMC3    O211049   4.153   0.181  10.676  0.1345  0.4569  0.5714
  748MPD2     C11050   1.048   0.573   2.054 -0.2826 -0.2587  0.1179
  748MPD2    C111051   1.027   0.712   2.047 -0.2827 -0.3345 -0.6052
  748MPD2    C211052   1.135   0.785   2.001  0.1063  0.7798 -0.0886
  748MPD2    C311053   1.260   0.737   1.978 -0.2066  0.0384 -0.7239
  748MPD2    C411054   1.277   0.599   1.991 -0.4721 -0.8644  1.0532
  748MPD2    C511055   1.165   0.523   2.024 -0.0201  0.0661  0.8191
  748MPD2     H11056   1.131   0.890   1.974  1.4018  1.1496  1.1854
  748MPD2    H111057   1.372   0.549   1.979  0.1013  0.8174 -1.5716
  748MPD2    H211058   0.973   0.504   2.092 -0.0582 -0.1202  0.8123
  748MPD2    H311059   1.178   0.418   2.047 -0.5392 -0.5448 -1.6994
  748MPD2     N11060   1.363   0.826   1.942  0.4217  0.4848 -0.1911
  748MPD2    H511061   1.338   0.923   1.952  0.1055  0.3086  0.7070
  748MPD2    N111062   0.903   0.765   2.086 -0.5025 -0.1720 -0.3119
  748MPD2    H711063   0.845   0.695   2.132 -1.4220  1.1085  0.4974
  749TMC3    C111064   1.592   0.893   1.901 -0.1679  0.0023  0.0890
  749TMC3    C211065   1.721   0.870   1.948 -0.7006 -0.2420 -0.9050
  749TMC3    C311066   1.820   0.950   1.897 -0.7000 -0.9399  0.3708
  749TMC3    C411067   1.555   0.990   1.816 -0.7892 -0.3912 -0.9840
  749TMC3    C511068   1.658   1.057   1.757 -0.2202  0.1192  0.3400
  749TMC3    C611069   1.789   1.041   1.794  0.2464 -0.9167 -0.6649
  749TMC3     C11070   1.499   0.781   1.927  0.0960 -0.3439 -0.2616
  749TMC3     O11071   1.552   0.671   1.941  0.4758 -0.0569 -0.2008
  749TMC3     H11072   1.731   0.803   2.032  1.4816  2.4621  0.9846
  749TMC3    H111073   1.452   1.000   1.784 -1.1016 -2.0709 -0.4983
  749TMC3    H211074   1.864   1.108   1.755  0.0849 -2.2506 -3.3073
  749TMC3    C711075   1.643   1.166   1.658  0.2161 -0.1298 -0.0329
  749TMC3    C811076   1.954   0.899   1.906 -0.5626  0.4312 -0.0908
  749TMC3    O111077   1.735   1.173   1.575  0.5261 -0.2502  0.6063
  749TMC3    O211078   2.027   0.913   1.810  0.0480 -1.0311 -0.9235
  750MPD2     C11079   1.359   2.125  11.845 -0.4559 -0.2164 -0.0287
  750MPD2    C111080   1.496   2.140  11.834 -0.6902  0.9101 -0.4437
  750MPD2    C211081   1.560   2.079  11.730 -0.0832  0.3589  0.5073
  750MPD2    C311082   1.487   2.026  11.626  1.0421  1.0204 -0.4974
  750MPD2    C411083   1.354   2.038  11.627 -0.0873 -0.5193  0.1008
  750MPD2    C511084   1.287   2.077  11.742 -0.2599 -0.3316 -0.4942
  750MPD2     H11085   1.668   2.073  11.733 -0.0383  0.6275 -0.8478
  750MPD2    H111086   1.302   2.000  11.539 -1.8744 -1.7973  1.7089
  750MPD2    H211087   1.307   2.159  11.934  0.3935  1.1854 -0.0672
  750MPD2    H311088   1.179   2.068  11.742 -0.1655 -1.3833  0.3646
  750MPD2     N11089   1.554   1.957  11.521  0.3973  0.0116  0.1077
  750MPD2    H511090   1.492   1.904  11.461  0.2873  1.9398 -1.4971
  750MPD2    N111091   1.573   2.206  11.932  0.0244  0.0331 -0.0638
  750MPD2    H711092   1.674   2.206  11.923  0.0302 -1.8169 -0.1444
  751TMC3    C111093   1.715   1.850  11.392  0.0194  0.2374 -0.5384
  751TMC3    C211094   1.639   1.736  11.401  0.2837  0.5890  0.0822
  751TMC3    C311095   1.682   1.628  11.324  0.2028  0.1147  0.6042
  751TMC3    C411096   1.821   1.863  11.306 -0.2228 -0.7214 -0.1547
  751TMC3    C511097   1.836   1.763  11.220  0.6422 -0.7521  0.6154
  751TMC3    C611098   1.776   1.641  11.232  0.4167 -0.1739 -0.9656
  751TMC3     C11099   1.684   1.962  11.480 -0.5703 -0.4257 -0.6674
  751TMC3     O11100   1.772   2.041  11.505 -0.5427 -0.3964  0.0447
  751TMC3     H11101   1.576   1.722  11.488 -0.4522 -3.0892 -1.0617
  751TMC3    H111102   1.878   1.956  11.303 -0.6239 -0.4240  1.3736
  751TMC3    H211103   1.799   1.552  11.174  1.0296 -1.1935  0.8482
  751TMC3    C711104   1.879   1.806  11.090  1.1985 -0.8457  0.1561
  751TMC3    C811105   1.590   1.519  11.291  0.3220 -0.2748 -1.0211
  751TMC3    O111106   1.951   1.905  11.095  0.1769 -0.1106 -0.0048
  751TMC3    O211107   1.620   1.427  11.214  0.3309 -0.2653  0.0846
  752TMC3    C111108   0.875   1.648  17.385 -0.2198  0.2849 -0.5536
  752TMC3    C211109   0.775   1.723  17.440 -0.0593  0.4249 -0.0788
  752TMC3    C311110   0.755   1.727  17.573  1.0688  0.0366 -0.2165
  752TMC3    C411111   0.941   1.556  17.468  0.5508  1.1179 -0.6991
  752TMC3    C511112   0.901   1.553  17.602 -0.3976 -0.0001  0.6947
  752TMC3    C611113   0.813   1.640  17.656 -0.4737 -0.2217 -0.4807
  752TMC3     C11114   0.905   1.652  17.238 -0.4458 -0.0986  0.1221
  752TMC3     O11115   0.968   1.557  17.194  0.4699 -0.0650  0.5940
  752TMC3     H11116   0.712   1.778  17.371 -0.5764  0.7447  0.6482
  752TMC3    H111117   1.028   1.503  17.432  2.5471  3.4656  0.6331
  752TMC3    H211118   0.798   1.634   0.076  3.8861 -1.2639  0.1009
  752TMC3    C711119   0.959   1.461   0.002 -0.1420 -0.3060  0.8343
  752TMC3    C811120   0.659   1.822  17.636  0.9256  0.3454 -0.6853
  752TMC3    O111121   0.984   1.489   0.119  0.2515  0.1325  0.1775
  752TMC3    O211122   0.636   1.808   0.070  0.1010  0.3666  0.4605
  753TMC3    C111123   2.751   3.175  13.539 -0.0262 -0.2147 -0.7871
  753TMC3    C211124   2.829   3.133  13.642  0.1160 -0.0405 -0.5939
  753TMC3    C311125   2.832   3.003  13.674  0.3927 -0.5120 -0.2284
  753TMC3    C411126   2.682   3.086  13.455 -1.0778 -0.0421 -0.3456
  753TMC3    C511127   2.697   2.951  13.494  0.1459  0.4135  0.5941
  753TMC3    C611128   2.785   2.904  13.596 -0.5414  0.2008  0.0691
  753TMC3     C11129   2.692   3.304  13.537  0.3667 -0.3402  0.5295
  753TMC3     O11130   2.581   3.322  13.487 -0.2123 -0.3092 -0.2916
  753TMC3     H11131   2.883   3.203  13.705  1.3420 -0.1557 -1.5300
  753TMC3    H111132   2.617   3.114  13.373  0.9630  2.0653 -1.2550
  753TMC3    H211133   2.775   2.803  13.632 -0.1426  0.2781  0.3837
  753TMC3    C711134   2.625   2.845  13.425  0.1844 -0.3622  0.0522
  753TMC3    C811135   2.903   2.958  13.791  0.3053  0.7743 -0.4817
  753TMC3    O111136   2.667   2.729  13.438 -0.7812 -0.0811  0.5609
  753TMC3    O211137   2.945   2.844  13.789  0.4481  0.0774  0.6803
  754MPD2     C11138   1.851   1.877  13.272 -0.2138  0.1481 -0.4211
  754MPD2    C111139   1.841   1.744  13.247  0.2260 -0.0155  0.1243
  754MPD2    C211140   1.712   1.696  13.224  0.3953  0.0899  0.1274
  754MPD2    C311141   1.606   1.774  13.250  0.1240 -0.2173 -0.3996
  754MPD2    C411142   1.620   1.906  13.281 -0.6090 -0.8242  0.1775
  754MPD2    C511143   1.744   1.961  13.288 -0.4480  0.1047  0.1450
  754MPD2     H11144   1.703   1.599  13.177 -2.4642  1.6271 -2.5000
  754MPD2    H111145   1.536   1.964  13.316 -0.0956 -0.5662  0.9746
  754MPD2    H211146   1.950   1.921  13.268 -0.5589  0.9753  0.0808
  754MPD2    H311147   1.758   2.068  13.298  0.8840  0.0029 -0.7212
  754MPD2     N11148   1.477   1.719  13.261 -0.7201  0.2647 -0.2941
  754MPD2    H511149   1.406   1.787  13.286 -0.3364  0.3623  0.5315
  754MPD2    N111150   1.962   1.672  13.229 -0.1284  0.2721  0.4061
  754MPD2    H711151   2.050   1.723  13.227  0.6993 -1.1339  1.0957
  755MPD2     C11152   0.772   2.213  13.333 -0.2873  0.9954 -0.1914
  755MPD2    C111153   0.717   2.088  13.363 -0.5402 -0.4972 -0.2523
  755MPD2    C211154   0.792   1.975  13.352 -0.6824 -0.2805 -0.0977
  755MPD2    C311155   0.929   1.975  13.316 -0.4267  0.0141  0.2024
  755MPD2    C411156   0.974   2.097  13.277  0.4400 -0.3777 -0.3732
  755MPD2    C511157   0.909   2.214  13.300  0.3183  0.1603 -0.1041
  755MPD2     H11158   0.742   1.882  13.379  0.2676 -0.3376  1.4802
  755MPD2    H111159   1.079   2.113  13.257  0.1938 -0.4344 -1.7393
  755MPD2    H211160   0.718   2.307  13.337 -2.5795 -0.3248 -0.4568
  755MPD2    H311161   0.962   2.307  13.284  0.6404 -0.2180 -1.2146
  755MPD2     N11162   1.014   1.861  13.304  0.4033 -0.1206  0.1266
  755MPD2    H511163   1.098   1.871  13.247  0.7474  0.3959  0.7266
  755MPD2    N111164   0.585   2.070  13.399  0.2436  0.4200 -0.6625
  755MPD2    H711165   0.555   1.975  13.418 -0.6281  0.4728 -1.7591
  756MPD2     C11166   2.012   2.588   9.480  0.4380 -0.0541 -0.2319
  756MPD2    C111167   1.980   2.490   9.578 -0.4806  0.3102 -0.1025
  756MPD2    C211168   1.863   2.423   9.568 -0.8806 -0.4416 -1.0042
  756MPD2    C311169   1.774   2.443   9.468  0.6028  0.7377 -0.4840
  756MPD2    C411170   1.805   2.535   9.368 -0.0878  0.3459 -0.2845
  756MPD2    C511171   1.927   2.600   9.373  0.4564 -0.2606  0.7384
  756MPD2     H11172   1.837   2.344   9.637 -0.4691 -0.3524 -0.7419
  756MPD2    H111173   1.737   2.548   9.285  0.7781 -0.6580 -1.1512
  756MPD2    H211174   2.108   2.638   9.482  1.3582 -1.8090 -0.2183
  756MPD2    H311175   1.958   2.676   9.302 -2.5016 -1.4820 -1.8297
  756MPD2     N11176   1.649   2.366   9.474 -0.2914 -0.4736  0.7445
  756MPD2    H511177   1.644   2.311   9.558  2.2097 -1.0463  0.5373
  756MPD2    N111178   2.049   2.459   9.689 -0.1031  0.2870 -0.0489
  756MPD2    H711179   2.010   2.398   9.760 -0.7373  0.6431 -0.0969
  757MPD2     C11180   1.281   1.687  10.032  0.2081  0.0895 -0.3107
  757MPD2    C111181   1.189   1.662   9.935  0.7670 -0.1679  0.3873
  757MPD2    C211182   1.174   1.751   9.829 -0.0245 -0.3581  0.0555
  757MPD2    C311183   1.263   1.855   9.821 -0.2389 -0.3948  0.1797
  757MPD2    C411184   1.352   1.881   9.924  0.7163  0.1443  0.1310
  757MPD2    C511185   1.364   1.793  10.025  0.4973  0.4686  0.1893
  757MPD2     H11186   1.106   1.745   9.745  0.8100  0.3076 -0.6734
  757MPD2    H111187   1.430   1.955   9.906  0.1676  1.1334  1.7338
  757MPD2    H211188   1.289   1.616  10.113 -0.0363  1.4917  0.9560
  757MPD2    H311189   1.435   1.809  10.105 -0.8525  0.0846  1.4740
  757MPD2     N11190   1.261   1.938   9.701  0.0886 -0.4044  0.1278
  757MPD2    H511191   1.188   1.927   9.631 -0.5524  0.9816  0.6021
  757MPD2    N111192   1.115   1.543   9.950 -0.5778  0.1548  0.1553
  757MPD2    H711193   1.132   1.482  10.030  0.8119  1.0285  0.5281
  758MPD2     C11194   1.273   1.216  16.060 -0.7065 -0.2129 -0.1236
  758MPD2    C111195   1.338   1.142  16.154  0.4449  0.4261 -0.3794
  758MPD2    C211196   1.277   1.113  16.275  0.4510 -0.2545  0.0919
  758MPD2    C311197   1.156   1.162  16.303 -0.4351  0.1428  1.0162
  758MPD2    C411198   1.093   1.237  16.206  0.0128  0.2888  0.0641
  758MPD2    C511199   1.152   1.269  16.091 -0.2761 -0.2077  0.3781
  758MPD2     H11200   1.334   1.060  16.351  0.4243 -0.8032 -0.2739
  758MPD2    H111201   0.986   1.254  16.218 -0.3778 -2.2118  0.0775
  758MPD2    H211202   1.305   1.234  15.958  0.3273  1.0899  0.4322
  758MPD2    H311203   1.110   1.334  16.014  4.8949  0.2643 -2.0737
  758MPD2     N11204   1.094   1.150  16.428  0.6347 -0.1861  0.6058
  758MPD2    H511205   1.006   1.199  16.438  1.1883  1.0932 -0.6966
  758MPD2    N111206   1.473   1.113  16.136  0.0957 -0.3480  0.1161
  758MPD2    H711207   1.519   1.155  16.055  0.3588  0.1616  0.5317
  759MPD2     C11208   1.452   4.327  10.657  0.2968  0.1660  0.3150
  759MPD2    C111209   1.480   4.244  10.549 -0.0700  0.1412  0.2937
  759MPD2    C211210   1.421   4.270  10.423 -0.5761  0.1434  0.1748
  759MPD2    C311211   1.356   4.387  10.401 -0.0094  0.0121 -0.6750
  759MPD2    C411212   1.343   4.471  10.505 -0.2977 -0.2358 -0.2841
  759MPD2    C511213   1.385   4.443  10.631  0.2699 -0.3344  0.5818
  759MPD2     H11214   1.425   4.192  10.348 -0.2201 -0.1319  0.4757
  759MPD2    H111215   1.293   4.567  10.506 -0.2134 -0.1934 -0.0042
  759MPD2    H211216   1.487   4.304  10.757 -3.9079  3.7447  2.5702
  759MPD2    H311217   1.365   4.517  10.708 -1.4077 -0.3926  0.2066
  759MPD2     N11218   1.298   4.412  10.273  0.4372  0.7517  0.2437
  759MPD2    H511219   1.322   4.338  10.207  1.2898 -0.4696  1.9274
  759MPD2    N111220   1.525   4.114  10.576  0.1368  0.3281 -0.3231
  759MPD2    H711221   1.506   4.085  10.672 -0.2991 -0.3364 -0.6064
  760MPD2     C11222   0.267   1.461  11.882  0.4776  0.1432 -0.0281
  760MPD2    C111223   0.397   1.453  11.847 -0.0725 -0.1547  0.0652
  760MPD2    C211224   0.469   1.344  11.888  0.0689 -0.0270 -0.6931
  760MPD2    C311225   0.400   1.237  11.944 -0.1340 -0.5828  0.1390
  760MPD2    C411226   0.270   1.246  11.973  0.1368 -0.5241  0.4332
  760MPD2    C511227   0.201   1.360  11.947  0.1834  0.2228  0.0009
  760MPD2     H11228   0.576   1.348  11.868  0.3730 -0.0185  0.9528
  760MPD2    H111229   0.215   1.163  12.016 -1.6534 -0.6504 -2.1526
  760MPD2    H211230   0.211   1.554  11.883 -2.0850 -1.3903 -0.7825
  760MPD2    H311231   0.100   1.374  11.985 -0.6393 -3.0691 -0.9076
  760MPD2     N11232   0.463   1.110  11.966  1.0378 -0.0296  0.5304
  760MPD2    H511233   0.419   1.058  12.041 -0.8546 -1.1484 -1.3820
  760MPD2    N111234   0.463   1.561  11.790  0.0530 -0.1028  0.0089
  760MPD2    H711235   0.564   1.563  11.788  0.0188 -0.3693 -2.0210
  761MPD2     C11236   1.106   1.344  11.343  0.3764  0.5281  0.5694
  761MPD2    C111237   1.214   1.302  11.268 -0.4175  0.0050  0.2378
  761MPD2    C211238   1.333   1.369  11.275  0.1693 -0.3636 -0.1717
  761MPD2    C311239   1.346   1.482  11.355 -0.2151  0.6858 -0.0350
  761MPD2    C411240   1.233   1.519  11.428 -0.0907 -0.5460 -0.2831
  761MPD2    C511241   1.118   1.448  11.426 -0.3781 -0.7134 -0.0582
  761MPD2     H11242   1.419   1.328  11.223 -0.9085 -1.4360 -1.1054
  761MPD2    H111243   1.248   1.600  11.499 -0.6076 -0.1833 -0.5844
  761MPD2    H211244   1.011   1.293  11.335  1.1311 -0.4483 -1.9968
  761MPD2    H311245   1.031   1.463  11.489  1.2785  0.1954  2.0445
  761MPD2     N11246   1.471   1.550  11.356  0.6997 -0.4868  0.2388
  761MPD2    H511247   1.459   1.648  11.382 -3.0290 -0.4077 -1.7053
  761MPD2    N111248   1.186   1.196  11.176 -0.1318 -0.0930 -0.0931
  761MPD2    H711249   1.110   1.133  11.199 -1.7379  1.6961 -0.4842
  762MPD2     C11250   1.705   1.244  10.885  0.0288  0.0293  0.2454
  762MPD2    C111251   1.685   1.117  10.821  0.3463 -0.5476 -0.1343
  762MPD2    C211252   1.782   1.070  10.738  0.1388 -0.3517 -0.7388
  762MPD2    C311253   1.891   1.152  10.721 -0.5937 -0.0050 -0.3223
  762MPD2    C411254   1.906   1.281  10.781 -0.0960 -0.1829 -0.1575
  762MPD2    C511255   1.811   1.325  10.863  0.4088  0.1905  0.2121
  762MPD2     H11256   1.771   0.974  10.689 -3.0782 -0.7522  0.7735
  762MPD2    H111257   1.988   1.348  10.757  0.0170 -0.6223 -0.9864
  762MPD2    H211258   1.637   1.280  10.960 -0.9611  0.4810 -0.8762
  762MPD2    H311259   1.819   1.415  10.923 -0.3029  1.5830 -1.7697
  762MPD2     N11260   1.998   1.113  10.640 -0.2527  0.1255 -0.3394
  762MPD2    H511261   2.070   1.183  10.623 -0.3269  0.0600 -0.9218
  762MPD2    N111262   1.560   1.056  10.859 -0.4522  1.0690 -0.1928
  762MPD2    H711263   1.487   1.100  10.914 -1.1127 -1.9545  1.2935
  763MPD2     C11264   3.761   1.682  16.181  0.0218  0.2974  0.1386
  763MPD2    C111265   3.654   1.716  16.099 -0.2460  0.0166  0.2835
  763MPD2    C211266   3.597   1.838  16.128  0.3780  0.0248  0.1688
  763MPD2    C311267   3.647   1.940  16.211 -0.2491 -0.0604 -0.2060
  763MPD2    C411268   3.768   1.907  16.273  0.8250  0.2203 -0.2530
  763MPD2    C511269   3.822   1.779  16.262  0.5881  0.5797  0.1378
  763MPD2     H11270   3.504   1.860  16.077  0.4526 -0.1450 -0.0385
  763MPD2    H111271   3.816   1.980  16.337 -1.8262 -0.1645  2.1375
  763MPD2    H211272   3.806   1.584  16.169  1.3618  1.2022 -2.3753
  763MPD2    H311273   3.908   1.756  16.324  0.2263  0.8622  0.7435
  763MPD2     N11274   3.583   2.066  16.226 -0.6358 -0.2515 -0.1633
  763MPD2    H511275   3.632   2.134  16.282 -2.2875  1.2288 -0.5400
  763MPD2    N111276   3.603   1.632  15.998 -0.3838  0.1260 -0.5130
  763MPD2    H711277   3.534   1.672  15.935 -1.2655  0.0477  0.3977
  764MPD2     C11278   1.536   2.708  17.624  0.1120 -0.4574 -0.2836
  764MPD2    C111279   1.516   2.583  17.562  0.0333  0.4280  0.6389
  764MPD2    C211280   1.601   2.478  17.599 -0.3752 -0.1284 -0.1363
  764MPD2    C311281   1.690   2.487   0.011  0.3181 -0.0912  0.1890
  764MPD2    C411282   1.708   2.608   0.076 -0.2606 -0.1349 -0.0531
  764MPD2    C511283   1.624   2.716   0.045  0.6541 -0.8222  0.1455
  764MPD2     H11284   1.582   2.381  17.555 -1.1636 -0.8506  1.7951
  764MPD2    H111285   1.768   2.622   0.165 -1.2381 -1.0848  0.7694
  764MPD2    H211286   1.464   2.787  17.604 -0.9050 -0.9800  1.3070
  764MPD2    H311287   1.648   2.804   0.103  1.3211 -2.5060  2.4127
  764MPD2     N11288   1.745   2.361   0.053  0.2375 -0.6210 -0.5176
  764MPD2    H511289   1.718   2.284  17.679  2.3844 -2.0890  0.4312
  764MPD2    N111290   1.406   2.553  17.469 -0.3681  0.2431 -0.4568
  764MPD2    H711291   1.382   2.457  17.445 -2.7577  0.7071  0.0514
  765MPD2     C11292   0.540   0.704  15.734  0.7294  0.3372  0.1970
  765MPD2    C111293   0.624   0.801  15.785 -0.5276  0.2986  0.0623
  765MPD2    C211294   0.755   0.757  15.801  0.4695  0.0734  0.6720
  765MPD2    C311295   0.800   0.636  15.757 -0.3415 -0.2139  0.1279
  765MPD2    C411296   0.712   0.537  15.714  0.2284 -0.0501  0.0161
  765MPD2    C511297   0.579   0.573  15.706 -0.8703 -0.2754 -0.1802
  765MPD2     H11298   0.831   0.822  15.842  0.1387  0.5803  0.4926
  765MPD2    H111299   0.743   0.435  15.696 -0.8223 -0.1632 -1.1038
  765MPD2    H211300   0.435   0.729  15.720  0.5907  0.1519  0.8962
  765MPD2    H311301   0.511   0.492  15.682 -1.1698 -0.0252 -0.1834
  765MPD2     N11302   0.934   0.603  15.779 -0.5616  0.3024 -0.6176
  765MPD2    H511303   0.988   0.681  15.814 -1.3544  0.9911 -0.9198
  765MPD2    N111304   0.583   0.933  15.807 -0.1619  0.0228 -0.1544
  765MPD2    H711305   0.491   0.952  15.768 -0.6008  1.4410  1.5559
  766MPD2     C11306   0.275   1.258  15.316  0.2166  0.2139 -0.3945
  766MPD2    C111307   0.388   1.207  15.367 -0.5623 -0.6169 -0.3995
  766MPD2    C211308   0.472   1.125  15.290 -0.0690  0.0607  0.5199
  766MPD2    C311309   0.442   1.098  15.160 -0.3144  1.1011 -0.8697
  766MPD2    C411310   0.339   1.166  15.105 -0.3616 -0.6693  0.5458
  766MPD2    C511311   0.254   1.245  15.180  0.2697 -0.2604 -0.3330
  766MPD2     H11312   0.553   1.074  15.341  1.1964  0.6367 -0.9112
  766MPD2    H111313   0.311   1.148  15.002  1.2734 -1.3090  0.2223
  766MPD2    H211314   0.203   1.316  15.373  1.6184  2.2924 -0.7520
  766MPD2    H311315   0.174   1.300  15.131  0.1368  0.8135  1.0897
  766MPD2     N11316   0.520   1.019  15.071  0.1852 -0.6251 -0.3705
  766MPD2    H511317   0.483   1.019  14.976 -0.6597  1.8234 -0.0296
  766MPD2    N111318   0.433   1.227  15.495  0.5164  0.6129  0.1504
  766MPD2    H711319   0.519   1.176  15.516  0.0356 -0.3028 -0.0997
  767MPD2     C11320   0.321   1.447  14.833  0.7127 -0.3833 -0.3273
  767MPD2    C111321   0.434   1.376  14.865  0.4955  0.1802  0.4239
  767MPD2    C211322   0.464   1.268  14.793 -0.2860 -0.1954  0.3741
  767MPD2    C311323   0.384   1.230  14.687 -0.6521  0.1114  0.2637
  767MPD2    C411324   0.264   1.294  14.664  0.4492  0.0522 -0.2844
  767MPD2    C511325   0.235   1.402  14.737 -0.0550 -0.3664 -0.1280
  767MPD2     H11326   0.564   1.225  14.803 -0.5691 -0.8078  0.5881
  767MPD2    H111327   0.190   1.259  14.593  0.8609 -1.3030 -0.0480
  767MPD2    H211328   0.287   1.534  14.887  1.7231 -0.1932  0.0021
  767MPD2    H311329   0.136   1.445  14.728 -0.0741 -0.9997 -3.1417
  767MPD2     N11330   0.429   1.121  14.605  0.5335 -0.8492  0.3482
  767MPD2    H511331   0.519   1.079  14.625  0.9114 -1.0018 -1.7192
  767MPD2    N111332   0.512   1.428  14.969  0.3383  0.0802  0.3931
  767MPD2    H711333   0.477   1.512  15.013  1.4173  0.4071  0.6258
  768MPD2     C11334   1.337   3.751  11.235 -0.0255  0.2639 -0.3889
  768MPD2    C111335   1.391   3.877  11.217 -0.2369 -0.3923 -0.5465
  768MPD2    C211336   1.520   3.900  11.265  0.4155  0.5656 -0.3524
  768MPD2    C311337   1.590   3.794  11.327  0.7204 -0.7615 -0.1343
  768MPD2    C411338   1.538   3.673  11.341  0.1106  0.0585 -0.3832
  768MPD2    C511339   1.408   3.651  11.305  0.1050  0.2339  0.1494
  768MPD2     H11340   1.562   3.998  11.248 -1.1981  1.1064 -1.2165
  768MPD2    H111341   1.587   3.590  11.391 -2.6215 -2.3142 -1.6262
  768MPD2    H211342   1.236   3.724  11.208  1.0247 -4.9339  0.7736
  768MPD2    H311343   1.364   3.553  11.320 -0.0470  0.2619 -0.1163
  768MPD2     N11344   1.722   3.818  11.378  0.8050 -0.1969 -0.0081
  768MPD2    H511345   1.762   3.744  11.434 -1.3371 -1.6456 -0.3910
  768MPD2    N111346   1.318   3.988  11.169  0.1194 -0.1262 -0.1761
  768MPD2    H711347   1.365   4.078  11.174 -0.9996  0.4435 -0.0038
  769MPD2     C11348   2.532   2.441  14.865  0.4411 -0.4862 -0.7938
  769MPD2    C111349   2.402   2.424  14.917  0.4983  0.5117 -0.4504
  769MPD2    C211350   2.380   2.473  15.045  0.3749 -0.6363 -0.4805
  769MPD2    C311351   2.467   2.559  15.100  0.0730 -0.1615 -0.4458
  769MPD2    C411352   2.585   2.586  15.044 -0.1496  0.2056 -0.0761
  769MPD2    C511353   2.618   2.531  14.923 -0.7234  0.2561 -0.4707
  769MPD2     H11354   2.303   2.433  15.110  2.0810 -2.3691  0.4701
  769MPD2    H111355   2.668   2.635  15.093 -1.5445  1.7109  0.8065
  769MPD2    H211356   2.559   2.413  14.764 -1.2115  0.2627 -1.4567
  769MPD2    H311357   2.715   2.553  14.880  0.8450 -0.0081  2.9078
  769MPD2     N11358   2.425   2.603  15.227 -0.6364 -0.0275 -0.3716
  769MPD2    H511359   2.337   2.574  15.269  0.2183 -0.1961  1.3339
  769MPD2    N111360   2.319   2.338  14.842 -0.5732  0.0197  0.4456
  769MPD2    H711361   2.355   2.302  14.754 -1.1065 -0.1255  0.2857
  770MPD2     C11362   1.607   1.738  14.817  0.4774  0.3118  0.5971
  770MPD2    C111363   1.703   1.789  14.900 -0.1269  0.0434  0.5172
  770MPD2    C211364   1.767   1.905  14.868 -0.0104 -0.2559 -0.2833
  770MPD2    C311365   1.728   1.981  14.762  0.2651 -0.3883 -0.0741
  770MPD2    C411366   1.613   1.944  14.696 -0.6646 -0.6168 -0.1332
  770MPD2    C511367   1.562   1.819  14.716  0.4982  0.5780 -0.3882
  770MPD2     H11368   1.860   1.938  14.911 -1.4423  0.1672  2.5080
  770MPD2    H111369   1.580   2.003  14.611 -0.9725 -1.2826 -0.4769
  770MPD2    H211370   1.557   1.645  14.841  0.2151  0.2756 -0.1036
  770MPD2    H311371   1.489   1.782  14.645  0.6758 -0.2074 -0.1562
  770MPD2     N11372   1.804   2.100  14.744 -0.6209 -0.4828 -0.1751
  770MPD2    H511373   1.877   2.120  14.812 -0.7683 -1.0332  0.1424
  770MPD2    N111374   1.753   1.704  15.001 -0.8659 -0.5598 -0.0602
  770MPD2    H711375   1.701   1.618  15.013  0.0510 -0.8778  1.5647
  771MPD2     C11376   2.835   0.216  13.957 -0.0485  0.1960 -0.1810
  771MPD2    C111377   2.889   0.308  13.869 -0.7602 -0.3734  0.5227
  771MPD2    C211378   2.911   0.273  13.738  0.0554 -0.5886  0.0917
  771MPD2    C311379   2.852   0.153  13.692 -0.4814  0.0882  0.7926
  771MPD2    C411380   2.787   0.068  13.775  0.3332  0.1932  0.6578
  771MPD2    C511381   2.786   0.095  13.909 -0.1976 -0.2874 -0.2367
  771MPD2     H11382   2.955   0.340  13.665  0.4243 -1.2502 -0.2908
  771MPD2    H111383   2.757   4.689  13.747 -0.0199  0.5196 -0.1233
  771MPD2    H211384   2.826   0.233  14.063 -0.5457  0.7929 -0.3202
  771MPD2    H311385   2.749   0.028  13.985 -2.1797 -0.5034 -1.3987
  771MPD2     N11386   2.856   0.137  13.553  0.4091  0.2551 -0.0502
  771MPD2    H511387   2.920   0.197  13.501 -1.6054  1.6762 -0.8639
  771MPD2    N111388   2.939   0.434  13.915  0.0309 -0.4864  0.2581
  771MPD2    H711389   2.977   0.493  13.842 -1.0102  0.0400  0.1432
  772MPD2     C11390   2.639   1.095  14.389  0.0756  0.2646  0.3477
  772MPD2    C111391   2.604   1.002  14.291  0.2196  1.2617  0.3451
  772MPD2    C211392   2.468   0.973  14.274  0.1430 -0.5998  0.3255
  772MPD2    C311393   2.374   1.046  14.334  0.0371  0.1053  0.5695
  772MPD2    C411394   2.404   1.138  14.431  0.3226 -0.2327 -0.7261
  772MPD2    C511395   2.544   1.157  14.456 -0.6836 -0.1753  0.0329
  772MPD2     H11396   2.451   0.891  14.206 -0.9879 -0.4707  0.4594
  772MPD2    H111397   2.329   1.192  14.487 -2.5895 -2.6030 -2.2956
  772MPD2    H211398   2.740   1.124  14.414 -0.0399 -0.5663  1.7495
  772MPD2    H311399   2.573   1.225  14.535 -0.1797 -1.4417  0.9476
  772MPD2     N11400   2.239   1.027  14.311  0.6188  0.3087 -0.4900
  772MPD2    H511401   2.176   1.078  14.373 -0.2446 -1.5102  0.1453
  772MPD2    N111402   2.698   0.921  14.211 -0.2259 -0.0602  0.0860
  772MPD2    H711403   2.660   0.845  14.155  0.3524 -0.8562  0.7744
  773MPD2     C11404   2.584   1.537   0.574  0.4082  0.3299  0.0466
  773MPD2    C111405   2.556   1.497   0.442 -0.0590 -0.4833 -0.0407
  773MPD2    C211406   2.650   1.417   0.381  0.3156 -0.3164  0.0076
  773MPD2    C311407   2.773   1.390   0.432  0.4512  0.1536 -0.1476
  773MPD2    C411408   2.798   1.430   0.560 -0.0614  0.5019  0.7888
  773MPD2    C511409   2.704   1.503   0.632  0.2775  0.2365 -0.4631
  773MPD2     H11410   2.631   1.369   0.286 -2.4681  1.7163 -0.4498
  773MPD2    H111411   2.893   1.418   0.611 -0.1254 -2.4596  0.1585
  773MPD2    H211412   2.518   1.594   0.638 -0.3972 -1.1077  0.4956
  773MPD2    H311413   2.730   1.540   0.730 -0.0433 -1.0911  0.1253
  773MPD2     N11414   2.862   1.319   0.352 -0.5086 -0.6022  0.7590
  773MPD2    H511415   2.841   1.310   0.253 -2.4871  0.7975  1.0422
  773MPD2    N111416   2.441   1.530   0.365  0.2462  0.1702 -0.1236
  773MPD2    H711417   2.444   1.499   0.269  0.2813 -0.5018  0.0874
  774MPD2     C11418   1.323   0.787  13.095  0.1231 -0.5865 -0.0949
  774MPD2    C111419   1.363   0.783  13.227  0.3386 -0.9456 -0.5544
  774MPD2    C211420   1.465   0.867  13.267 -0.5729  0.2787  0.1525
  774MPD2    C311421   1.514   0.967  13.192 -0.1250 -0.2522 -0.1190
  774MPD2    C411422   1.463   0.981  13.068 -0.1488  0.8744  0.2506
  774MPD2    C511423   1.379   0.881  13.018  0.5602 -0.1682  0.0648
  774MPD2     H11424   1.498   0.854  13.369 -2.0396 -0.8897  0.4754
  774MPD2    H111425   1.498   1.061  13.003  1.0532 -0.8456 -1.1808
  774MPD2    H211426   1.253   0.709  13.064 -0.3744 -1.0816  2.2626
  774MPD2    H311427   1.346   0.884  12.915  1.4627  2.5154 -0.1530
  774MPD2     N11428   1.616   1.050  13.248 -0.1117  0.6620 -0.0751
  774MPD2    H511429   1.639   1.028  13.344 -0.8240  0.8694  0.1460
  774MPD2    N111430   1.316   0.682  13.318  0.6699  0.2541  0.0703
  774MPD2    H711431   1.354   0.686  13.412 -2.8822  0.4463  1.4954
  775MPD2     C11432   3.016   2.284  15.664  0.3765  0.7792  0.0453
  775MPD2    C111433   2.961   2.397  15.714  0.9338  0.0926 -0.4952
  775MPD2    C211434   3.032   2.516  15.689 -0.1503  0.8758  0.4450
  775MPD2    C311435   3.159   2.515  15.634 -0.2120 -0.2426 -0.1115
  775MPD2    C411436   3.203   2.396  15.583 -0.3995 -1.0353 -1.5486
  775MPD2    C511437   3.119   2.286  15.579 -0.3970  0.1041 -0.2112
  775MPD2     H11438   2.986   2.608  15.724 -2.5056  0.3114 -1.1919
  775MPD2    H111439   3.299   2.380  15.536  1.0982  2.4462  0.3675
  775MPD2    H211440   2.974   2.191  15.701 -0.6617  0.7679 -1.1621
  775MPD2    H311441   3.153   2.189  15.546 -1.3513 -1.1218  2.3838
  775MPD2     N11442   3.232   2.633  15.617  0.0359  0.3659 -0.0603
  775MPD2    H511443   3.325   2.632  15.576 -0.2820  1.5075 -0.8185
  775MPD2    N111444   2.839   2.392  15.781  0.2888 -0.2267  0.5444
  775MPD2    H711445   2.806   2.297  15.798  0.7450 -0.2746  1.1745
  776MPD2     C11446   2.096   2.844  12.325 -0.3284 -0.2941  0.5366
  776MPD2    C111447   1.976   2.840  12.256  0.5056 -0.1934  0.1006
  776MPD2    C211448   1.929   2.957  12.204  0.4172 -0.5950  0.0041
  776MPD2    C311449   2.016   3.068  12.184 -0.8085  0.3185  0.6294
  776MPD2    C411450   2.134   3.065  12.251  0.7591 -0.2217  0.3945
  776MPD2    C511451   2.171   2.960  12.323  0.1391 -1.1386  0.4103
  776MPD2     H11452   1.828   2.967  12.166 -1.1047 -2.3349  3.5505
  776MPD2    H111453   2.202   3.149  12.256  0.0048  0.5237 -1.7789
  776MPD2    H211454   2.140   2.760  12.378  0.1094 -0.8113 -0.6420
  776MPD2    H311455   2.267   2.958  12.372  1.6737  2.5286 -2.4432
  776MPD2     N11456   1.978   3.182  12.108  1.1162 -0.4475 -0.5994
  776MPD2    H511457   2.031   3.267  12.124 -1.6652  1.7121 -2.7493
  776MPD2    N111458   1.906   2.709  12.255  0.2016 -0.4268 -0.3471
  776MPD2    H711459   1.963   2.627  12.274 -0.8622 -0.9732  0.5835
  777MPD2     C11460   2.348   0.610   1.157  0.3455  0.1864 -1.5057
  777MPD2    C111461   2.451   0.528   1.190  0.4841  0.0043  0.2213
  777MPD2    C211462   2.495   0.426   1.106 -0.0876 -0.1366 -0.0518
  777MPD2    C311463   2.430   0.408   0.988 -0.4441 -0.2131  0.2474
  777MPD2    C411464   2.316   0.481   0.959 -0.4127 -0.3681  0.7967
  777MPD2    C511465   2.278   0.586   1.038  0.0822 -0.4835  0.1466
  777MPD2     H11466   2.562   0.347   1.139 -0.8330 -0.8212 -0.1667
  777MPD2    H111467   2.258   0.476   0.868 -0.6458  1.7254  0.8287
  777MPD2    H211468   2.318   0.694   1.218  0.6446 -0.5441 -0.3512
  777MPD2    H311469   2.199   0.654   1.011 -0.4429 -0.8335  0.8200
  777MPD2     N11470   2.472   0.303   0.909  0.6476 -0.2066  0.0047
  777MPD2    H511471   2.548   0.252   0.953  0.7556 -0.1580 -0.1254
  777MPD2    N111472   2.492   0.532   1.322  0.2567 -0.0229  0.1424
  777MPD2    H711473   2.438   0.593   1.382 -0.3751  0.6256 -1.0944
  778MPD2     C11474   3.455   1.007  15.328 -0.6264 -0.3916 -0.1003
  778MPD2    C111475   3.439   0.887  15.268  0.4949  0.6376  0.4003
  778MPD2    C211476   3.473   0.872  15.132 -0.2434 -0.2818  0.2733
  778MPD2    C311477   3.499   0.991  15.054 -0.4579  0.5130  0.3725
  778MPD2    C411478   3.492   1.114  15.118 -0.1486 -0.7130 -0.9049
  778MPD2    C511479   3.473   1.120  15.254  0.6645 -0.2783  0.2750
  778MPD2     H11480   3.477   0.776  15.081  0.0292  0.2782 -0.7606
  778MPD2    H111481   3.493   1.207  15.062  0.3099 -0.6626 -0.8124
  778MPD2    H211482   3.447   1.008  15.437 -1.0049  3.2617 -0.1535
  778MPD2    H311483   3.486   1.215  15.306 -1.0868 -0.6104  1.3003
  778MPD2     N11484   3.522   0.981  14.915  0.1248  0.3424 -0.9991
  778MPD2    H511485   3.532   0.888  14.876 -1.5727 -0.4312  0.3697
  778MPD2    N111486   3.411   0.762  15.339 -0.7584  1.5555  0.3951
  778MPD2    H711487   3.409   0.678  15.282 -1.1580  2.9084 -1.6299
  779MPD2     C11488   2.694   4.054  14.408 -0.8019 -0.2515  0.7039
  779MPD2    C111489   2.809   4.055  14.477 -0.3008 -0.0244  0.7706
  779MPD2    C211490   2.870   4.176  14.509 -0.3841 -0.3959 -0.3641
  779MPD2    C311491   2.818   4.299  14.472 -0.1102  0.5860  0.2921
  779MPD2    C411492   2.688   4.296  14.415 -0.5346  0.0378 -0.9077
  779MPD2    C511493   2.629   4.173  14.391 -0.0130  0.3285 -0.3907
  779MPD2     H11494   2.963   4.178  14.564 -1.5895  1.0245  1.6367
  779MPD2    H111495   2.625   4.381  14.390 -0.3526  0.8411  1.3217
  779MPD2    H211496   2.647   3.965  14.367  0.4994 -0.7645  0.3053
  779MPD2    H311497   2.529   4.171  14.349 -0.4408  0.9867  0.6064
  779MPD2     N11498   2.882   4.418  14.510  0.0136  0.4165  0.7151
  779MPD2    H511499   2.977   4.421  14.546  0.9275 -0.2585 -1.6477
  779MPD2    N111500   2.890   3.941  14.489 -0.3285 -0.3794  0.1036
  779MPD2    H711501   2.988   3.950  14.514  0.0792 -0.3527 -1.5471
  780MPD2     C11502   1.830   3.796   1.351 -0.1175  0.4460  0.4583
  780MPD2    C111503   1.946   3.724   1.329 -0.5165  0.0391 -0.2951
  780MPD2    C211504   2.028   3.740   1.212  0.1959 -0.5013  0.0009
  780MPD2    C311505   1.991   3.837   1.116  0.6058 -0.3145  0.1572
  780MPD2    C411506   1.879   3.913   1.142  0.0557 -0.2544  0.1085
  780MPD2    C511507   1.798   3.891   1.253  0.1204 -0.5448  0.1790
  780MPD2     H11508   2.111   3.673   1.196 -0.4715 -1.2368 -0.3731
  780MPD2    H111509   1.843   3.996   1.082 -0.8975  0.3935  1.5935
  780MPD2    H211510   1.764   3.774   1.435 -0.3708  1.7161  0.6016
  780MPD2    H311511   1.710   3.952   1.269  1.7706  1.3454  2.0974
  780MPD2     N11512   2.062   3.861   0.995  0.0413  0.3394 -0.6703
  780MPD2    H511513   2.038   3.932   0.927 -0.3750 -0.7247 -1.6531
  780MPD2    N111514   1.970   3.618   1.423  0.0108 -0.4419 -0.4445
  780MPD2    H711515   1.898   3.604   1.493  2.9752 -3.4779  1.9519
  781MPD2     C11516   4.158   0.781  11.680 -0.3032  0.2629  0.5837
  781MPD2    C111517   4.253   0.749  11.777 -0.6602  0.4571  0.6103
  781MPD2    C211518   4.385   0.752  11.735  0.2295  0.0002 -0.0769
  781MPD2    C311519   4.427   0.754  11.605  0.1699 -0.0667 -0.7648
  781MPD2    C411520   4.325   0.772  11.511 -0.2260  0.4949  0.1347
  781MPD2    C511521   4.193   0.785  11.550 -0.5587 -0.5007 -0.4257
  781MPD2     H11522   4.456   0.731  11.814  0.6339  0.4579 -0.3214
  781MPD2    H111523   4.344   0.775  11.405 -1.3873  1.5964 -0.0469
  781MPD2    H211524   4.052   0.788  11.703 -0.7971  0.2569 -1.6300
  781MPD2    H311525   4.113   0.796  11.479 -0.6599 -0.5559 -0.3209
  781MPD2     N11526   4.553   0.749  11.553 -0.0837 -0.1388  0.9676
  781MPD2    H511527   4.559   0.771  11.454  4.2847 -1.4228  0.9445
  781MPD2    N111528   4.220   0.731  11.918  0.1221 -0.3966  1.0478
  781MPD2    H711529   4.288   0.696  11.984  0.9340 -1.6937 -0.4845
  782MPD2     C11530   2.364   2.473  11.016 -0.2216  0.2654  0.7199
  782MPD2    C111531   2.461   2.395  10.948 -0.1803  0.3079  0.8030
  782MPD2    C211532   2.590   2.398  10.996  0.0293  0.4716 -0.6018
  782MPD2    C311533   2.626   2.455  11.115  0.3678  0.0359 -0.4488
  782MPD2    C411534   2.533   2.532  11.173 -0.3809  0.4485  0.2509
  782MPD2    C511535   2.408   2.546  11.121  0.6330 -0.4487 -0.0894
  782MPD2     H11536   2.666   2.348  10.938  0.9324 -1.4163  2.1786
  782MPD2    H111537   2.560   2.588  11.262 -4.9274  0.9952  1.2934
  782MPD2    H211538   2.264   2.488  10.979  0.3573  2.9548  0.2052
  782MPD2    H311539   2.345   2.616  11.175  1.9244  1.6701 -1.2897
  782MPD2     N11540   2.754   2.433  11.171 -0.5138 -0.4417  0.6890
  782MPD2    H511541   2.816   2.383  11.107 -1.7316  0.8690 -1.5348
  782MPD2    N111542   2.422   2.307  10.840 -0.1393 -0.1898 -0.1230
  782MPD2    H711543   2.332   2.326  10.798  1.2959 -0.3535 -3.2318
  783MPD2     C11544   1.849   1.648  10.756  0.6817 -0.1811 -0.2882
  783MPD2    C111545   1.891   1.736  10.847  0.4326 -0.1674 -0.0394
  783MPD2    C211546   1.989   1.823  10.811 -0.1047  0.0962 -0.2176
  783MPD2    C311547   2.049   1.820  10.690 -0.4675  0.2454 -0.1027
  783MPD2    C411548   2.006   1.731  10.596  0.0669 -0.3658  0.9929
  783MPD2    C511549   1.910   1.646  10.632  0.6088 -0.1016  0.1927
  783MPD2     H11550   2.019   1.895  10.886 -0.2076 -1.5845  1.4307
  783MPD2    H111551   2.042   1.729  10.493 -0.6507  0.1064  0.7313
  783MPD2    H211552   1.770   1.578  10.782 -1.4087  1.1886 -2.9249
  783MPD2    H311553   1.866   1.586  10.553 -2.8975  1.5437  0.8733
  783MPD2     N11554   2.153   1.915  10.655 -0.0198  0.2924 -0.8298
  783MPD2    H511555   2.187   1.968  10.734 -1.2553 -0.4175  0.1753
  783MPD2    N111556   1.839   1.729  10.984  0.3254  0.0828 -0.2061
  783MPD2    H711557   1.775   1.657  11.016  0.6804 -0.0516  0.2045
  784MPD2     C11558   0.173   2.645   1.025 -0.5135  0.1829  0.5438
  784MPD2    C111559   0.089   2.563   1.102  0.4540  0.6328  0.5759
  784MPD2    C211560   4.679   2.553   1.063 -0.6204  0.0038  0.3990
  784MPD2    C311561   4.627   2.608   0.945 -0.3624 -0.0563  0.4753
  784MPD2    C411562   4.718   2.681   0.873  0.5572 -0.2646 -0.6219
  784MPD2    C511563   0.124   2.706   0.915 -0.2244  0.1795 -0.2413
  784MPD2     H11564   4.613   2.493   1.124 -0.8207  2.2544  2.3832
  784MPD2    H111565   4.693   2.730   0.779  0.0847  1.0717  0.2063
  784MPD2    H211566   0.276   2.660   1.055 -0.7334  0.4903  1.1403
  784MPD2    H311567   0.190   2.760   0.848  0.3371  0.1241  0.2738
  784MPD2     N11568   4.493   2.591   0.915  0.8254 -0.7519  0.0413
  784MPD2    H511569   4.441   2.534   0.981  0.1970  1.8729  1.8237
  784MPD2    N111570   0.143   2.492   1.216 -0.1050 -0.4352 -0.0732
  784MPD2    H711571   0.065   2.453   1.268  0.5592 -0.1391  1.1510
  785MPD2     C11572   0.469   4.402  10.606 -0.4117  0.4095  0.0926
  785MPD2    C111573   0.346   4.405  10.668 -0.3438  0.2062  0.6617
  785MPD2    C211574   0.253   4.306  10.622 -0.3719  0.7396 -0.0779
  785MPD2    C311575   0.275   4.220  10.515  0.6217 -0.4624  0.0091
  785MPD2    C411576   0.397   4.225  10.453 -0.0136  0.0026 -0.5054
  785MPD2    C511577   0.492   4.319  10.501  0.0896 -0.2271 -0.0268
  785MPD2     H11578   0.153   4.298  10.665  0.2518 -2.9920  0.7252
  785MPD2    H111579   0.422   4.168  10.364  1.3018  0.0777 -0.1887
  785MPD2    H211580   0.546   4.478  10.618  0.4209 -0.5410  0.8079
  785MPD2    H311581   0.589   4.314  10.452  0.3155 -0.3577  0.4423
  785MPD2     N11582   0.168   4.138  10.475 -0.0019 -0.5347  0.2167
  785MPD2    H511583   0.079   4.162  10.517 -0.0274  0.0796 -0.1919
  785MPD2    N111584   0.305   4.493  10.770 -0.1666  0.4078 -0.3170
  785MPD2    H711585   0.208   4.488  10.801  0.2115 -1.4215  0.5722
  786MPD2     C11586   3.256   3.315  14.818  0.7946 -0.4754 -0.4114
  786MPD2    C111587   3.380   3.284  14.768  0.2978  0.8622 -0.3263
  786MPD2    C211588   3.488   3.350  14.824 -0.2757  0.1210 -0.3549
  786MPD2    C311589   3.474   3.460  14.911 -0.7246  0.6213  0.5253
  786MPD2    C411590   3.346   3.499  14.946  0.0757 -0.3809 -0.2549
  786MPD2    C511591   3.239   3.420  14.911  0.3537 -0.2027 -0.1279
  786MPD2     H11592   3.585   3.322  14.785 -0.2676 -1.8760  1.0819
  786MPD2    H111593   3.332   3.580  15.016  0.4804 -1.0569  0.6091
  786MPD2    H211594   3.169   3.261  14.781  1.0597 -0.3850 -1.1652
  786MPD2    H311595   3.137   3.438  14.946 -0.0898  1.7483 -2.4594
  786MPD2     N11596   3.589   3.534  14.948  0.1988 -0.1525  0.3970
  786MPD2    H511597   3.583   3.606  15.020 -3.4042 -0.3309  0.2638
  786MPD2    N111598   3.407   3.175  14.673  0.4342  0.0058 -0.5284
  786MPD2    H711599   3.504   3.150  14.657  1.3082  3.7001 -1.1164
  787MPD2     C11600   3.915   3.036  14.298  0.0019 -0.1524  0.6033
  787MPD2    C111601   3.854   2.926  14.354 -0.2567  0.1207 -0.5112
  787MPD2    C211602   3.931   2.845  14.434 -0.3885 -0.0515 -0.1089
  787MPD2    C311603   4.066   2.861  14.457  0.0690  0.0731  0.7101
  787MPD2    C411604   4.127   2.959  14.385 -0.6147 -0.2733  0.3148
  787MPD2    C511605   4.053   3.045  14.311  0.0379  0.0370 -0.0591
  787MPD2     H11606   3.886   2.757  14.478 -1.0199  1.1275  1.6053
  787MPD2    H111607   4.235   2.969  14.383 -0.8724  2.1759 -2.3753
  787MPD2    H211608   3.863   3.117  14.248  0.5293 -0.3600 -0.2809
  787MPD2    H311609   4.103   3.132  14.268  1.9455 -1.3174 -0.5758
  787MPD2     N11610   4.147   2.774  14.535 -0.2621 -0.0958 -0.3345
  787MPD2    H511611   4.246   2.790  14.523 -0.6005  0.8538 -1.8952
  787MPD2    N111612   3.711   2.908  14.349  0.0089  0.4474  0.1091
  787MPD2    H711613   3.661   2.981  14.300 -0.2210  0.0203 -0.2938
  788MPD2     C11614   0.761   1.135   1.727 -0.2012 -0.2960  0.3164
  788MPD2    C111615   0.650   1.108   1.648  0.3209 -0.9492 -0.0023
  788MPD2    C211616   0.655   1.159   1.520 -0.2779  0.0542 -0.4757
  788MPD2    C311617   0.769   1.222   1.471 -0.4211 -0.6632 -0.7266
  788MPD2    C411618   0.881   1.240   1.554 -0.3079  0.6221 -0.6808
  788MPD2    C511619   0.868   1.201   1.682  0.1072  0.3690 -0.3356
  788MPD2     H11620   0.573   1.135   1.454 -1.2713 -0.4420  0.9483
  788MPD2    H111621   0.973   1.290   1.524  0.7754 -1.2396 -0.4809
  788MPD2    H211622   0.765   1.094   1.827  2.8539 -2.0249 -0.5281
  788MPD2    H311623   0.956   1.205   1.746  0.3293  1.5498 -0.7157
  788MPD2     N11624   0.790   1.261   1.335 -0.2885  0.1510 -0.2375
  788MPD2    H511625   0.887   1.264   1.306 -0.2399 -0.2369 -0.1189
  788MPD2    N111626   0.530   1.036   1.676  0.2525  0.2177  0.0754
  788MPD2    H711627   0.461   1.030   1.601  0.5561  1.9391 -0.3468
  789MPD2     C11628   1.013   0.736  16.965 -0.2040 -0.4831 -0.9182
  789MPD2    C111629   0.917   0.708  16.866  0.3029 -0.0704 -0.3702
  789MPD2    C211630   0.823   0.805  16.830  0.3336 -0.0346 -0.2419
  789MPD2    C311631   0.819   0.922  16.905  0.2525  0.6770  0.5020
  789MPD2    C411632   0.910   0.945  17.008  0.0520 -0.5356  0.6842
  789MPD2    C511633   1.001   0.853  17.029  0.1156 -0.9466  0.6069
  789MPD2     H11634   0.751   0.787  16.752  0.5433 -0.6539 -0.2942
  789MPD2    H111635   0.918   1.033  17.070 -0.3608 -0.3679  0.4959
  789MPD2    H211636   1.093   0.668  16.993 -0.7133 -1.0960 -0.9366
  789MPD2    H311637   1.069   0.869  17.112  0.0920  0.6415  0.3217
  789MPD2     N11638   0.717   1.012  16.886 -0.4319 -0.7214 -0.7932
  789MPD2    H511639   0.693   1.080  16.958 -2.3151 -1.3423 -0.8347
  789MPD2    N111640   0.918   0.581  16.799 -0.3306  0.1911 -0.4782
  789MPD2    H711641   0.869   0.569  16.711  1.1815 -3.8438 -0.7776
  790MPD2     C11642   1.881   3.130  13.410  0.1494 -0.2290 -0.3826
  790MPD2    C111643   1.868   3.007  13.466  0.0971  0.1387 -0.0883
  790MPD2    C211644   1.801   2.914  13.389 -0.3408  0.4023 -0.0568
  790MPD2    C311645   1.745   2.950  13.268 -0.9192 -0.7240  0.7872
  790MPD2    C411646   1.757   3.076  13.211  0.5976  0.0251 -0.3876
  790MPD2    C511647   1.825   3.165  13.289  0.4801  0.2686  0.4431
  790MPD2     H11648   1.789   2.812  13.422  0.6219 -0.4320 -2.2774
  790MPD2    H111649   1.723   3.108  13.113 -1.6263  0.5742  0.5719
  790MPD2    H211650   1.928   3.207  13.468  0.8607 -1.7734  1.0856
  790MPD2    H311651   1.825   3.269  13.257 -0.9996  0.3330  0.6600
  790MPD2     N11652   1.679   2.846  13.191 -0.0121  0.4371 -0.3616
  790MPD2    H511653   1.667   2.757  13.237 -0.0786  0.5600 -0.1418
  790MPD2    N111654   1.928   2.980  13.590 -0.1401 -0.2234 -0.0305
  790MPD2    H711655   1.974   3.058  13.636 -0.6657 -1.3201  2.3691
  791MPD2     C11656   1.152   2.645  12.601 -0.4530 -0.1866  0.4010
  791MPD2    C111657   1.211   2.537  12.659  0.3285  1.1379  0.1877
  791MPD2    C211658   1.160   2.414  12.641  0.4478 -0.1157 -0.6222
  791MPD2    C311659   1.048   2.396  12.560  0.6055 -0.4610  0.2913
  791MPD2    C411660   0.985   2.501  12.503  0.3585 -0.1767 -0.3999
  791MPD2    C511661   1.040   2.628  12.525 -0.3320  0.2389  1.0981
  791MPD2     H11662   1.202   2.328  12.692 -0.8051  0.6528  1.6881
  791MPD2    H111663   0.890   2.493  12.451 -0.5240 -2.0269  1.4737
  791MPD2    H211664   1.202   2.741  12.606 -1.4237  0.3581 -0.4143
  791MPD2    H311665   0.996   2.718  12.484  1.7988  0.9498  0.4155
  791MPD2     N11666   0.993   2.261  12.541 -0.0110  0.4518 -0.6678
  791MPD2    H511667   1.053   2.183  12.569 -1.4397  0.3202  2.0188
  791MPD2    N111668   1.322   2.563  12.740  0.1728  0.3136 -0.6616
  791MPD2    H711669   1.336   2.663  12.751  2.5622 -0.1584  0.5381
  792MPD2     C11670   2.290   2.272  11.417  0.0743  0.8280  0.3124
  792MPD2    C111671   2.207   2.369  11.377 -0.0582  0.2680 -0.4516
  792MPD2    C211672   2.111   2.346  11.277 -0.2361  0.1261 -1.0032
  792MPD2    C311673   2.095   2.217  11.223 -0.5854 -0.5243 -0.3296
  792MPD2    C411674   2.165   2.116  11.280  0.1829  0.2412  0.7329
  792MPD2    C511675   2.265   2.145  11.369  0.3383  0.0462  0.8650
  792MPD2     H11676   2.045   2.426  11.246  3.5320  2.8174 -2.1091
  792MPD2    H111677   2.155   2.012  11.251  2.1304 -0.0383  1.0434
  792MPD2    H211678   2.366   2.286  11.493 -0.1591  0.6525  0.5804
  792MPD2    H311679   2.324   2.066  11.414  0.0988 -0.4413  0.3241
  792MPD2     N11680   2.001   2.188  11.122 -0.1486 -0.9726  0.8434
  792MPD2    H511681   1.992   2.088  11.103 -1.4371 -0.7231  0.1082
  792MPD2    N111682   2.219   2.499  11.432  0.9277 -0.5870  0.3450
  792MPD2    H711683   2.311   2.508  11.474  1.2671 -2.1223 -0.0465
  793MPD2     C11684   2.016   1.998  10.225  0.5940 -0.4555 -0.4413
  793MPD2    C111685   2.055   2.123  10.267 -0.6970 -0.5715 -0.4227
  793MPD2    C211686   2.009   2.172  10.384  0.8569 -0.0688 -0.9839
  793MPD2    C311687   1.916   2.107  10.462  0.2624  0.1539  0.4990
  793MPD2    C411688   1.880   1.984  10.416  0.2357 -0.5123  1.1146
  793MPD2    C511689   1.933   1.928  10.296  1.2195  0.4559 -0.1594
  793MPD2     H11690   2.040   2.274  10.403  2.3321 -0.4968 -1.1182
  793MPD2    H111691   1.803   1.927  10.467 -1.9561  2.0428  0.6650
  793MPD2    H211692   2.048   1.945  10.136 -0.6413 -2.7942  0.4905
  793MPD2    H311693   1.922   1.822  10.276  1.8115  0.0751  1.5080
  793MPD2     N11694   1.860   2.168  10.575  0.6776 -0.0553 -0.2203
  793MPD2    H511695   1.904   2.256  10.601  1.4448 -0.0254 -1.5993
  793MPD2    N111696   2.128   2.214  10.188  0.2788 -0.2672  0.0556
  793MPD2    H711697   2.147   2.304  10.231 -0.8221 -0.2719  0.5652
  794MPD2     C11698   2.175   1.677  17.335 -0.6306  0.3187  0.3380
  794MPD2    C111699   2.083   1.621  17.424  0.9729 -0.3985  0.0013
  794MPD2    C211700   1.963   1.575  17.371 -0.7772  0.3184 -0.1020
  794MPD2    C311701   1.915   1.615  17.252 -0.1267  0.3499  0.3568
  794MPD2    C411702   2.003   1.677  17.168 -0.2890  0.6958  0.2927
  794MPD2    C511703   2.127   1.712  17.208 -0.0796  1.2091 -0.0869
  794MPD2     H11704   1.894   1.526  17.439 -1.1544 -0.2430 -0.8793
  794MPD2    H111705   1.978   1.718  17.070 -0.2892 -1.4267 -0.5984
  794MPD2    H211706   2.271   1.714  17.369  0.4197 -0.8650 -1.3721
  794MPD2    H311707   2.197   1.762  17.143 -0.5176 -0.6919 -2.0319
  794MPD2     N11708   1.783   1.598  17.209 -0.4988  0.5619 -0.4626
  794MPD2    H511709   1.768   1.607  17.109 -0.1677 -0.3768 -0.5890
  794MPD2    N111710   2.106   1.607  17.563 -0.0216  0.2567 -1.1557
  794MPD2    H711711   2.032   1.575  17.624 -0.7587  0.2097 -2.0640
  795MPD2     C11712   4.154   4.216  13.511 -0.0802  0.4606 -0.8964
  795MPD2    C111713   4.096   4.092  13.494 -0.0664 -0.6285  0.0342
  795MPD2    C211714   4.181   3.982  13.470  0.2322  0.3082  0.3969
  795MPD2    C311715   4.319   3.999  13.455  0.8870 -0.1631  0.6130
  795MPD2    C411716   4.370   4.127  13.470 -0.0727 -0.7725 -0.1552
  795MPD2    C511717   4.288   4.230  13.501  0.9075 -0.6536  0.7883
  795MPD2     H11718   4.145   3.880  13.466  1.6683 -0.2272  0.8486
  795MPD2    H111719   4.474   4.141  13.444 -0.6451  1.6388 -1.1802
  795MPD2    H211720   4.094   4.304  13.530  1.0104  0.8260  0.8214
  795MPD2    H311721   4.333   4.325  13.524  0.3061 -0.5360  1.4660
  795MPD2     N11722   4.406   3.890  13.418 -0.3169 -0.2635 -0.4770
  795MPD2    H511723   4.358   3.802  13.409 -2.2982  0.7190  0.4718
  795MPD2    N111724   3.953   4.072  13.503 -0.0158  0.0134 -0.1673
  795MPD2    H711725   3.919   3.987  13.459  1.3398 -0.6248  0.0208
  796MPD2     C11726   4.018   1.048  16.036 -0.0503  0.0501 -0.2472
  796MPD2    C111727   4.062   1.125  16.138 -0.5444  0.3424  0.4610
  796MPD2    C211728   4.070   1.263  16.126 -0.7411 -0.2703  0.2651
  796MPD2    C311729   4.036   1.323  16.006  0.5448 -0.3418  0.5203
  796MPD2    C411730   3.988   1.240  15.906 -0.1857 -0.6731  0.4919
  796MPD2    C511731   3.983   1.103  15.919  0.1314  0.2127  0.4478
  796MPD2     H11732   4.106   1.331  16.202 -1.6052 -1.0974  1.4195
  796MPD2    H111733   3.965   1.286  15.810 -0.0893 -2.5025 -0.3998
  796MPD2    H211734   3.993   0.944  16.049  0.3467  0.2265  1.8825
  796MPD2    H311735   3.947   1.046  15.834  0.6008  2.9194 -1.5714
  796MPD2     N11736   4.050   1.463  15.991 -0.0601  0.8489  0.5738
  796MPD2    H511737   4.097   1.514  16.065 -0.0435  1.8884 -0.1549
  796MPD2    N111738   4.103   1.062  16.257 -0.1674  0.5919 -0.1602
  796MPD2    H711739   4.114   0.962  16.251  1.2874  0.6898  0.9742
  797MPD2     C11740   4.646   0.435   0.069  0.0846 -0.4147 -0.3476
  797MPD2    C111741   4.670   0.544   0.147 -0.6245 -0.4020 -1.6186
  797MPD2    C211742   4.604   0.660   0.129 -0.1676 -0.3553 -0.0384
  797MPD2    C311743   4.522   0.675   0.024 -0.7943 -0.3084 -0.4219
  797MPD2    C411744   4.504   0.563  17.625 -1.0555 -0.8499 -0.1717
  797MPD2    C511745   4.564   0.445  17.649  0.3533 -0.3120 -0.5431
  797MPD2     H11746   4.630   0.739   0.199  0.2095 -0.7174  0.2265
  797MPD2    H111747   4.419   0.573  17.558  1.1511 -3.6830 -3.3975
  797MPD2    H211748   4.712   0.349   0.069 -1.1728 -1.3784  0.5040
  797MPD2    H311749   4.544   0.363  17.582 -0.1333  0.9178 -1.9011
  797MPD2     N11750   4.443   0.793  17.679  0.3634  0.8550  0.5446
  797MPD2    H511751   4.395   0.783  17.590 -1.0301  1.2944  1.2477
  797MPD2    N111752   0.032   0.547   0.258 -0.3109  0.5946 -0.2183
  797MPD2    H711753   0.029   0.633   0.312 -0.3322  1.0887 -0.9947
  798MPD2     C11754   0.102   1.274   0.321 -0.1913 -0.2802 -0.0134
  798MPD2    C111755   0.017   1.177   0.293 -0.2108 -0.1729 -0.5128
  798MPD2    C211756   0.030   1.053   0.361  0.2113  0.2988  0.5682
  798MPD2    C311757   0.141   1.025   0.436 -0.1630  0.1347  0.1819
  798MPD2    C411758   0.229   1.127   0.456 -0.2122  0.1867 -0.2401
  798MPD2    C511759   0.209   1.248   0.398 -1.0374  0.7090 -0.5220
  798MPD2     H11760   4.685   0.969   0.342 -1.0258  0.3919  4.3319
  798MPD2    H111761   0.321   1.118   0.513 -0.8395  0.9003  0.8948
  798MPD2    H211762   0.108   1.370   0.272  0.7541  0.2851  1.2056
  798MPD2    H311763   0.287   1.321   0.411  1.5909 -1.7818 -2.4450
  798MPD2     N11764   0.159   0.884   0.465 -0.0737 -0.3843 -0.6649
  798MPD2    H511765   0.074   0.830   0.454  0.9540 -2.1535 -0.0197
  798MPD2    N111766   4.632   1.188   0.201  0.2694  0.1588 -0.1164
  798MPD2    H711767   4.566   1.111   0.208 -1.3042  1.4079 -1.4936
  799MPD2     C11768   4.091   2.378  14.385 -0.7143 -0.0605 -0.5701
  799MPD2    C111769   3.967   2.317  14.399 -0.4239  0.0077  0.2679
  799MPD2    C211770   3.857   2.370  14.333 -0.4717 -0.2545  0.4803
  799MPD2    C311771   3.873   2.482  14.260 -0.5313  0.3354 -0.4728
  799MPD2    C411772   3.993   2.545  14.242 -0.2919  0.4984  0.3617
  799MPD2    C511773   4.102   2.491  14.309  0.3061  0.0721 -0.1771
  799MPD2     H11774   3.761   2.320  14.337  0.5256 -2.0746  1.3711
  799MPD2    H111775   4.009   2.634  14.183 -0.7276  0.0266 -0.4692
  799MPD2    H211776   4.179   2.339  14.435  0.2242  2.3658 -0.3225
  799MPD2    H311777   4.200   2.538  14.302 -0.1750  1.3628  1.9162
  799MPD2     N11778   3.759   2.530  14.186 -0.2578  0.3763  0.6655
  799MPD2    H511779   3.783   2.603  14.119 -1.0200 -0.6383 -0.7342
  799MPD2    N111780   3.953   2.204  14.480  0.2006  0.1194 -0.3484
  799MPD2    H711781   3.857   2.185  14.507 -0.0898  3.9239  1.1589
  800MPD2     C11782   3.956   3.809  13.797 -0.8792  0.7629  0.0912
  800MPD2    C111783   4.054   3.732  13.740 -0.0641  0.2577 -0.1049
  800MPD2    C211784   4.013   3.614  13.674  0.3218  0.1926 -0.3345
  800MPD2    C311785   3.883   3.574  13.671  0.1553  0.5244 -0.5008
  800MPD2    C411786   3.786   3.650  13.740 -0.3270 -0.5963  0.0109
  800MPD2    C511787   3.826   3.759  13.809 -0.5628 -0.4019 -0.7027
  800MPD2     H11788   4.077   3.544  13.622 -1.4908 -0.2854 -1.9235
  800MPD2    H111789   3.681   3.624  13.753 -0.2226 -0.0614  1.8769
  800MPD2    H211790   3.967   3.903  13.850 -1.7130  1.2810 -0.6643
  800MPD2    H311791   3.747   3.818  13.855  0.4411  3.1324 -3.4621
  800MPD2     N11792   3.853   3.447  13.620  0.6552 -0.2622  0.2416
  800MPD2    H511793   3.928   3.396  13.574 -0.8721 -1.7396 -0.6328
  800MPD2    N111794   4.188   3.778  13.745 -0.8956 -0.0060 -0.2441
  800MPD2    H711795   4.203   3.869  13.787 -1.0479 -0.1200  0.0607
  801MPD2     C11796   4.546   4.389  13.869 -0.2898  0.5813  0.0892
  801MPD2    C111797   4.456   4.285  13.883  0.5426  0.2495 -0.3139
  801MPD2    C211798   4.349   4.304  13.963  0.8878 -0.5998  0.3104
  801MPD2    C311799   4.333   4.413  14.046  0.6191 -0.0132 -0.6145
  801MPD2    C411800   4.424   4.519  14.034 -0.6766 -0.4720  0.3040
  801MPD2    C511801   4.529   4.504  13.944 -0.4316  0.5055  0.3001
  801MPD2     H11802   4.282   4.219  13.971  0.5534 -0.8838 -5.0225
  801MPD2    H111803   4.420   4.611  14.090 -1.3573  0.2121 -0.8567
  801MPD2    H211804   4.636   4.385  13.808  0.1707 -2.1175  0.9491
  801MPD2    H311805   4.600   4.585  13.928 -0.9356  0.9917  0.5535
  801MPD2     N11806   4.225   4.425  14.133 -0.3101  0.3322 -0.4526
  801MPD2    H511807   4.224   4.505  14.195  0.8264  0.6759 -0.8828
  801MPD2    N111808   4.474   4.160  13.823  0.2005 -0.3180  0.0623
  801MPD2    H711809   4.409   4.084  13.843  1.5066 -1.5681 -0.4556
  802MPD2     C11810   3.579   3.638   0.445 -0.1803  0.6779  0.1576
  802MPD2    C111811   3.523   3.744   0.377  0.9424 -0.1771 -0.0632
  802MPD2    C211812   3.540   3.762   0.244  0.3786  0.2873 -0.2364
  802MPD2    C311813   3.616   3.679   0.166 -0.2514  0.0595 -0.2160
  802MPD2    C411814   3.662   3.571   0.229 -0.1379  0.2363  0.5282
  802MPD2    C511815   3.641   3.550   0.358 -0.7289 -0.0917 -0.3705
  802MPD2     H11816   3.509   3.854   0.197  0.0406  0.8939  1.1868
  802MPD2    H111817   3.718   3.499   0.170 -1.2067  1.0155 -1.4302
  802MPD2    H211818   3.548   3.607   0.544  1.1554  0.7910  0.6080
  802MPD2    H311819   3.678   3.456   0.398 -0.1011 -0.4950 -1.9063
  802MPD2     N11820   3.643   3.707   0.030  0.5370  0.0860 -0.0949
  802MPD2    H511821   3.627   3.802  17.684 -0.7262  0.3784  1.3922
  802MPD2    N111822   3.444   3.836   0.447  0.1651 -0.4795  0.1213
  802MPD2    H711823   3.395   3.902   0.388 -2.0697 -0.8915  1.4970
  803MPD2     C11824   0.040   2.450  11.859  0.3084 -0.3028  0.1739
  803MPD2    C111825   0.121   2.408  11.962 -0.0283  0.6543  0.5836
  803MPD2    C211826   0.081   2.294  12.044  0.3356 -0.0157 -0.5635
  803MPD2    C311827   4.684   2.227  12.027  0.9941  0.2865 -0.0373
  803MPD2    C411828   4.607   2.269  11.923 -0.1085 -0.1398 -0.3540
  803MPD2    C511829   4.644   2.374  11.842 -0.4118 -0.2594 -0.1122
  803MPD2     H11830   0.139   2.256  12.128  1.0766  1.2193 -0.5209
  803MPD2    H111831   4.521   2.211  11.891 -0.2755  1.6437 -3.1319
  803MPD2    H211832   0.067   2.523  11.783 -0.1274 -0.9437 -0.6059
  803MPD2    H311833   4.583   2.408  11.759 -0.0470  1.9446  0.5281
  803MPD2     N11834   4.644   2.122  12.122  0.4512 -0.0017  0.3372
  803MPD2    H511835   4.709   2.097  12.195 -1.4423  1.3564  2.4938
  803MPD2    N111836   0.248   2.467  11.994 -0.1728  0.2791 -0.1491
  803MPD2    H711837   0.292   2.439  12.081 -0.1636  0.9671  0.0693
  804MPD2     C11838   4.116   3.893  16.597  0.1585 -0.3575  0.4544
  804MPD2    C111839   4.136   3.949  16.726  0.5013 -0.6195 -0.5138
  804MPD2    C211840   4.169   4.088  16.734  0.7249 -0.5372 -0.0978
  804MPD2    C311841   4.164   4.158  16.619  0.2267  0.5169  1.1355
  804MPD2    C411842   4.140   4.099  16.498 -0.2034 -0.2573 -0.4848
  804MPD2    C511843   4.133   3.966  16.483 -0.3195  0.0978 -0.3989
  804MPD2     H11844   4.181   4.130  16.833  0.6316  1.0631 -0.7572
  804MPD2    H111845   4.123   4.153  16.406 -2.7137 -0.3442 -0.0512
  804MPD2    H211846   4.108   3.787  16.580 -1.3248 -0.3045  0.8943
  804MPD2    H311847   4.133   3.906  16.392 -0.9739  0.0269 -0.3529
  804MPD2     N11848   4.192   4.297  16.633  0.0773 -0.8171  0.7989
  804MPD2    H511849   4.213   4.324  16.729 -0.0507 -0.0605  0.6083
  804MPD2    N111850   4.151   3.867  16.848 -0.5727 -0.4602 -0.2499
  804MPD2    H711851   4.155   3.922  16.933 -2.2497 -0.2594 -0.3000
  805MPD2     C11852   3.706   2.735  15.579  0.6277  0.0210 -0.2401
  805MPD2    C111853   3.778   2.632  15.521  0.2457 -0.1638 -0.4106
  805MPD2    C211854   3.908   2.610  15.561 -0.3669 -0.3544 -0.2140
  805MPD2    C311855   3.960   2.684  15.672 -0.2666  1.1211  0.1490
  805MPD2    C411856   3.875   2.780  15.732 -0.3304  0.3908  0.5813
  805MPD2    C511857   3.754   2.803  15.686 -0.7822 -0.6787  0.7684
  805MPD2     H11858   3.956   2.527  15.510  0.9980  1.5119 -1.9469
  805MPD2    H111859   3.908   2.817  15.829 -1.9298  0.0659  1.2440
  805MPD2    H211860   3.605   2.759  15.547  0.8136  0.4289 -0.5212
  805MPD2    H311861   3.687   2.863  15.745 -0.0600  2.7750 -1.9542
  805MPD2     N11862   4.086   2.643  15.733  0.2053 -0.2279  0.5442
  805MPD2    H511863   4.133   2.567  15.685  1.8097  0.3911  1.1344
  805MPD2    N111864   3.716   2.569  15.414  0.2262 -0.1203  0.2774
  805MPD2    H711865   3.780   2.528  15.347 -0.6948  0.6527 -1.0872
  806MPD2     C11866   0.255   1.950   1.471 -0.1584 -0.2933 -0.7622
  806MPD2    C111867   0.367   1.971   1.391  0.5069 -0.1223  0.4610
  806MPD2    C211868   0.350   2.047   1.269 -0.2739  0.2092  0.0674
  806MPD2    C311869   0.222   2.095   1.234  0.5342 -0.3951  0.5112
  806MPD2    C411870   0.118   2.077   1.321 -0.0039  0.1036 -0.0260
  806MPD2    C511871   0.136   2.008   1.435 -0.0774  0.1722  0.2814
  806MPD2     H11872   0.428   2.061   1.196 -0.1314 -1.0506 -0.0169
  806MPD2    H111873   0.017   2.115   1.312  0.0957  1.0301  2.8408
  806MPD2    H211874   0.253   1.899   1.566 -0.5098 -1.0534 -1.1769
  806MPD2    H311875   0.050   2.004   1.502 -0.7742 -2.7406 -0.7876
  806MPD2     N11876   0.210   2.166   1.113  0.3272  0.8849 -0.5378
  806MPD2    H511877   0.290   2.184   1.054 -1.7369  3.5731 -2.4869
  806MPD2    N111878   0.490   1.921   1.438 -0.0151  0.4066  1.2159
  806MPD2    H711879   0.471   1.863   1.520  0.2917 -1.7103 -0.2123
  807MPD2     C11880   0.687   1.401   1.869 -0.0854 -0.1291 -0.3705
  807MPD2    C111881   0.596   1.460   1.783  0.4716  0.3712 -0.0895
  807MPD2    C211882   0.456   1.448   1.806  0.1575 -0.1181 -0.1484
  807MPD2    C311883   0.415   1.361   1.904  0.4874 -0.6743 -0.0537
  807MPD2    C411884   0.506   1.300   1.992 -0.6085 -0.4288  0.1051
  807MPD2    C511885   0.642   1.323   1.967  0.1438  1.1363 -0.2523
  807MPD2     H11886   0.391   1.505   1.741 -1.1518  0.2632  1.5266
  807MPD2    H111887   0.476   1.232   2.071  0.2757 -1.0270 -0.0753
  807MPD2    H211888   0.794   1.412   1.861  0.0818 -1.5736 -0.0126
  807MPD2    H311889   0.716   1.283   2.035 -2.1382 -0.0117  1.5625
  807MPD2     N11890   0.276   1.330   1.901 -0.7072  0.3844  0.4165
  807MPD2    H511891   0.212   1.378   1.839 -2.5230 -0.7780  1.3925
  807MPD2    N111892   0.638   1.547   1.680  0.3813  0.2794 -0.4938
  807MPD2    H711893   0.572   1.599   1.624  0.4047 -0.5681 -1.3115
  808MPD2     C11894   0.312   2.766  10.232  0.4905  0.5701 -0.2590
  808MPD2    C111895   0.252   2.865  10.168  0.0347  0.0968  0.4712
  808MPD2    C211896   0.322   2.987  10.158 -0.2433 -0.0251 -0.1827
  808MPD2    C311897   0.444   3.011  10.220 -0.0217  0.8780 -0.0023
  808MPD2    C411898   0.500   2.905  10.289  0.0402  0.2085 -0.0003
  808MPD2    C511899   0.436   2.783  10.291 -0.3769  0.3643  0.3626
  808MPD2     H11900   0.274   3.051  10.084  1.8814  1.4011 -0.3370
  808MPD2    H111901   0.595   2.920  10.338  0.5231 -0.5330 -0.6973
  808MPD2    H211902   0.257   2.674  10.252  1.6843 -0.1717 -0.3907
  808MPD2    H311903   0.480   2.706  10.353  1.4069 -0.4631 -1.9322
  808MPD2     N11904   0.519   3.133  10.221  0.1537 -0.2263 -0.3709
  808MPD2    H511905   0.607   3.142  10.270  0.6007  0.5265 -1.3014
  808MPD2    N111906   0.133   2.845  10.095 -0.1892 -0.3037 -0.7572
  808MPD2    H711907   0.100   2.933  10.056 -0.3609 -0.0267  0.0163
  809MPD2     C11908   0.567   4.046   9.606 -0.9000 -0.6136  0.3297
  809MPD2    C111909   0.632   3.933   9.564 -0.9342  0.1348  0.0150
  809MPD2    C211910   0.634   3.830   9.652  1.0584  0.3058 -0.3039
  809MPD2    C311911   0.577   3.832   9.774 -0.1261  0.5292  0.1379
  809MPD2    C411912   0.495   3.939   9.803  0.2081 -0.1564 -0.5683
  809MPD2    C511913   0.487   4.052   9.720 -0.6989 -0.3675  0.2426
  809MPD2     H11914   0.693   3.742   9.630  0.1912 -0.5782  0.9612
  809MPD2    H111915   0.438   3.935   9.896  0.9234 -3.0511 -0.2436
  809MPD2    H211916   0.570   4.140   9.553 -1.6232 -1.7122 -1.6741
  809MPD2    H311917   0.422   4.134   9.747 -3.2008 -2.4703  0.6311
  809MPD2     N11918   0.607   3.719   9.856  0.0830 -0.5232  0.3024
  809MPD2    H511919   0.694   3.671   9.834 -0.2934 -0.1974 -1.8213
  809MPD2    N111920   0.705   3.929   9.446  0.1089  0.1594  0.0177
  809MPD2    H711921   0.771   3.853   9.440  0.7529  0.5228  2.6809
  810MPD2     C11922   4.423   2.618  10.299  0.6580  0.7501 -0.1859
  810MPD2    C111923   4.351   2.505  10.298 -0.3786  0.0097 -0.2302
  810MPD2    C211924   4.415   2.387  10.329 -0.2008  0.7823  0.0990
  810MPD2    C311925   4.546   2.387  10.343  0.0340  0.5930  0.6164
  810MPD2    C411926   4.623   2.503  10.350 -1.0050 -0.1593  0.2165
  810MPD2    C511927   4.557   2.624  10.331 -0.3199  0.2478 -0.1080
  810MPD2     H11928   4.355   2.298  10.340  0.7962  0.2546  1.2566
  810MPD2    H111929   0.008   2.505  10.370 -0.7839  1.0801 -1.1246
  810MPD2    H211930   4.377   2.714  10.281 -1.4664 -0.1634  0.3479
  810MPD2    H311931   4.603   2.717  10.362  1.0293 -1.0547  1.7979
  810MPD2     N11932   4.616   2.267  10.348  0.7272  0.3484  0.5921
  810MPD2    H511933   4.713   2.284  10.372  0.8718  0.3936 -0.0362
  810MPD2    N111934   4.217   2.504  10.284 -0.0810  0.1854 -0.2849
  810MPD2    H711935   4.171   2.416  10.307  0.2554  0.3102  0.8307
  811MPD2     C11936   3.447   2.630   9.773  0.1081  0.0127 -0.0151
  811MPD2    C111937   3.520   2.695   9.871 -0.5550  0.4734  0.7316
  811MPD2    C211938   3.479   2.822   9.904  0.3578  0.0939  0.0726
  811MPD2    C311939   3.389   2.890   9.833 -0.0606 -0.1781 -0.1210
  811MPD2    C411940   3.319   2.824   9.731  1.0084 -0.4891 -0.5049
  811MPD2    C511941   3.347   2.690   9.716 -0.9803 -0.6059  0.5977
  811MPD2     H11942   3.526   2.874   9.988  1.7282 -0.1442 -0.5470
  811MPD2    H111943   3.248   2.882   9.673 -0.7573  0.7388  2.8573
  811MPD2    H211944   3.464   2.524   9.755 -0.2249 -0.0733  0.1750
  811MPD2    H311945   3.290   2.632   9.645  1.0956 -3.1242  0.9623
  811MPD2     N11946   3.371   3.027   9.867  0.5616 -0.3798 -0.1913
  811MPD2    H511947   3.427   3.062   9.944 -1.1880  0.1182  0.8494
  811MPD2    N111948   3.630   2.624   9.932 -0.4755  0.0252 -0.2072
  811MPD2    H711949   3.641   2.526   9.907  0.6351  0.7567 -2.6249
  812MPD2     C11950   2.784   2.244  12.481 -0.7674 -0.6148  0.6456
  812MPD2    C111951   2.686   2.303  12.555 -0.2753 -0.4036  0.2440
  812MPD2    C211952   2.646   2.251  12.676  0.5995 -0.1070 -0.1439
  812MPD2    C311953   2.694   2.127  12.705 -0.2648 -0.1309  0.1014
  812MPD2    C411954   2.796   2.063  12.633  1.1210 -0.8921  0.0907
  812MPD2    C511955   2.838   2.121  12.522  0.2726  0.3342  0.6960
  812MPD2     H11956   2.559   2.296  12.724  1.0048 -0.7101  1.1577
  812MPD2    H111957   2.842   1.971  12.667  1.5287 -0.9273 -0.5535
  812MPD2    H211958   2.813   2.281  12.384 -2.9167 -0.7037 -0.0285
  812MPD2    H311959   2.908   2.076  12.453  1.8876  3.3617  0.3436
  812MPD2     N11960   2.648   2.068  12.823 -0.5579  0.2500  0.3271
  812MPD2    H511961   2.607   2.138  12.884 -3.6067 -0.0574 -1.4140
  812MPD2    N111962   2.631   2.420  12.488  0.0045  0.1666 -0.9694
  812MPD2    H711963   2.680   2.446  12.403 -0.4448 -2.3448 -1.9925
  813MPD2     C11964   1.848   4.426  12.917 -0.3466  0.0079  0.4587
  813MPD2    C111965   1.888   4.547  12.980 -0.1888 -0.2765 -0.0128
  813MPD2    C211966   1.806   4.597  13.078 -0.4756 -0.0546 -0.6268
  813MPD2    C311967   1.685   4.534  13.115 -0.5455 -0.5227 -0.0773
  813MPD2    C411968   1.649   4.408  13.064  0.2554  0.6093 -0.0391
  813MPD2    C511969   1.739   4.360  12.965  0.4018 -0.5202  0.1273
  813MPD2     H11970   1.842   4.690  13.120  0.7776 -1.4251  1.3289
  813MPD2    H111971   1.563   4.349  13.092  0.9547  0.4969  1.8704
  813MPD2    H211972   1.911   4.382  12.841 -0.1021  0.7203  0.2463
  813MPD2    H311973   1.713   4.260  12.931  1.9475 -0.8152 -0.2059
  813MPD2     N11974   1.607   4.587  13.213  0.3736  0.0305  0.0053
  813MPD2    H511975   1.652   4.663  13.263  2.7789 -0.2968 -1.6394
  813MPD2    N111976   2.020   4.597  12.976 -0.0393  0.3049  0.1746
  813MPD2    H711977   2.032   4.681  13.032  0.9171  0.6121 -0.4832
  814MPD2     C11978   2.354   0.859  12.237  0.2694 -0.8949  0.3753
  814MPD2    C111979   2.387   0.961  12.148  0.0498 -0.5329 -0.3977
  814MPD2    C211980   2.463   1.065  12.203 -0.2637 -0.2891 -0.3210
  814MPD2    C311981   2.488   1.083  12.333  0.5502  0.3912  0.8259
  814MPD2    C411982   2.462   0.979  12.418  0.4012  0.0464 -0.3123
  814MPD2    C511983   2.385   0.875  12.368 -0.7127 -0.2148 -0.3017
  814MPD2     H11984   2.503   1.134  12.128 -1.5749  0.8322  0.0243
  814MPD2    H111985   2.491   0.979  12.522  1.1114  0.3466 -0.5157
  814MPD2    H211986   2.295   0.771  12.214  1.5803 -1.8638  0.7183
  814MPD2    H311987   2.362   0.791  12.432  0.6765 -1.1532 -1.0296
  814MPD2     N11988   2.557   1.196  12.386  0.0879 -0.1431 -0.3485
  814MPD2    H511989   2.575   1.190  12.486  0.3924 -0.0964 -0.3997
  814MPD2    N111990   2.343   0.973  12.015 -0.6550 -0.4982 -0.6480
  814MPD2    H711991   2.373   1.055  11.962 -1.6408  0.9768  1.0443
  815MPD2     C11992   2.772   4.430  12.242  0.0365  0.2318  0.4522
  815MPD2    C111993   2.797   4.295  12.242  0.0826 -0.0533  0.1142
  815MPD2    C211994   2.706   4.220  12.309  0.8735 -0.3409  0.9705
  815MPD2    C311995   2.601   4.273  12.379 -0.4738  0.3448  0.0011
  815MPD2    C411996   2.570   4.409  12.374  0.1693  0.1127  0.1598
  815MPD2    C511997   2.660   4.482  12.300 -0.1052  0.1818 -0.3173
  815MPD2     H11998   2.720   4.114  12.326  1.8382 -0.3517  0.0790
  815MPD2    H111999   2.489   4.462  12.423  0.6916 -0.3069  1.4830
  815MPD2    H212000   2.837   4.499  12.191 -0.5416 -0.3171 -1.0333
  815MPD2    H312001   2.638   4.588  12.291  0.9590  0.2126 -2.4030
  815MPD2     N12002   2.522   4.173  12.439 -0.0800  0.4476 -0.2508
  815MPD2    H512003   2.530   4.073  12.423 -2.2453  0.3843 -0.8942
  815MPD2    N112004   2.903   4.231  12.173 -0.0398  0.9423 -0.0220
  815MPD2    H712005   2.924   4.136  12.199 -3.6887  0.3045  0.5975
  816MPD2     C12006   2.169   2.998  17.579 -0.5177  0.2002 -0.9051
  816MPD2    C112007   2.241   3.107  17.610 -0.0143  0.5235  0.2021
  816MPD2    C212008   2.380   3.105  17.606  0.1901 -0.1603 -0.1522
  816MPD2    C312009   2.453   2.987  17.580  0.3020 -0.2595 -0.9603
  816MPD2    C412010   2.378   2.870  17.560 -0.6520  0.2327  0.3784
  816MPD2    C512011   2.241   2.879  17.560 -0.4442  0.0757  0.2899
  816MPD2     H12012   2.431   3.196  17.635  1.5305 -1.0135  0.1372
  816MPD2    H112013   2.424   2.773  17.558  0.5511  0.8357 -0.9610
  816MPD2    H212014   2.061   3.008  17.572 -0.6843 -0.6130  0.5498
  816MPD2    H312015   2.177   2.792  17.548 -0.6876  0.4434 -1.1471
  816MPD2     N12016   2.590   2.990  17.586  0.4423 -0.2707  0.0397
  816MPD2    H512017   2.631   3.080  17.609 -2.7460  0.9272  0.9776
  816MPD2    N112018   2.181   3.230  17.638 -0.1424 -0.1624 -0.1626
  816MPD2    H712019   2.080   3.227  17.633  0.0163 -1.5773 -2.6071
  817MPD2     C12020   2.751   0.039  10.075  0.4120 -1.1142  0.1787
  817MPD2    C112021   2.773   4.709   9.951  0.2898 -0.5480 -0.0294
  817MPD2    C212022   2.737   0.054   9.838  0.1014  0.5675 -0.2031
  817MPD2    C312023   2.656   0.162   9.845  0.1260  0.4164  0.3901
  817MPD2    C412024   2.626   0.213   9.969 -0.0089 -0.5633 -0.3569
  817MPD2    C512025   2.681   0.161  10.086 -0.1416 -0.9404  0.1138
  817MPD2     H12026   2.756   0.011   9.740 -1.9887  0.2912 -0.4800
  817MPD2    H112027   2.557   0.296   9.978  1.9393  1.1974 -1.4758
  817MPD2    H212028   2.793   4.709  10.161 -0.5227 -0.4041  1.0669
  817MPD2    H312029   2.660   0.198  10.186  0.6021 -0.3286  0.0418
  817MPD2     N12030   2.608   0.234   9.735  0.6375  0.1974  0.2935
  817MPD2    H512031   2.555   0.318   9.759 -0.3033  0.4538 -2.6560
  817MPD2    N112032   2.846   4.590   9.932 -0.9461 -0.0947  0.1587
  817MPD2    H712033   2.866   4.551   9.841  0.9701 -1.6117  1.2100
  818MPD2     C12034   1.190   0.291  10.066 -0.3430 -0.6031  0.1469
  818MPD2    C112035   1.178   0.210  10.177  0.1796  0.8842 -0.2119
  818MPD2    C212036   1.296   0.150  10.223  0.2910  0.5938 -0.3717
  818MPD2    C312037   1.409   0.146  10.151  0.4392  0.0583 -0.0956
  818MPD2    C412038   1.420   0.215  10.037 -0.6179  0.5125 -0.5273
  818MPD2    C512039   1.312   0.289   9.994  0.0392  0.0090  0.8592
  818MPD2     H12040   1.287   0.106  10.322 -0.0976 -1.8756 -1.4895
  818MPD2    H112041   1.507   0.215   9.972  0.3619 -1.8030  0.7914
  818MPD2    H212042   1.098   0.342  10.040 -0.3407 -1.2043 -1.0135
  818MPD2    H312043   1.307   0.349   9.904 -0.6027  0.1328  0.9805
  818MPD2     N12044   1.518   0.062  10.193 -0.2065  0.3119  0.1288
  818MPD2    H512045   1.580   0.034  10.118 -0.1380 -3.6644  1.6592
  818MPD2    N112046   1.051   0.185  10.245 -0.4274  0.7413  0.6236
  818MPD2    H712047   1.056   0.120  10.323 -1.5587 -0.5910 -0.4187
  819MPD2     C12048   4.290   2.049  15.713  0.4831 -0.2838  0.1922
  819MPD2    C112049   4.310   1.913  15.695 -0.2198  0.3351 -0.1365
  819MPD2    C212050   4.423   1.851  15.741 -0.1085  0.0319 -0.0800
  819MPD2    C312051   4.506   1.922  15.824  0.2512  0.6649  0.4606
  819MPD2    C412052   4.484   2.058  15.844  0.7316 -0.1902  0.3317
  819MPD2    C512053   4.381   2.120  15.785 -0.6938  0.1996  0.4884
  819MPD2     H12054   4.446   1.746  15.727 -2.6774 -0.5773  0.2834
  819MPD2    H112055   4.560   2.119  15.891  0.0912 -0.6275  1.9321
  819MPD2    H212056   4.213   2.102  15.659  0.6186 -0.0363  0.2436
  819MPD2    H312057   4.372   2.228  15.797  0.8362  0.2580  1.1088
  819MPD2     N12058   4.622   1.855  15.864  0.3459  0.3063 -0.1963
  819MPD2    H512059   4.632   1.759  15.834  3.6557 -0.3776  3.0719
  819MPD2    N112060   4.204   1.847  15.625  0.5218 -0.9185  0.8263
  819MPD2    H712061   4.127   1.901  15.585  1.1704  0.8639  1.9615
  820MPD2     C12062   3.519   1.936  14.902  0.8555  1.0257  0.9134
  820MPD2    C112063   3.594   2.013  14.988  0.2769 -0.2563 -1.3641
  820MPD2    C212064   3.680   1.958  15.087  0.6482  0.4219  0.7345
  820MPD2    C312065   3.684   1.815  15.090 -0.5176  0.1627 -0.4837
  820MPD2    C412066   3.610   1.739  15.004 -0.0796  0.0670  0.1788
  820MPD2    C512067   3.533   1.802  14.911  0.2825  0.6367  0.8687
  820MPD2     H12068   3.719   2.021  15.166 -0.0483  1.9197 -0.1194
  820MPD2    H112069   3.606   1.631  15.015  1.4260 -0.1008 -0.8678
  820MPD2    H212070   3.456   1.975  14.823  4.0621  0.6454 -1.8018
  820MPD2    H312071   3.473   1.747  14.840  0.1646  1.6086  0.2134
  820MPD2     N12072   3.759   1.748  15.194 -0.0767 -0.0266 -0.3078
  820MPD2    H512073   3.744   1.648  15.194 -2.0178  0.2473  2.1131
  820MPD2    N112074   3.569   2.152  14.979 -0.4697 -0.0502  0.3889
  820MPD2    H712075   3.494   2.189  14.922 -1.5023 -1.9521  0.5024
  821MPD2     C12076   3.692   2.968  13.107 -0.5357  0.3152  0.1385
  821MPD2    C112077   3.741   3.062  13.184 -0.7685  0.3232 -0.2445
  821MPD2    C212078   3.832   3.155  13.140 -0.0823  0.0658  0.2205
  821MPD2    C312079   3.872   3.140  13.006  0.0027 -0.1111 -0.5934
  821MPD2    C412080   3.822   3.042  12.922 -0.5562  0.2497 -0.6978
  821MPD2    C512081   3.727   2.961  12.973  0.4935 -0.0116 -0.1452
  821MPD2     H12082   3.857   3.243  13.199  1.1079 -0.1272  0.0048
  821MPD2    H112083   3.849   3.015  12.820  1.3708 -1.4630  0.2758
  821MPD2    H212084   3.621   2.892  13.135  1.0714 -1.5237 -0.7837
  821MPD2    H312085   3.685   2.876  12.920  0.0369 -0.5107  1.0293
  821MPD2     N12086   3.980   3.210  12.955  0.0939 -0.4680 -0.7117
  821MPD2    H512087   4.001   3.199  12.857 -1.9079 -0.5388 -1.1305
  821MPD2    N112088   3.693   3.084  13.315 -0.3843  0.6205  0.4820
  821MPD2    H712089   3.727   3.170  13.357 -1.1244  0.6355  1.0639
  822MPD2     C12090   0.243   3.028  15.829  0.5861 -0.8356 -0.3182
  822MPD2    C112091   0.305   3.135  15.890 -1.2694 -0.2091 -1.1068
  822MPD2    C212092   0.234   3.258  15.903 -0.4135 -0.3229  0.1837
  822MPD2    C312093   0.104   3.270  15.853 -0.2765 -0.0651  0.1929
  822MPD2    C412094   0.052   3.164  15.776 -0.0480  0.0116  0.3390
  822MPD2    C512095   0.125   3.050  15.763  0.3620 -0.4118  0.2454
  822MPD2     H12096   0.272   3.339  15.964  0.7761 -1.9103  1.5395
  822MPD2    H112097   4.677   3.180  15.729  1.2974  0.0065 -2.4131
  822MPD2    H212098   0.294   2.934  15.809  2.3436 -0.1084  0.7142
  822MPD2    H312099   0.090   2.974  15.695 -0.6527 -1.2536  1.6996
  822MPD2     N12100   0.026   3.384  15.877  0.9267 -0.3561  0.0681
  822MPD2    H512101   4.646   3.377  15.871  0.8412  0.6081  0.3417
  822MPD2    N112102   0.432   3.132  15.960 -0.5388 -0.0401  0.1306
  822MPD2    H712103   0.452   3.208  16.024  1.6465 -0.4609 -0.0741
  823MPD2     C12104   4.459   3.775  16.599 -0.4843 -0.2999 -0.8026
  823MPD2    C112105   4.518   3.681  16.512 -0.3895 -0.0084 -0.2561
  823MPD2    C212106   4.607   3.592  16.574 -0.1550  0.7072  0.9964
  823MPD2    C312107   4.633   3.595  16.709 -0.2866  0.4788  0.6873
  823MPD2    C412108   4.578   3.694  16.789 -0.4160 -0.0503 -0.3442
  823MPD2    C512109   4.494   3.780  16.727  0.8828  0.0355  0.5564
  823MPD2     H12110   4.646   3.508  16.518  1.1886  1.4255  0.8438
  823MPD2    H112111   4.594   3.711  16.895 -0.5085 -0.4644 -0.2661
  823MPD2    H212112   4.393   3.854  16.565 -1.1067 -1.8178 -3.0786
  823MPD2    H312113   4.450   3.856  16.791 -0.0609 -0.0140 -0.0276
  823MPD2     N12114   0.000   3.500  16.771 -0.0129 -0.3614 -0.1984
  823MPD2    H512115   0.011   3.516  16.871  1.2880  0.4334 -0.4654
  823MPD2    N112116   4.501   3.678  16.375  0.0612 -0.3138  0.0895
  823MPD2    H712117   4.460   3.761  16.333 -0.1410  0.3003  1.4684
  824MPD2     C12118   0.994   2.557  16.186 -0.0076  0.3555 -0.0769
  824MPD2    C112119   0.939   2.616  16.075  0.4784  0.4613  0.1337
  824MPD2    C212120   0.937   2.538  15.958 -0.0827  0.3821 -0.4590
  824MPD2    C312121   1.002   2.415  15.950  0.2121  0.2178  0.1914
  824MPD2    C412122   1.059   2.359  16.061  0.2961 -0.4510 -0.7041
  824MPD2    C512123   1.053   2.426  16.186  0.2983 -0.6887  0.2512
  824MPD2     H12124   0.887   2.573  15.869 -2.1495 -0.9539  0.1858
  824MPD2    H112125   1.119   2.269  16.052 -1.5243 -1.8228  1.0675
  824MPD2    H212126   0.973   2.606  16.280 -1.0783 -1.6877  0.7580
  824MPD2    H312127   1.102   2.386  16.274 -0.6555 -0.3981  0.9114
  824MPD2     N12128   1.014   2.357  15.819 -0.6133 -0.0682  0.0782
  824MPD2    H512129   0.985   2.411  15.739  1.2080 -0.6448 -0.9897
  824MPD2    N112130   0.866   2.738  16.077 -1.0748  1.0678  0.4680
  824MPD2    H712131   0.799   2.743  16.002 -1.1049  1.1416  0.4998
  825MPD2     C12132   1.486   2.520  15.328  0.1621  0.0443  0.2555
  825MPD2    C112133   1.352   2.532  15.334  0.6517  0.1586  0.0129
  825MPD2    C212134   1.299   2.661  15.322  0.4483 -0.2272  0.4098
  825MPD2    C312135   1.375   2.773  15.331  1.0425  0.0635  0.1142
  825MPD2    C412136   1.507   2.761  15.319 -0.2461  0.3668 -0.2645
  825MPD2    C512137   1.560   2.636  15.318 -0.2776 -0.3557  0.4363
  825MPD2     H12138   1.191   2.661  15.330  0.7259  0.9013  4.5178
  825MPD2    H112139   1.569   2.850  15.320  1.1826 -0.6560  1.8146
  825MPD2    H212140   1.533   2.423  15.337  0.9284  0.1846 -2.4188
  825MPD2    H312141   1.668   2.632  15.319 -0.2518 -0.2683 -2.4824
  825MPD2     N12142   1.328   2.904  15.362 -0.4091  0.5668 -0.1546
  825MPD2    H512143   1.390   2.970  15.408  2.1379 -0.8728 -1.5564
  825MPD2    N112144   1.283   2.411  15.366 -0.1082 -0.3763 -0.7949
  825MPD2    H712145   1.341   2.332  15.390 -1.0677 -1.4645 -2.0715
  826MPD2     C12146   0.860   2.237  13.624 -0.3161  0.3298  0.0085
  826MPD2    C112147   0.933   2.353  13.638  0.0136 -0.2505 -0.0343
  826MPD2    C212148   0.870   2.475  13.675 -1.0982 -0.2340  0.0675
  826MPD2    C312149   0.731   2.476  13.697 -0.3957  0.3234  0.0114
  826MPD2    C412150   0.665   2.360  13.698 -0.9421 -0.7793 -0.4365
  826MPD2    C512151   0.722   2.244  13.660 -0.2847 -0.0402 -0.1820
  826MPD2     H12152   0.937   2.559  13.688 -1.9320 -0.0039  2.8502
  826MPD2    H112153   0.558   2.356  13.713 -0.8637 -0.4710  0.1925
  826MPD2    H212154   0.887   2.148  13.569  0.8227  1.1488 -0.7649
  826MPD2    H312155   0.663   2.155  13.643  1.6233 -1.5441  0.9776
  826MPD2     N12156   0.663   2.594  13.736 -0.0636  0.0504 -0.5255
  826MPD2    H512157   0.563   2.582  13.748 -0.1027  0.5383 -0.3650
  826MPD2    N112158   1.071   2.334  13.628 -0.4466 -0.4782 -0.3367
  826MPD2    H712159   1.098   2.239  13.603  1.0274  0.2035 -1.2944
  827MPD2     C12160   2.083   3.733  10.353 -0.4194 -0.7841 -0.1439
  827MPD2    C112161   2.116   3.611  10.408  0.0029  0.4268  0.1423
  827MPD2    C212162   2.098   3.498  10.327 -0.5724  0.3164 -0.4722
  827MPD2    C312163   2.034   3.513  10.208 -0.1524 -0.9511  0.0690
  827MPD2    C412164   1.999   3.635  10.161 -0.2817  0.0843 -0.2247
  827MPD2    C512165   2.030   3.749  10.229 -0.3773  0.1660  0.0372
  827MPD2     H12166   2.116   3.397  10.360  1.7001  1.2118  1.0337
  827MPD2    H112167   1.931   3.660  10.080 -0.4859 -0.6188 -0.2722
  827MPD2    H212168   2.091   3.825  10.408  1.4975 -0.2349 -1.3603
  827MPD2    H312169   1.995   3.849  10.210  0.8144  0.2353 -1.8322
  827MPD2     N12170   1.989   3.396  10.137  0.3618 -0.1343  0.4160
  827MPD2    H512171   2.014   3.307  10.179  0.0809 -0.7388 -0.6940
  827MPD2    N112172   2.161   3.619  10.539 -0.3832  0.4379 -0.1054
  827MPD2    H712173   2.171   3.706  10.590  1.7847 -0.5554  1.1725
  828MPD2     C12174   4.493   3.258  12.662  0.1058  0.2358 -0.2050
  828MPD2    C112175   4.541   3.291  12.540  0.1233  0.1905  0.4030
  828MPD2    C212176   4.674   3.301  12.521 -0.0712 -0.1703 -0.4825
  828MPD2    C312177   0.044   3.288  12.625 -1.1101 -0.5855  0.3286
  828MPD2    C412178   4.712   3.262  12.753 -0.1664 -0.4745 -0.0659
  828MPD2    C512179   4.580   3.231  12.759 -0.4104  1.0058 -0.7292
  828MPD2     H12180   4.718   3.330  12.426  1.2528  0.3696  0.2965
  828MPD2    H112181   0.058   3.237  12.835  1.2734 -0.2848 -1.1861
  828MPD2    H212182   4.389   3.240  12.687  0.0870 -0.2928 -0.6749
  828MPD2    H312183   4.542   3.196  12.855  0.5054 -0.3267 -0.8547
  828MPD2     N12184   0.178   3.307  12.606 -0.1393 -0.1486  0.0115
  828MPD2    H512185   0.228   3.325  12.693 -0.0659  0.5138 -0.1681
  828MPD2    N112186   4.455   3.331  12.434  0.4003  0.4106 -0.2659
  828MPD2    H712187   4.499   3.368  12.350  0.8294  0.2628 -0.1087
  829MPD2     C12188   4.685   3.735  11.702 -0.6026 -0.2451 -0.6118
  829MPD2    C112189   4.558   3.711  11.665  0.2478  0.3317  1.0352
  829MPD2    C212190   4.467   3.679  11.760 -0.0260 -1.0179 -0.2922
  829MPD2    C312191   4.519   3.632  11.886 -0.3993 -0.3383 -0.3628
  829MPD2    C412192   4.647   3.643  11.915  0.3515 -0.1865 -0.2706
  829MPD2    C512193   0.012   3.698  11.830 -0.0345 -0.1627  0.2206
  829MPD2     H12194   4.362   3.675  11.737 -0.0713 -0.0584 -0.2571
  829MPD2    H112195   4.697   3.620  12.008 -2.2918  0.0751  1.1783
  829MPD2    H212196   0.033   3.772  11.627 -2.2011  0.0560 -1.9238
  829MPD2    H312197   0.117   3.715  11.849 -0.2810 -1.4448  2.7055
  829MPD2     N12198   4.438   3.570  11.988 -0.1032  0.0996  0.2002
  829MPD2    H512199   4.488   3.537  12.070 -0.4791  0.6038  0.6282
  829MPD2    N112200   4.518   3.745  11.534  0.1387  0.5460 -0.1304
  829MPD2    H712201   4.585   3.782  11.466 -0.4943 -0.0437 -1.0782
  830MPD2     C12202   0.325   1.607  15.419 -0.1297  0.2649 -0.1309
  830MPD2    C112203   0.373   1.675  15.531  0.3351  1.0347  0.2211
  830MPD2    C212204   0.487   1.754  15.513  0.2484  0.1362  0.1122
  830MPD2    C312205   0.544   1.774  15.392  0.2111  0.4360 -0.4133
  830MPD2    C412206   0.499   1.705  15.282 -0.0230 -0.2174  0.7088
  830MPD2    C512207   0.395   1.617  15.297 -0.2588 -0.4537  0.0587
  830MPD2     H12208   0.504   1.821  15.597  0.4597  0.6863 -0.3673
  830MPD2    H112209   0.547   1.735  15.190 -0.7802  0.3106  0.4896
  830MPD2    H212210   0.234   1.549  15.423  0.3226 -0.3198  1.5794
  830MPD2    H312211   0.351   1.564  15.214 -2.6336  1.3608  0.1605
  830MPD2     N12212   0.640   1.874  15.367 -0.2899  0.5915  0.1725
  830MPD2    H512213   0.658   1.901  15.271 -0.8144 -0.6652 -0.2809
  830MPD2    N112214   0.311   1.657  15.663  0.0363 -0.6000 -0.1822
  830MPD2    H712215   0.221   1.610  15.668 -0.5516  0.6575  1.2381
  831MPD2     C12216   0.308   3.672  16.171  0.4506 -0.1807  0.7348
  831MPD2    C112217   0.366   3.558  16.133  0.0522 -0.2927 -0.0497
  831MPD2    C212218   0.322   3.434  16.189 -0.2149 -0.9218  0.3890
  831MPD2    C312219   0.219   3.425  16.279  0.1584 -0.1283 -0.6479
  831MPD2    C412220   0.159   3.545  16.316  0.8937 -0.3419 -0.2725
  831MPD2    C512221   0.205   3.661  16.264  0.8096  0.6641  0.0069
  831MPD2     H12222   0.370   3.344  16.153 -1.3279 -1.6055  0.6377
  831MPD2    H112223   0.065   3.546  16.369  1.3092  0.1042  0.4525
  831MPD2    H212224   0.344   3.766  16.133 -0.4261 -0.0279  0.2736
  831MPD2    H312225   0.146   3.749  16.289  1.2664  0.2169  2.6092
  831MPD2     N12226   0.158   3.305  16.328  0.5195  0.4124  0.1205
  831MPD2    H512227   0.083   3.309  16.396 -0.4020 -0.7933 -0.8352
  831MPD2    N112228   0.457   3.562  16.025  0.6177 -0.4984 -0.5347
  831MPD2    H712229   0.465   3.646  15.968  1.0658 -1.1898 -1.4997
  832MPD2     C12230   2.855   4.696  17.471  0.3174  0.1676 -0.1424
  832MPD2    C112231   2.826   4.559  17.480 -0.6270  0.6645  0.0874
  832MPD2    C212232   2.703   4.522  17.414 -0.7964 -1.0715  0.2363
  832MPD2    C312233   2.629   4.613  17.339 -0.3219 -0.9831  0.8442
  832MPD2    C412234   2.672   0.021  17.334  0.6005 -0.2364 -0.1779
  832MPD2    C512235   2.781   0.067  17.400 -0.2238 -0.1101  0.1636
  832MPD2     H12236   2.680   4.416  17.412 -1.7402 -0.9138  2.1340
  832MPD2    H112237   2.621   0.102  17.282  1.2835  1.0775  1.1700
  832MPD2    H212238   2.948   0.011  17.513  0.7521  1.2279 -1.9968
  832MPD2    H312239   2.812   0.170  17.386 -1.9262  0.3373 -0.2109
  832MPD2     N12240   2.517   4.582  17.258 -0.1206  0.5717  0.3525
  832MPD2    H512241   2.478   4.648  17.191 -1.1693 -0.3920  0.0220
  832MPD2    N112242   2.926   4.475  17.530 -0.3403 -0.2363  0.2021
  832MPD2    H712243   3.004   4.528  17.569  0.7171 -0.9989 -0.8422
  833MPD2     C12244   0.650   1.119  12.698 -0.5087 -0.4278  0.0710
  833MPD2    C112245   0.715   1.153  12.586  0.0660  0.3685  0.6467
  833MPD2    C212246   0.788   1.061  12.512 -0.2962 -0.3161  0.7067
  833MPD2    C312247   0.792   0.928  12.547 -0.0445 -0.3086 -0.9672
  833MPD2    C412248   0.732   0.892  12.664 -0.3237 -0.3346 -0.1796
  833MPD2    C512249   0.660   0.983  12.737  0.0425 -0.4599 -0.6319
  833MPD2     H12250   0.840   1.090  12.421  1.9207 -0.0005  2.0685
  833MPD2    H112251   0.750   0.792  12.704  0.9497 -0.7907 -1.8978
  833MPD2    H212252   0.592   1.186  12.760  3.9959  2.2084  1.4167
  833MPD2    H312253   0.632   0.956  12.838  1.4361 -1.2393 -0.4555
  833MPD2     N12254   0.858   0.827  12.474 -0.2976  0.4808 -0.1546
  833MPD2    H512255   0.846   0.730  12.501  2.0054  0.4589  0.7419
  833MPD2    N112256   0.700   1.289  12.538 -0.3184  0.2976 -0.3376
  833MPD2    H712257   0.629   1.345  12.585 -0.6294 -0.5447  0.1915
  834MPD2     C12258   1.087   4.721  11.899 -0.6879  0.0942 -0.1734
  834MPD2    C112259   1.024   0.080  11.809 -0.2785 -0.3086 -0.1035
  834MPD2    C212260   0.987   0.207  11.847  0.0344 -0.3877 -0.0264
  834MPD2    C312261   1.017   0.256  11.979  0.2621  0.5072  0.1224
  834MPD2    C412262   1.082   0.173  12.068 -0.2703 -0.2416 -0.4630
  834MPD2    C512263   1.133   0.053  12.022 -0.3537 -0.1743 -0.2317
  834MPD2     H12264   0.932   0.273  11.780 -0.0572  1.7778  2.2051
  834MPD2    H112265   1.115   0.199  12.168 -1.2862  2.5765 -0.8658
  834MPD2    H212266   1.119   4.619  11.882 -0.7456  0.0926 -0.2747
  834MPD2    H312267   1.189   4.709  12.088  0.4959  0.9400  0.1471
  834MPD2     N12268   0.978   0.390  12.021 -0.2814  0.1072  0.6826
  834MPD2    H512269   0.948   0.458  11.951  0.3279 -0.6914 -0.3490
  834MPD2    N112270   0.987   0.022  11.684  0.8785 -0.2625  0.4882
  834MPD2    H712271   1.003   4.644  11.671 -2.1854 -0.8214  1.0838
  835MPD2     C12272   0.524   3.800  11.124 -0.2537 -1.0008  0.0226
  835MPD2    C112273   0.393   3.807  11.103  0.5649 -0.9680 -0.5222
  835MPD2    C212274   0.335   3.916  11.155 -0.7264  0.3701  0.2828
  835MPD2    C312275   0.399   4.006  11.236  0.4313  0.1525  0.6183
  835MPD2    C412276   0.531   3.988  11.258 -0.8237 -0.1405  0.4349
  835MPD2    C512277   0.596   3.889  11.195  0.1916 -0.8173  0.8551
  835MPD2     H12278   0.231   3.918  11.127 -0.1686 -1.4020 -1.9450
  835MPD2    H112279   0.581   4.061  11.321 -0.4044 -0.5477  0.5669
  835MPD2    H212280   0.584   3.716  11.091 -0.8605 -0.8144 -1.5109
  835MPD2    H312281   0.702   3.870  11.208  0.3687  0.9383  2.0216
  835MPD2     N12282   0.330   4.102  11.307  0.1610 -0.0752  0.0013
  835MPD2    H512283   0.388   4.158  11.369 -0.0177 -2.5122  2.3668
  835MPD2    N112284   0.319   3.722  11.012  0.3979 -0.4260  0.3491
  835MPD2    H712285   0.223   3.747  10.992  0.2329 -0.7060  0.8000
  836MPD2     C12286   4.271   4.166  11.342  0.7543  0.2187 -0.0537
  836MPD2    C112287   4.330   4.120  11.454  0.0207  0.4941  0.0297
  836MPD2    C212288   4.252   4.060  11.548 -0.1432  0.0376 -0.1423
  836MPD2    C312289   4.117   4.059  11.539 -0.2244  0.0892 -0.1343
  836MPD2    C412290   4.057   4.107  11.426 -0.0216  0.1126  0.1209
  836MPD2    C512291   4.137   4.169  11.327  0.0678  0.4223 -0.2064
  836MPD2     H12292   4.304   4.013  11.631  0.5335 -2.1517 -1.7697
  836MPD2    H112293   3.950   4.117  11.420  0.0056  1.3722  1.6763
  836MPD2    H212294   4.324   4.215  11.261  0.9086  1.4192  0.7750
  836MPD2    H312295   4.097   4.222  11.242  0.7479  3.3517  1.3020
  836MPD2     N12296   4.037   4.013  11.649 -0.0532  0.6153  0.0782
  836MPD2    H512297   3.937   4.025  11.635 -0.0620 -0.5443 -0.8334
  836MPD2    N112298   4.469   4.124  11.475 -0.4565  0.2635  1.1714
  836MPD2    H712299   4.521   4.169  11.400 -1.0651 -0.2657  0.4243
  837MPD2     C12300   3.775   3.602  10.006 -0.1621 -0.1996  0.0783
  837MPD2    C112301   3.647   3.668  10.011  0.0526  0.3776 -0.1205
  837MPD2    C212302   3.645   3.797   9.973  0.6227 -0.1978 -0.9332
  837MPD2    C312303   3.752   3.874   9.936 -0.1313 -0.8912 -0.2417
  837MPD2    C412304   3.880   3.806   9.936  0.1427  0.0634 -0.2853
  837MPD2    C512305   3.883   3.671   9.976  0.2533 -0.4330 -0.4972
  837MPD2     H12306   3.548   3.845   9.972  1.3854  1.4293  1.6725
  837MPD2    H112307   3.976   3.857   9.933  0.0167  0.3066 -0.2162
  837MPD2    H212308   3.769   3.495  10.022  1.3278 -0.3339 -0.2924
  837MPD2    H312309   3.979   3.620   9.976  0.5267  0.0715  0.5451
  837MPD2     N12310   3.731   4.014   9.908  0.5384 -0.1772  0.0048
  837MPD2    H512311   3.642   4.055   9.937  0.6999  0.4817 -0.4285
  837MPD2    N112312   3.529   3.598  10.048 -0.0132  0.5815 -0.2466
  837MPD2    H712313   3.454   3.665  10.065  1.0350  0.8799  3.3230
  838MPD2     C12314   1.824   1.830  11.911 -0.6404 -0.1599 -0.2351
  838MPD2    C112315   1.872   1.772  12.030  0.6549 -0.2987  0.2584
  838MPD2    C212316   1.808   1.648  12.074  0.2660  0.1699  0.7018
  838MPD2    C312317   1.692   1.601  12.020  0.3204  0.5368  0.5153
  838MPD2    C412318   1.652   1.652  11.902 -0.0336 -0.8246  0.2536
  838MPD2    C512319   1.707   1.771  11.855 -0.7241 -0.0145  0.3357
  838MPD2     H12320   1.840   1.601  12.166  1.2523  0.3103  0.4276
  838MPD2    H112321   1.566   1.607  11.854 -1.0287 -1.2029  2.3757
  838MPD2    H212322   1.865   1.923  11.871  1.5336 -1.3815 -0.8591
  838MPD2    H312323   1.665   1.826  11.771  1.5386  0.7860 -0.2723
  838MPD2     N12324   1.640   1.484  12.080 -0.3605  0.1476 -0.2552
  838MPD2    H512325   1.686   1.446  12.162  2.7140  1.4230 -1.4019
  838MPD2    N112326   1.989   1.809  12.096  0.0178  0.3226 -0.2839
  838MPD2    H712327   2.009   1.730  12.157 -2.5364 -1.1819 -1.3565
  839MPD2     C12328   2.012   1.163  12.090 -0.3200  0.6424  0.1844
  839MPD2    C112329   2.005   1.262  11.990  0.1116  0.1362  0.2439
  839MPD2    C212330   2.103   1.355  11.994  0.0825  0.7468  0.2442
  839MPD2    C312331   2.178   1.374  12.112 -0.1541  1.2385 -0.0205
  839MPD2    C412332   2.174   1.285  12.210 -0.6498  0.5400 -1.0987
  839MPD2    C512333   2.091   1.177  12.199 -0.1666 -0.1720  0.0060
  839MPD2     H12334   2.109   1.425  11.911 -2.1977  1.9929  1.1239
  839MPD2    H112335   2.236   1.291  12.298 -2.3010 -1.2942  0.1797
  839MPD2    H212336   1.943   1.080  12.099 -1.5836  1.4272 -2.2360
  839MPD2    H312337   2.093   1.103  12.278  2.9935  1.1545  1.1853
  839MPD2     N12338   2.262   1.478  12.144 -0.6130  0.5844 -0.3366
  839MPD2    H512339   2.297   1.483  12.240  1.9401  0.3257 -1.2681
  839MPD2    N112340   1.893   1.268  11.901  0.4013 -0.3738 -0.5139
  839MPD2    H712341   1.892   1.336  11.826  2.3650 -0.6591 -0.7762
  840MPD2     C12342   2.260   4.141  10.782 -0.1485 -0.1795 -0.1145
  840MPD2    C112343   2.367   4.069  10.843  0.5739 -0.5545 -0.6746
  840MPD2    C212344   2.468   4.129  10.894  0.0902  0.2074  0.2401
  840MPD2    C312345   2.477   4.268  10.913 -0.1106  0.2797  0.0219
  840MPD2    C412346   2.370   4.335  10.855 -0.0330 -0.0018 -0.2697
  840MPD2    C512347   2.261   4.275  10.799 -0.5826  0.4078 -0.1795
  840MPD2     H12348   2.552   4.067  10.923 -0.2339  0.2147  1.1750
  840MPD2    H112349   2.366   4.442  10.875 -0.1592  0.2082 -1.4326
  840MPD2    H212350   2.188   4.091  10.718 -0.0728 -0.0170 -0.3269
  840MPD2    H312351   2.181   4.331  10.752  0.0698 -0.2394 -2.0876
  840MPD2     N12352   2.580   4.343  10.986  0.4390 -0.2671 -0.8345
  840MPD2    H512353   2.583   4.444  10.973  1.0703  0.0251  1.6398
  840MPD2    N112354   2.356   3.925  10.832  0.1363  0.2872  0.3118
  840MPD2    H712355   2.269   3.882  10.799  0.4977  0.8713 -1.4139
  841MPD2     C12356   2.339   3.994  14.718 -0.7725  0.5511  0.1547
  841MPD2    C112357   2.327   3.928  14.835  0.4459  0.4886 -0.1339
  841MPD2    C212358   2.426   3.945  14.938  0.0820 -0.0975  0.2339
  841MPD2    C312359   2.537   4.020  14.920  0.0356  0.0763  0.0717
  841MPD2    C412360   2.557   4.075  14.791  0.1664 -0.2205  0.3974
  841MPD2    C512361   2.459   4.058  14.697  0.6843  0.3111  0.0870
  841MPD2     H12362   2.409   3.913  15.040  0.5939  0.2707  0.4397
  841MPD2    H112363   2.635   4.148  14.771  1.0714 -0.4086  3.1877
  841MPD2    H212364   2.265   3.996  14.639  1.0219  0.9087 -1.5367
  841MPD2    H312365   2.464   4.112  14.604 -0.2251 -0.0618 -0.1792
  841MPD2     N12366   2.613   4.051  15.035 -0.2694 -0.1722 -0.3517
  841MPD2    H512367   2.580   4.014  15.124  1.3311 -1.3296 -0.2289
  841MPD2    N112368   2.216   3.846  14.865  0.0275 -0.2455  0.1923
  841MPD2    H712369   2.218   3.802  14.956  3.6954 -0.5720 -0.0174
  842MPD2     C12370   1.390   0.733  16.962 -0.1824  0.5784 -0.7640
  842MPD2    C112371   1.428   0.601  16.957  0.1448  0.1569 -0.1279
  842MPD2    C212372   1.497   0.544  17.064  0.3462 -0.1897 -0.5778
  842MPD2    C312373   1.539   0.616  17.171 -0.7866 -0.4274  0.7563
  842MPD2    C412374   1.501   0.747  17.169 -0.5361 -0.2786  0.4084
  842MPD2    C512375   1.419   0.801  17.076  0.8964 -0.6806  0.3997
  842MPD2     H12376   1.546   0.449  17.047 -0.9898 -0.7803 -1.1309
  842MPD2    H112377   1.540   0.809  17.248 -2.7111  2.4547 -0.6410
  842MPD2    H212378   1.324   0.775  16.887 -0.9064 -0.0564 -0.4827
  842MPD2    H312379   1.392   0.906  17.085 -0.7527 -1.1382  0.8167
  842MPD2     N12380   1.637   0.572  17.268  0.5163 -0.1036 -0.1030
  842MPD2    H512381   1.675   0.639  17.334 -0.8663  1.9633 -1.4035
  842MPD2    N112382   1.417   0.540  16.829 -0.0392  0.3248  0.1434
  842MPD2    H712383   1.394   0.602  16.751  0.0123  0.6478  0.3816
  843MPD2     C12384   4.465   4.282   0.449 -0.1345  0.2079 -0.3532
  843MPD2    C112385   4.426   4.361   0.552 -0.2077  0.1861 -0.0742
  843MPD2    C212386   4.489   4.477   0.582 -0.4686 -0.0728  0.2864
  843MPD2    C312387   4.611   4.506   0.511 -0.6048 -0.6801  0.6816
  843MPD2    C412388   4.655   4.421   0.413 -0.3193  0.1544  0.0163
  843MPD2    C512389   4.580   4.308   0.381  0.1236  0.0736  0.1842
  843MPD2     H12390   4.459   4.534   0.669 -2.2539  1.0732 -1.0692
  843MPD2    H112391   0.029   4.450   0.370  1.6275 -2.5407  2.5109
  843MPD2    H212392   4.398   4.205   0.413  0.4002 -0.3264 -0.2137
  843MPD2    H312393   4.620   4.247   0.300 -0.0232  0.2556 -0.0256
  843MPD2     N12394   4.673   4.624   0.533  0.4902 -0.0043 -0.3332
  843MPD2    H512395   0.024   4.649   0.466 -0.7942  2.8125 -0.6423
  843MPD2    N112396   4.306   4.321   0.612  0.3328 -0.0636 -0.0149
  843MPD2    H712397   4.266   4.232   0.581 -2.3734  1.1450  0.0576
  844MPD2     C12398   2.761   4.497  16.971 -0.0674 -0.0835  0.1848
  844MPD2    C112399   2.850   4.400  17.010 -0.3424  0.0748  0.7627
  844MPD2    C212400   2.988   4.416  17.004  0.4836  0.3431 -0.0976
  844MPD2    C312401   3.037   4.545  16.976  0.8056  0.8310  0.6824
  844MPD2    C412402   2.940   4.640  16.931 -0.1239  0.1776 -0.1759
  844MPD2    C512403   2.807   4.621  16.934  0.0726 -0.0313  1.2412
  844MPD2     H12404   3.058   4.343  17.045 -0.8563 -0.6913  0.3297
  844MPD2    H112405   2.975   0.015  16.894 -0.8221  0.6257  0.3426
  844MPD2    H212406   2.657   4.478  16.993 -0.1527 -0.6769 -0.7292
  844MPD2    H312407   2.735   4.700  16.919  1.3037  0.6629 -1.0693
  844MPD2     N12408   3.174   4.572  16.958  0.3078  0.6469  0.4429
  844MPD2    H512409   3.238   4.496  16.982  1.2597  0.7593 -1.7856
  844MPD2    N112410   2.798   4.275  17.048 -0.1528  0.9001  0.3657
  844MPD2    H712411   2.867   4.205  17.075  0.8883  1.7713 -0.0090
  845MPD2     C12412   3.389   0.695  17.277 -0.3482  0.0122 -0.3017
  845MPD2    C112413   3.279   0.609  17.278  0.6358 -0.5581 -0.6805
  845MPD2    C212414   3.304   0.480  17.220  0.3751 -0.9045  0.4802
  845MPD2    C312415   3.428   0.444  17.175 -0.4193  0.1336  1.0626
  845MPD2    C412416   3.532   0.532  17.182  0.0426 -0.7256 -0.6581
  845MPD2    C512417   3.518   0.660  17.236 -0.3335 -0.2699  0.2273
  845MPD2     H12418   3.224   0.407  17.225  0.4828 -0.9098  2.2902
  845MPD2    H112419   3.629   0.497  17.148  1.2969 -0.6316  2.7864
  845MPD2    H212420   3.374   0.798  17.310 -1.2069 -0.7789  1.7893
  845MPD2    H312421   3.597   0.734  17.236  1.2467 -1.9552  1.1455
  845MPD2     N12422   3.442   0.314  17.121 -0.2691 -0.1724 -0.2267
  845MPD2    H512423   3.355   0.263  17.114 -1.5567  2.2807 -2.3559
  845MPD2    N112424   3.158   0.659  17.332 -0.7667 -0.1125 -0.5564
  845MPD2    H712425   3.163   0.758  17.352 -0.5783 -0.3920  0.7425
  846MPD2     C12426   0.045   0.543  13.427  0.6671  0.0308 -0.1912
  846MPD2    C112427   0.066   0.678  13.425 -0.3516  0.1032  0.1384
  846MPD2    C212428   0.074   0.748  13.542  0.5330 -0.4578 -0.0792
  846MPD2    C312429   0.047   0.681  13.662  0.6930 -0.7001 -0.1593
  846MPD2    C412430   0.018   0.542  13.662 -0.3307 -0.0699 -0.3563
  846MPD2    C512431   0.012   0.478  13.541 -0.0477 -0.2749 -0.5736
  846MPD2     H12432   0.122   0.845  13.542 -0.4914  0.0315 -3.4303
  846MPD2    H112433   0.001   0.476  13.746  1.4109 -0.3327 -0.2006
  846MPD2    H212434   0.026   0.485  13.337  1.0386 -0.9264  0.3522
  846MPD2    H312435   4.703   0.374  13.540 -0.4335 -0.1692 -0.0431
  846MPD2     N12436   0.043   0.756  13.779 -0.6777 -0.4433 -0.1056
  846MPD2    H512437   0.034   0.857  13.779  1.8396 -0.2151 -0.3903
  846MPD2    N112438   0.091   0.751  13.307 -0.3942  0.2361  0.3092
  846MPD2    H712439   0.117   0.848  13.322  0.9746 -0.0913  0.0982
  847MPD2     C12440   0.267   1.695  13.813  0.0836  0.4042 -0.1775
  847MPD2    C112441   0.316   1.740  13.935 -0.0139  0.3851  0.5298
  847MPD2    C212442   0.362   1.647  14.029 -0.2765 -0.2135 -0.3157
  847MPD2    C312443   0.382   1.520  13.986  0.2689 -0.5434  0.3990
  847MPD2    C412444   0.337   1.472  13.865 -1.1704  0.5695 -0.8809
  847MPD2    C512445   0.280   1.563  13.780 -0.4131 -0.2728  0.0445
  847MPD2     H12446   0.412   1.675  14.121  0.2245 -0.1894 -0.5935
  847MPD2    H112447   0.346   1.370  13.828 -1.1572  0.2025  0.1239
  847MPD2    H212448   0.233   1.764  13.737  1.6776 -0.1175 -1.3719
  847MPD2    H312449   0.257   1.516  13.686  0.1077  1.1675 -0.8038
  847MPD2     N12450   0.457   1.440  14.070  0.3374  0.4223 -0.7074
  847MPD2    H512451   0.509   1.366  14.023  1.3374  1.3184 -1.0058
  847MPD2    N112452   0.326   1.879  13.968  0.1146 -0.3661 -0.0098
  847MPD2    H712453   0.361   1.904  14.060  0.9942  1.5631 -0.8723
  848MPD2     C12454   2.444   4.568  16.593 -0.1125  0.5751 -0.7964
  848MPD2    C112455   2.377   4.647  16.684  0.1171 -0.5199  1.3404
  848MPD2    C212456   2.366   0.062  16.650 -0.6736 -0.4473 -0.4622
  848MPD2    C312457   2.416   0.110  16.532  0.7388 -0.2527  0.0573
  848MPD2    C412458   2.498   0.033  16.449 -1.2380 -0.4427 -0.2806
  848MPD2    C512459   2.510   4.620  16.484 -0.7931 -0.0835  0.1546
  848MPD2     H12460   2.320   0.131  16.720  2.5611  0.9941  0.2767
  848MPD2    H112461   2.533   0.070  16.354 -1.3291  1.1490  0.3007
  848MPD2    H212462   2.471   4.466  16.616 -1.7753  1.0886  3.3590
  848MPD2    H312463   2.545   4.551  16.407  0.5657  2.1528 -1.2203
  848MPD2     N12464   2.408   0.245  16.492  0.1291 -0.3310 -0.5616
  848MPD2    H512465   2.436   0.256  16.395  1.4764  2.4489  0.1354
  848MPD2    N112466   2.325   4.594  16.810 -0.5453  0.0156  0.5153
  848MPD2    H712467   2.275   4.654  16.875 -1.6193 -0.4907  0.1530
  849MPD2     C12468   1.669   4.574  14.477  0.4777  0.1829 -0.1025
  849MPD2    C112469   1.775   4.627  14.408  0.5745 -0.2752 -0.3290
  849MPD2    C212470   1.899   4.583  14.454  0.3337  0.1826 -0.3125
  849MPD2    C312471   1.920   4.519  14.570  0.3195 -0.1341  0.4484
  849MPD2    C412472   1.809   4.476  14.633  0.2859 -0.4206 -0.6118
  849MPD2    C512473   1.688   4.502  14.593  0.2702 -0.6693  0.5773
  849MPD2     H12474   1.991   4.606  14.401  0.3169 -3.8929 -2.0599
  849MPD2    H112475   1.812   4.430  14.732  0.1520 -1.0649 -0.9063
  849MPD2    H212476   1.565   4.587  14.450  0.3401 -2.1628 -0.6815
  849MPD2    H312477   1.602   4.472  14.651 -0.2641 -2.8362 -1.3239
  849MPD2     N12478   2.052   4.514  14.621  0.4045 -0.3014  0.2234
  849MPD2    H512479   2.121   4.528  14.548 -0.2976  0.9984 -0.2079
  849MPD2    N112480   1.769   4.713  14.291 -0.0897  0.1247  0.3441
  849MPD2    H712481   1.679   0.017  14.252  0.2026  1.5115  0.5465
  850MPD2     C12482   0.157   2.776  14.630  0.2256  0.3186 -0.0021
  850MPD2    C112483   0.176   2.809  14.764  0.1912  0.5575  0.6418
  850MPD2    C212484   0.298   2.781  14.826  0.7521 -0.1692  0.3550
  850MPD2    C312485   0.396   2.709  14.758 -0.6225  0.7094 -0.3944
  850MPD2    C412486   0.371   2.680  14.622  0.1464  0.1741 -0.3440
  850MPD2    C512487   0.261   2.726  14.553  0.1257 -0.6589  0.1694
  850MPD2     H12488   0.311   2.788  14.934  1.2555  0.5872  0.2493
  850MPD2    H112489   0.448   2.630  14.564  0.9272 -0.3617  1.1399
  850MPD2    H212490   0.071   2.813  14.576 -0.2954 -0.9704 -0.0319
  850MPD2    H312491   0.255   2.700  14.448 -1.5160  1.2504 -0.2084
  850MPD2     N12492   0.514   2.664  14.819  0.4547 -0.9178  0.7346
  850MPD2    H512493   0.583   2.611  14.767  0.5802  1.3880 -1.4260
  850MPD2    N112494   0.062   2.860  14.833 -0.4955 -0.2789 -0.0759
  850MPD2    H712495   4.696   2.855  14.782  0.7041 -0.9745 -2.0774
  851MPD2     C12496   0.450   2.809  15.570 -0.0017  0.3062 -0.2074
  851MPD2    C112497   0.396   2.731  15.470 -0.3690 -0.0269  0.5926
  851MPD2    C212498   0.453   2.609  15.455 -0.0461  0.6806  0.2081
  851MPD2    C312499   0.569   2.570  15.518  0.3339 -0.4641 -0.6295
  851MPD2    C412500   0.622   2.647  15.615 -0.9471 -0.3567  0.6189
  851MPD2    C512501   0.562   2.768  15.635  0.2059 -0.1323 -0.5075
  851MPD2     H12502   0.414   2.533  15.388  2.3286  0.3541 -0.8368
  851MPD2    H112503   0.718   2.629  15.662  0.1751 -1.2587 -1.9975
  851MPD2    H212504   0.412   2.910  15.578 -1.5908 -0.2293 -0.9910
  851MPD2    H312505   0.603   2.831  15.713  0.5695 -1.6396  0.5088
  851MPD2     N12506   0.620   2.442  15.483 -0.5901 -0.0497  0.3951
  851MPD2    H512507   0.579   2.400  15.400  1.8343 -0.9966 -0.3141
  851MPD2    N112508   0.289   2.784  15.389 -0.3515  0.2296  0.0123
  851MPD2    H712509   0.267   2.881  15.406  0.5009  0.2977  0.7463
  852MPD2     C12510   4.561   4.413   9.835 -0.0417  0.2365 -0.0515
  852MPD2    C112511   4.592   4.446   9.963 -0.3968  0.6302 -0.3913
  852MPD2    C212512   4.606   4.579   9.998  0.3333  0.5116  0.0607
  852MPD2    C312513   4.599   4.679   9.903 -0.7643 -0.2549  0.0033
  852MPD2    C412514   4.582   4.636   9.772 -0.5804 -0.2506  0.2160
  852MPD2    C512515   4.565   4.510   9.743 -0.1312 -1.1559  0.0888
  852MPD2     H12516   4.620   4.607  10.102 -0.7456 -0.1048  0.3789
  852MPD2    H112517   4.585   4.702   9.686  2.3153  0.0782  0.5667
  852MPD2    H212518   4.538   4.309   9.813  0.9185 -0.0248  0.1797
  852MPD2    H312519   4.549   4.487   9.638 -0.9741 -2.2528  0.4540
  852MPD2     N12520   4.615   0.098   9.944  0.4922  0.0088  0.8326
  852MPD2    H512521   4.640   0.117  10.040  0.0505 -1.1366  1.1682
  852MPD2    N112522   4.594   4.346  10.065 -0.3232  0.0128 -0.1957
  852MPD2    H712523   4.604   4.381  10.160  3.9858  0.1159 -0.6937
  853MPD2     C12524   2.069   0.266  12.445  0.0813 -0.6114  0.1195
  853MPD2    C112525   1.949   0.337  12.425 -0.0113 -0.1411 -0.2848
  853MPD2    C212526   1.909   0.346  12.296  0.5954  0.4224  0.5137
  853MPD2    C312527   1.966   0.272  12.191  0.2069  0.6478 -0.1796
  853MPD2    C412528   2.081   0.198  12.217 -0.1963 -0.0637  0.6507
  853MPD2    C512529   2.132   0.198  12.347 -1.2597 -0.4612  0.8238
  853MPD2     H12530   1.831   0.417  12.269 -1.2462 -0.6263  3.1678
  853MPD2    H112531   2.119   0.130  12.141  1.2959  1.5697 -0.0505
  853MPD2    H212532   2.104   0.268  12.548  2.2344 -2.6711 -0.5827
  853MPD2    H312533   2.225   0.146  12.364 -0.4428  0.4247 -0.8214
  853MPD2     N12534   1.912   0.258  12.060 -0.0585  0.6829 -0.0030
  853MPD2    H512535   1.962   0.189  12.005  0.0181  2.6362 -2.3568
  853MPD2    N112536   1.882   0.400  12.534  0.1866  0.1151  0.3652
  853MPD2    H712537   1.925   0.400  12.626 -0.0414  0.6842  0.4761
  854MPD2     C12538   3.318   0.129  12.838 -0.6869  0.1371  0.0876
  854MPD2    C112539   3.352   0.074  12.721  0.4285  0.4652  0.2619
  854MPD2    C212540   3.429   4.678  12.724 -0.6368 -0.1551 -0.5448
  854MPD2    C312541   3.457   4.623  12.849  0.4142 -0.0873 -0.0568
  854MPD2    C412542   3.421   4.689  12.968 -0.0091 -0.3080 -0.1839
  854MPD2    C512543   3.346   0.078  12.956 -0.1279 -0.5662  0.6022
  854MPD2     H12544   3.458   4.623  12.636 -1.0893  1.4897 -1.7115
  854MPD2    H112545   3.451   4.655  13.066 -2.2800  1.0981  1.0038
  854MPD2    H212546   3.255   0.218  12.837  0.6819  1.0635 -2.1070
  854MPD2    H312547   3.329   0.134  13.047  2.3474  1.9349 -0.4993
  854MPD2     N12548   3.514   4.492  12.874 -0.2129  0.0086 -0.3048
  854MPD2    H512549   3.510   4.468  12.973 -1.7173  2.3716  0.2214
  854MPD2    N112550   3.301   0.145  12.610  0.6549 -0.2858 -0.5476
  854MPD2    H712551   3.246   0.230  12.616 -0.5628 -1.0639 -0.6534
  855MPD2     C12552   4.171   4.584  13.456  0.6917  0.3750  0.2069
  855MPD2    C112553   4.035   4.561  13.465 -0.5945  0.1210  0.4823
  855MPD2    C212554   3.962   4.486  13.367  0.1707 -0.5681 -0.7970
  855MPD2    C312555   4.028   4.435  13.256 -0.1661 -0.2492 -0.2312
  855MPD2    C412556   4.168   4.461  13.249  0.1412  0.0583  0.2238
  855MPD2    C512557   4.233   4.537  13.342 -0.0420  0.2553 -0.0454
  855MPD2     H12558   3.856   4.472  13.383 -0.2517  4.4365  0.7848
  855MPD2    H112559   4.232   4.428  13.168  1.3313 -0.9381  1.5375
  855MPD2    H212560   4.226   4.641  13.530  2.9960  1.3829 -2.2533
  855MPD2    H312561   4.335   4.566  13.322  0.4192 -0.7660  0.7995
  855MPD2     N12562   3.978   4.354  13.162 -0.0310 -0.0464 -0.6415
  855MPD2    H512563   4.044   4.316  13.095 -1.1225  1.7456 -2.7132
  855MPD2    N112564   3.977   4.619  13.579 -0.8253 -0.3782 -0.3240
  855MPD2    H712565   4.041   4.661  13.646  0.7496  0.2162 -2.2125
  856MPD2     C12566   1.166   0.963  13.499 -0.4612  0.0990 -0.3011
  856MPD2    C112567   1.196   1.041  13.610 -0.2311 -0.7311  0.1533
  856MPD2    C212568   1.113   1.145  13.648  0.1086 -0.4212  0.1277
  856MPD2    C312569   1.010   1.179  13.569  0.5254  0.1792 -0.6135
  856MPD2    C412570   0.980   1.091  13.467  0.2600 -0.2765  0.8432
  856MPD2    C512571   1.052   0.978  13.433  0.8034  0.0831 -0.0321
  856MPD2     H12572   1.135   1.207  13.735  0.5374  1.3098 -1.2244
  856MPD2    H112573   0.891   1.109  13.408  1.5671  1.7932 -0.5113
  856MPD2    H212574   1.235   0.881  13.482 -1.2488 -0.3082 -1.4669
  856MPD2    H312575   1.024   0.903  13.360  0.0964  0.9923 -0.7044
  856MPD2     N12576   0.916   1.281  13.597 -0.4077  0.3463 -0.4280
  856MPD2    H512577   0.836   1.286  13.535 -0.5442 -0.2396 -0.2998
  856MPD2    N112578   1.314   1.022  13.686 -0.5341  0.2405 -0.5173
  856MPD2    H712579   1.333   1.089  13.760  1.3340  0.6974 -1.4048
  857MPD2     C12580   2.238   2.998  13.054  0.8247  0.2680  0.6722
  857MPD2    C112581   2.377   3.000  13.026 -0.0766  0.5590 -0.1111
  857MPD2    C212582   2.440   3.119  13.065  0.2646 -0.6513 -0.1450
  857MPD2    C312583   2.373   3.227  13.109  0.7346  0.1834  0.3685
  857MPD2    C412584   2.232   3.222  13.122 -0.2159  0.0253 -0.1319
  857MPD2    C512585   2.167   3.106  13.094 -0.3300 -0.3607  0.2485
  857MPD2     H12586   2.547   3.129  13.055  0.0130 -0.2072 -2.2309
  857MPD2    H112587   2.164   3.302  13.152 -2.7038 -2.1588  0.0981
  857MPD2    H212588   2.181   2.908  13.033  1.3648 -0.3054  1.6831
  857MPD2    H312589   2.060   3.098  13.111 -0.5299 -1.2568 -1.4872
  857MPD2     N12590   2.453   3.342  13.152 -0.3567 -0.0370 -0.3786
  857MPD2    H512591   2.553   3.331  13.137 -0.4390 -1.7523  0.3412
  857MPD2    N112592   2.438   2.887  12.981 -0.2510  0.2712 -0.1038
  857MPD2    H712593   2.382   2.803  12.968  1.1529 -0.9983  1.9602
  858MPD2     C12594   3.128   2.259  16.739  0.6790  0.2652  0.0343
  858MPD2    C112595   3.261   2.291  16.751 -0.3293 -0.0174 -0.3872
  858MPD2    C212596   3.309   2.311  16.881  0.1879  0.1455 -0.0020
  858MPD2    C312597   3.220   2.323  16.985 -0.4505  0.0726 -0.3166
  858MPD2    C412598   3.084   2.304  16.965 -0.0435 -0.6993  0.8590
  858MPD2    C512599   3.036   2.276  16.842 -0.0796 -0.0169 -0.0759
  858MPD2     H12600   3.416   2.323  16.894 -0.1317  1.6309  1.3366
  858MPD2    H112601   3.019   2.341  17.044  0.5415  0.2514  0.8927
  858MPD2    H212602   3.075   2.236  16.647  3.2603 -0.5151 -1.2670
  858MPD2    H312603   2.929   2.269  16.827 -0.3530 -0.5700  2.1076
  858MPD2     N12604   3.258   2.360  17.117 -0.1905  0.1834 -0.0576
  858MPD2    H512605   3.185   2.365  17.187 -0.3872 -0.3807 -0.2320
  858MPD2    N112606   3.325   2.297  16.625 -0.1816 -0.7053  0.6284
  858MPD2    H712607   3.267   2.279  16.544 -1.5230 -1.9726  1.8569
  859MPD2     C12608   1.685   4.686  15.775  0.5556 -0.5969 -0.1752
  859MPD2    C112609   1.817   4.692  15.770  1.0622 -0.1269  0.4866
  859MPD2    C212610   1.892   4.613  15.853  0.0971 -0.1923  0.2904
  859MPD2    C312611   1.834   4.535  15.947 -0.0899  0.5393 -0.2422
  859MPD2    C412612   1.703   4.550  15.965  0.0332 -0.5146 -0.0345
  859MPD2    C512613   1.625   4.612  15.875 -0.3652 -0.3188 -0.2122
  859MPD2     H12614   2.000   4.610  15.856  0.1235  0.4705  0.1456
  859MPD2    H112615   1.650   4.492  16.040  1.7649 -0.1803  1.4396
  859MPD2    H212616   1.626   0.005  15.694 -0.4764 -0.6439  0.5559
  859MPD2    H312617   1.517   4.609  15.885 -0.2774 -1.5722  0.3099
  859MPD2     N12618   1.903   4.448  16.034  0.0713 -0.0080 -0.0615
  859MPD2    H512619   1.835   4.394  16.087 -1.6809  3.3898  1.1497
  859MPD2    N112620   1.875   0.065  15.682  0.1730 -0.8188 -0.3144
  859MPD2    H712621   1.808   0.120  15.629  0.1906  0.7908  1.3587
  860MPD2     C12622   4.603   4.610  11.506 -0.2025 -0.1613 -0.6634
  860MPD2    C112623   4.606   4.520  11.610  0.3081  0.0381  0.3642
  860MPD2    C212624   4.479   4.465  11.639 -0.8510 -0.4737 -0.3729
  860MPD2    C312625   4.365   4.493  11.572 -0.1778 -0.2961 -0.1662
  860MPD2    C412626   4.371   4.577  11.459  0.1730 -0.2159 -0.1463
  860MPD2    C512627   4.487   4.638  11.431  0.1826 -0.3996  1.0986
  860MPD2     H12628   4.474   4.403  11.727  3.2879  0.4918  0.5618
  860MPD2    H112629   4.295   4.595  11.383 -1.5133 -2.5826  0.9788
  860MPD2    H212630   4.689   4.666  11.470  0.5424 -0.8994 -0.0362
  860MPD2    H312631   4.487   4.704  11.346 -0.9092 -3.5916 -1.4104
  860MPD2     N12632   4.236   4.450  11.617 -0.5905 -0.0966  0.4180
  860MPD2    H512633   4.234   4.398  11.704  1.5161 -0.5166  0.2207
  860MPD2    N112634   4.718   4.489  11.690  0.3486  0.3934 -0.7039
  860MPD2    H712635   4.700   4.438  11.776  1.3062  0.5752 -0.3968
  861MPD2     C12636   2.908   2.878  11.403  0.6440 -0.3822  0.3564
  861MPD2    C112637   2.963   3.003  11.434 -0.1825 -0.8205 -0.8351
  861MPD2    C212638   2.909   3.111  11.372 -0.1198  0.2874 -0.1330
  861MPD2    C312639   2.795   3.099  11.289 -0.4326  0.4068 -0.6860
  861MPD2    C412640   2.740   2.975  11.259 -0.6605  0.7559  0.1583
  861MPD2    C512641   2.793   2.866  11.319 -0.9107 -0.0862 -0.7902
  861MPD2     H12642   2.955   3.209  11.372  0.3498  0.0662  0.0578
  861MPD2    H112643   2.661   2.965  11.185 -1.4006  2.6202  0.6918
  861MPD2    H212644   2.940   2.795  11.464  1.6960 -0.3047 -0.0883
  861MPD2    H312645   2.757   2.767  11.295 -0.8622  0.1484 -1.8193
  861MPD2     N12646   2.744   3.215  11.222 -0.3854  0.1026 -0.0354
  861MPD2    H512647   2.699   3.208  11.132 -2.3345  1.5335  0.8332
  861MPD2    N112648   3.050   3.005  11.542  0.4760  0.0491  0.1870
  861MPD2    H712649   3.089   2.917  11.577 -1.7496  0.0651  2.6964
  862MPD2     C12650   2.898   3.453  10.582 -0.0390  0.4470 -0.5414
  862MPD2    C112651   2.934   3.375  10.689 -0.0380  0.0566  0.6564
  862MPD2    C212652   2.974   3.242  10.657 -0.4308 -0.6777  0.5407
  862MPD2    C312653   2.975   3.189  10.532 -0.1289  0.1144  0.2395
  862MPD2    C412654   2.926   3.269  10.432  0.1307  0.4213  0.2329
  862MPD2    C512655   2.892   3.399  10.457  0.1603  0.2657  0.2507
  862MPD2     H12656   2.998   3.173  10.738 -2.2605  0.1763  1.8004
  862MPD2    H112657   2.916   3.240  10.328 -2.3452  1.2903  0.2170
  862MPD2    H212658   2.876   3.558  10.602 -1.3688 -0.0547  0.6470
  862MPD2    H312659   2.836   3.458  10.385 -0.9093  0.3837  1.1707
  862MPD2     N12660   3.015   3.058  10.505 -0.2739 -0.1600  0.1789
  862MPD2    H512661   3.001   3.022  10.411  1.3085 -0.2033 -0.0367
  862MPD2    N112662   2.908   3.417  10.823  0.0695  0.2209  0.2204
  862MPD2    H712663   2.932   3.343  10.889 -2.5357 -1.8675 -1.1517
  863MPD2     C12664   1.261   1.168  17.331 -0.7662  0.6020 -0.6278
  863MPD2    C112665   1.326   1.175  17.210 -0.4915 -0.8414  0.5189
  863MPD2    C212666   1.466   1.191  17.208  0.6233 -0.6279 -0.0522
  863MPD2    C312667   1.538   1.181  17.330  1.0057  0.6367 -0.6117
  863MPD2    C412668   1.467   1.147  17.440  0.4763 -0.3858  0.3170
  863MPD2    C512669   1.330   1.146  17.445 -0.0807 -0.0620 -0.0880
  863MPD2     H12670   1.525   1.214  17.120  2.1162  0.7393  1.3028
  863MPD2    H112671   1.510   1.165  17.538 -0.1621  1.2129  0.3086
  863MPD2    H212672   1.153   1.160  17.336 -0.6969 -0.8414 -1.4323
  863MPD2    H312673   1.284   1.131  17.542  0.9296 -1.1534  0.2146
  863MPD2     N12674   1.680   1.195  17.341 -0.2961 -0.1640  0.1425
  863MPD2    H512675   1.721   1.184  17.434 -0.8393  0.7835  0.4980
  863MPD2    N112676   1.243   1.183  17.095  0.2103 -0.3840  0.7950
  863MPD2    H712677   1.148   1.216  17.107  0.8676  1.3444  1.1772
  864MPD2     C12678   2.227   2.620  17.230  0.2569  0.0886 -0.4192
  864MPD2    C112679   2.309   2.524  17.172 -0.2663  0.6421  0.0714
  864MPD2    C212680   2.439   2.552  17.132 -0.7497  0.3098 -0.6517
  864MPD2    C312681   2.486   2.684  17.152 -0.3217  0.2225 -0.8286
  864MPD2    C412682   2.408   2.776  17.227 -0.6062  0.7174  0.4515
  864MPD2    C512683   2.277   2.738  17.259  0.7190 -0.0068  0.0431
  864MPD2     H12684   2.498   2.486  17.070 -0.4707 -0.6974  0.6764
  864MPD2    H112685   2.452   2.871  17.256 -2.9049  1.0306  2.9715
  864MPD2    H212686   2.127   2.587  17.259  0.4144 -0.0474 -0.0328
  864MPD2    H312687   2.208   2.811  17.299  0.1629  0.6533 -2.1352
  864MPD2     N12688   2.598   2.738  17.091 -0.6106 -0.2695 -0.2170
  864MPD2    H512689   2.612   2.838  17.102  1.9955 -0.8210  1.5127
  864MPD2    N112690   2.250   2.396  17.141  1.0077  0.4928  0.2963
  864MPD2    H712691   2.150   2.385  17.149  1.0204 -2.1855 -2.8798
  865MPD2     C12692   2.375   2.893  16.295 -0.2921  0.1997  0.0988
  865MPD2    C112693   2.478   2.806  16.312  0.4605  0.9166  0.3784
  865MPD2    C212694   2.557   2.824  16.422  0.1247  0.1028 -1.0964
  865MPD2    C312695   2.543   2.922  16.510 -0.3370  0.6229 -0.8783
  865MPD2    C412696   2.436   3.009  16.498  0.3895  0.4610  0.2886
  865MPD2    C512697   2.352   2.989  16.386  0.3207  0.4026  0.6057
  865MPD2     H12698   2.649   2.766  16.429  0.2223  0.4613  0.4567
  865MPD2    H112699   2.419   3.091  16.566 -2.3655 -0.1674  0.3839
  865MPD2    H212700   2.300   2.887  16.217 -2.3857 -1.2592  2.2302
  865MPD2    H312701   2.267   3.053  16.368 -0.4123 -0.9969 -0.9192
  865MPD2     N12702   2.626   2.929  16.626  0.6652 -0.5910 -0.2777
  865MPD2    H512703   2.603   2.990  16.704 -1.2392 -1.0187 -0.5144
  865MPD2    N112704   2.502   2.699  16.226  0.2615  0.0992 -0.1689
  865MPD2    H712705   2.570   2.626  16.249  1.8435  1.8798  0.7760
  866MPD2     C12706   3.553   3.213  12.035  0.6049  0.5215 -0.1985
  866MPD2    C112707   3.571   3.218  11.900 -0.6368 -0.3415  0.4267
  866MPD2    C212708   3.496   3.311  11.833 -0.2222  0.1744  0.5241
  866MPD2    C312709   3.427   3.413  11.891  0.0631 -0.0177  0.6283
  866MPD2    C412710   3.433   3.422  12.030  0.3082 -0.1201 -0.4238
  866MPD2    C512711   3.493   3.319  12.105  0.0171 -0.5838  0.2205
  866MPD2     H12712   3.508   3.319  11.725  1.0488  1.2686  0.7500
  866MPD2    H112713   3.393   3.503  12.091  0.4224 -0.4338  0.0686
  866MPD2    H212714   3.624   3.156  12.094  0.6170  1.3926  0.6230
  866MPD2    H312715   3.511   3.319  12.212  2.2094 -1.1144 -0.1351
  866MPD2     N12716   3.364   3.519  11.825  0.5289 -0.3639 -0.7025
  866MPD2    H512717   3.326   3.590  11.887 -1.1938 -0.5149 -1.5859
  866MPD2    N112718   3.658   3.128  11.835  0.0020  0.2299  0.0903
  866MPD2    H712719   3.683   3.049  11.894 -3.1700  1.6184  3.3015
  867MPD2     C12720   1.199   1.840  17.637 -0.1546 -0.3637  0.7916
  867MPD2    C112721   1.192   1.853  17.494  0.2228  0.4316 -0.1069
  867MPD2    C212722   1.152   1.966  17.437  0.0315 -1.0488 -0.8999
  867MPD2    C312723   1.121   2.075  17.518  0.6678 -0.1660 -0.3288
  867MPD2    C412724   1.118   2.053  17.656  0.1700  0.4207  0.3004
  867MPD2    C512725   1.160   1.939   0.028  0.1118  0.4377 -0.3721
  867MPD2     H12726   1.142   1.980  17.330 -1.3340  2.4653 -0.3278
  867MPD2    H112727   1.085   2.127   0.042 -2.5529  0.7218 -1.2517
  867MPD2    H212728   1.241   1.749  17.677 -1.2660 -1.7399 -1.1673
  867MPD2    H312729   1.173   1.928   0.135 -0.9657  1.2639 -0.1524
  867MPD2     N12730   1.085   2.203  17.465 -0.3073 -0.2387 -0.5895
  867MPD2    H512731   1.051   2.276  17.527  0.0209 -0.6451  0.0716
  867MPD2    N112732   1.233   1.743  17.417 -0.1601 -0.4766  0.0459
  867MPD2    H712733   1.260   1.662  17.472  3.2044  0.5389 -0.1130
  868MPD2     C12734   3.225   0.577  12.950 -0.2981  0.4419 -0.2496
  868MPD2    C112735   3.348   0.635  12.989  0.1237  0.2618  0.1413
  868MPD2    C212736   3.356   0.777  12.965 -1.2144  0.0179 -0.2074
  868MPD2    C312737   3.250   0.856  12.934 -0.8644 -0.2591 -0.6193
  868MPD2    C412738   3.137   0.792  12.893  0.0676 -0.6751  0.0164
  868MPD2    C512739   3.135   0.659  12.892 -0.3102  0.5598  0.1325
  868MPD2     H12740   3.442   0.825  13.010 -1.0948  1.3994 -1.9077
  868MPD2    H112741   3.051   0.847  12.857 -0.0051 -0.3940  0.6152
  868MPD2    H212742   3.200   0.472  12.948 -0.9998  0.5867  0.9619
  868MPD2    H312743   3.044   0.616  12.851  1.6393 -2.5682 -0.8634
  868MPD2     N12744   3.268   0.997  12.934 -0.8217  0.4204 -0.5994
  868MPD2    H512745   3.359   1.019  12.974 -0.5592  0.2299 -1.0915
  868MPD2    N112746   3.464   0.567  13.041 -0.5284 -0.6517  0.3428
  868MPD2    H712747   3.555   0.612  13.035 -1.2565  0.6493 -0.9374
  869MPD2     C12748   4.445   4.010   2.334 -0.7520  0.4469  0.3042
  869MPD2    C112749   4.328   3.972   2.269  0.5015 -0.3513  0.0140
  869MPD2    C212750   4.272   4.054   2.175  0.1318  0.2298  0.4144
  869MPD2    C312751   4.348   4.162   2.127  0.0432 -0.9149 -0.5326
  869MPD2    C412752   4.476   4.187   2.175  0.4987  0.1237  0.2225
  869MPD2    C512753   4.521   4.116   2.278  0.2531  0.3734 -0.2984
  869MPD2     H12754   4.184   4.024   2.118  0.0206 -1.1751  1.3445
  869MPD2    H112755   4.524   4.270   2.124 -4.0705  1.7220 -1.4653
  869MPD2    H212756   4.474   3.959   2.425  2.2939  2.1586  0.3011
  869MPD2    H312757   4.622   4.139   2.311  0.3287  0.1219 -0.3542
  869MPD2     N12758   4.304   4.254   2.034 -0.1105  0.4473  0.5112
  869MPD2    H512759   4.364   4.322   1.988 -1.0192  0.5294 -0.5422
  869MPD2    N112760   4.269   3.850   2.312 -0.6797  0.0880 -0.0369
  869MPD2    H712761   4.329   3.788   2.365 -0.8570 -1.8349 -2.0848
  870MPD2     C12762   3.275   3.179   1.724  0.0667  0.4524  0.1247
  870MPD2    C112763   3.401   3.200   1.679 -0.3769  0.2543  0.0296
  870MPD2    C212764   3.428   3.279   1.569 -0.1815  0.3610  0.2324
  870MPD2    C312765   3.320   3.316   1.491  0.4785 -0.2037  0.7168
  870MPD2    C412766   3.194   3.296   1.534 -0.1442  0.2596  0.7879
  870MPD2    C512767   3.175   3.236   1.656 -0.8012 -0.2811 -0.2443
  870MPD2     H12768   3.528   3.278   1.527 -0.0498  0.0238  0.5594
  870MPD2    H112769   3.108   3.328   1.476  0.5910 -0.6748 -0.8300
  870MPD2    H212770   3.247   3.123   1.813 -1.1778  0.2086 -0.4134
  870MPD2    H312771   3.077   3.217   1.698 -2.3542  0.6994 -3.4471
  870MPD2     N12772   3.347   3.374   1.364  0.3650 -0.3672 -0.7111
  870MPD2    H512773   3.447   3.390   1.350  0.1530  0.6472 -1.0275
  870MPD2    N112774   3.497   3.149   1.771 -0.1198  0.1333 -0.1248
  870MPD2    H712775   3.468   3.093   1.851  0.1484  1.8991  1.1917
  871MPD2     C12776   0.412   2.935  16.436  0.2772 -0.1995  0.0274
  871MPD2    C112777   0.390   2.907  16.567 -0.0429 -0.1725 -0.7077
  871MPD2    C212778   0.419   2.785  16.619  0.0040  0.0618 -0.1461
  871MPD2    C312779   0.429   2.677  16.530 -0.6582 -0.0840 -0.1530
  871MPD2    C412780   0.453   2.701  16.399 -0.0994 -0.1743  0.0812
  871MPD2    C512781   0.451   2.824  16.351 -0.6550  0.2012 -0.0219
  871MPD2     H12782   0.419   2.759  16.724 -1.8667  0.7035  0.0110
  871MPD2    H112783   0.478   2.618  16.335  2.3645  0.4827  0.2189
  871MPD2    H212784   0.383   3.027  16.387  0.4500  1.0733  2.3570
  871MPD2    H312785   0.457   2.846  16.245 -2.9259 -1.5390 -0.5056
  871MPD2     N12786   0.415   2.549  16.583 -0.5156  0.3264  0.8383
  871MPD2    H512787   0.388   2.552  16.681 -1.0982  1.2256  0.6532
  871MPD2    N112788   0.356   3.009  16.661  0.3040 -0.2996 -0.9162
  871MPD2    H712789   0.366   3.098  16.612 -2.3666 -0.5354 -1.8856
  872MPD2     C12790   0.535   0.598  13.599  0.2174  0.4175 -0.1252
  872MPD2    C112791   0.632   0.589  13.701 -0.0318  0.1488 -0.0493
  872MPD2    C212792   0.591   0.561  13.829  0.1539 -0.6905  0.4845
  872MPD2    C312793   0.454   0.543  13.864 -0.1454 -0.1800 -0.5553
  872MPD2    C412794   0.363   0.557  13.763  0.1617  0.4598 -0.1696
  872MPD2    C512795   0.406   0.573  13.632 -0.4606 -0.2933 -0.1407
  872MPD2     H12796   0.674   0.570  13.898  1.0776  0.4601 -0.7884
  872MPD2    H112797   0.256   0.552  13.781  0.1977  0.7047  0.1044
  872MPD2    H212798   0.561   0.627  13.498  0.8882 -0.7725 -0.2964
  872MPD2    H312799   0.335   0.583  13.551 -0.9445 -0.9259  0.2045
  872MPD2     N12800   0.398   0.500  13.986  0.3371 -0.1244 -0.1052
  872MPD2    H512801   0.299   0.487  13.968 -0.1048  0.9877  1.5243
  872MPD2    N112802   0.771   0.600  13.671  0.5411  0.1291  0.4321
  872MPD2    H712803   0.831   0.594  13.753  1.8508 -1.8876 -0.6617
  873MPD2     C12804   3.755   0.244   1.522 -0.1702 -0.5086 -0.7203
  873MPD2    C112805   3.620   0.264   1.498  0.7575 -0.2469 -0.4281
  873MPD2    C212806   3.539   0.153   1.492  0.1278 -0.6680 -0.8836
  873MPD2    C312807   3.591   0.025   1.500  0.6659 -0.0628 -0.4130
  873MPD2    C412808   3.728   0.009   1.509 -0.2640  0.2649  0.7714
  873MPD2    C512809   3.807   0.119   1.535  0.3900  0.3490 -0.9554
  873MPD2     H12810   3.434   0.175   1.474  0.2309  0.7634  0.2059
  873MPD2    H112811   3.775   4.638   1.542  0.7645  0.1430 -1.0178
  873MPD2    H212812   3.822   0.328   1.509 -1.8365  1.1365  1.4593
  873MPD2    H312813   3.909   0.099   1.565 -0.4327  0.6400  1.9714
  873MPD2     N12814   3.497   4.635   1.504 -0.2363  0.2302 -0.2540
  873MPD2    H512815   3.407   4.648   1.460 -0.4946 -1.4519 -0.1893
  873MPD2    N112816   3.569   0.397   1.480 -0.6608 -0.3311 -0.2191
  873MPD2    H712817   3.629   0.479   1.486  0.3293 -1.2165  1.9754
  874MPD2     C12818   1.741   0.703  16.082  0.6684 -0.6025  0.3484
  874MPD2    C112819   1.758   0.620  16.194 -0.0392 -0.3550  0.1467
  874MPD2    C212820   1.883   0.577  16.231  1.0132 -0.0064 -0.0745
  874MPD2    C312821   1.993   0.621  16.165 -0.4309 -0.3204 -0.0808
  874MPD2    C412822   1.980   0.707  16.055  0.0949 -0.6316 -0.0238
  874MPD2    C512823   1.855   0.730  16.008 -0.3686  0.4238 -1.0399
  874MPD2     H12824   1.899   0.510  16.316 -1.2185 -2.5910 -1.6999
  874MPD2    H112825   2.062   0.747  15.998 -0.8082 -0.7892 -1.4180
  874MPD2    H212826   1.647   0.745  16.046  1.3634  1.1647  0.5882
  874MPD2    H312827   1.840   0.786  15.917 -1.1124  0.3662 -0.9534
  874MPD2     N12828   2.117   0.570  16.211  0.1226 -0.0958  0.6561
  874MPD2    H512829   2.110   0.513  16.295 -1.2240 -0.1562  0.5186
  874MPD2    N112830   1.643   0.581  16.258  0.2283  0.0632 -0.2658
  874MPD2    H712831   1.556   0.561  16.211  0.7115 -0.5574 -0.8916
  875MPD2     C12832   3.540   3.816  14.634  0.4823  0.4087 -0.6688
  875MPD2    C112833   3.426   3.796  14.707  0.3291  0.3387 -0.3386
  875MPD2    C212834   3.422   3.825  14.838 -0.2019 -0.4566  0.0093
  875MPD2    C312835   3.519   3.907  14.890 -0.3085  0.6474 -0.0821
  875MPD2    C412836   3.629   3.936  14.815  0.5760 -0.0046  0.1198
  875MPD2    C512837   3.649   3.867  14.700  0.1106  0.5325  0.0914
  875MPD2     H12838   3.337   3.802  14.901  0.3398 -1.0885  0.5085
  875MPD2    H112839   3.718   3.989  14.847 -1.1569  3.5438 -0.9420
  875MPD2    H212840   3.551   3.793  14.528  1.1336 -0.3354 -0.4435
  875MPD2    H312841   3.742   3.885  14.648  0.4639 -1.1113  0.1567
  875MPD2     N12842   3.517   3.957  15.024 -0.3340  0.0751  0.2606
  875MPD2    H512843   3.590   4.022  15.052 -0.8875 -0.7297  3.6760
  875MPD2    N112844   3.314   3.728  14.666 -0.0578  0.0080 -0.0550
  875MPD2    H712845   3.233   3.743  14.725 -0.5467 -0.6182 -0.5635
  876MPD2     C12846   1.928   0.381  15.907  0.3797  0.1331 -0.1557
  876MPD2    C112847   2.057   0.340  15.928  0.1231 -0.0616  0.3594
  876MPD2    C212848   2.087   0.231  16.016  0.9353  0.1521  0.9367
  876MPD2    C312849   1.981   0.171  16.086 -0.0136  0.0396 -0.3487
  876MPD2    C412850   1.851   0.204  16.049 -0.0171  0.6834  0.9215
  876MPD2    C512851   1.827   0.306  15.959 -0.0342 -0.9075 -0.0072
  876MPD2     H12852   2.184   0.182  16.008 -0.8850 -3.4181  0.5843
  876MPD2    H112853   1.762   0.158  16.090  1.1661  0.3346  3.1066
  876MPD2    H212854   1.910   0.478  15.862  2.0261  1.4177  1.9975
  876MPD2    H312855   1.726   0.333  15.929  0.4314  0.4950 -0.3250
  876MPD2     N12856   2.015   0.075  16.183 -0.0355 -0.3744  0.4254
  876MPD2    H512857   2.110   0.038  16.177  0.0784 -0.5742  3.3789
  876MPD2    N112858   2.159   0.419  15.861  0.0541  0.4562 -0.8137
  876MPD2    H712859   2.126   0.491  15.798  0.1166  0.8994 -0.3340
  877MPD2     C12860   2.191   0.833  15.279 -0.1312  0.0391 -0.5336
  877MPD2    C112861   2.321   0.849  15.328  0.3761  0.5495  0.1178
  877MPD2    C212862   2.415   0.902  15.243  0.1180 -0.2903  0.1405
  877MPD2    C312863   2.384   0.932  15.110  0.7303 -0.5465 -0.2329
  877MPD2    C412864   2.253   0.912  15.069  0.6275 -0.4181  0.0421
  877MPD2    C512865   2.161   0.871  15.157  0.4565  0.2256  0.1094
  877MPD2     H12866   2.515   0.909  15.282 -0.0721 -0.8415  0.7223
  877MPD2    H112867   2.212   0.926  14.969 -2.8911 -0.5037  1.5019
  877MPD2    H212868   2.105   0.813  15.342  2.0696 -0.6375  2.2011
  877MPD2    H312869   2.060   0.865  15.117  1.4296 -0.6210 -2.2190
  877MPD2     N12870   2.488   0.963  15.014 -0.4619 -0.4393 -0.5020
  877MPD2    H512871   2.452   0.967  14.919 -2.7590  0.5007  0.4020
  877MPD2    N112872   2.369   0.795  15.452  0.0432 -0.2226  0.7514
  877MPD2    H712873   2.469   0.790  15.467  0.1689 -1.6979 -0.5155
  878MPD2     C12874   1.910   4.412  13.368 -0.2152  0.1734  0.1756
  878MPD2    C112875   2.020   4.483  13.401  0.3657 -0.1003  0.3519
  878MPD2    C212876   2.021   4.558  13.517 -0.2157  0.4331  0.8157
  878MPD2    C312877   1.910   4.571  13.599 -0.0905 -0.2598  0.5457
  878MPD2    C412878   1.787   4.506  13.553 -0.5259 -0.4898  0.3986
  878MPD2    C512879   1.799   4.431  13.446  0.0701  0.1430  0.4999
  878MPD2     H12880   2.106   4.614  13.556 -0.0689  0.2308  0.7853
  878MPD2    H112881   1.701   4.494  13.618 -1.8472 -1.8115 -1.5875
  878MPD2    H212882   1.905   4.356  13.276  0.2587  0.7825 -0.2140
  878MPD2    H312883   1.717   4.370  13.408  1.2089 -0.5673 -0.7878
  878MPD2     N12884   1.918   4.640  13.718  0.1679 -0.0090  0.3159
  878MPD2    H512885   2.004   4.666  13.766  0.3607 -1.5951  0.8362
  878MPD2    N112886   2.124   4.470  13.305  0.8084  0.5009 -0.2864
  878MPD2    H712887   2.093   4.435  13.215 -1.8045  1.5829  0.1749
  879MPD2     C12888   3.035   1.533  16.619  0.2033 -0.7354  0.0174
  879MPD2    C112889   3.057   1.461  16.734  0.7941 -0.1264  0.2925
  879MPD2    C212890   2.948   1.388  16.790 -0.2112 -0.1232 -0.1097
  879MPD2    C312891   2.824   1.389  16.741  0.0844 -0.6808 -0.2096
  879MPD2    C412892   2.806   1.464  16.629 -0.4981  0.4659 -0.3334
  879MPD2    C512893   2.909   1.538  16.569 -0.3097 -0.6615 -0.7167
  879MPD2     H12894   2.987   1.340  16.880 -0.3751 -2.4490 -1.2927
  879MPD2    H112895   2.707   1.480  16.588 -0.8812 -0.7489  0.1213
  879MPD2    H212896   3.115   1.596  16.581 -0.7463  0.4268 -0.0485
  879MPD2    H312897   2.884   1.608  16.490 -0.6793 -0.2795 -0.2593
  879MPD2     N12898   2.710   1.326  16.807  0.2424  0.4901  0.2468
  879MPD2    H512899   2.627   1.330  16.749  1.5547  0.4946 -1.6495
  879MPD2    N112900   3.181   1.479  16.809  0.3876  0.1988  0.3208
  879MPD2    H712901   3.183   1.439  16.902  0.7297 -0.7648 -0.1051
  880MPD2     C12902   3.939   3.006   0.187 -0.3312 -0.5996  0.0781
  880MPD2    C112903   4.011   3.049   0.293 -0.4766  0.0386  0.6495
  880MPD2    C212904   4.076   2.960   0.374 -0.3396  0.2440  0.1606
  880MPD2    C312905   4.063   2.821   0.354  0.3858 -0.4243 -0.2165
  880MPD2    C412906   4.001   2.775   0.243 -0.0320 -0.3707 -0.3298
  880MPD2    C512907   3.951   2.871   0.153  0.0762 -0.3243 -0.1619
  880MPD2     H12908   4.120   2.992   0.468 -1.1080 -0.3385  0.7164
  880MPD2    H112909   3.987   2.670   0.223 -0.4435 -0.0818 -1.5900
  880MPD2    H212910   3.892   3.078   0.122  0.4503 -0.3084 -0.1554
  880MPD2    H312911   3.897   2.836   0.066  2.2734 -2.8867 -0.4941
  880MPD2     N12912   4.120   2.738   0.451 -0.4559  1.3889 -0.2613
  880MPD2    H512913   4.195   2.775   0.508  0.3325 -1.0895  0.3135
  880MPD2    N112914   4.032   3.185   0.297 -0.1226  0.1305 -0.3296
  880MPD2    H712915   3.971   3.238   0.236  1.6232 -0.3039 -2.4569
  881MPD2     C12916   4.149   4.007  17.497  0.0153 -0.1525  0.4285
  881MPD2    C112917   4.117   3.874  17.485 -0.4736  0.4072 -1.2079
  881MPD2    C212918   4.059   3.803  17.584 -0.0264 -0.0184  1.0859
  881MPD2    C312919   4.064   3.854   0.028 -1.1286  0.2469 -0.3081
  881MPD2    C412920   4.115   3.981   0.042 -0.0643  0.1959  0.8017
  881MPD2    C512921   4.147   4.058  17.620 -0.3484  0.3188 -0.2540
  881MPD2     H12922   4.039   3.699  17.564  1.3884 -0.2567  0.9129
  881MPD2    H112923   4.111   4.030   0.139  0.4032  1.2678  0.2732
  881MPD2    H212924   4.199   4.052  17.412 -2.4591 -0.3888 -1.1541
  881MPD2    H312925   4.206   4.146  17.643 -0.6375  0.0020  1.6914
  881MPD2     N12926   4.043   3.768   0.140 -0.3572 -0.0417  0.4776
  881MPD2    H512927   4.075   3.814   0.224 -4.1239 -0.0527  1.9300
  881MPD2    N112928   4.132   3.817  17.358 -0.3353 -0.2560 -0.0645
  881MPD2    H712929   4.180   3.872  17.287 -3.5961  0.6175 -1.5696
  882MPD2     C12930   2.454   0.650  14.327 -0.0401 -0.6075 -0.0084
  882MPD2    C112931   2.413   0.690  14.450  0.6960 -0.0924 -0.5982
  882MPD2    C212932   2.284   0.687  14.482  0.2049  0.2656  0.6795
  882MPD2    C312933   2.190   0.633  14.394  0.6024  0.5369 -0.0119
  882MPD2    C412934   2.229   0.586  14.275  0.3826  0.2374 -0.5139
  882MPD2    C512935   2.361   0.597  14.237 -0.3018 -0.1391 -0.3495
  882MPD2     H12936   2.263   0.723  14.582 -1.8761  0.2536  0.2401
  882MPD2    H112937   2.152   0.547  14.209 -0.3245 -1.4422  1.2982
  882MPD2    H212938   2.561   0.651  14.311 -0.1595  3.0365 -0.6163
  882MPD2    H312939   2.393   0.566  14.138 -0.5628 -0.7236 -0.2512
  882MPD2     N12940   2.053   0.623  14.421  0.0572  0.1580 -0.1682
  882MPD2    H512941   1.996   0.586  14.345 -1.6207  1.1848  0.5925
  882MPD2    N112942   2.504   0.739  14.544 -0.3415 -0.6157  0.5126
  882MPD2    H712943   2.600   0.716  14.522 -0.5207  0.0998 -1.0437
  883MPD2     C12944   4.381   0.794  16.352 -0.7301 -0.0437  0.6412
  883MPD2    C112945   4.396   0.804  16.214 -0.2737  0.2311 -1.0585
  883MPD2    C212946   4.513   0.840  16.157  0.9095 -0.4020 -1.0531
  883MPD2    C312947   4.619   0.872  16.234  0.4566 -0.5202 -0.4857
  883MPD2    C412948   4.608   0.863  16.374 -0.2238 -0.0096 -0.2194
  883MPD2    C512949   4.491   0.813  16.430  0.5747  0.2882 -0.1043
  883MPD2     H12950   4.517   0.844  16.049  0.4139 -0.5596 -1.0777
  883MPD2    H112951   4.689   0.887  16.442 -0.8355  0.3292  0.3962
  883MPD2    H212952   4.284   0.776  16.397 -0.7500 -2.4314 -0.3580
  883MPD2    H312953   4.482   0.815  16.538 -1.6502  2.5978 -0.3458
  883MPD2     N12954   0.015   0.919  16.169 -0.1625  0.5828  0.0330
  883MPD2    H512955   0.017   0.890  16.072 -0.2612 -1.1295  0.5411
  883MPD2    N112956   4.300   0.778  16.117 -0.2963 -0.7349 -0.1704
  883MPD2    H712957   4.329   0.791  16.021  0.3736 -0.4328  0.0730
  884MPD2     C12958   1.454   1.183  15.404 -0.2585  0.1954 -0.3354
  884MPD2    C112959   1.458   1.281  15.311 -0.1647 -0.2337 -0.4482
  884MPD2    C212960   1.340   1.321  15.246 -0.4935 -0.0651  0.2055
  884MPD2    C312961   1.221   1.273  15.291  0.3983 -0.2587 -0.0703
  884MPD2    C412962   1.220   1.169  15.382  0.2969 -0.2854 -0.4901
  884MPD2    C512963   1.336   1.113  15.431  0.2902  0.0100 -0.1887
  884MPD2     H12964   1.343   1.403  15.174  2.4211 -0.5987 -0.2961
  884MPD2    H112965   1.130   1.123  15.422 -0.3369  0.4546 -1.0603
  884MPD2    H212966   1.540   1.148  15.460 -0.6079  1.5221  1.0419
  884MPD2    H312967   1.343   1.034  15.505  0.1539 -0.8365 -1.0670
  884MPD2     N12968   1.104   1.324  15.241 -0.0488 -0.2399  0.5597
  884MPD2    H512969   1.113   1.393  15.168 -1.3054  1.1692  1.7353
  884MPD2    N112970   1.576   1.361  15.284 -0.4692 -0.1568 -0.1775
  884MPD2    H712971   1.575   1.443  15.224 -1.0019 -1.0893 -1.4675
  885MPD2     C12972   4.381   1.623   0.589 -0.8496 -0.0212  0.1614
  885MPD2    C112973   4.513   1.589   0.559 -0.3141 -0.3250  0.4314
  885MPD2    C212974   4.549   1.604   0.429 -0.0603 -0.2445 -1.2132
  885MPD2    C312975   4.480   1.682   0.335  0.1653  0.1264 -0.6212
  885MPD2    C412976   4.351   1.724   0.372 -0.1462  0.0178 -0.4998
  885MPD2    C512977   4.305   1.682   0.490 -0.3667  0.3809  0.0042
  885MPD2     H12978   4.644   1.562   0.398 -0.0103 -1.8227  1.1097
  885MPD2    H112979   4.287   1.774   0.300  0.7741  0.2196 -1.1695
  885MPD2    H212980   4.332   1.601   0.684  1.4704  0.1434  1.3895
  885MPD2    H312981   4.201   1.702   0.514 -0.3462  0.5699 -0.0603
  885MPD2     N12982   4.538   1.703   0.207 -0.5138  0.0014  0.3002
  885MPD2    H512983   4.607   1.635   0.177 -1.0175 -0.2631 -0.2726
  885MPD2    N112984   4.597   1.516   0.655 -0.4307 -0.0196  0.3522
  885MPD2    H712985   4.555   1.479   0.740 -1.1444  0.3853  0.1728
  886MPD2     C12986   1.078   4.346  15.394 -0.4333 -0.7840  0.2417
  886MPD2    C112987   1.063   4.419  15.509  0.3613  0.2186  0.1456
  886MPD2    C212988   1.016   4.547  15.502 -0.2047 -0.6444  0.5545
  886MPD2    C312989   0.995   4.613  15.382 -0.3443 -0.4538 -0.4873
  886MPD2    C412990   1.009   4.538  15.269 -0.0525  0.6944  0.6568
  886MPD2    C512991   1.051   4.406  15.273  0.0310 -0.3516  0.2179
  886MPD2     H12992   0.990   4.596  15.595 -1.3916  1.4172 -0.8593
  886MPD2    H112993   0.998   4.586  15.172 -0.7496  0.1406  0.4567
  886MPD2    H212994   1.092   4.239  15.400  4.0889 -0.3161 -1.5381
  886MPD2    H312995   1.058   4.348  15.182  1.6316  1.0446 -0.5471
  886MPD2     N12996   0.950   0.032  15.383 -0.6876  0.3018  0.4943
  886MPD2    H512997   0.964   0.077  15.472  1.1208  1.1654 -0.2322
  886MPD2    N112998   1.086   4.373  15.634  0.0813  0.3940 -0.2451
  886MPD2    H712999   1.076   4.444  15.706  0.8383 -1.0242  1.2363
  887MPD2     C13000   1.435   4.660  16.179  0.3311 -0.1632 -0.8740
  887MPD2    C113001   1.348   4.655  16.074  0.2528  0.6025  0.4334
  887MPD2    C213002   1.334   0.048  15.991  0.5435  0.0820 -0.6107
  887MPD2    C313003   1.399   0.163  16.016  0.3342 -0.2718 -0.4933
  887MPD2    C413004   1.490   0.161  16.118  0.6797  0.2584 -0.5224
  887MPD2    C513005   1.514   0.048  16.191  0.2039 -0.1072  0.1167
  887MPD2     H13006   1.255   0.052  15.917  1.6467  2.2345 -1.6706
  887MPD2    H113007   1.540   0.255  16.141 -0.9175  0.8961  0.3261
  887MPD2    H213008   1.468   4.574  16.237 -0.8648  1.7654  2.7210
  887MPD2    H313009   1.590   0.051  16.269  1.1960  2.4701 -0.9494
  887MPD2     N13010   1.388   0.266  15.928 -0.2805  0.0441 -0.1678
  887MPD2    H513011   1.359   0.239  15.834 -1.9615  3.6759 -0.7071
  887MPD2    N113012   1.279   4.546  16.029  0.3907 -0.4964  0.0789
  887MPD2    H713013   1.225   4.560  15.944  1.2102  0.5978 -0.2500
  888MPD2     C13014   3.604   0.094  14.737 -0.3418  0.1074  0.4965
  888MPD2    C113015   3.610   0.146  14.866  0.1663 -0.2428  0.6239
  888MPD2    C213016   3.638   0.280  14.891  0.0123  0.0497  0.2333
  888MPD2    C313017   3.652   0.365  14.785  0.3238  0.8220 -0.3947
  888MPD2    C413018   3.642   0.313  14.655 -0.4097  0.3421 -0.1774
  888MPD2    C513019   3.618   0.183  14.632 -0.0145  0.3809  0.3169
  888MPD2     H13020   3.649   0.307  14.996 -4.2683  1.6704  0.2917
  888MPD2    H113021   3.649   0.375  14.567  0.2331 -0.0184 -0.3788
  888MPD2    H213022   3.561   4.720  14.707 -0.1924  0.4637 -0.8412
  888MPD2    H313023   3.604   0.149  14.530 -1.4649  0.2566  0.5496
  888MPD2     N13024   3.689   0.499  14.814 -0.3056 -0.6135 -0.3302
  888MPD2    H513025   3.728   0.523  14.905 -0.5812 -1.6746  0.0634
  888MPD2    N113026   3.585   0.070  14.980 -0.3122 -0.3512 -0.2168
  888MPD2    H713027   3.586   0.121  15.068 -0.6798 -1.0473  0.1845
  889MPD2     C13028   2.461   4.167  12.965  0.9064 -0.2057  0.1765
  889MPD2    C113029   2.556   4.148  13.062  0.0016 -0.5007  0.1873
  889MPD2    C213030   2.611   4.261  13.125  1.0275  0.8038 -0.3643
  889MPD2    C313031   2.613   4.383  13.056  0.1599  0.1316  0.5787
  889MPD2    C413032   2.544   4.389  12.934 -0.1699  0.2337  0.9877
  889MPD2    C513033   2.466   4.285  12.896  0.4066  0.8116  0.6141
  889MPD2     H13034   2.680   4.252  13.208  1.1210  1.2443 -0.3917
  889MPD2    H113035   2.533   4.476  12.870  0.3806 -0.6949 -0.3745
  889MPD2    H213036   2.396   4.094  12.919 -0.8899  1.1010  0.6091
  889MPD2    H313037   2.390   4.294  12.818  1.6120  0.2913 -0.6284
  889MPD2     N13038   2.688   4.491  13.104  0.7221  0.1588  0.0547
  889MPD2    H513039   2.759   4.476  13.175 -1.1633 -0.2007  1.8505
  889MPD2    N113040   2.555   4.026  13.138 -0.1662  0.2643 -0.3445
  889MPD2    H713041   2.629   4.005  13.203 -0.0076 -0.7652 -0.8646
  890MPD2     C13042   2.227   1.519  14.909 -0.1438  0.0838 -0.1102
  890MPD2    C113043   2.286   1.582  15.008  0.1095  0.3235 -0.1502
  890MPD2    C213044   2.306   1.511  15.127 -0.3929 -0.1044  0.5670
  890MPD2    C313045   2.253   1.386  15.142 -0.4404 -0.1627  0.8119
  890MPD2    C413046   2.214   1.315  15.027  0.0131 -0.9270 -0.6355
  890MPD2    C513047   2.204   1.384  14.913  0.7476 -0.3573 -0.4163
  890MPD2     H13048   2.343   1.562  15.215 -0.6145 -1.4924  1.4639
  890MPD2    H113049   2.175   1.214  15.028  0.6944 -1.1901  0.3742
  890MPD2    H213050   2.202   1.576  14.821 -0.6231  0.8062  0.5017
  890MPD2    H313051   2.160   1.335  14.827 -1.2714 -1.8027  1.4545
  890MPD2     N13052   2.251   1.318  15.266 -0.6803  0.2876 -0.1326
  890MPD2    H513053   2.304   1.350  15.347 -0.2775 -0.6448 -0.0342
  890MPD2    N113054   2.349   1.709  14.982  0.6169 -0.1421 -0.6303
  890MPD2    H713055   2.336   1.743  14.887  0.8393  1.4828 -0.0698
  891MPD2     C13056   0.336   0.729  16.471  0.3024  0.2287  0.2978
  891MPD2    C113057   0.301   0.606  16.424 -0.1022 -0.2432 -0.4053
  891MPD2    C213058   0.358   0.491  16.470 -0.0556 -0.3989  0.0356
  891MPD2    C313059   0.459   0.498  16.563  0.0474 -0.2449 -0.4981
  891MPD2    C413060   0.514   0.620  16.598  0.1801 -0.3927  0.1269
  891MPD2    C513061   0.446   0.733  16.552  0.7186 -0.5773 -0.7871
  891MPD2     H13062   0.312   0.400  16.432  0.4600 -0.2245 -0.9994
  891MPD2    H113063   0.606   0.638  16.653  0.8922 -1.0781 -0.8194
  891MPD2    H213064   0.280   0.819  16.448  1.1144  0.8775  0.8335
  891MPD2    H313065   0.490   0.826  16.584  0.2534 -0.7226  0.2550
  891MPD2     N13066   0.500   0.377  16.617 -0.3814  0.6107  0.2283
  891MPD2    H513067   0.464   0.292  16.575 -0.0568  0.6251 -0.0819
  891MPD2    N113068   0.190   0.604  16.334  0.0657 -0.3153  0.2492
  891MPD2    H713069   0.126   0.682  16.323 -0.7560 -0.8542  1.3621
  892MPD2     C13070   1.400   0.982  15.089 -0.2888  0.0451 -0.7389
  892MPD2    C113071   1.325   0.929  14.981  0.0233 -0.1335 -0.0862
  892MPD2    C213072   1.396   0.879  14.882 -0.1061  0.3533 -0.2098
  892MPD2    C313073   1.531   0.860  14.891 -0.4132  0.3767 -0.2166
  892MPD2    C413074   1.608   0.913  14.988 -1.2716  0.0109  0.1095
  892MPD2    C513075   1.540   0.980  15.088 -0.0796 -0.2779 -0.1061
  892MPD2     H13076   1.335   0.836  14.804  0.8320  0.8335 -1.2034
  892MPD2    H113077   1.715   0.899  14.992 -1.1660  1.4835  2.1583
  892MPD2    H213078   1.345   1.030  15.169  0.0030 -1.2195  0.2302
  892MPD2    H313079   1.596   1.025  15.168  0.1879  2.4960 -1.8571
  892MPD2     N13080   1.606   0.782  14.794  0.4823  0.3002 -0.1924
  892MPD2    H513081   1.707   0.770  14.800  0.5575  1.0327  0.0575
  892MPD2    N113082   1.188   0.957  14.961 -0.2905 -0.0521 -0.2864
  892MPD2    H713083   1.148   0.955  14.868  0.4982 -0.5309 -0.6154
  893MPD2     C13084   2.740   3.330   1.902  0.1029 -0.2931  0.7917
  893MPD2    C113085   2.760   3.456   1.848 -0.2869 -0.2707 -0.7574
  893MPD2    C213086   2.654   3.545   1.831  0.1731 -0.2460 -0.1430
  893MPD2    C313087   2.526   3.504   1.866 -0.0484  0.9242 -0.9772
  893MPD2    C413088   2.507   3.374   1.922 -0.2293  0.4607 -0.5690
  893MPD2    C513089   2.616   3.289   1.947  0.9873  0.0703 -0.5165
  893MPD2     H13090   2.667   3.640   1.781  1.4497 -0.7073 -0.6887
  893MPD2    H113091   2.410   3.344   1.959 -1.0758  2.6098 -1.0263
  893MPD2    H213092   2.824   3.265   1.922  1.7770  2.4003  2.5678
  893MPD2    H313093   2.611   3.191   1.994 -1.3155 -0.7482 -2.4934
  893MPD2     N13094   2.417   3.590   1.870 -0.5999 -0.1038  0.4442
  893MPD2    H513095   2.326   3.552   1.893 -0.1766 -1.6265 -0.3958
  893MPD2    N113096   2.895   3.490   1.814  0.1954 -0.2916 -0.1959
  893MPD2    H713097   2.962   3.417   1.836 -0.7743 -1.5998 -1.5508
  894MPD2     C13098   1.425   2.159   1.346  0.2392  0.4268  0.1716
  894MPD2    C113099   1.499   2.069   1.424 -0.2920 -0.8651  0.4220
  894MPD2    C213100   1.632   2.046   1.400 -0.4488 -0.1139  0.0757
  894MPD2    C313101   1.696   2.113   1.299 -0.0768 -0.6367 -0.5498
  894MPD2    C413102   1.620   2.190   1.220 -0.6994  0.0204 -0.3792
  894MPD2    C513103   1.485   2.216   1.241  0.8997 -0.5148 -0.5569
  894MPD2     H13104   1.690   1.974   1.457 -2.3328 -0.3014  1.7205
  894MPD2    H113105   1.660   2.248   1.137 -1.3613  1.5306  0.3500
  894MPD2    H213106   1.320   2.184   1.359 -0.6286 -3.0315 -0.1598
  894MPD2    H313107   1.437   2.288   1.175 -1.9223 -0.8678  1.0747
  894MPD2     N13108   1.838   2.111   1.302  0.5970 -0.2743  0.0111
  894MPD2    H513109   1.885   2.045   1.363  0.8655 -0.4412 -0.3827
  894MPD2    N113110   1.433   1.978   1.513 -0.2303 -0.2746 -0.0609
  894MPD2    H713111   1.491   1.935   1.584  0.5615  1.7862  0.5459
  895MPD2     C13112   0.819   4.718  13.894 -0.3524 -0.4128  0.2486
  895MPD2    C113113   0.720   4.664  13.818 -0.0223  0.3826 -0.3750
  895MPD2    C213114   0.725   4.529  13.793 -0.0792  0.6427  0.1403
  895MPD2    C313115   0.834   4.463  13.841  0.0298  0.4084 -0.2421
  895MPD2    C413116   0.919   4.512  13.940 -0.3197 -0.5443  0.2983
  895MPD2    C513117   0.914   4.646  13.971  0.1762 -0.2774  0.1254
  895MPD2     H13118   0.664   4.483  13.715 -0.3584  2.2305 -0.5872
  895MPD2    H113119   0.995   4.447  13.981  0.7160  0.4783 -0.0039
  895MPD2    H213120   0.824   0.103  13.915 -1.8928  0.1096 -2.1773
  895MPD2    H313121   0.988   4.696  14.032  0.9630 -1.4743  0.1569
  895MPD2     N13122   0.857   4.335  13.786  0.4845  0.7935 -0.0467
  895MPD2    H513123   0.800   4.308  13.706  1.7038  1.1644 -1.0363
  895MPD2    N113124   0.623   0.020  13.757  0.0530  0.3454  0.6297
  895MPD2    H713125   0.546   4.689  13.717 -1.1887  2.7982 -0.1684
  896MPD2     C13126   3.490   1.659   1.602 -0.3632 -0.2656  0.6765
  896MPD2    C113127   3.426   1.706   1.489 -0.3562  0.0623  0.1065
  896MPD2    C213128   3.304   1.654   1.445  0.2245 -0.1034 -0.2163
  896MPD2    C313129   3.233   1.584   1.535  0.1601 -0.3774  0.3393
  896MPD2    C413130   3.295   1.536   1.651  0.4594 -0.2736  0.0637
  896MPD2    C513131   3.426   1.560   1.674 -0.0719 -0.2619 -0.0475
  896MPD2     H13132   3.248   1.689   1.359 -1.3370  2.8022  1.9364
  896MPD2    H113133   3.244   1.483   1.731 -0.3894  1.1623  0.4731
  896MPD2    H213134   3.588   1.694   1.631 -0.5922 -0.8309  2.0967
  896MPD2    H313135   3.476   1.522   1.762 -1.3606  1.4578  1.4327
  896MPD2     N13136   3.097   1.561   1.519 -0.3509 -0.5995  0.7406
  896MPD2    H513137   3.064   1.610   1.436 -0.8782 -1.6081  0.3533
  896MPD2    N113138   3.489   1.812   1.415  0.2088 -0.4484  0.2361
  896MPD2    H713139   3.570   1.855   1.459 -0.3431  0.4796  0.3521
  897MPD2     C13140   4.174   3.954  10.115  0.1961  1.1311  0.0669
  897MPD2    C113141   4.110   4.071  10.089  0.3013  0.0993 -0.3165
  897MPD2    C213142   3.992   4.101  10.157  0.0877  0.4774  0.6369
  897MPD2    C313143   3.942   4.017  10.253 -0.1575 -0.0885  0.1506
  897MPD2    C413144   4.015   3.905  10.282 -0.2797  0.6324  0.2036
  897MPD2    C513145   4.135   3.873  10.217  0.4777 -0.4998 -0.3576
  897MPD2     H13146   3.930   4.186  10.132 -1.0612 -0.4098  0.4230
  897MPD2    H113147   3.989   3.838  10.363 -0.9516  1.2188  0.4720
  897MPD2    H213148   4.266   3.923  10.065 -1.9542 -1.0037 -2.5607
  897MPD2    H313149   4.201   3.792  10.245  0.6220 -0.4084 -0.4323
  897MPD2     N13150   3.828   4.041  10.340 -0.2075  0.0611 -1.0431
  897MPD2    H513151   3.802   3.966  10.404  1.4961  0.1377 -0.2568
  897MPD2    N113152   4.166   4.156   9.994  0.5969  0.0588  0.6353
  897MPD2    H713153   4.236   4.111   9.935  2.6365  2.1447  1.4605
  898MPD2     C13154   1.387   4.571   0.058  0.0608  0.8334  0.0505
  898MPD2    C113155   1.364   4.697   0.095 -0.0476 -0.1049  0.5597
  898MPD2    C213156   1.243   0.034   0.074  0.4841  0.3050  0.2886
  898MPD2    C313157   1.140   4.686   0.013  0.2143  0.4395 -0.5286
  898MPD2    C413158   1.170   4.562  17.653  0.1128 -0.1872  0.1605
  898MPD2    C513159   1.293   4.500  17.678  0.9292  1.3625  0.0238
  898MPD2     H13160   1.221   0.127   0.125 -1.2737  0.2710 -0.4017
  898MPD2    H113161   1.099   4.520  17.582 -2.3187  2.2736  1.1312
  898MPD2    H213162   1.485   4.528   0.076  0.1174 -0.3886 -3.3508
  898MPD2    H313163   1.318   4.404  17.634 -0.1673 -0.3034  3.0155
  898MPD2     N13164   1.017   0.034  17.681 -0.1044 -0.7188 -0.2847
  898MPD2    H513165   1.017   0.129   0.029 -0.5037 -0.1890 -1.7704
  898MPD2    N113166   1.461   0.056   0.167 -0.2465 -0.5823 -0.3512
  898MPD2    H713167   1.451   0.155   0.186  0.7626 -0.3926 -0.8373
  899MPD2     C13168   2.352   1.091   0.150 -0.0810  0.0333 -0.1650
  899MPD2    C113169   2.227   1.052   0.093 -0.4166 -0.4440  0.1400
  899MPD2    C213170   2.142   0.985   0.174  0.2216  0.8187 -0.5364
  899MPD2    C313171   2.181   0.943   0.301 -0.3947  0.2205 -0.5694
  899MPD2    C413172   2.304   0.977   0.347  0.2097  0.6104  0.2160
  899MPD2    C513173   2.390   1.049   0.274 -0.4571 -0.1913  1.5842
  899MPD2     H13174   2.055   0.934   0.134 -0.3375  1.2523  0.1219
  899MPD2    H113175   2.335   0.961   0.450  1.2588 -0.1019 -0.2198
  899MPD2    H213176   2.415   1.150   0.084 -0.7661 -1.1911 -1.9272
  899MPD2    H313177   2.491   1.077   0.305 -0.1859 -1.0180  1.4355
  899MPD2     N13178   2.096   0.872   0.399 -0.0620  0.5105 -0.4466
  899MPD2    H513179   2.136   0.825   0.479 -0.5640 -0.4044 -0.7446
  899MPD2    N113180   2.198   1.097  17.650  0.3555 -0.2889  0.3534
  899MPD2    H713181   2.266   1.152  17.598  0.8609 -2.5429 -1.3447
  900MPD2     C13182   1.828   2.593  12.673 -0.5526 -0.5429 -0.1688
  900MPD2    C113183   1.759   2.475  12.661  0.2246  0.3057 -0.3975
  900MPD2    C213184   1.645   2.474  12.585 -0.2428 -0.5936  0.7504
  900MPD2    C313185   1.600   2.588  12.521 -0.2151  0.9681  0.4995
  900MPD2    C413186   1.672   2.705  12.529  0.3955 -0.3467 -0.3845
  900MPD2    C513187   1.790   2.705  12.603  0.2496 -1.0620 -0.2124
  900MPD2     H13188   1.592   2.381  12.571  1.0614 -1.5998  2.5538
  900MPD2    H113189   1.641   2.802  12.491  0.3942 -0.4892 -0.7524
  900MPD2    H213190   1.917   2.594  12.734 -0.4799  3.1299 -0.3252
  900MPD2    H313191   1.840   2.801  12.610 -0.3280 -0.8165  0.5566
  900MPD2     N13192   1.485   2.569  12.437 -0.1644 -0.3506  0.7659
  900MPD2    H513193   1.438   2.482  12.456 -0.3575  0.3497  3.4711
  900MPD2    N113194   1.823   2.368  12.723 -0.4085 -0.1905 -0.2678
  900MPD2    H713195   1.908   2.381  12.778 -1.1886 -1.4132  1.2370
  901MPD2     C13196   1.811   1.290  12.810  0.1327 -0.0475  0.2080
  901MPD2    C113197   1.941   1.326  12.855  0.0484 -0.0903 -0.1919
  901MPD2    C213198   1.970   1.458  12.873  0.1579  0.0941 -0.0697
  901MPD2    C313199   1.874   1.553  12.849 -0.2742 -0.2922  0.2005
  901MPD2    C413200   1.753   1.517  12.797  0.3449  0.5561 -0.0101
  901MPD2    C513201   1.720   1.385  12.787 -0.2423  0.1345 -0.1251
  901MPD2     H13202   2.070   1.483  12.907  0.1569  0.8465 -0.6216
  901MPD2    H113203   1.683   1.593  12.764  1.8458  1.5139 -0.9399
  901MPD2    H213204   1.781   1.187  12.804  1.5652 -0.5546  1.6564
  901MPD2    H313205   1.619   1.357  12.760  0.0430 -0.2308 -0.8143
  901MPD2     N13206   1.909   1.688  12.864 -0.3464 -0.2939 -0.2599
  901MPD2    H513207   2.000   1.717  12.897 -0.9983 -0.0048  1.2588
  901MPD2    N113208   2.031   1.216  12.877  0.5384 -0.2390 -0.3259
  901MPD2    H713209   2.000   1.120  12.863  1.2959 -0.3641 -1.1723
  902MPD2     C13210   1.286   0.440  12.905 -0.6773  1.2226 -0.1726
  902MPD2    C113211   1.174   0.369  12.889  0.5465  0.1504 -0.1451
  902MPD2    C213212   1.172   0.271  12.797  0.4562  0.1251  0.5033
  902MPD2    C313213   1.285   0.235  12.723  0.3597 -0.4064  0.7887
  902MPD2    C413214   1.394   0.309  12.738  0.2519  0.1388 -0.6995
  902MPD2    C513215   1.392   0.412  12.829  0.5688 -1.0797 -0.5067
  902MPD2     H13216   1.086   0.207  12.790 -0.4344  0.9877  3.9164
  902MPD2    H113217   1.484   0.294  12.681  0.1290  0.6718 -1.0342
  902MPD2    H213218   1.293   0.526  12.971  1.7273 -0.5178  1.8252
  902MPD2    H313219   1.479   0.476  12.838 -1.3646  1.1826  1.5805
  902MPD2     N13220   1.295   0.136  12.617 -0.0227 -0.5943 -0.5966
  902MPD2    H513221   1.383   0.126  12.568  0.3021 -1.2459  0.1146
  902MPD2    N113222   1.061   0.417  12.962 -0.1896 -0.0778 -0.6647
  902MPD2    H713223   1.084   0.496  13.022  0.5448 -0.3888 -0.5368
  903MPD2     C13224   1.046   4.273  11.941 -0.1530 -0.2686 -0.1665
  903MPD2    C113225   0.997   4.374  12.028 -0.0631  0.5039 -0.5019
  903MPD2    C213226   0.861   4.411  12.012 -0.2572 -0.5560 -0.8589
  903MPD2    C313227   0.782   4.353  11.918 -0.2196 -0.6716  0.5645
  903MPD2    C413228   0.831   4.266  11.823  0.4691  0.0022 -0.3148
  903MPD2    C513229   0.961   4.223  11.843 -0.2500 -0.2268 -0.0608
  903MPD2     H13230   0.811   4.485  12.074  1.0887  0.4140 -0.9457
  903MPD2    H113231   0.785   4.226  11.734 -1.5726  0.9808  0.3064
  903MPD2    H213232   1.153   4.255  11.949  0.0050  0.1623 -1.3879
  903MPD2    H313233   1.008   4.160  11.768  0.2018 -1.4223  1.2194
  903MPD2     N13234   0.643   4.399  11.914 -0.0125  0.2187  0.3801
  903MPD2    H513235   0.613   4.470  11.980 -2.6142  0.6230 -1.2729
  903MPD2    N113236   1.085   4.430  12.123  0.3284 -0.8430 -0.5639
  903MPD2    H713237   1.177   4.390  12.136  0.8142  0.9639  1.6542
  904MPD2     C13238   0.371   3.892  14.059 -0.5632  0.4931  0.2291
  904MPD2    C113239   0.404   4.018  14.103  0.1136  0.4879 -0.0440
  904MPD2    C213240   0.535   4.048  14.134 -0.5108  0.0639 -0.8569
  904MPD2    C313241   0.633   3.948  14.116 -0.5812  0.2243 -0.4840
  904MPD2    C413242   0.599   3.823  14.072  0.1211  0.1698 -0.1022
  904MPD2    C513243   0.464   3.797  14.062  0.0385  0.6901  0.2126
  904MPD2     H13244   0.573   4.146  14.161  0.1111 -0.5808  0.5680
  904MPD2    H113245   0.661   3.735  14.061 -1.9223 -1.1994 -0.5765
  904MPD2    H213246   0.268   3.861  14.045 -0.9178  0.5713  2.6952
  904MPD2    H313247   0.423   3.701  14.035  1.1371  0.5595 -0.9468
  904MPD2     N13248   0.766   3.980  14.151  0.2191 -0.2000 -0.3185
  904MPD2    H513249   0.779   4.066  14.204  1.5601  0.8431 -2.3120
  904MPD2    N113250   0.305   4.116  14.090 -0.6000 -0.6366 -0.1690
  904MPD2    H713251   0.214   4.081  14.060 -2.2383  3.9813 -0.5582
  905MPD2     C13252   0.194   4.094  13.468  0.3319  1.0230 -0.4134
  905MPD2    C113253   0.276   4.171  13.551  0.8105 -0.6195 -0.1392
  905MPD2    C213254   0.412   4.155  13.546  0.8209  1.2464 -0.0249
  905MPD2    C313255   0.468   4.087  13.447  0.3313  0.2672  0.0397
  905MPD2    C413256   0.392   4.033  13.347  0.5502  0.3410 -0.4044
  905MPD2    C513257   0.257   4.033  13.361  0.4952 -0.0654  0.1835
  905MPD2     H13258   0.473   4.199  13.624 -2.2675  0.5468  2.7828
  905MPD2    H113259   0.431   3.982  13.260  0.6718  0.8288 -0.6361
  905MPD2    H213260   0.087   4.100  13.485  0.5884  1.1683  1.1465
  905MPD2    H313261   0.197   3.986  13.284 -0.6956  0.5273  0.7573
  905MPD2     N13262   0.615   4.092  13.435  0.2329  0.4938  0.0841
  905MPD2    H513263   0.653   4.034  13.361  0.9631  0.8265  0.1963
  905MPD2    N113264   0.212   4.245  13.656 -0.6744  0.1919 -0.4869
  905MPD2    H713265   0.112   4.230  13.671 -0.6372 -1.2646 -1.7303
  906MPD2     C13266   2.767   4.412  11.723 -0.5262  0.0377  0.6509
  906MPD2    C113267   2.822   4.316  11.638 -0.4794  0.3593 -0.0279
  906MPD2    C213268   2.831   4.184  11.686  0.0019 -0.6856  0.2407
  906MPD2    C313269   2.788   4.146  11.811 -0.7854  0.2480  0.5757
  906MPD2    C413270   2.725   4.251  11.884  1.0327  0.4503 -0.1915
  906MPD2    C513271   2.714   4.381  11.844  0.1601  0.0063 -0.4733
  906MPD2     H13272   2.874   4.105  11.625 -0.6167 -0.6136 -0.2787
  906MPD2    H113273   2.689   4.237  11.986  1.7416  1.9663  0.2582
  906MPD2    H213274   2.759   4.517  11.698  0.7881 -0.0859 -0.2837
  906MPD2    H313275   2.665   4.457  11.904  1.1266  1.7798 -1.9472
  906MPD2     N13276   2.777   4.015  11.866 -0.0251  0.2124  0.4770
  906MPD2    H513277   2.708   4.005  11.939 -1.2872  4.1621 -0.1851
  906MPD2    N113278   2.862   4.344  11.507 -0.0309 -0.3676 -0.8877
  906MPD2    H713279   2.880   4.262  11.450 -1.2957 -0.8405 -0.6002
  907MPD2     C13280   1.502   3.353  15.893  0.0612 -0.0307  0.1617
  907MPD2    C113281   1.471   3.226  15.853  0.5072  0.1777 -0.1009
  907MPD2    C213282   1.542   3.122  15.912  0.7440 -0.0776 -0.9191
  907MPD2    C313283   1.643   3.145  16.000  0.6387  0.0226  0.1965
  907MPD2    C413284   1.681   3.279  16.031  0.3137  0.7497 -0.5261
  907MPD2    C513285   1.599   3.379  15.984 -0.1897  0.2165  0.6578
  907MPD2     H13286   1.526   3.017  15.889  2.1122 -0.4367 -0.1939
  907MPD2    H113287   1.761   3.301  16.100  0.2032  2.2021 -0.8617
  907MPD2    H213288   1.468   3.445  15.846 -0.5131 -1.4820 -2.2900
  907MPD2    H313289   1.619   3.481  16.014 -0.5826  0.7652 -0.9286
  907MPD2     N13290   1.712   3.029  16.042 -0.1097  0.5203 -0.2720
  907MPD2    H513291   1.701   2.952  15.977  0.1300  0.5450 -0.3426
  907MPD2    N113292   1.381   3.199  15.750 -0.6909  0.0193 -0.4457
  907MPD2    H713293   1.355   3.102  15.736 -1.2132  0.0550  0.3033
  908MPD2     C13294   3.671   4.222   9.373 -0.8627 -0.0295  0.6719
  908MPD2    C113295   3.734   4.124   9.448 -0.0414  1.0509  0.2193
  908MPD2    C213296   3.858   4.144   9.503 -0.1897 -0.4002 -0.5158
  908MPD2    C313297   3.921   4.264   9.480  0.1777  0.0039 -1.1792
  908MPD2    C413298   3.859   4.365   9.409 -0.9036 -0.3288 -0.4623
  908MPD2    C513299   3.731   4.341   9.359  1.1746  0.0509  0.4759
  908MPD2     H13300   3.918   4.063   9.542  0.7535  0.1002 -0.8919
  908MPD2    H113301   3.898   4.465   9.393 -1.1778 -0.2235 -0.4746
  908MPD2    H213302   3.584   4.201   9.312 -0.0188  1.5580 -1.0686
  908MPD2    H313303   3.691   4.415   9.290  3.1895  0.5781 -0.1107
  908MPD2     N13304   4.043   4.286   9.550  0.0847  0.3137 -0.1849
  908MPD2    H513305   4.061   4.218   9.623 -1.5733  1.9038  1.7053
  908MPD2    N113306   3.669   3.993   9.466 -0.5509  0.5648 -0.5415
  908MPD2    H713307   3.720   3.914   9.504 -0.3236  0.1143 -1.8068
  909MPD2     C13308   4.298   1.684  12.072 -0.4548  0.3746  0.7726
  909MPD2    C113309   4.302   1.810  12.014 -0.2323 -0.0488 -0.5676
  909MPD2    C213310   4.206   1.903  12.054  0.0861  0.3669 -0.4762
  909MPD2    C313311   4.103   1.878  12.144 -0.3716  0.0248 -0.2317
  909MPD2    C413312   4.107   1.754  12.206  0.2027 -0.2377 -0.4575
  909MPD2    C513313   4.196   1.659  12.163  0.3433 -0.2121  0.2697
  909MPD2     H13314   4.210   1.995  11.997 -0.2953  0.3611 -0.5128
  909MPD2    H113315   4.031   1.725  12.278 -0.1825  0.7700 -0.4576
  909MPD2    H213316   4.370   1.609  12.043  1.0488  1.7072  1.0769
  909MPD2    H313317   4.189   1.563  12.215  0.9166 -0.8314 -0.8008
  909MPD2     N13318   4.000   1.967  12.175 -0.1851  0.0363  0.0075
  909MPD2    H513319   3.936   1.939  12.249 -0.1366  0.2966  0.1481
  909MPD2    N113320   4.403   1.842  11.915 -0.8854 -0.3531 -0.6965
  909MPD2    H713321   4.398   1.934  11.874  1.1449  0.1403  0.1699
  910MPD2     C13322   1.169   3.612  15.944 -0.1554 -0.1873 -0.5064
  910MPD2    C113323   1.107   3.497  15.893  0.3320 -0.0430  0.1021
  910MPD2    C213324   1.048   3.495  15.766  0.0916 -0.2390  0.0764
  910MPD2    C313325   1.026   3.613  15.693  0.3176  0.0823  0.6007
  910MPD2    C413326   1.088   3.724  15.737 -0.2578 -0.2590 -0.1758
  910MPD2    C513327   1.155   3.721  15.860  0.0380 -0.5348 -0.8258
  910MPD2     H13328   0.995   3.409  15.728 -0.3216  0.2174 -0.3825
  910MPD2    H113329   1.073   3.817  15.684 -1.9553  0.4615  1.6034
  910MPD2    H213330   1.236   3.630  16.027 -2.3983 -0.3604  1.3480
  910MPD2    H313331   1.217   3.807  15.883 -0.1847 -0.8286  0.9054
  910MPD2     N13332   0.944   3.633  15.579  0.2139 -0.0378  0.6317
  910MPD2    H513333   0.941   3.729  15.547  1.8851  0.4619  1.9628
  910MPD2    N113334   1.108   3.381  15.966 -0.2453  0.1187 -0.1527
  910MPD2    H713335   1.061   3.300  15.926 -0.3663  0.3438 -0.4655
  911MPD2     C13336   3.413   0.135  16.538 -0.1294 -0.5838 -0.2082
  911MPD2    C113337   3.424   0.049  16.433  0.3285 -0.3141  0.1948
  911MPD2    C213338   3.314   4.719  16.374 -0.4582 -0.0934  0.0732
  911MPD2    C313339   3.190   0.018  16.433 -0.0937 -0.1935 -0.0485
  911MPD2    C413340   3.175   0.098  16.543  0.3079  0.0434 -0.7467
  911MPD2    C513341   3.286   0.154  16.588 -1.2012  0.0313  0.4829
  911MPD2     H13342   3.322   4.655  16.286 -1.1221  1.0638 -0.8281
  911MPD2    H113343   3.085   0.124  16.596  0.5729 -2.8214  1.1036
  911MPD2    H213344   3.494   0.181  16.594  0.0863  0.5559 -1.4342
  911MPD2    H313345   3.277   0.225  16.669 -0.0956  0.9865 -0.2281
  911MPD2     N13346   3.080   4.680  16.375 -0.2821  0.0449 -0.4704
  911MPD2    H513347   3.110   4.629  16.293  3.7912 -0.5568  1.4474
  911MPD2    N113348   3.557   4.720  16.404 -0.1504  0.3212  0.3322
  911MPD2    H713349   3.632   0.040  16.459  1.6629  1.4937 -2.9869
  912MPD2     C13350   2.802   3.881  16.366 -0.1348  0.7423 -0.7146
  912MPD2    C113351   2.788   4.009  16.418  0.0621  0.4850  0.0934
  912MPD2    C213352   2.740   4.015  16.548  0.0954  0.3853  0.0686
  912MPD2    C313353   2.707   3.899  16.618  0.4797 -0.6359  0.9850
  912MPD2    C413354   2.717   3.776  16.559 -0.3373 -0.0792  0.1028
  912MPD2    C513355   2.772   3.768  16.438 -0.0761  0.0794  0.3330
  912MPD2     H13356   2.751   4.110  16.598 -0.4434  0.5928 -0.2039
  912MPD2    H113357   2.682   3.686  16.608  1.5774 -1.1903 -0.5757
  912MPD2    H213358   2.848   3.867  16.269 -4.0429 -1.6914 -2.2260
  912MPD2    H313359   2.782   3.673  16.387 -2.6448 -0.3056  0.5713
  912MPD2     N13360   2.667   3.916  16.754 -0.6422  0.1445  0.5490
  912MPD2    H513361   2.641   4.012  16.775  1.7310  0.1476  3.4041
  912MPD2    N113362   2.828   4.121  16.348  0.6392  0.5106  0.1831
  912MPD2    H713363   2.889   4.109  16.267  0.8008 -1.3740  0.5798
  913MPD2     C13364   3.653   0.686  10.332 -0.0663  0.1568  0.0919
  913MPD2    C113365   3.763   0.753  10.291 -0.3986 -0.5546 -0.0178
  913MPD2    C213366   3.757   0.828  10.181  0.2434 -0.1773  0.8187
  913MPD2    C313367   3.636   0.842  10.104 -0.1414  0.4172 -0.0566
  913MPD2    C413368   3.530   0.767  10.137 -0.0137 -0.3804  0.1838
  913MPD2    C513369   3.537   0.690  10.246 -0.2117 -0.2965 -0.6458
  913MPD2     H13370   3.839   0.894  10.153 -1.0933  0.8213 -0.7922
  913MPD2    H113371   3.438   0.766  10.080 -0.4464  2.0286  0.8049
  913MPD2    H213372   3.645   0.631  10.425  1.2846 -0.7365 -0.3149
  913MPD2    H313373   3.457   0.625  10.280 -0.9427  0.4881 -0.8872
  913MPD2     N13374   3.623   0.935  10.001 -0.5449  0.3089 -0.2959
  913MPD2    H513375   3.531   0.943   9.958  0.4290 -2.4083 -2.7878
  913MPD2    N113376   3.872   0.740  10.378  0.3066 -0.0749 -0.5621
  913MPD2    H713377   3.848   0.688  10.461  2.2164  0.3336  0.2519
  914MPD2     C13378   1.831   0.866  12.289  0.5954  0.5613  0.6330
  914MPD2    C113379   1.813   0.969  12.377 -0.1398  0.2061  0.2289
  914MPD2    C213380   1.876   0.964  12.500  1.0539 -0.5792  0.1122
  914MPD2    C313381   1.963   0.866  12.526 -0.7002 -0.4472 -0.6792
  914MPD2    C413382   1.993   0.770  12.436 -0.3687 -0.4253 -0.7764
  914MPD2    C513383   1.930   0.779  12.315  0.3461 -0.1896  0.3738
  914MPD2     H13384   1.856   1.039  12.575 -0.0139  0.8429 -1.5934
  914MPD2    H113385   2.065   0.689  12.448 -1.2026 -1.1084 -0.3399
  914MPD2    H213386   1.790   0.874  12.188 -0.1561 -1.4520  0.7633
  914MPD2    H313387   1.953   0.709  12.235  0.8351 -0.2615  0.5830
  914MPD2     N13388   2.025   0.870  12.656 -0.1532  0.5534 -0.3288
  914MPD2    H513389   1.984   0.940  12.717 -0.8140 -0.7354  0.7176
  914MPD2    N113390   1.715   1.072  12.340 -0.1439 -0.1822  0.2215
  914MPD2    H713391   1.656   1.048  12.262 -1.7577 -1.2067  1.7514
  915MPD2     C13392   0.165   1.342  15.971 -0.3460  0.1429 -0.6462
  915MPD2    C113393   0.070   1.432  15.925 -0.0076 -0.8102 -0.3179
  915MPD2    C213394   0.007   1.513  16.015 -0.1195 -0.3254  0.7531
  915MPD2    C313395   0.039   1.513  16.153 -0.7501 -0.1136  0.5472
  915MPD2    C413396   0.135   1.427  16.191 -0.2999 -0.7164 -0.5058
  915MPD2    C513397   0.207   1.349  16.103 -0.2381 -0.3356 -0.5399
  915MPD2     H13398   4.652   1.581  15.977  1.6770  0.4643 -1.4011
  915MPD2    H113399   0.170   1.418  16.293  1.8453 -0.1813 -1.1997
  915MPD2    H213400   0.215   1.262  15.917 -0.9559 -1.5890  1.3503
  915MPD2    H313401   0.286   1.284  16.140  0.5714  0.2431 -1.2479
  915MPD2     N13402   4.683   1.595  16.245 -0.5718  0.0614  0.3483
  915MPD2    H513403   4.619   1.664  16.208  1.0002  1.4343  0.2154
  915MPD2    N113404   0.026   1.416  15.792  0.2782 -0.0279 -0.0077
  915MPD2    H713405   0.068   1.335  15.747 -1.5447  0.2826 -2.2747
  916MPD2     C13406   2.489   4.439  16.132  0.8077  0.7089 -0.4440
  916MPD2    C113407   2.419   4.355  16.214 -0.0140  0.0513  0.1342
  916MPD2    C213408   2.453   4.221  16.220 -0.9403 -0.2213 -0.1854
  916MPD2    C313409   2.549   4.173  16.128 -0.4077  0.6688  0.0262
  916MPD2    C413410   2.604   4.259  16.038  0.1671 -0.5546  0.2577
  916MPD2    C513411   2.581   4.396  16.048 -0.4387 -0.6720 -0.0546
  916MPD2     H13412   2.399   4.152  16.284  0.1024 -1.4884 -0.6532
  916MPD2    H113413   2.687   4.229  15.977  0.1962 -1.6090  0.8260
  916MPD2    H213414   2.472   4.546  16.138 -1.0715  0.5182 -2.2726
  916MPD2    H313415   2.624   4.466  15.977 -0.2679 -1.5091 -0.7771
  916MPD2     N13416   2.590   4.035  16.130 -0.1799  0.1153  0.1028
  916MPD2    H513417   2.532   3.976  16.189  0.9065 -0.7585  0.2941
  916MPD2    N113418   2.305   4.413  16.274 -0.0188  0.6330 -0.0336
  916MPD2    H713419   2.289   4.512  16.262  0.4974  0.7492  0.2404
  917MPD2     C13420   3.475   1.563  11.788 -0.1814  0.5682 -0.2988
  917MPD2    C113421   3.382   1.666  11.765 -0.4012  0.1580  0.0388
  917MPD2    C213422   3.418   1.777  11.690  0.4751 -0.1864  0.2198
  917MPD2    C313423   3.541   1.776  11.625 -0.3622  0.3585  0.4049
  917MPD2    C413424   3.624   1.668  11.636 -0.2870 -0.7506  0.6942
  917MPD2    C513425   3.592   1.558  11.713 -0.1904 -0.0262  0.3021
  917MPD2     H13426   3.357   1.863  11.666  0.1607 -0.6557 -0.6344
  917MPD2    H113427   3.723   1.662  11.591 -0.2155  1.4433  0.5746
  917MPD2    H213428   3.462   1.491  11.869 -3.5262  0.3823 -1.0149
  917MPD2    H313429   3.660   1.476  11.734  1.5334  0.5390 -3.0585
  917MPD2     N13430   3.590   1.873  11.541 -0.4951 -0.1925 -0.2278
  917MPD2    H513431   3.683   1.849  11.507  0.7885  2.1031  1.6832
  917MPD2    N113432   3.259   1.665  11.837 -0.4690 -0.2323 -0.0903
  917MPD2    H713433   3.236   1.578  11.884 -1.7063 -0.5513 -1.2892
  918MPD2     C13434   3.215   1.247  12.554 -0.3302 -1.0324 -0.5403
  918MPD2    C113435   3.301   1.343  12.498 -0.0319 -0.1794 -0.0282
  918MPD2    C213436   3.261   1.429  12.393  0.2893  0.1148 -0.0210
  918MPD2    C313437   3.126   1.431  12.357  0.2222 -0.4298 -0.0244
  918MPD2    C413438   3.042   1.331  12.407 -0.2760 -0.3150  0.0651
  918MPD2    C513439   3.082   1.245  12.509  0.6489 -1.0010 -0.9665
  918MPD2     H13440   3.329   1.496  12.341  1.4249 -1.1464 -0.1403
  918MPD2    H113441   2.952   1.298  12.357  0.0711  2.3603 -2.2706
  918MPD2    H213442   3.244   1.179  12.633  1.8917 -0.6397 -1.0171
  918MPD2    H313443   3.016   1.165  12.543  0.4438 -0.5315 -0.2450
  918MPD2     N13444   3.086   1.517  12.249  0.1914  0.1238  0.5339
  918MPD2    H513445   3.130   1.606  12.227  0.9763 -0.1546  0.9961
  918MPD2    N113446   3.438   1.330  12.526  0.5030 -0.0210  0.8065
  918MPD2    H713447   3.491   1.407  12.485  0.0009 -0.8070 -1.2978
  919MPD2     C13448   3.597   0.934  11.365  0.5291 -0.3368 -0.0377
  919MPD2    C113449   3.648   0.827  11.295 -0.6995 -0.0847  0.1024
  919MPD2    C213450   3.657   0.835  11.157  0.8260 -0.2505 -1.0857
  919MPD2    C313451   3.619   0.948  11.092  0.9814  0.5403  0.4650
  919MPD2    C413452   3.565   1.058  11.160  0.4304 -0.2130 -0.5388
  919MPD2    C513453   3.558   1.046  11.298 -0.3496  0.3249 -0.3984
  919MPD2     H13454   3.687   0.746  11.103  1.1329  0.5824 -2.2740
  919MPD2    H113455   3.520   1.144  11.111 -2.4918 -0.9120  0.9257
  919MPD2    H213456   3.580   0.943  11.472  0.0043  0.2431 -0.1677
  919MPD2    H313457   3.522   1.131  11.355 -1.2893 -1.8420  2.2190
  919MPD2     N13458   3.618   0.958  10.948  0.6236  0.0043  0.3071
  919MPD2    H513459   3.602   1.044  10.897  1.6029  0.2949  0.5042
  919MPD2    N113460   3.676   0.703  11.359 -0.4226  0.1715 -0.1429
  919MPD2    H713461   3.690   0.628  11.292 -0.2598 -0.7059  0.8774
  920MPD2     C13462   3.453   1.590  10.255 -0.7849 -0.2922 -0.2664
  920MPD2    C113463   3.345   1.505  10.265 -0.1407 -0.0230  0.1474
  920MPD2    C213464   3.343   1.400  10.354 -0.5833  0.2760 -0.5683
  920MPD2    C313465   3.464   1.367  10.418 -0.9074  0.0816  0.2440
  920MPD2    C413466   3.574   1.446  10.405  0.5118  0.1941 -0.0234
  920MPD2    C513467   3.561   1.556  10.327 -0.2424 -0.1118  0.6081
  920MPD2     H13468   3.253   1.342  10.369  0.5870 -1.4426 -0.2249
  920MPD2    H113469   3.671   1.420  10.445 -0.0953 -0.6640  0.9123
  920MPD2    H213470   3.464   1.673  10.186 -1.5157  0.9336  1.1086
  920MPD2    H313471   3.650   1.614  10.306  0.0549 -0.3187  1.2850
  920MPD2     N13472   3.472   1.245  10.488  0.3059  0.3655  0.7124
  920MPD2    H513473   3.388   1.191  10.501  0.2150  0.0407 -1.3188
  920MPD2    N113474   3.222   1.517  10.194 -0.3053 -0.5584  0.3800
  920MPD2    H713475   3.153   1.444  10.208 -2.1881  1.0606 -0.4368
  921MPD2     C13476   4.291   0.440  16.498 -0.6252  0.0734  0.2443
  921MPD2    C113477   4.314   0.393  16.366  0.3254 -0.8166  0.0712
  921MPD2    C213478   4.229   0.297  16.318  0.1386  0.0292  0.4067
  921MPD2    C313479   4.120   0.245  16.396  0.6008  0.0977  0.5391
  921MPD2    C413480   4.094   0.303  16.520 -0.0652  0.0874 -0.6630
  921MPD2    C513481   4.184   0.398  16.568  0.6641  0.2665 -0.0941
  921MPD2     H13482   4.258   0.256  16.223 -0.0817 -0.1050  0.3980
  921MPD2    H113483   4.022   0.254  16.585  0.3875 -0.6013 -0.6805
  921MPD2    H213484   4.350   0.519  16.542 -0.0821 -0.8240  1.1159
  921MPD2    H313485   4.180   0.428  16.673  1.6818 -1.5508  0.4629
  921MPD2     N13486   4.024   0.148  16.357  0.5437 -0.7085 -0.3606
  921MPD2    H513487   3.950   0.121  16.421  1.2162 -0.9617  0.3054
  921MPD2    N113488   4.421   0.454  16.297 -0.3321 -0.1421  0.7209
  921MPD2    H713489   4.486   0.504  16.357 -0.5130  0.1113  0.7079
  922MPD2     C13490   0.306   2.105   0.554 -0.5159  0.1377 -0.0462
  922MPD2    C113491   0.372   2.198   0.480  0.3620  0.4116  0.3032
  922MPD2    C213492   0.300   2.275   0.390  0.0312 -0.3359 -0.0086
  922MPD2    C313493   0.172   2.236   0.360 -0.3614 -0.2341 -1.2592
  922MPD2    C413494   0.104   2.139   0.435 -0.7133 -0.1388 -0.2445
  922MPD2    C513495   0.169   2.081   0.540  0.1442 -1.2233  0.1012
  922MPD2     H13496   0.335   2.365   0.343  1.1237 -0.3523  0.7589
  922MPD2    H113497   0.001   2.108   0.421 -0.7838 -0.0420  0.0702
  922MPD2    H213498   0.356   2.058   0.638 -1.0261  1.1363  0.8145
  922MPD2    H313499   0.111   2.009   0.597 -0.8149  0.1170  0.8122
  922MPD2     N13500   0.108   2.311   0.258 -0.4413  0.1245 -0.0451
  922MPD2    H513501   0.148   2.387   0.204 -0.6756 -0.0412 -0.4504
  922MPD2    N113502   0.509   2.216   0.501 -0.2210  0.1111  0.0721
  922MPD2    H713503   0.552   2.289   0.445  0.6317  1.2312  2.1874
  923MPD2     C13504   2.291   0.005   9.368 -0.1919 -0.5552  0.5188
  923MPD2    C113505   2.219   0.032   9.483 -0.3191  0.5100  0.0331
  923MPD2    C213506   2.264   0.002   9.610  0.6457  0.2426  0.1515
  923MPD2    C313507   2.390   4.666   9.626  0.3527  0.6288 -0.4080
  923MPD2    C413508   2.468   4.651   9.509  0.2672  0.3081  0.2005
  923MPD2    C513509   2.417   4.680   9.385 -0.1150 -0.2837 -0.5244
  923MPD2     H13510   2.195   0.026   9.690 -0.3674 -0.0171 -0.6478
  923MPD2    H113511   2.568   4.608   9.516 -0.0062 -0.1172  1.5248
  923MPD2    H213512   2.263   0.014   9.263 -0.9946  0.3133  0.8080
  923MPD2    H313513   2.487   4.660   9.304 -0.7633  0.1371 -1.1888
  923MPD2     N13514   2.439   4.620   9.750  0.2141 -0.2048 -0.2238
  923MPD2    H513515   2.530   4.575   9.751  0.4722  0.3536  1.7128
  923MPD2    N113516   2.085   0.079   9.451  0.4163  0.2028  0.2788
  923MPD2    H713517   2.049   0.082   9.356 -2.0575 -1.5203  1.1896
  924MPD2     C13518   1.802   2.371  15.561 -0.4191 -0.1943 -0.7998
  924MPD2    C113519   1.834   2.328  15.685 -0.5916 -1.8005 -0.6510
  924MPD2    C213520   1.896   2.420  15.775 -0.5950  0.2392 -0.0751
  924MPD2    C313521   1.920   2.555  15.735  0.0387 -0.4743  0.5929
  924MPD2    C413522   1.884   2.591  15.607  0.3982  0.6784 -0.1776
  924MPD2    C513523   1.833   2.498  15.518  0.4468 -0.8251  0.0678
  924MPD2     H13524   1.923   2.377  15.870  0.0171  2.1785  0.6294
  924MPD2    H113525   1.896   2.693  15.572  1.9136  0.1151 -1.2990
  924MPD2    H213526   1.753   2.301  15.494  0.1791  1.8823 -3.3683
  924MPD2    H313527   1.797   2.524  15.419 -1.6595  1.2472  1.3778
  924MPD2     N13528   1.968   2.660  15.822  0.3166  0.1770  0.0566
  924MPD2    H513529   1.984   2.752  15.781 -2.7016 -0.1065 -1.7453
  924MPD2    N113530   1.799   2.193  15.735 -0.0776 -0.4948 -0.3142
  924MPD2    H713531   1.816   2.180  15.834 -2.1645 -2.8836 -0.2713
  925MPD2     C13532   0.460   0.454  14.885 -0.0224  0.4352  0.3454
  925MPD2    C113533   0.377   0.371  14.815  0.8808 -0.8615  0.2348
  925MPD2    C213534   0.292   0.294  14.882  0.6864 -0.0588 -0.1294
  925MPD2    C313535   0.279   0.294  15.016  0.3481  0.7623 -0.4340
  925MPD2    C413536   0.355   0.387  15.092  0.9662 -0.0546  0.4598
  925MPD2    C513537   0.447   0.466  15.026  0.1651 -0.1467  0.2998
  925MPD2     H13538   0.234   0.223  14.824  0.2367  0.3897 -0.2371
  925MPD2    H113539   0.332   0.397  15.197 -0.9578 -0.3172  0.0658
  925MPD2    H213540   0.534   0.519  14.840  2.3285 -2.0174  0.7364
  925MPD2    H313541   0.511   0.539  15.074 -0.9341  1.9622 -1.4315
  925MPD2     N13542   0.179   0.225  15.087 -0.1301  0.1994  0.1304
  925MPD2    H513543   0.182   0.250  15.185  0.3405  0.2844  0.0964
  925MPD2    N113544   0.375   0.367  14.678 -0.0252 -0.4268  0.4796
  925MPD2    H713545   0.312   0.301  14.635  0.3687 -1.2751  1.2045
  926MPD2     C13546   3.319   3.310  13.369 -0.4471  0.3262  0.8236
  926MPD2    C113547   3.413   3.398  13.423  0.8321 -0.1992  0.5814
  926MPD2    C213548   3.530   3.428  13.359 -0.1190 -0.1102  0.0118
  926MPD2    C313549   3.549   3.387  13.235  0.5436 -0.3998  0.1613
  926MPD2    C413550   3.462   3.293  13.172  0.3949  0.2181  0.6107
  926MPD2    C513551   3.348   3.254  13.241  0.4459 -0.3743  0.7990
  926MPD2     H13552   3.592   3.509  13.394  0.8808 -1.2762  0.9148
  926MPD2    H113553   3.470   3.259  13.069 -0.4978  0.5167  0.4412
  926MPD2    H213554   3.234   3.272  13.424 -0.2868 -1.0677  0.1279
  926MPD2    H313555   3.284   3.179  13.195 -0.5204  0.0267  1.4856
  926MPD2     N13556   3.645   3.450  13.149 -0.4474 -0.1718 -0.0138
  926MPD2    H513557   3.636   3.435  13.049 -0.6886  2.3097 -0.3663
  926MPD2    N113558   3.384   3.467  13.542  0.8404 -0.1535 -0.7984
  926MPD2    H713559   3.459   3.512  13.593 -0.3033 -0.8641  1.5254
  927MPD2     C13560   3.614   4.546   0.669  0.5339 -0.6743 -0.2154
  927MPD2    C113561   3.732   4.614   0.698 -0.1149 -1.0305 -0.4420
  927MPD2    C213562   3.833   4.622   0.606 -0.1732  0.3271 -0.2811
  927MPD2    C313563   3.809   4.578   0.479 -0.3417  0.4300  0.4030
  927MPD2    C413564   3.701   4.507   0.443 -0.0150  0.4762 -0.5993
  927MPD2    C513565   3.609   4.493   0.543  0.1025  0.1841  0.2591
  927MPD2     H13566   3.921   4.681   0.628  0.4483  0.0226 -2.0033
  927MPD2    H113567   3.684   4.464   0.345  0.1059 -1.4134  0.2153
  927MPD2    H213568   3.532   4.535   0.739 -0.8947 -1.1822 -1.9545
  927MPD2    H313569   3.523   4.433   0.518 -0.1756  0.9378 -0.6020
  927MPD2     N13570   3.911   4.620   0.387  0.1004 -0.2221  0.3493
  927MPD2    H513571   3.991   4.671   0.422 -0.6581  1.0238  0.2372
  927MPD2    N113572   3.734   4.681   0.826  0.1802  0.2384  0.4542
  927MPD2    H713573   3.644   4.680   0.874 -0.9352  0.4944 -1.6207
  928MPD2     C13574   2.379   4.133   1.241  0.0175 -0.1658 -0.2548
  928MPD2    C113575   2.326   4.254   1.259 -1.0767  0.1599 -0.0448
  928MPD2    C213576   2.334   4.347   1.157 -0.4834 -0.5853 -0.1073
  928MPD2    C313577   2.401   4.319   1.038 -0.0687  0.4120 -0.3057
  928MPD2    C413578   2.433   4.185   1.020  0.2879  0.6940 -0.1941
  928MPD2    C513579   2.424   4.090   1.114 -0.0614  0.1538 -0.0464
  928MPD2     H13580   2.317   4.451   1.184  0.9948 -0.1936 -0.6928
  928MPD2    H113581   2.486   4.156   0.929  0.2569  0.1457 -0.0368
  928MPD2    H213582   2.369   4.051   1.311  3.2441  0.4107  0.8920
  928MPD2    H313583   2.453   3.986   1.102 -2.5600 -0.6241  0.5941
  928MPD2     N13584   2.416   4.411   0.933  0.3282 -0.2030 -0.0499
  928MPD2    H513585   2.443   4.372   0.843 -0.9638 -2.4428  0.5369
  928MPD2    N113586   2.265   4.292   1.382  0.2847  0.0505 -0.4125
  928MPD2    H713587   2.261   4.218   1.451  0.9803 -1.1819 -1.6913
  929MPD2     C13588   1.792   4.321  11.083 -0.0364 -0.0081  0.4899
  929MPD2    C113589   1.783   4.227  10.979  0.5643  0.3647 -0.8402
  929MPD2    C213590   1.757   4.267  10.846 -0.0371 -0.8057 -0.2599
  929MPD2    C313591   1.758   4.403  10.815 -0.7739  0.3257  0.3075
  929MPD2    C413592   1.767   4.495  10.917 -0.6382 -0.6339  0.3976
  929MPD2    C513593   1.775   4.455  11.050 -0.0423 -0.8329 -0.5870
  929MPD2     H13594   1.747   4.198  10.763 -0.3903 -2.9076  1.5259
  929MPD2    H113595   1.763   4.602  10.900  2.8758  0.0431  3.7061
  929MPD2    H213596   1.804   4.301  11.189  0.7195 -1.2410  0.1763
  929MPD2    H313597   1.772   4.526  11.131  1.9506  1.0483 -2.1517
  929MPD2     N13598   1.750   4.458  10.685  0.4245 -0.0816  0.5292
  929MPD2    H513599   1.734   4.558  10.679  2.6379  0.3559  2.1687
  929MPD2    N113600   1.792   4.087  11.019 -0.7831 -1.4977 -0.4181
  929MPD2    H713601   1.795   4.069  11.118 -2.9885  1.8865  0.2716
  930MPD2     C13602   3.406   1.757  14.132  0.0755 -0.0466  0.7404
  930MPD2    C113603   3.537   1.758  14.079  0.1173  0.0347  0.2477
  930MPD2    C213604   3.554   1.727  13.944  0.3982  0.2592 -0.3938
  930MPD2    C313605   3.448   1.692  13.855  0.9537 -0.2051  0.1112
  930MPD2    C413606   3.323   1.687  13.915 -0.3132  0.6204 -0.5991
  930MPD2    C513607   3.301   1.711  14.052  0.6537  0.1179  0.1050
  930MPD2     H13608   3.651   1.741  13.898  1.9742  0.2016  2.9329
  930MPD2    H113609   3.235   1.659  13.858  0.5201 -0.0663 -1.5489
  930MPD2    H213610   3.381   1.790  14.232  1.2838 -1.1502  1.4099
  930MPD2    H313611   3.199   1.723  14.086  0.0919 -1.0769 -1.1555
  930MPD2     N13612   3.454   1.665  13.713  0.2595  0.2555  0.2414
  930MPD2    H513613   3.365   1.646  13.667  0.1434  3.0323 -0.6472
  930MPD2    N113614   3.643   1.792  14.160  0.3809 -0.2792  0.7971
  930MPD2    H713615   3.619   1.823  14.254 -0.1783  2.2798 -0.2001
  931MPD2     C13616   4.353   0.352   0.987  0.8063  0.4839 -0.3536
  931MPD2    C113617   4.250   0.392   1.076 -0.7298 -0.3282 -0.1976
  931MPD2    C213618   4.283   0.488   1.166 -0.4790 -0.0525  1.1650
  931MPD2    C313619   4.410   0.541   1.180  0.3644 -0.9811  0.0169
  931MPD2    C413620   4.512   0.489   1.102 -0.6127  0.3911 -0.1942
  931MPD2    C513621   4.488   0.390   1.004  0.1041  0.3781  0.0885
  931MPD2     H13622   4.209   0.523   1.237  0.0294  3.2419  0.0751
  931MPD2    H113623   4.612   0.530   1.111  0.4209 -1.4789 -3.1798
  931MPD2    H213624   4.334   0.280   0.908 -0.7124 -0.8018  1.1739
  931MPD2    H313625   4.562   0.357   0.931  1.0248 -0.7835  1.5380
  931MPD2     N13626   4.452   0.624   1.290  0.1265  0.3447  0.2524
  931MPD2    H513627   4.552   0.641   1.297  0.1209  0.4233  0.1444
  931MPD2    N113628   4.127   0.328   1.072 -0.0900  0.6028  0.3879
  931MPD2    H713629   4.109   0.268   0.992  1.7339  1.7844 -0.9097
  932MPD2     C13630   0.831   4.055  11.486 -0.5639 -0.7371 -0.2605
  932MPD2    C113631   0.942   4.148  11.489  0.6875 -0.3717 -0.5545
  932MPD2    C213632   1.072   4.110  11.510 -0.9134 -0.2026 -0.1572
  932MPD2    C313633   1.101   3.977  11.516  0.2315  0.9650  0.2806
  932MPD2    C413634   0.996   3.887  11.511 -0.1198 -0.0755 -0.4390
  932MPD2    C513635   0.866   3.926  11.488 -0.7633 -0.4387 -0.8296
  932MPD2     H13636   1.148   4.187  11.522  0.5131 -1.7796  0.9111
  932MPD2    H113637   1.014   3.781  11.517  1.3136 -0.0266 -4.3038
  932MPD2    H213638   0.727   4.086  11.479 -0.0275  1.6525  2.4236
  932MPD2    H313639   0.797   3.843  11.478 -2.9285  0.9653  2.4596
  932MPD2     N13640   1.230   3.931  11.544 -0.0481 -0.2126 -0.6379
  932MPD2    H513641   1.244   3.830  11.552  1.3544 -0.1209 -1.9126
  932MPD2    N113642   0.925   4.283  11.480  0.0258  0.0794  0.3181
  932MPD2    H713643   1.001   4.346  11.502  0.1505 -0.1040  0.4130
  933MPD2     C13644   1.564   4.459   1.959 -0.0786  0.1696 -0.0158
  933MPD2    C113645   1.619   4.510   1.845  0.1433  0.6074 -0.5336
  933MPD2    C213646   1.561   4.615   1.777 -0.1323  0.2686  0.0730
  933MPD2    C313647   1.435   4.653   1.816  0.3325  0.2826  0.6120
  933MPD2    C413648   1.362   4.591   1.918  0.4356  0.2103 -0.0134
  933MPD2    C513649   1.435   4.502   1.986  0.1190 -0.4663  0.0394
  933MPD2     H13650   1.614   4.660   1.693 -0.1954  1.8425  0.8784
  933MPD2    H113651   1.263   4.618   1.953 -0.2588 -0.7174 -1.2262
  933MPD2    H213652   1.609   4.386   2.026  1.7940 -0.3749 -1.8338
  933MPD2    H313653   1.392   4.464   2.078 -2.3165  1.2592 -0.4051
  933MPD2     N13654   1.403   0.061   1.771  0.0121 -1.1060 -0.3529
  933MPD2    H513655   1.472   0.110   1.714  0.4705 -1.5318 -0.1585
  933MPD2    N113656   1.754   4.456   1.813  0.0512 -0.3638  0.5025
  933MPD2    H713657   1.785   4.379   1.871 -1.8494 -1.8758 -0.4820
  934MPD2     C13658   3.214   1.876   2.320  0.4331 -0.2399  0.3213
  934MPD2    C113659   3.227   1.738   2.308 -0.4615  0.4527 -0.2433
  934MPD2    C213660   3.126   1.669   2.243 -0.4917  0.1707 -0.1360
  934MPD2    C313661   3.010   1.738   2.193  0.0173  0.0894  0.6223
  934MPD2    C413662   3.003   1.873   2.206  0.2149 -0.8292  0.4627
  934MPD2    C513663   3.099   1.941   2.275 -0.0613  0.4080 -0.5031
  934MPD2     H13664   3.145   1.563   2.233 -2.0805 -0.0477 -0.8474
  934MPD2    H113665   2.914   1.925   2.173  0.5769 -0.4785  0.0267
  934MPD2    H213666   3.280   1.939   2.379  1.6443 -2.3675  1.2192
  934MPD2    H313667   3.089   2.047   2.291  0.0854  0.4546 -0.7179
  934MPD2     N13668   2.909   1.667   2.118 -0.2498 -0.7012 -0.4717
  934MPD2    H513669   2.840   1.734   2.087  1.0310  0.8735  0.1175
  934MPD2    N113670   3.344   1.671   2.333  0.1939  0.0344  0.0100
  934MPD2    H713671   3.351   1.571   2.314 -1.2753 -0.1464  0.3848
  935MPD2     C13672   3.133   1.109   1.412 -0.2829  0.3751  0.3704
  935MPD2    C113673   3.003   1.122   1.379  0.0556 -0.4167  0.2522
  935MPD2    C213674   2.913   1.152   1.482  0.4014 -0.1362 -0.0240
  935MPD2    C313675   2.951   1.186   1.609  0.2916 -0.0991  0.1265
  935MPD2    C413676   3.090   1.165   1.631  0.5349 -0.1781 -0.6513
  935MPD2    C513677   3.174   1.135   1.535  0.2000 -0.4483  0.1535
  935MPD2     H13678   2.810   1.164   1.452  0.4392  1.6539  0.5542
  935MPD2    H113679   3.134   1.183   1.729 -1.6582  2.5729 -0.1990
  935MPD2    H213680   3.205   1.090   1.334 -0.2369  2.0909 -0.0007
  935MPD2    H313681   3.281   1.139   1.555  0.2039 -0.6753  0.1774
  935MPD2     N13682   2.875   1.229   1.719 -0.2937  0.2435  0.1238
  935MPD2    H513683   2.923   1.231   1.808 -1.1712 -0.6499  0.6169
  935MPD2    N113684   2.944   1.095   1.256 -0.2299 -0.0412 -0.6584
  935MPD2    H713685   2.844   1.113   1.256  0.1292  1.9901 -1.8138
  936MPD2     C13686   0.644   4.174  12.831  0.7735 -0.2583 -0.5044
  936MPD2    C113687   0.671   4.047  12.799 -0.0935 -0.5153 -0.3452
  936MPD2    C213688   0.748   4.029  12.685 -0.3194 -0.6626 -0.8872
  936MPD2    C313689   0.819   4.134  12.630  0.1085  0.4103  0.3572
  936MPD2    C413690   0.807   4.259  12.681 -0.0603  0.6285  0.8324
  936MPD2    C513691   0.715   4.282  12.780  0.4123 -0.3443 -0.8230
  936MPD2     H13692   0.762   3.928  12.648  0.8973 -0.6602 -0.4389
  936MPD2    H113693   0.870   4.343  12.653  0.9526 -0.3195  0.2883
  936MPD2    H213694   0.567   4.183  12.907  1.4548  3.2295 -0.2403
  936MPD2    H313695   0.712   4.379  12.827 -0.2814 -0.2771 -1.0012
  936MPD2     N13696   0.909   4.101  12.522 -0.1696 -0.0848 -0.2559
  936MPD2    H513697   0.915   4.003  12.497  1.5721 -0.1320  0.3852
  936MPD2    N113698   0.625   3.930  12.864  0.5789 -0.1524  0.0866
  936MPD2    H713699   0.644   3.847  12.809 -2.0433  0.1353 -1.2611
  937MPD2     C13700   3.858   0.084  11.105  0.6019  0.0274  0.2196
  937MPD2    C113701   3.913   0.196  11.158 -0.5252 -0.2836 -0.7831
  937MPD2    C213702   4.002   0.261  11.081 -0.0226 -0.1068  0.3962
  937MPD2    C313703   4.042   0.221  10.955  0.4007  0.6113  0.1941
  937MPD2    C413704   3.994   0.107  10.907  0.2077  0.6400  0.2130
  937MPD2    C513705   3.898   0.039  10.983  0.2190 -0.5565  0.3151
  937MPD2     H13706   4.048   0.350  11.124  1.4727 -0.1576 -1.0989
  937MPD2    H113707   4.012   0.065  10.809 -0.6198  1.5859 -0.3524
  937MPD2    H213708   3.787   0.020  11.157  1.6306  1.2781  3.1682
  937MPD2    H313709   3.852   4.675  10.935  1.4052 -0.8543 -0.2971
  937MPD2     N13710   4.146   0.297  10.888  0.2114  0.4673  0.4109
  937MPD2    H513711   4.189   0.374  10.939 -1.5547  0.1649  2.3106
  937MPD2    N113712   3.865   0.257  11.273 -0.6677 -0.2031  0.3856
  937MPD2    H713713   3.917   0.331  11.320  0.2413 -0.6994  0.1748
  938MPD2     C13714   1.363   1.525   1.421  0.2487 -0.1248 -0.8190
  938MPD2    C113715   1.502   1.500   1.415 -0.1212 -0.1224 -0.1010
  938MPD2    C213716   1.563   1.400   1.498 -0.5351  0.1201 -0.1570
  938MPD2    C313717   1.480   1.325   1.584 -0.3159 -0.0382 -0.4522
  938MPD2    C413718   1.343   1.350   1.586  0.5508 -0.1189 -0.2638
  938MPD2    C513719   1.285   1.447   1.508  0.3012 -0.4412 -0.1032
  938MPD2     H13720   1.670   1.387   1.509 -0.3859  0.7016 -0.9274
  938MPD2    H113721   1.279   1.292   1.652  2.7113 -1.6482  0.5175
  938MPD2    H213722   1.318   1.607   1.366  0.8740  0.9612  0.2937
  938MPD2    H313723   1.179   1.464   1.521  0.8610  1.2335  2.1721
  938MPD2     N13724   1.523   1.235   1.672 -0.4835  0.0913  0.1929
  938MPD2    H513725   1.452   1.200   1.736  0.6886 -3.1966 -0.3004
  938MPD2    N113726   1.601   1.572   1.337 -0.0817  0.0261 -0.4294
  938MPD2    H713727   1.696   1.549   1.362  0.6237  0.5236 -2.6419
  939MPD2     C13728   2.966   2.029   1.486  0.2195  0.5727  0.0913
  939MPD2    C113729   2.929   2.156   1.431 -0.9258  0.3280 -0.0284
  939MPD2    C213730   2.947   2.181   1.294  0.3918  0.2072  0.2848
  939MPD2    C313731   2.994   2.079   1.213  0.1169 -0.6909  0.7883
  939MPD2    C413732   3.024   1.959   1.271 -0.2887  0.2710  0.3524
  939MPD2    C513733   3.012   1.933   1.404  0.4799  0.1865 -0.2242
  939MPD2     H13734   2.912   2.274   1.251 -0.8978  0.2271  1.3583
  939MPD2    H113735   3.067   1.881   1.208  0.5633  0.3661  0.8162
  939MPD2    H213736   2.970   2.003   1.592 -0.6235 -1.1304 -0.2892
  939MPD2    H313737   3.051   1.842   1.448  1.0338  0.5149 -0.0328
  939MPD2     N13738   3.020   2.101   1.069 -0.0119  0.3625 -0.0095
  939MPD2    H513739   2.998   2.196   1.040 -0.4519 -0.0496 -1.0052
  939MPD2    N113740   2.865   2.248   1.520 -0.6819 -0.2069 -0.8782
  939MPD2    H713741   2.842   2.219   1.614  1.3936 -1.5695 -0.7688
  940MPD2     C13742   1.263   3.405  13.401  1.0482  0.1833 -0.4387
  940MPD2    C113743   1.394   3.450  13.418  0.9375 -0.2327 -0.2346
  940MPD2    C213744   1.477   3.463  13.311  0.5647  0.1883 -0.3985
  940MPD2    C313745   1.434   3.433  13.182  0.4739 -0.7412 -0.3587
  940MPD2    C413746   1.305   3.387  13.166 -0.0734 -0.7551  0.8875
  940MPD2    C513747   1.221   3.370  13.271 -0.4694  0.3621  0.0430
  940MPD2     H13748   1.576   3.502  13.332 -0.9092  2.1692  2.7264
  940MPD2    H113749   1.262   3.361  13.070 -1.2619  2.0258  0.6538
  940MPD2    H213750   1.192   3.386  13.480 -0.2152  1.4474 -1.2646
  940MPD2    H313751   1.120   3.336  13.252 -0.3155 -1.0184  1.7685
  940MPD2     N13752   1.516   3.450  13.065 -0.2937  0.3444  0.5232
  940MPD2    H513753   1.481   3.416  12.976 -0.0557  0.8083  0.2512
  940MPD2    N113754   1.440   3.487  13.548  0.0442  0.0398  0.6275
  940MPD2    H713755   1.529   3.536  13.555  0.3850 -0.3660 -0.9157
  941MPD2     C13756   1.471   2.620   9.670  0.1171 -0.9914 -0.0690
  941MPD2    C113757   1.536   2.547   9.767 -0.1472  0.0509  0.4696
  941MPD2    C213758   1.463   2.448   9.831  0.1722  0.2139  0.0216
  941MPD2    C313759   1.328   2.424   9.801 -0.3774  0.4549  0.2486
  941MPD2    C413760   1.260   2.507   9.717  0.2098  0.3246 -0.6818
  941MPD2    C513761   1.336   2.602   9.649  0.1741 -0.1999 -0.6465
  941MPD2     H13762   1.518   2.388   9.903  2.4833 -1.8178 -3.4147
  941MPD2    H113763   1.155   2.500   9.691  0.3091 -3.0944 -0.1764
  941MPD2    H213764   1.521   2.703   9.621 -1.2846  0.2175  0.5634
  941MPD2    H313765   1.284   2.663   9.576 -0.8332  1.1851  1.2271
  941MPD2     N13766   1.251   2.325   9.862 -0.7393 -0.3108  0.6757
  941MPD2    H513767   1.152   2.321   9.837 -0.9795  1.2981  1.3913
  941MPD2    N113768   1.666   2.582   9.818 -0.0761  0.0730  0.1994
  941MPD2    H713769   1.704   2.535   9.900 -0.8108  0.5500  0.8148
  942MPD2     C13770   1.268   4.494   9.698 -0.4356  0.2892 -0.1855
  942MPD2    C113771   1.341   4.551   9.595  0.6196  0.2531  0.4474
  942MPD2    C213772   1.479   4.551   9.603 -0.0389 -0.2293 -0.3878
  942MPD2    C313773   1.548   4.481   9.702 -0.5942  0.7301 -0.1801
  942MPD2    C413774   1.478   4.431   9.810 -1.0199 -0.1384 -0.1752
  942MPD2    C513775   1.343   4.439   9.802 -0.3088 -0.0244 -0.2543
  942MPD2     H13776   1.517   4.604   9.516  0.2464  0.6743  0.2756
  942MPD2    H113777   1.521   4.392   9.901 -0.5418  1.5572  0.3269
  942MPD2    H213778   1.160   4.500   9.704 -0.3598  0.7847  0.6584
  942MPD2    H313779   1.289   4.410   9.891  0.0045 -0.5656 -0.2392
  942MPD2     N13780   1.688   4.485   9.708 -0.2618  0.2786  0.3449
  942MPD2    H513781   1.726   4.456   9.798 -1.6388 -4.0915 -0.4940
  942MPD2    N113782   1.274   4.607   9.480 -0.6356 -0.2518 -0.0543
  942MPD2    H713783   1.329   4.655   9.409  0.9925 -1.2574  0.5405
  943MPD2     C13784   4.683   2.521   9.643 -0.6218  0.3204 -0.4050
  943MPD2    C113785   4.646   2.392   9.670  0.6660  0.2957 -1.1069
  943MPD2    C213786   0.018   2.315   9.725  0.4964 -0.2034 -0.3376
  943MPD2    C313787   0.139   2.364   9.757 -0.2826  0.4690  0.0770
  943MPD2    C413788   0.179   2.495   9.735 -0.0006  0.0112 -0.2305
  943MPD2    C513789   0.089   2.574   9.673  0.5293 -0.2627 -0.0004
  943MPD2     H13790   4.709   2.212   9.739  0.5291 -0.3909 -1.6597
  943MPD2    H113791   0.272   2.544   9.763 -0.1308 -0.4455  0.9992
  943MPD2    H213792   4.627   2.590   9.580  0.3999  2.1714  0.7298
  943MPD2    H313793   0.114   2.674   9.638 -1.1002  0.5887  1.2935
  943MPD2     N13794   0.231   2.272   9.816  0.0493 -0.4570 -0.4908
  943MPD2    H513795   0.314   2.315   9.855  0.2011 -2.5938  1.4765
  943MPD2    N113796   4.523   2.347   9.625  0.2618 -0.5451  0.2086
  943MPD2    H713797   4.457   2.419   9.597  0.7462  0.9708  2.9844
  944MPD2     C13798   4.012   1.256  10.922  0.4144  0.1683  0.1135
  944MPD2    C113799   4.144   1.273  10.937 -0.0061 -0.0306 -0.0773
  944MPD2    C213800   4.183   1.335  11.060  0.1172  0.1468  0.4063
  944MPD2    C313801   4.089   1.379  11.150 -0.0446  0.1207 -0.5119
  944MPD2    C413802   3.952   1.347  11.133  0.2729 -0.2709  0.3197
  944MPD2    C513803   3.911   1.292  11.015 -0.0069  0.6522  0.3260
  944MPD2     H13804   4.288   1.349  11.082  0.8837  0.4233 -3.4015
  944MPD2    H113805   3.875   1.385  11.198  1.1241 -2.0766  2.3935
  944MPD2    H213806   3.976   1.215  10.829 -0.5659  1.9501 -0.2898
  944MPD2    H313807   3.807   1.268  11.001  0.0534  1.5305 -1.5809
  944MPD2     N13808   4.144   1.431  11.268 -0.0829  0.6585 -1.0417
  944MPD2    H513809   4.245   1.433  11.270 -0.0358 -1.8850 -0.9380
  944MPD2    N113810   4.228   1.243  10.833 -0.0864  0.0613 -0.1012
  944MPD2    H713811   4.200   1.189  10.752  0.1724  0.0294 -0.1694
    1TCq1    O113812   2.176   2.494  13.898 -0.5457  0.7083  0.8030
    1TCq1    C113813   2.274   2.429  13.831  0.3910  0.5964  0.0032
    1TCq1    O213814   2.286   2.445  13.712 -0.0895  0.1069 -0.1336
    1TCq1    C213815   2.366   2.368  13.922 -0.3395  0.6869  0.2059
    1TCq1    C313816   2.441   2.255  13.891 -0.0606 -0.6778  0.2137
    1TCq1    C413817   2.546   2.217  13.973 -0.7800  0.2045  0.5150
    1TCq1    C513818   2.563   2.278  14.100  0.4364 -0.5468  0.3484
    1TCq1    C613819   2.486   2.389  14.124 -0.2303  0.3880  1.0352
    1TCq1    C713820   2.386   2.433  14.039 -0.3814 -0.1176  0.0080
    1TCq1    C813821   2.507   2.449  14.258 -0.2686 -0.6888  0.2319
    1TCq1    O413822   2.623   2.446  14.302  1.0760  0.0663 -0.2056
    1TCq1    C913823   2.621   2.095  13.934 -0.1908  0.1725 -0.1883
    1TCq1    O513824   2.728   2.069  13.991 -0.1444  0.1823  0.4253
    1TCq1    O613825   2.559   2.015  13.850 -0.0499 -0.0316  0.5665
    1TCq1    H113826   2.160   2.446  13.982 -2.3590  0.1328  0.1397
    1TCq1    H213827   2.421   2.209  13.795  2.3325 -0.5342 -0.3444
    1TCq1    H313828   2.638   2.239  14.168  0.2322 -1.8274 -0.1518
    1TCq1    H413829   2.337   2.529  14.049 -0.2369  0.0774 -1.2470
    2MPD2     C13830   2.385   2.808  14.608 -0.3311 -0.4917 -0.1341
    2MPD2    C113831   2.294   2.814  14.502 -0.1985 -0.4575  0.0743
    2MPD2    C213832   2.302   2.721  14.402 -0.2717 -0.9976 -0.1253
    2MPD2    C313833   2.393   2.616  14.408 -0.4892 -0.4972  0.3494
    2MPD2    C413834   2.474   2.602  14.519  0.2364 -0.2535 -0.8100
    2MPD2    C513835   2.468   2.699  14.618 -0.3660 -0.0670  0.5270
    2MPD2     H13836   2.239   2.730  14.314 -0.4193 -1.3151 -0.0551
    2MPD2    H113837   2.542   2.519  14.532 -0.6510 -0.7131  0.8706
    2MPD2    H213838   2.375   2.881  14.688 -2.6699 -0.3765 -0.5188
    2MPD2    H313839   2.533   2.683  14.704 -0.8614 -1.7113  0.5989
    2MPD2     N13840   2.401   2.535  14.293 -0.0523  0.5093  0.1008
    2MPD2    H513841   2.317   2.537  14.236  0.3579 -1.0798 -0.5790
    2MPD2    N113842   2.207   2.924  14.500  0.2495 -0.0526 -0.1765
    2MPD2    H713843   2.233   3.007  14.552  3.0713 -0.5553 -0.7875
    3TMC2    C113844   2.040   3.073  14.430 -0.3353  0.3619  0.6095
    3TMC2    C213845   2.101   3.171  14.496  0.8803 -0.6734  0.0004
    3TMC2    C313846   2.080   3.296  14.444  0.5118 -0.3560  0.0322
    3TMC2    C413847   1.961   3.092  14.319 -0.9005 -0.1871 -0.5468
    3TMC2    C513848   1.934   3.217  14.281 -0.1674 -0.5828 -0.0520
    3TMC2    C613849   1.997   3.320  14.342 -0.0715 -0.1590 -0.0587
    3TMC2     C13850   2.094   2.939  14.425  0.5065  0.4833 -0.3248
    3TMC2     O13851   2.044   2.850  14.359  0.4366 -0.2958  0.1821
    3TMC2     H13852   2.161   3.160  14.585 -0.8801  1.4621  1.4516
    3TMC2    H113853   1.923   3.009  14.260  0.8220 -0.5645 -1.1133
    3TMC2    H213854   1.970   3.423  14.323  0.6132  0.3167  1.5201
    3TMC2    C713855   1.870   3.240  14.147 -0.5250 -0.4061  0.5683
    3TMC2    C813856   2.123   3.419  14.520  0.9249 -0.4645 -0.0753
    3TMC2    O113857   1.802   3.148  14.105 -0.0001 -0.1672  0.3202
    3TMC2    O213858   2.064   3.527  14.515  0.4121  0.1217  0.3348
    3TMC2    O513859   2.237   3.390  14.592 -0.0249  0.6064 -0.3058
    3TMC2    H513860   2.275   3.303  14.567 -1.2313 -0.1397  0.4687
    4MPD2     C13861   1.326   4.191  13.486  0.1051  0.4676 -0.3841
    4MPD2    C113862   1.406   4.137  13.389 -0.6543  0.9853  0.3735
    4MPD2    C213863   1.538   4.102  13.424  0.1612  0.1991 -0.1185
    4MPD2    C313864   1.588   4.139  13.549 -0.1897  0.3056 -0.2374
    4MPD2    C413865   1.509   4.199  13.643 -0.3434  0.2692 -0.0816
    4MPD2    C513866   1.371   4.218  13.611  0.1771  0.2095 -0.0552
    4MPD2     H13867   1.611   4.056  13.358  1.0403 -1.1726  1.8289
    4MPD2    H113868   1.538   4.215  13.746 -0.6650  1.2880 -0.1434
    4MPD2    H213869   1.223   4.220  13.467  0.6394  1.6109 -1.5739
    4MPD2    H313870   1.300   4.251  13.686  1.2120  0.0559  1.0025
    4MPD2     N13871   1.722   4.112  13.566  0.0649 -0.6665  0.4487
    4MPD2    H513872   1.765   4.046  13.502 -1.4716 -1.2842  0.0524
    4MPD2    N113873   1.352   4.130  13.265 -0.0016  0.2678 -0.1057
    4MPD2    H713874   1.254   4.148  13.251 -0.9432 -3.4928  1.5905
    5TCq2    C113875   1.789   4.149  13.682 -0.4087  0.1239  0.3590
    5TCq2    O213876   1.763   4.249  13.750  0.2857 -0.1616  0.0216
    5TCq2    C213877   1.923   4.097  13.695  0.1221 -0.4132 -0.2042
    5TCq2    C313878   2.018   4.188  13.736  0.1276  0.3198  0.3528
    5TCq2    C413879   2.138   4.133  13.781  0.3820  0.0783  0.1372
    5TCq2    C513880   2.156   3.998  13.791 -0.0766 -0.0027 -0.1289
    5TCq2    C613881   2.053   3.915  13.765  0.3043  0.3811 -0.0588
    5TCq2    C713882   1.933   3.959  13.710 -0.4548  0.6723  0.4935
    5TCq2    C813883   2.067   3.776  13.806  0.4676  0.6188  0.6047
    5TCq2    O413884   2.128   3.749  13.909  0.2027  0.2750 -0.1201
    5TCq2    C913885   2.240   4.217  13.818  0.4038 -0.0411  0.1151
    5TCq2    O513886   2.230   4.332  13.775 -0.3734 -0.1034  0.2901
    5TCq2    O613887   2.332   4.174  13.896  0.6521 -0.5075 -0.4694
    5TCq2    H213888   1.998   4.294  13.732 -2.7276 -0.2962 -1.6367
    5TCq2    H313889   2.242   3.963  13.847 -1.1332 -0.6801  1.0831
    5TCq2    H413890   1.843   3.899  13.716 -0.5718  0.7839 -0.1187
    6MPD1     C13891   1.028   0.470  14.073 -0.2877  0.7035 -0.5247
    6MPD1    C113892   1.142   0.422  14.024  1.0025 -0.3416  0.0799
    6MPD1    C213893   1.135   0.344  13.915 -0.3342 -0.0305  0.0907
    6MPD1    C313894   1.015   0.320  13.852  0.3109  0.1462  0.0460
    6MPD1    C413895   0.898   0.372  13.903  0.1857  0.6891  0.0004
    6MPD1    C513896   0.908   0.438  14.021 -1.0669 -0.7510  0.0668
    6MPD1     H13897   1.225   0.306  13.866  0.8699  0.9159  1.5590
    6MPD1    H113898   0.802   0.355  13.856 -0.5953  0.8193  1.5402
    6MPD1    H213899   1.033   0.533  14.161 -1.4551  1.5519 -1.0558
    6MPD1    H313900   0.819   0.469  14.073 -1.1040 -1.4412  0.4198
    6MPD1     N13901   1.003   0.255  13.725  0.0443  0.1042 -0.0710
    6MPD1    H513902   0.910   0.241  13.688  0.8190 -0.0448 -1.9780
    6MPD1    N113903   1.266   0.440  14.092 -0.4875  0.7763 -0.1708
    6MPD1    H613904   1.271   0.507  14.169 -1.4301 -1.2967  1.6993
    6MPD1    H713905   1.354   0.424  14.043 -0.2636 -1.7739  1.0739
    7MPD2     C13906   0.710   4.456  13.227  0.1300  0.4846 -0.3613
    7MPD2    C113907   0.825   4.518  13.181 -0.3423  0.2718  0.0506
    7MPD2    C213908   0.897   4.449  13.083  0.2475  0.1813 -0.1834
    7MPD2    C313909   0.885   4.311  13.069 -0.1829 -0.0871 -0.1311
    7MPD2    C413910   0.771   4.254  13.116 -0.3939  0.4163  0.2885
    7MPD2    C513911   0.687   4.328  13.196 -0.6965 -0.1278  0.4080
    7MPD2     H13912   0.992   4.493  13.054  1.7471 -1.9431  1.5030
    7MPD2    H113913   0.747   4.148  13.108 -1.5931  0.8038 -1.5226
    7MPD2    H213914   0.634   4.508  13.284 -0.3820 -0.9882  0.2856
    7MPD2    H313915   0.592   4.283  13.221 -0.3797 -1.1152 -0.1719
    7MPD2     N13916   0.985   4.247  13.001  0.1976 -0.2513 -0.1941
    7MPD2    H513917   1.062   4.302  12.964  1.0723 -1.0631  0.4092
    7MPD2    N113918   0.863   4.649  13.213  0.2569 -0.0612 -0.6621
    7MPD2    H713919   0.944   4.682  13.161 -0.5887 -0.5045 -2.2873
    8TMC3    C113920   1.127   4.069  12.931 -0.2640 -0.5598 -1.0430
    8TMC3    C213921   1.213   4.060  13.036  0.0756 -0.2305  0.2865
    8TMC3    C313922   1.336   4.118  13.036  0.9768 -0.6135  0.1288
    8TMC3    C413923   1.167   4.158  12.825 -0.6045 -0.0066 -0.2949
    8TMC3    C513924   1.290   4.225  12.833 -0.6535 -0.1890  0.9081
    8TMC3    C613925   1.384   4.190  12.930  1.0548  0.4751 -0.1026
    8TMC3     C13926   0.998   4.106  12.980 -0.6784 -0.6445  0.2606
    8TMC3     O13927   0.932   4.015  13.026 -0.0698 -0.4031  0.7254
    8TMC3     H13928   1.183   4.012  13.128 -0.9237  0.3899  0.2882
    8TMC3    H113929   1.097   4.187  12.748  0.0843  1.0983 -0.5032
    8TMC3    H213930   1.476   4.245  12.940  1.3800  0.0219 -0.6093
    8TMC3    C713931   1.265   4.371  12.826 -0.0481 -0.3567 -0.2782
    8TMC3    C813932   1.421   4.106  13.149 -0.0872  0.7523  0.5592
    8TMC3    O113933   1.153   4.416  12.829 -0.8586  0.0232 -0.2095
    8TMC3    O213934   1.544   4.109  13.127  0.2958 -0.7146  0.3754
    9TMC3    C113935   1.069   0.198  13.503  0.2254  0.0654  0.2254
    9TMC3    C213936   1.158   0.231  13.412  0.7270  0.0956  0.3101
    9TMC3    C313937   1.124   0.212  13.280  0.2176  0.3168 -0.1817
    9TMC3    C413938   0.946   0.137  13.477 -0.7455 -0.2524 -0.5196
    9TMC3    C513939   0.917   0.110  13.347  0.6896 -0.1733  0.0393
    9TMC3    C613940   1.003   0.149  13.252 -0.1907  0.3773  0.2064
    9TMC3     C13941   1.110   0.223  13.638 -0.1689  0.2529  0.0325
    9TMC3     O13942   1.229   0.241  13.653 -0.0359 -0.4514 -0.0309
    9TMC3     H13943   1.249   0.284  13.438  1.7661 -1.8529  0.6236
    9TMC3    H113944   0.888   0.095  13.558  1.5554  0.1079  1.3151
    9TMC3    H213945   0.976   0.146  13.147  0.2748  0.0891  0.0926
    9TMC3    C713946   0.831   4.718  13.325  0.0537 -0.5975  0.4766
    9TMC3    C813947   1.243   0.191  13.197 -0.0915  0.4340  0.4373
    9TMC3    O113948   0.753   4.691  13.411 -0.1996 -0.1037  0.1913
    9TMC3    O213949   1.332   0.268  13.220 -0.2316  0.1232 -0.3513
   10MPD2     C13950   1.510   4.637  12.856  0.4983 -0.5676 -0.3654
   10MPD2    C113951   1.395   4.575  12.881 -0.1338  0.1937 -0.7917
   10MPD2    C213952   1.302   4.634  12.957  0.3380 -0.1914 -0.2424
   10MPD2    C313953   1.330   0.032  13.019  0.2549 -0.2746  0.6410
   10MPD2    C413954   1.450   0.100  12.993  0.3234  0.0930  0.6814
   10MPD2    C513955   1.535   0.040  12.914  0.9673 -0.1416  0.8129
   10MPD2     H13956   1.210   4.585  12.984 -0.4808  0.3229 -2.1267
   10MPD2    H113957   1.477   0.193  13.043  2.6679  0.9800 -2.2544
   10MPD2    H213958   1.587   4.583  12.802  0.9596  0.1236 -0.3818
   10MPD2    H313959   1.633   0.084  12.900  0.8137 -0.6976 -2.1448
   10MPD2     N13960   1.227   0.088  13.104 -0.2943  0.1565  0.0112
   10MPD2    H513961   1.147   0.025  13.104 -0.2781  0.1367  0.1334
   10MPD2    N113962   1.384   4.440  12.839 -0.0758 -0.4501  0.4713
   10MPD2    H713963   1.464   4.397  12.794 -3.4768 -2.4712 -3.6817
   11MPD2     C13964   1.834   3.322  13.867 -0.0793 -0.0289 -0.3641
   11MPD2    C113965   1.888   3.405  13.962  0.3977  0.0373 -0.9597
   11MPD2    C213966   1.939   3.528  13.919  0.4816 -0.2047  0.4231
   11MPD2    C313967   1.931   3.572  13.786  0.4743 -0.0739  0.6812
   11MPD2    C413968   1.866   3.487  13.701 -0.3019  0.2506 -0.8196
   11MPD2    C513969   1.812   3.370  13.736  0.4932  0.2008 -0.5587
   11MPD2     H13970   1.996   3.586  13.992 -0.4560 -0.7629  1.5902
   11MPD2    H113971   1.852   3.513  13.597  1.2041  0.3036 -1.0122
   11MPD2    H213972   1.797   3.223  13.889  1.1759 -0.9987 -2.6099
   11MPD2    H313973   1.772   3.309  13.656 -1.1734  0.5605 -0.0096
   11MPD2     N13974   1.975   3.698  13.744 -0.4355  0.5088 -0.3351
   11MPD2    H513975   1.932   3.730  13.658  1.1722 -0.7342 -1.5886
   11MPD2    N113976   1.913   3.360  14.094  0.1113  0.4204  0.4319
   11MPD2    H713977   1.957   3.422  14.161  1.1905  0.7725 -0.5850
    1MPD1     C13978   0.103   0.317  16.820 -0.7003 -0.0027 -1.4256
    1MPD1    C113979   0.014   0.258  16.902 -0.3102  0.2535 -0.4595
    1MPD1    C213980   0.041   0.249  17.037 -0.1991  0.0333  0.5410
    1MPD1    C313981   0.167   0.290  17.095  0.0292  0.4599 -0.1932
    1MPD1    C413982   0.255   0.363  17.012  0.3889 -0.0576 -0.3178
    1MPD1    C513983   0.222   0.370  16.880 -0.3564 -0.3483  0.0602
    1MPD1     H13984   4.697   0.204  17.111  1.3205 -0.1047  1.7994
    1MPD1    H113985   0.349   0.404  17.045  0.3324 -1.8549  2.0881
    1MPD1    H213986   0.101   0.315  16.712 -0.1011 -1.2912 -1.4122
    1MPD1    H313987   0.293   0.417  16.813  2.7373 -4.0028  0.7669
    1MPD1     N13988   0.198   0.271  17.229 -0.1090  0.0332 -0.5347
    1MPD1    H513989   0.287   0.302  17.266 -0.1574  0.2933 -0.6333
    1MPD1    N113990   4.615   0.213  16.853  0.6804 -0.1841 -0.2058
    1MPD1    H613991   4.621   0.153  16.771  0.9585 -0.1382 -0.2184
    1MPD1    H713992   4.572   0.150  16.921 -2.1781  0.7929 -1.0812
    2MPD1     C13993   0.119   4.124   0.030 -0.2363  0.2200  0.0678
    2MPD1    C113994   0.143   4.209   0.133 -0.0062 -0.1318 -0.7476
    2MPD1    C213995   0.161   4.345   0.104 -0.0612  0.2457  0.8690
    2MPD1    C313996   0.173   4.389  17.658  0.1027 -0.5408 -0.1398
    2MPD1    C413997   0.162   4.292  17.558  0.0614  0.5699 -0.0874
    2MPD1    C513998   0.138   4.158  17.586 -0.0089 -0.2311 -0.4185
    2MPD1     H13999   0.160   4.414   0.187 -0.9526  1.1101  0.1427
    2MPD1    H114000   0.185   4.325  17.458 -0.6686  1.7619  0.1443
    2MPD1    H214001   0.071   4.029   0.051 -0.7833  0.8050  1.4731
    2MPD1    H314002   0.133   4.093  17.500  3.0536  1.1807 -1.6695
    2MPD1     N14003   0.209   4.520  17.624 -0.0058 -0.1992  0.2911
    2MPD1    H514004   0.223   4.548  17.528  0.2447  2.8069  1.1820
    2MPD1    N114005   0.132   4.169   0.264 -0.0476 -0.0686  0.3389
    2MPD1    H614006   0.140   4.068   0.273  0.6350 -0.1013 -0.6613
    2MPD1    H714007   0.192   4.216   0.331  2.0585 -0.5985 -1.1427
    3TMC3    C114008   0.233   0.027  17.626  0.9004 -0.3447  0.0849
    3TMC3    C214009   0.296   0.132  17.685  0.7652  0.3064  0.2770
    3TMC3    C314010   0.301   0.255  17.621 -0.3995 -0.6259 -0.6736
    3TMC3    C414011   0.177   0.041  17.497  0.1426  0.7529  0.2351
    3TMC3    C514012   0.195   0.167  17.437  0.7439 -0.3586 -0.5447
    3TMC3    C614013   0.240   0.275  17.502  0.1771  0.0610  0.1248
    3TMC3     C14014   0.209   4.630   0.020  0.0759 -0.2052 -0.9751
    3TMC3     O14015   0.210   4.641   0.140 -0.2445  0.5169 -0.5086
    3TMC3     H14016   0.345   0.111   0.093 -0.3129 -0.3557  0.6963
    3TMC3    H114017   0.139   4.676  17.444 -2.9921  2.0825  0.3063
    3TMC3    H214018   0.244   0.374  17.457  0.4917 -0.8046 -1.7457
    3TMC3    C714019   0.129   0.180  17.310  0.2620 -0.2981  0.2986
    3TMC3    C814020   0.344   0.374   0.022 -0.3485 -0.0261  0.6836
    3TMC3    O114021   0.048   0.089  17.280 -0.1262 -0.3681 -0.4236
    3TMC3    O214022   0.409   0.348   0.123 -0.0286 -0.1093  0.1839
    4MPD1     C14023   0.324   0.876   0.163 -0.0094 -0.1038  0.5453
    4MPD1    C114024   0.220   0.842   0.078 -0.2033 -0.7606  0.3962
    4MPD1    C214025   0.215   0.719   0.011  0.2884 -0.7622  0.3675
    4MPD1    C314026   0.307   0.618   0.036 -0.0352  0.7174 -0.2652
    4MPD1    C414027   0.411   0.644   0.128 -0.0082 -0.2992 -0.8078
    4MPD1    C514028   0.413   0.772   0.186  0.5014  0.3316  0.1996
    4MPD1     H14029   0.127   0.702  17.637 -0.3379  0.9862  0.7692
    4MPD1    H114030   0.481   0.569   0.162 -0.2527  0.4755  1.3967
    4MPD1    H214031   0.344   0.970   0.214  0.9750 -0.0328  0.0243
    4MPD1    H314032   0.479   0.780   0.271 -0.0525 -1.6451  0.8231
    4MPD1     N14033   0.284   0.491  17.665  0.1060 -0.2552 -0.0406
    4MPD1    H514034   0.206   0.477  17.602  0.6483  3.0861 -1.3989
    4MPD1    N114035   0.129   0.938   0.036  0.0493 -0.3567  0.5528
    4MPD1    H614036   0.045   0.895  17.685 -1.2294  1.6591  1.1229
    4MPD1    H714037   0.103   0.996   0.115 -0.8718  0.4628 -0.3621
    1TCq1    O114038   1.618   0.065  12.533  0.4686  0.6343  0.9590
    1TCq1    C114039   1.601   0.152  12.431 -0.1437  0.4249 -0.1047
    1TCq1    O214040   1.492   0.202  12.404  0.5521 -0.0956  0.2527
    1TCq1    C214041   1.685   0.108  12.321 -0.2305  0.0524  1.2511
    1TCq1    C314042   1.786   0.028  12.362 -0.6216 -0.0633  0.4921
    1TCq1    C414043   1.834   4.650  12.280 -0.1056 -0.2823 -0.2984
    1TCq1    C514044   1.773   4.634  12.159 -0.9430 -0.0210  0.0795
    1TCq1    C614045   1.669   0.001  12.117  0.6316  0.0986  0.4410
    1TCq1    C714046   1.625   0.101  12.202  0.0627 -0.2541 -0.4377
    1TCq1    C814047   1.607   4.698  11.991 -0.1713 -0.1729 -0.0968
    1TCq1    O414048   1.505   0.045  11.966  0.5849  0.0658  0.0089
    1TCq1    C914049   1.966   4.608  12.295  0.4447  0.3428 -0.4683
    1TCq1    O514050   2.032   4.587  12.192 -0.5422  0.7772 -0.2084
    1TCq1    O614051   2.007   4.611  12.412 -0.2195  0.1928  0.2615
    1TCq1    H114052   1.697   0.008  12.526  1.0731  1.4151  1.4111
    1TCq1    H214053   1.850   0.069  12.440 -1.1326 -1.7753  1.8055
    1TCq1    H314054   1.813   4.559  12.092 -2.2322 -1.1086  0.5523
    1TCq1    H414055   1.550   0.171  12.166  1.0196  0.7924 -0.3798
    2MPD1     C14056   1.591   4.479  11.532  0.8799  0.1061  0.2286
    2MPD1    C114057   1.680   4.414  11.607 -0.5277 -0.8477  0.3969
    2MPD1    C214058   1.692   4.448  11.739 -0.0108 -1.2835 -0.7170
    2MPD1    C314059   1.641   4.560  11.787 -0.8199  0.2476  0.5647
    2MPD1    C414060   1.539   4.620  11.711  0.0921  0.1015  0.0150
    2MPD1    C514061   1.515   4.576  11.583 -0.2149  0.4168 -0.2244
    2MPD1     H14062   1.761   4.389  11.797  0.0131 -2.4850 -1.9604
    2MPD1    H114063   1.482   4.706  11.742  0.4359 -0.2267  1.5255
    2MPD1    H214064   1.588   4.457  11.426  2.4459 -0.3907  0.2902
    2MPD1    H314065   1.443   4.622  11.517  0.4841  1.4183 -0.2807
    2MPD1     N14066   1.671   4.601  11.915  0.6036 -0.0290 -0.4909
    2MPD1    H514067   1.759   4.559  11.944 -2.6780 -2.4498  5.8136
    2MPD1    N114068   1.755   4.309  11.548 -0.4593 -0.0541 -0.5437
    2MPD1    H614069   1.838   4.286  11.601 -0.0729 -1.0933 -1.6009
    2MPD1    H714070   1.778   4.338  11.453  0.6364 -1.5194 -0.7177
    1TCq1    O114071   3.789   0.421   0.136 -0.4457 -0.6901 -0.1679
    1TCq1    C114072   3.717   0.398   0.241  0.3498  0.3528 -0.1804
    1TCq1    O214073   3.718   0.295   0.310 -0.8085  0.0920 -0.1172
    1TCq1    C214074   3.650   0.515   0.297  0.2353 -0.5604  0.3115
    1TCq1    C314075   3.581   0.494   0.415 -0.5033  0.2231 -0.4856
    1TCq1    C414076   3.539   0.608   0.488 -0.6304 -0.1255  0.2317
    1TCq1    C514077   3.524   0.729   0.427  0.2727 -0.1905 -0.3296
    1TCq1    C614078   3.607   0.745   0.312 -0.8326  0.2104  0.0766
    1TCq1    C714079   3.678   0.644   0.254  0.0997 -0.0853  0.0938
    1TCq1    C814080   3.638   0.877   0.260  0.2901  0.3761  0.1184
    1TCq1    O414081   3.714   0.886   0.163 -0.0251 -0.2616  0.3765
    1TCq1    C914082   3.442   0.581   0.590 -0.1527 -0.4913 -0.2266
    1TCq1    O514083   3.353   0.669   0.618 -0.5405  0.4380  0.0961
    1TCq1    O614084   3.474   0.487   0.667 -0.0133  0.2639  0.3665
    1TCq1    H114085   3.744   0.487   0.079  0.1591  0.3909  0.6060
    1TCq1    H214086   3.595   0.399   0.466  0.9902  0.7967  0.2060
    1TCq1    H314087   3.465   0.810   0.468  0.2463 -1.3121  1.8271
    1TCq1    H414088   3.745   0.653   0.169  0.8038  2.1189  0.8683
    2MPD1     C14089   3.522   1.381   0.192  1.0224 -0.1262  0.3363
    2MPD1    C114090   3.447   1.335   0.294  0.4737  0.0619  0.1424
    2MPD1    C214091   3.457   1.200   0.329  0.3045 -0.3526  0.9056
    2MPD1    C314092   3.546   1.111   0.267  0.4472 -0.5019  0.0047
    2MPD1    C414093   3.626   1.165   0.171 -0.2612  0.2812  0.4553
    2MPD1    C514094   3.615   1.298   0.132  0.0149 -0.0338  0.0172
    2MPD1     H14095   3.397   1.150   0.404  0.7214 -0.0919  1.4179
    2MPD1    H114096   3.705   1.111   0.119 -0.3770  1.4972 -0.9733
    2MPD1    H214097   3.522   1.481   0.152 -1.6500 -0.1226  0.3642
    2MPD1    H314098   3.676   1.337   0.052  1.7190  0.3898  1.5244
    2MPD1     N14099   3.561   0.977   0.316 -0.2160 -0.2475  0.1264
    2MPD1    H514100   3.515   0.954   0.404 -2.4792  2.2007 -0.4238
    2MPD1    N114101   3.343   1.420   0.351  0.1285  0.1731 -0.0040
    2MPD1    H614102   3.363   1.519   0.358 -0.6671  0.4584 -1.9637
    2MPD1    H714103   3.320   1.374   0.439  1.6053  0.6637  0.6470
    1MPD1     C14104   2.427   4.288  11.363  0.5060 -0.5956  0.1167
    1MPD1    C114105   2.482   4.307  11.486  0.1751 -0.3072  0.0965
    1MPD1    C214106   2.499   4.442  11.529  0.1893  1.0769  0.0758
    1MPD1    C314107   2.483   4.547  11.437  0.4569  0.2325  0.5899
    1MPD1    C414108   2.437   4.524  11.311 -0.6233  0.1678 -1.1105
    1MPD1    C514109   2.410   4.394  11.282  0.1694  0.5561 -0.0125
    1MPD1     H14110   2.542   4.459  11.627  0.2181  1.8904 -0.0802
    1MPD1    H114111   2.412   4.597  11.234  2.7200  2.5807  0.0892
    1MPD1    H214112   2.385   4.193  11.331  0.3198 -0.6031  0.3887
    1MPD1    H314113   2.370   4.370  11.184  0.9145  1.5419 -0.5521
    1MPD1     N14114   2.542   4.672  11.470  0.5177 -0.2797  0.0998
    1MPD1    H514115   2.585   4.683  11.561  1.4939  0.6220 -0.4545
    1MPD1    N114116   2.510   4.200  11.577 -0.3266  0.4032  0.3616
    1MPD1    H614117   2.578   4.215  11.651 -0.3508 -0.6587  0.5968
    1MPD1    H714118   2.544   4.112  11.538  1.5936  2.1145 -1.7928
    2MPD1     C14119   2.225   1.524  10.901  0.0871 -0.0793  0.2768
    2MPD1    C114120   2.286   1.447  10.806 -0.2035  0.4011 -0.0818
    2MPD1    C214121   2.322   1.317  10.835 -0.3062 -0.7611  0.2786
    2MPD1    C314122   2.293   1.262  10.958 -0.1766  0.0944 -0.1442
    2MPD1    C414123   2.244   1.346  11.052 -0.1951 -0.0547  0.6971
    2MPD1    C514124   2.213   1.474  11.024  0.6257 -0.8877  0.6652
    2MPD1     H14125   2.357   1.252  10.755  1.3774 -1.9326  1.9886
    2MPD1    H114126   2.225   1.314  11.154  0.6359 -0.8266  0.6044
    2MPD1    H214127   2.202   1.629  10.882 -0.6284 -0.1307  0.8245
    2MPD1    H314128   2.183   1.550  11.095  0.9873 -0.3462  0.2348
    2MPD1     N14129   2.331   1.130  10.990  0.7287  0.0550  0.4659
    2MPD1    H514130   2.323   1.104  11.088 -1.6231  0.4221  0.3740
    2MPD1    N114131   2.320   1.512  10.683 -0.7375 -0.1480  0.1751
    2MPD1    H614132   2.321   1.438  10.613  2.4551 -0.4084  0.5292
    2MPD1    H714133   2.273   1.599  10.659  0.7429  0.9480  1.2418
    3MPD1     C14134   2.029   0.526  11.644 -0.6554  0.2376  0.2068
    3MPD1    C114135   2.167   0.507  11.647  0.2758  0.2359  0.1279
    3MPD1    C214136   2.224   0.533  11.524  0.2280 -0.1082 -0.0869
    3MPD1    C314137   2.179   0.596  11.414 -0.1170 -0.5005  0.1971
    3MPD1    C414138   2.042   0.628  11.423 -0.0025 -0.1633  0.5029
    3MPD1    C514139   1.968   0.582  11.536 -0.2069 -0.4569 -0.4684
    3MPD1     H14140   2.328   0.504  11.517 -0.2187 -1.3993 -1.2266
    3MPD1    H114141   1.993   0.677  11.340 -0.2637 -2.8835 -0.9458
    3MPD1    H214142   1.968   0.508  11.732 -0.3264  1.9824  0.7901
    3MPD1    H314143   1.865   0.617  11.537  0.2540  1.0259 -3.2817
    3MPD1     N14144   2.263   0.629  11.306  0.1315  0.4291 -0.4973
    3MPD1    H514145   2.362   0.610  11.320 -0.7339 -2.1710  2.1399
    3MPD1    N114146   2.228   0.445  11.759 -0.2718 -0.0636 -0.4171
    3MPD1    H614147   2.330   0.454  11.759 -0.2513 -0.2612  1.6317
    3MPD1    H714148   2.198   0.495  11.843  2.0309  1.4318 -0.4759
    4MPD2     C14149   2.742   0.765  11.276  0.2929 -0.2750 -1.0443
    4MPD2    C114150   2.820   0.668  11.335 -0.4404 -0.1444 -0.1999
    4MPD2    C214151   2.957   0.677  11.312  0.1438  0.3985  0.0972
    4MPD2    C314152   3.005   0.768  11.223  0.4444 -0.0248  0.6966
    4MPD2    C414153   2.927   0.866  11.177  0.1404 -0.1963 -0.8908
    4MPD2    C514154   2.795   0.871  11.212  0.7207  0.5177  0.7803
    4MPD2     H14155   3.019   0.594  11.345  1.4104  0.1172 -2.9497
    4MPD2    H114156   2.968   0.952  11.126  1.8186  0.5730  1.7243
    4MPD2    H214157   2.633   0.765  11.280  0.3381 -0.3732  0.0183
    4MPD2    H314158   2.734   0.957  11.186  0.8617  0.8246  1.4526
    4MPD2     N14159   3.137   0.747  11.178  0.2609 -0.5983  0.1709
    4MPD2    H514160   3.182   0.661  11.208  0.2325 -1.0412 -1.0585
    4MPD2    N114161   2.776   0.557  11.412 -0.4178 -0.0895  0.6704
    4MPD2    H714162   2.847   0.505  11.461  1.1212  0.2740 -1.1485
    5TMC3    C114163   2.628   0.404  11.503  0.4524 -0.5736  0.7632
    5TMC3    C214164   2.570   0.304  11.438 -0.6542 -0.1470  0.7156
    5TMC3    C314165   2.606   0.172  11.452  0.0823  0.5598  0.2765
    5TMC3    C414166   2.734   0.374  11.582 -0.3723 -0.5474 -0.3305
    5TMC3    C514167   2.790   0.247  11.570  0.3049  0.6859  0.3635
    5TMC3    C614168   2.719   0.140  11.511  0.3413 -0.0306  1.2008
    5TMC3     C14169   2.641   0.523  11.417  0.9471  0.2653 -0.6959
    5TMC3     O14170   2.549   0.547  11.339 -0.4362  0.6464  0.1065
    5TMC3     H14171   2.493   0.321  11.363  0.2035 -1.5966 -0.5159
    5TMC3    H114172   2.775   0.455  11.641 -0.4091  0.3647 -1.5404
    5TMC3    H214173   2.755   0.038  11.522 -1.8511 -1.1076 -1.8001
    5TMC3    C714174   2.926   0.259  11.516  0.4394  0.3083 -0.1158
    5TMC3    C814175   2.518   0.070  11.404  0.1532 -0.1832 -0.1694
    5TMC3    O114176   2.966   0.375  11.512 -0.2314  0.1977 -0.5106
    5TMC3    O214177   2.451   0.105  11.306  0.1106  0.3206 -0.0135
    6TMC3    C114178   2.420   0.914  10.973 -0.3249  0.1799 -0.1863
    6TMC3    C214179   2.310   0.866  11.047 -0.9866 -0.2514  0.1416
    6TMC3    C314180   2.324   0.743  11.101  0.6999 -0.0508  0.5265
    6TMC3    C414181   2.513   0.824  10.932 -0.4333  0.0508  0.2546
    6TMC3    C514182   2.514   0.699  10.984 -0.3092 -0.3459  0.5857
    6TMC3    C614183   2.426   0.656  11.080  0.7528 -0.0925 -0.7274
    6TMC3     C14184   2.403   1.043  10.907 -0.1283  0.8187 -0.3899
    6TMC3     O14185   2.457   1.064  10.802  0.3460 -0.4568 -0.2319
    6TMC3     H14186   2.221   0.924  11.072 -0.5181 -0.0071  1.2493
    6TMC3    H114187   2.593   0.853  10.865  0.5526 -3.0302  0.0791
    6TMC3    H214188   2.415   0.562  11.131 -0.2322 -0.1116 -0.9680
    6TMC3    C714189   2.633   0.615  10.954 -0.9372 -0.2184  0.7101
    6TMC3    C814190   2.218   0.693  11.189 -0.0125  0.6101 -0.5636
    6TMC3    O114191   2.709   0.658  10.868 -0.1970  0.4932  0.4238
    6TMC3    O214192   2.105   0.724  11.149  0.5964 -0.0053  0.2508
    7MPD2     C14193   3.352   0.094  11.292  0.1571 -0.2394 -0.2359
    7MPD2    C114194   3.299   0.217  11.284  0.2276  0.5869 -0.4764
    7MPD2    C214195   3.178   0.227  11.345  0.0484  0.1985 -0.1263
    7MPD2    C314196   3.109   0.128  11.420  0.2725  0.4248 -0.3752
    7MPD2    C414197   3.171   0.006  11.424 -0.1842  0.7490  0.5715
    7MPD2    C514198   3.289   4.712  11.362 -0.0527  0.2869 -0.8483
    7MPD2     H14199   3.134   0.326  11.341 -1.9626 -0.6964 -0.2624
    7MPD2    H114200   3.113   4.643  11.459 -0.8140  1.4669  1.2536
    7MPD2    H214201   3.446   0.080  11.240 -0.3034  1.4164 -1.5404
    7MPD2    H314202   3.349   4.622  11.365  0.1714  0.5486  1.9945
    7MPD2     N14203   2.984   0.138  11.483 -0.2998  0.2354 -0.3773
    7MPD2    H514204   2.945   0.051  11.517 -0.3142  1.5809  3.0679
    7MPD2    N114205   3.370   0.325  11.228  0.4334  0.3897 -0.2691
    7MPD2    H714206   3.451   0.297  11.173  0.9430  1.5175 -0.1003
    8TMC3    C114207   3.388   0.531  11.124  0.0396 -0.5790  0.0132
    8TMC3    C214208   3.349   0.470  11.005 -0.1835 -0.3032  0.5498
    8TMC3    C314209   3.279   0.537  10.909  0.0626  0.0479 -0.2612
    8TMC3    C414210   3.363   0.668  11.144  0.3374 -0.0427  0.3409
    8TMC3    C514211   3.312   0.736  11.038 -0.0706 -0.0613 -0.6891
    8TMC3    C614212   3.275   0.673  10.923  0.3592 -0.5399  0.2091
    8TMC3     C14213   3.340   0.457  11.236  0.1827  0.2875  0.3089
    8TMC3     O14214   3.253   0.510  11.302 -1.3076 -0.0092 -0.2556
    8TMC3     H14215   3.373   0.366  10.986  0.9079 -0.1130  0.9109
    8TMC3    H114216   3.383   0.718  11.238  0.9696 -0.8162  0.6167
    8TMC3    H214217   3.219   0.736  10.856 -0.3737  2.3203  3.5030
    8TMC3    C714218   3.197   0.814  11.075 -0.4306  0.2195  0.0205
    8TMC3    C814219   3.154   0.479  10.877  0.1020  0.4258 -0.0120
    8TMC3    O114220   3.167   0.909  11.004 -0.2619 -0.4230 -0.6414
    8TMC3    O214221   3.082   0.546  10.801  0.4534  0.1397 -0.5745
    9MPD2     C14222   2.961   0.246  11.093  0.3158 -0.1707  0.0463
    9MPD2    C114223   2.982   0.348  11.004 -0.5822  0.5520  0.9874
    9MPD2    C214224   2.872   0.422  10.972  0.6793  0.7535 -0.0845
    9MPD2    C314225   2.741   0.401  11.019  0.0331  0.6838 -0.1437
    9MPD2    C414226   2.721   0.297  11.110  0.1468  0.4968 -0.6755
    9MPD2    C514227   2.834   0.229  11.152 -0.1616  0.6222  0.7010
    9MPD2     H14228   2.871   0.509  10.908 -2.4311 -0.1920 -1.3253
    9MPD2    H114229   2.628   0.287  11.165 -0.6699  2.0342 -1.7843
    9MPD2    H214230   3.043   0.186  11.131 -0.1749 -2.1085 -1.9869
    9MPD2    H314231   2.825   0.140  11.213  0.9910 -1.4421 -2.1164
    9MPD2     N14232   2.638   0.502  11.020  0.7691 -0.1405  0.7919
    9MPD2    H514233   2.559   0.472  11.077  1.1485  1.2787  2.0591
    9MPD2    N114234   3.111   0.385  10.969 -0.2172 -0.6609 -0.7982
    9MPD2    H714235   3.190   0.344  11.019  0.0130 -1.0275 -1.4688
    1MPD1     C14236   2.373   3.962  17.381  0.2588  0.1230  0.2624
    1MPD1    C114237   2.391   3.892  17.498 -0.1649  0.7796 -0.1358
    1MPD1    C214238   2.379   3.751  17.493  0.1513  0.0802 -0.5743
    1MPD1    C314239   2.335   3.682  17.378  0.2039  0.2243  0.4748
    1MPD1    C414240   2.311   3.757  17.265 -0.3731  0.3915 -0.3527
    1MPD1    C514241   2.338   3.896  17.269 -0.6676  0.7053 -0.5023
    1MPD1     H14242   2.395   3.698  17.586  1.1273  2.2056  0.4775
    1MPD1    H114243   2.292   3.706  17.172 -0.5081 -1.1521  0.5195
    1MPD1    H214244   2.404   4.066  17.378  1.3357 -0.2232 -0.6596
    1MPD1    H314245   2.345   3.948  17.175 -0.7311 -0.1705 -0.9907
    1MPD1     N14246   2.338   3.541  17.360  0.0532  0.0576 -0.4553
    1MPD1    H514247   2.289   3.501  17.280 -1.7040  3.1499 -0.9490
    1MPD1    N114248   2.443   3.954  17.612 -0.0864  0.1793 -1.0282
    1MPD1    H614249   2.421   4.054  17.610  0.9630  0.4551  1.0198
    1MPD1    H714250   2.406   3.904   0.006 -0.3001  1.8257 -0.1023
    2MPD1     C14251   3.142   3.128  17.050  0.1106 -0.3730  0.8452
    2MPD1    C114252   3.102   3.248  17.098  0.1960 -0.0152  0.1691
    2MPD1    C214253   2.971   3.275  17.121 -0.1966  0.2703  0.0218
    2MPD1    C314254   2.878   3.178  17.108  0.5858  0.1531 -0.8620
    2MPD1    C414255   2.920   3.054  17.061  0.2334 -0.0577 -0.9305
    2MPD1    C514256   3.051   3.033  17.027  0.3610  0.7179  0.2872
    2MPD1     H14257   2.935   3.374  17.149  0.3516  0.6499 -0.5963
    2MPD1    H114258   2.842   2.980  17.052 -1.6109  1.9156 -1.0984
    2MPD1    H214259   3.245   3.108  17.025  0.3452  1.3007  0.4712
    2MPD1    H314260   3.089   2.944  16.978 -0.9352 -0.9756  2.3926
    2MPD1     N14261   2.748   3.207  17.160  0.5230 -0.0644  0.3619
    2MPD1    H514262   2.733   3.304  17.185  0.2516  0.5802 -2.2626
    2MPD1    N114263   3.189   3.358  17.098 -0.1695  0.2736 -0.4053
    2MPD1    H614264   3.281   3.315  17.109 -0.1373 -0.2870 -2.6810
    2MPD1    H714265   3.176   3.426  17.172  0.6152  2.0379 -1.8652
    3TCq2    C114266   2.647   3.116  17.165 -0.5896  0.0431  0.3161
    3TCq2    O214267   2.626   3.010  17.117  0.5484  0.1765  0.1886
    3TCq2    C214268   2.530   3.177  17.221  0.5929  1.0085 -0.3573
    3TCq2    C314269   2.409   3.133  17.177 -0.2600 -0.0077  0.0256
    3TCq2    C414270   2.295   3.199  17.216  0.4399  0.1105 -0.1200
    3TCq2    C514271   2.297   3.297  17.305  0.6277  0.3227 -0.2307
    3TCq2    C614272   2.412   3.329  17.371  0.4111 -0.2194 -0.3186
    3TCq2    C714273   2.534   3.271  17.323 -0.6719  0.3287 -0.4107
    3TCq2    C814274   2.416   3.458  17.431  0.5193 -0.2380 -0.5300
    3TCq2    O414275   2.494   3.486  17.521 -0.0633  0.2234 -0.3090
    3TCq2    C914276   2.167   3.170  17.153 -0.2498 -0.5606  0.5548
    3TCq2    O514277   2.170   3.086  17.063  0.2029 -0.0183 -0.1742
    3TCq2    O614278   2.066   3.243  17.178  0.0598  0.2664 -0.2709
    3TCq2    H214279   2.397   3.054  17.103  1.0402  0.7938 -1.0418
    3TCq2    H314280   2.201   3.341  17.332 -0.1741 -0.2564 -2.0909
    3TCq2    H414281   2.629   3.305  17.364 -1.3250  2.6332 -0.7973
    1TCq1    O114282   0.263   2.270  12.469  0.3570  0.1926  0.2380
    1TCq1    C114283   0.159   2.189  12.476 -0.0772  0.3264  0.3526
    1TCq1    O214284   0.054   2.190  12.413  0.5533 -0.3320  0.1340
    1TCq1    C214285   0.161   2.115  12.600  0.6263  0.0411  0.3907
    1TCq1    C314286   0.040   2.072  12.649  0.8198 -0.2913  0.7992
    1TCq1    C414287   0.042   1.988  12.763 -0.1825 -1.0509 -0.2880
    1TCq1    C514288   0.164   1.955  12.816  0.2215  0.5042 -0.4089
    1TCq1    C614289   0.280   1.997  12.757 -0.7699 -0.6161  0.2165
    1TCq1    C714290   0.285   2.094  12.663 -0.5475 -0.2366 -0.3703
    1TCq1    C814291   0.408   1.949  12.819  0.6563  0.1243  0.1664
    1TCq1    O414292   0.401   1.857  12.897 -0.0311  0.0400  0.5050
    1TCq1    C914293   4.646   1.949  12.826 -0.0993 -0.3050  0.3575
    1TCq1    O514294   4.541   2.005  12.788  0.8226 -0.4597  0.1609
    1TCq1    O614295   4.648   1.865  12.917 -0.1049  0.5474 -0.3823
    1TCq1    H114296   0.342   2.256  12.526  1.1126  0.6619 -0.7058
    1TCq1    H214297   4.678   2.075  12.580  1.1558 -0.8492  0.3733
    1TCq1    H314298   0.181   1.899  12.907 -1.1179  1.7424  0.6012
    1TCq1    H414299   0.384   2.112  12.622 -1.6631  0.2992 -2.8484
    2MPD2     C14300   0.694   1.887  12.885  0.7903 -0.0447 -0.4446
    2MPD2    C114301   0.647   2.012  12.848  0.9492  0.3105  0.2948
    2MPD2    C214302   0.738   2.117  12.847  0.6489  0.2388 -0.1475
    2MPD2    C314303   0.872   2.109  12.882  0.4613  0.8897  0.1813
    2MPD2    C414304   0.917   1.976  12.914 -0.0643 -0.3786  0.4788
    2MPD2    C514305   0.826   1.870  12.916  1.1094 -0.1776  1.0605
    2MPD2     H14306   0.691   2.211  12.819  1.3996  0.7159  0.2063
    2MPD2    H114307   1.017   1.949  12.946  0.0380 -0.2359  0.2753
    2MPD2    H214308   0.631   1.799  12.888 -0.7719  1.0909 -0.0991
    2MPD2    H314309   0.864   1.775  12.954  0.0885 -0.8567  0.4016
    2MPD2     N14310   0.939   2.231  12.906  0.3796  0.1167 -0.3046
    2MPD2    H514311   0.875   2.310  12.900 -0.6312 -0.4921  2.7525
    2MPD2    N114312   0.518   2.037  12.795  0.2546  0.0024  0.2778
    2MPD2    H714313   0.497   2.134  12.774 -0.6839 -0.0407  1.0178
    3TCq1    O114314   0.881   2.706  12.922  0.8218 -0.0957  0.1604
    3TCq1    C114315   1.014   2.731  12.933 -0.4432  0.0220  0.0579
    3TCq1    O214316   1.080   2.831  12.908 -0.1463  0.5218 -0.0643
    3TCq1    C214317   1.064   2.609  12.996  0.2264  0.3668  0.7104
    3TCq1    C314318   1.159   2.637  13.088  0.1197 -0.2890  0.5115
    3TCq1    C414319   1.218   2.526  13.132  0.7524 -0.1760  0.2686
    3TCq1    C514320   1.189   2.395  13.091  0.2136 -0.3105 -0.6818
    3TCq1    C614321   1.097   2.379  12.991 -0.2833  0.2166 -0.3579
    3TCq1    C714322   1.026   2.488  12.948 -0.2723 -0.4868  0.3980
    3TCq1    C814323   1.069   2.245  12.947  0.1674  0.5185 -0.0438
    3TCq1    O414324   1.158   2.163  12.965  0.5594  0.1716  0.6570
    3TCq1    C914325   1.320   2.531  13.233  0.0431  0.1718 -0.0135
    3TCq1    O514326   1.335   2.639  13.297  0.0966 -0.5010  0.3266
    3TCq1    O614327   1.370   2.423  13.276 -0.7573 -0.2806  0.6119
    3TCq1    H114328   0.863   2.633  12.986 -1.9122 -2.0471 -2.8031
    3TCq1    H214329   1.188   2.735  13.123 -0.5151  0.0377  0.1251
    3TCq1    H314330   1.244   2.313  13.136 -1.1395 -1.0365 -0.3648
    3TCq1    H414331   0.959   2.477  12.864  0.0931  2.3664 -0.2612
    1MPD2     C14332   0.135   3.741  14.715  0.3554  0.3716  0.3358
    1MPD2    C114333   0.027   3.746  14.627 -0.1841 -0.1810 -0.4510
    1MPD2    C214334   0.001   3.635  14.556  0.0604 -0.3346  0.1269
    1MPD2    C314335   0.075   3.516  14.568  0.0221  0.3796  0.8178
    1MPD2    C414336   0.180   3.515  14.657  0.3348  0.4923 -0.2989
    1MPD2    C514337   0.209   3.629  14.730  0.1980  0.6102  1.1465
    1MPD2     H14338   4.647   3.645  14.478  0.3878  0.0792 -0.1315
    1MPD2    H114339   0.240   3.428  14.680  0.1052  0.2690 -0.5378
    1MPD2    H214340   0.161   3.829  14.773  1.9532 -0.5400  0.9978
    1MPD2    H314341   0.297   3.629  14.793  1.0712 -0.7933 -0.0892
    1MPD2     N14342   0.049   3.400  14.497  0.1487  0.3673  0.2640
    1MPD2    H514343   0.107   3.320  14.520 -1.5482 -1.4224 -1.7372
    1MPD2    N114344   4.666   3.863  14.616  0.3548 -0.0302 -0.0126
    1MPD2    H714345   4.687   3.946  14.670  1.8985 -0.1112 -0.5011
    2TMC3    C114346   4.479   3.997  14.542  0.1208 -0.6963  0.2642
    2TMC3    C214347   4.347   3.969  14.508  0.6506  0.8726  0.3748
    2TMC3    C314348   4.297   4.039  14.397  0.4034 -0.5562 -0.6105
    2TMC3    C414349   4.548   4.099  14.488 -0.2206  0.6185 -0.7052
    2TMC3    C514350   4.488   4.175  14.393  0.4270  0.6953 -0.2661
    2TMC3    C614351   4.371   4.134  14.340  0.8671 -0.4511 -0.5516
    2TMC3     C14352   4.549   3.870  14.545 -0.5639 -0.0621  0.2110
    2TMC3     O14353   4.474   3.786  14.495  0.0392 -0.0227 -0.4461
    2TMC3     H14354   4.296   3.891  14.562  0.0317 -1.0009 -2.9341
    2TMC3    H114355   4.649   4.125  14.521 -0.5485 -0.6378  1.2885
    2TMC3    H214356   4.328   4.194  14.261 -1.7882  0.5161  1.6569
    2TMC3    C714357   4.525   4.308  14.368 -0.0294 -0.3383 -0.6642
    2TMC3    C814358   4.236   3.955  14.293 -1.0512  0.2284 -0.5152
    2TMC3    O114359   4.428   4.378  14.344  0.0271 -0.1598 -0.4481
    2TMC3    O214360   4.158   4.005  14.213  0.0774 -0.1444 -0.2329
    3TCq1    O114361   0.796   0.233  14.832  0.2453 -0.4148 -0.1855
    3TCq1    C114362   0.803   0.201  14.699 -0.4841  0.3043  0.0901
    3TCq1    O214363   0.853   0.275  14.608 -0.5524  0.0063 -0.8321
    3TCq1    C214364   0.707   0.092  14.686 -0.7235  0.3170 -0.6263
    3TCq1    C314365   0.731   4.711  14.771 -1.1451 -0.3903 -0.7864
    3TCq1    C414366   0.635   4.614  14.775 -0.5654  0.4212  0.1776
    3TCq1    C514367   0.526   4.611  14.690 -0.7848  0.1178 -0.0857
    3TCq1    C614368   0.520   4.711  14.591  0.1478 -0.2915  0.0286
    3TCq1    C714369   0.611   0.090  14.590  0.0241  0.0254 -0.4557
    3TCq1    C814370   0.391   0.010  14.521 -0.7337 -0.0221 -0.2356
    3TCq1    O414371   0.356   0.125  14.507 -0.2844  0.2193  0.0958
    3TCq1    C914372   0.646   4.513  14.879 -0.0851 -0.6676 -0.2961
    3TCq1    O514373   0.591   4.394  14.860 -0.1671  0.0551  0.6666
    3TCq1    O614374   0.728   4.545  14.968 -0.1046 -0.2844 -0.1605
    3TCq1    H114375   0.727   0.184  14.881  0.6775 -1.5426 -0.7200
    3TCq1    H214376   0.817   4.700  14.835 -1.2447  1.8009 -0.2837
    3TCq1    H314377   0.452   4.535  14.714 -1.8140  0.7234 -1.3459
    3TCq1    H414378   0.602   0.166  14.513  1.0463 -1.5531 -2.1381
    4MPD2     C14379   0.119   4.710  14.416  0.5727  0.0927  0.1088
    4MPD2    C114380   0.185   4.602  14.463 -0.0851  0.2585  0.3799
    4MPD2    C214381   0.132   4.474  14.453  0.3779 -0.4819  0.0847
    4MPD2    C314382   0.008   4.455  14.391  0.2075 -0.5443 -0.4347
    4MPD2    C414383   4.679   4.562  14.323 -0.0645  0.9380  0.1238
    4MPD2    C514384   0.001   4.693  14.341  0.2959  0.5994  0.5191
    4MPD2     H14385   0.174   4.391  14.508  0.5668  0.2230  1.0079
    4MPD2    H114386   4.591   4.552  14.261 -0.6010  0.7966  0.9117
    4MPD2    H214387   0.149   0.093  14.427 -1.9834  0.4968  2.9691
    4MPD2    H314388   4.674   0.059  14.300  0.7735  0.0830 -1.1282
    4MPD2     N14389   4.658   4.332  14.394  0.1758  0.2584  0.2855
    4MPD2    H514390   4.713   4.250  14.417 -0.3407 -0.5594 -1.3575
    4MPD2    N114391   0.321   4.612  14.508  0.2339  0.5298  0.1943
    4MPD2    H714392   0.375   4.531  14.538  2.5267  0.9171 -2.8918
    5TMC2    C114393   4.502   3.196  14.190  0.2789  0.5076  0.6580
    5TMC2    C214394   4.469   3.099  14.282  0.5783 -0.6843 -0.1150
    5TMC2    C314395   4.545   3.088  14.389  0.3999  0.2461 -0.2663
    5TMC2    C414396   4.608   3.272  14.209 -0.0893  0.8567 -0.8553
    5TMC2    C514397   4.677   3.271  14.323  0.1703  0.4030  0.7552
    5TMC2    C614398   4.650   3.169  14.409 -0.8209 -0.2023 -0.6873
    5TMC2     C14399   4.397   3.270  14.131 -0.9275 -0.4309  0.7509
    5TMC2     O14400   4.301   3.211  14.087 -0.8965 -0.0884  0.2610
    5TMC2     H14401   4.372   3.055  14.260  0.2328  0.0420 -0.0500
    5TMC2    H114402   4.636   3.345  14.135  1.6340  1.6393  0.5540
    5TMC2    H214403   4.704   3.167  14.503 -2.3563  0.0333  0.1979
    5TMC2    C714404   4.692   3.404  14.378 -0.4393 -0.2270 -0.8945
    5TMC2    C814405   4.498   2.997  14.493 -0.4354  0.0014  1.0716
    5TMC2    O114406   4.654   3.499  14.308 -0.1580 -0.2318 -0.3500
    5TMC2    O214407   4.450   2.891  14.456 -0.1325  0.1315  0.0412
    5TMC2    O514408   4.578   3.017  14.602 -0.0334 -0.0447  0.0351
    5TMC2    H514409   4.584   3.114  14.615  2.7059 -0.3381  0.9846
    6MPD2     C14410   4.139   3.713  14.137  0.1453 -0.0481  0.0376
    6MPD2    C114411   4.257   3.725  14.213  0.7749  0.2456  0.0724
    6MPD2    C214412   4.343   3.618  14.219  0.4012 -0.5364  0.0876
    6MPD2    C314413   4.319   3.505  14.150 -0.3205 -0.3233  0.3403
    6MPD2    C414414   4.209   3.489  14.070 -0.3898  0.3415 -0.3288
    6MPD2    C514415   4.121   3.600  14.063  0.2827 -0.7711 -0.0305
    6MPD2     H14416   4.425   3.627  14.289 -0.5821 -1.9196  1.4332
    6MPD2    H114417   4.188   3.401  14.010  0.8700 -1.3619  1.7771
    6MPD2    H214418   4.069   3.794  14.126  0.2086 -0.1316 -1.0166
    6MPD2    H314419   4.034   3.593  13.998 -0.7080 -0.7954  1.3041
    6MPD2     N14420   4.406   3.397  14.179  0.1347 -0.1061 -0.3253
    6MPD2    H514421   4.489   3.407  14.236  0.1272 -2.6326  0.1238
    6MPD2    N114422   4.292   3.832  14.291 -0.9266 -0.8187  0.1161
    6MPD2    H714423   4.369   3.819  14.357 -0.6120  0.9841  0.1118
  945NH3     N114424   1.285   2.702   1.295  0.4523  0.6760 -0.2381
  945NH3     H214425   1.293   2.783   1.355  0.1211 -0.2066  0.9960
  945NH3     H314426   1.310   2.737   1.203  0.8660 -2.8407 -1.4634
  945NH3     H414427   1.184   2.694   1.297  0.4833  0.6199  1.3710
  946SOD     NA14428   3.938   2.246  14.963 -0.2193 -0.1184  0.0241
  947SOD     NA14429   2.336   4.420  13.603  0.3478 -0.1371 -0.1287
  948SOD     NA14430   0.751   0.110   8.252 -0.2991 -0.3800  0.0422
  949SOD     NA14431   3.919   3.154  11.198 -0.8901  0.1016 -0.0455
  950SOD     NA14432   0.874   2.997  12.079 -0.4427 -0.1590 -0.1761
  951SOD     NA14433   0.552   2.634   1.239 -0.0228 -0.3916  0.3987
  952SOD     NA14434   3.736   1.308  16.426 -0.5300 -0.5311  0.5169
  953SOD     NA14435   3.945   1.510   4.597  0.0865 -0.4338 -0.2671
  954SOD     NA14436   3.928   2.825   3.973  0.3407  0.0975  0.2803
  955SOD     NA14437   4.344   2.338  12.894  1.0105  1.0383 -0.4168
  956SOD     NA14438   2.158   2.406  13.539  0.2299  0.2182 -0.0447
  957SOD     NA14439   0.675   0.168  12.471  0.3171  0.2362  0.2276
  958SOD     NA14440   4.409   2.983   9.441 -0.9047 -0.0928  0.0616
  959SOD     NA14441   2.680   3.237  14.860  0.1066 -0.1657  0.5288
  960SOD     NA14442   0.812   4.566  10.823 -0.3463 -0.0865  0.0830
  961SOD     NA14443   0.313   2.287  10.603 -0.4876 -0.4022 -0.1643
  962SOD     NA14444   1.512   2.736  14.121 -0.0639 -0.2837 -0.2740
  963SOD     NA14445   1.803   3.821  16.503 -0.0325  0.0126  0.0534
  964SOD     NA14446   4.576   1.391  11.089  0.6509  0.3786  0.3557
  965SOD     NA14447   3.257   1.033   7.245  0.0181  0.0379  0.1372
  966SOD     NA14448   0.489   4.241  14.764  0.0113 -0.1648 -0.7604
  967SOD     NA14449   3.290   1.709   1.016 -0.5322  0.4316 -0.3201
  968SOD     NA14450   0.541   2.140  10.439  0.6764  0.8677  0.0361
  969SOD     NA14451   0.232   1.304  10.957  0.2255  0.0268  0.4065
  970SOD     NA14452   2.686   3.456   0.390 -0.3349 -0.4711 -0.0595
  971SOD     NA14453   2.296   1.406  13.192  0.3018  0.3403  0.0770
  972SOD     NA14454   0.368   3.670  10.412  0.3393  0.1168 -0.0649
  973SOD     NA14455   1.402   1.237   5.096  0.1315 -0.1530  0.0760
  974SOD     NA14456   2.933   1.680  11.006  0.0904  0.1249  0.3692
  975SOD     NA14457   0.764   1.424   2.915  0.0474  0.2264  0.2413
  976SOD     NA14458   1.775   2.569  11.011 -0.5635 -0.4604 -0.2155
  977SOD     NA14459   1.249   2.751  11.713 -0.4828  0.3003 -0.1360
  978SOD     NA14460   0.362   1.253  10.625  0.5361  0.1120  0.1375
  979SOD     NA14461   1.464   2.139  12.705  0.0395  0.1441  0.3056
  980SOD     NA14462   1.849   2.734  14.389  0.1287 -0.3105  0.3629
  981SOD     NA14463   1.233   3.103  11.838 -0.2296 -0.0244 -0.0836
  982SOD     NA14464   0.961   0.359   2.535  0.1296  0.2318 -0.1128
  983SOD     NA14465   0.671   4.627  15.156  0.4073  0.5132 -0.0616
  984SOD     NA14466   0.892   2.582   1.151 -0.5125  0.8902 -0.1088
  985SOD     NA14467   2.918   1.382  15.618 -0.0416  0.3087  0.2877
  986SOD     NA14468   1.733   3.271   5.647 -0.0369 -0.0534  0.0416
  987SOD     NA14469   2.640   4.177   7.594  1.0012  0.2008 -0.3574
  988SOD     NA14470   0.146   4.363   2.276  0.4311  0.0320  0.1245
  989SOD     NA14471   3.165   0.759   0.555 -0.2198 -0.2612  0.2336
  990SOD     NA14472   3.733   3.836   0.682  0.3996 -0.0387  0.1969
  991SOD     NA14473   1.177   2.716  13.451  0.4684 -0.4231 -0.4310
  992SOD     NA14474   2.062   4.049  14.274 -0.6724  0.5674 -0.2445
  993SOD     NA14475   1.783   1.818   9.979  0.2702 -0.5515  0.0793
  994SOD     NA14476   4.466   1.817  13.017 -0.3685 -0.3669  0.1034
  995SOD     NA14477   3.225   2.160  13.819  0.4449  0.2413  0.3083
  996SOD     NA14478   1.408   3.327  11.732  0.2180 -0.0061 -0.0417
  997SOD     NA14479   0.036   1.304   2.487  0.0941 -0.0260  0.6240
  998SOD     NA14480   2.956   0.666  15.958 -0.0599 -0.1123 -0.1523
  999SOD     NA14481   3.632   2.012   8.439  0.7614 -0.0750  0.2623
 1000SOD     NA14482   4.332   0.167   1.532  0.4413  0.1293  0.3237
 1001SOD     NA14483   2.820   2.467   0.977  1.1371 -0.4043 -0.0317
 1002SOD     NA14484   2.070   4.487  11.739 -0.0789 -0.1299 -0.3759
 1003SOD     NA14485   0.287   1.740   9.451  0.8947 -0.2911  0.2264
 1004SOD     NA14486   3.328   0.940  11.926 -0.0490  0.6817 -0.1596
 1005SOD     NA14487   1.158   3.064  13.899 -0.0243  0.1265  0.6891
 1006SOD     NA14488   2.076   1.245   1.527  0.4177 -0.1892  0.0899
 1007SOD     NA14489   3.178   1.195   0.677 -0.0167  0.3514  0.0866
 1008SOD     NA14490   0.525   3.172  15.277 -0.3575 -0.0194 -0.2668
 1009SOD     NA14491   0.701   1.804  15.776  0.1107 -0.7283  0.2755
 1010SOD     NA14492   0.553   1.811   0.510  0.1347 -0.6089  0.0489
 1011SOD     NA14493   4.721   1.102   7.736  0.2237  0.1958  1.1706
 1012SOL     OW14494   0.235   0.656   3.869  0.9207 -0.0593  0.6489
 1012SOL    HW114495   0.292   0.724   3.905 -1.1941  1.9706  0.1212
 1012SOL    HW214496   0.195   0.703   3.797  1.0934 -2.3150 -0.9099
 1013SOL     OW14497   4.148   2.410   1.487 -0.1407  0.4636  0.1966
 1013SOL    HW114498   4.058   2.441   1.490 -0.7577 -1.3514  0.2288
 1013SOL    HW214499   4.147   2.327   1.534  1.4912 -1.5398 -3.2943
 1014SOL     OW14500   0.361   4.570  17.374 -0.2867 -0.0119  0.5515
 1014SOL    HW114501   0.410   4.494  17.406 -3.5918 -2.7790 -0.9939
 1014SOL    HW214502   0.303   4.527  17.311  0.6115 -1.3821  0.6426
 1015SOL     OW14503   0.324   4.400   3.288  0.9356 -0.5296  0.2004
 1015SOL    HW114504   0.394   4.454   3.251  2.1350 -1.9110  0.4320
 1015SOL    HW214505   0.351   4.315   3.253 -0.2442 -0.6507 -0.4022
 1016SOL     OW14506   3.217   2.100  14.962  0.5920 -0.3921  0.1591
 1016SOL    HW114507   3.203   2.182  15.009  1.1203 -1.4881  2.2795
 1016SOL    HW214508   3.263   2.132  14.885  2.5395 -0.6536  1.2251
 1017SOL     OW14509   1.052   2.303   1.898  0.2112  0.3765 -0.1585
 1017SOL    HW114510   1.006   2.258   1.968  0.7742  1.5973  0.9977
 1017SOL    HW214511   0.987   2.366   1.868 -1.6167 -1.7403 -0.6057
 1018SOL     OW14512   0.949   1.215   7.588  0.0828  0.2099 -0.2823
 1018SOL    HW114513   0.867   1.195   7.544 -0.7790 -1.9764  2.3341
 1018SOL    HW214514   0.964   1.307   7.567 -1.1186 -0.1689 -2.8171
 1019SOL     OW14515   4.701   4.265   6.652  0.3160 -0.3882 -0.2442
 1019SOL    HW114516   4.697   4.348   6.606 -1.6382 -0.5542 -0.3624
 1019SOL    HW214517   4.636   4.279   6.721 -0.8991  0.3049 -1.5249
 1020SOL     OW14518   0.058   1.526   3.735  0.1622 -0.1069 -0.3437
 1020SOL    HW114519   0.127   1.555   3.794  0.9703 -0.7137 -0.9951
 1020SOL    HW214520   0.081   1.574   3.655 -0.1645  2.4546  1.1070
 1021SOL     OW14521   3.576   2.651  12.440  0.3517 -0.0834  0.3447
 1021SOL    HW114522   3.518   2.612  12.374  0.7194 -0.8090  0.4454
 1021SOL    HW214523   3.563   2.740  12.408 -1.5059 -0.1653  0.8697
 1022SOL     OW14524   0.041   0.157   8.923 -0.0584  0.1359 -0.5663
 1022SOL    HW114525   4.710   0.235   8.941  1.2791  0.6433  1.0396
 1022SOL    HW214526   4.702   0.102   8.872 -1.1356  1.0616 -0.2981
 1023SOL     OW14527   1.942   1.201   8.573 -0.2253 -0.0151  0.0376
 1023SOL    HW114528   1.946   1.272   8.638  0.0831  0.5304 -0.5800
 1023SOL    HW214529   2.017   1.157   8.614  0.5610 -0.0206 -1.4036
 1024SOL     OW14530   4.455   0.824   2.940 -0.0423 -0.0369 -0.0096
 1024SOL    HW114531   4.540   0.813   2.898 -0.7533  0.9285 -1.7013
 1024SOL    HW214532   4.423   0.734   2.950  1.2536 -0.4874  0.0496
 1025SOL     OW14533   1.783   0.791   4.499  0.2641 -0.5137  0.4597
 1025SOL    HW114534   1.828   0.733   4.437 -0.0119  0.1819 -0.4041
 1025SOL    HW214535   1.811   0.759   4.585 -0.9155 -0.1476  0.9736
 1026SOL     OW14536   3.053   2.019   4.498 -0.2224 -0.2097 -0.7321
 1026SOL    HW114537   3.024   1.928   4.502 -0.8344  0.0844  1.7123
 1026SOL    HW214538   2.965   2.056   4.498 -1.6304 -3.5415  1.3473
 1027SOL     OW14539   0.930   3.191   8.199 -0.7273  0.9852 -0.0746
 1027SOL    HW114540   0.966   3.277   8.222  1.5907  0.0346 -0.1406
 1027SOL    HW214541   0.992   3.156   8.135  0.7822 -1.1010  2.5245
 1028SOL     OW14542   2.326   2.019   5.770  0.3196 -0.7513  0.0129
 1028SOL    HW114543   2.249   2.065   5.802  1.4013  0.8402  0.2882
 1028SOL    HW214544   2.390   2.029   5.840  0.2148  2.4486 -0.3568
 1029SOL     OW14545   4.047   4.267   7.140  0.2972  0.2194 -0.0790
 1029SOL    HW114546   4.014   4.357   7.147 -1.0157 -0.3094  0.5162
 1029SOL    HW214547   3.999   4.227   7.212 -0.5740 -0.3454 -0.9878
 1030SOL     OW14548   1.584   2.768   7.791 -0.2010  0.2753  0.2902
 1030SOL    HW114549   1.604   2.838   7.853 -3.1879 -0.4279  2.0485
 1030SOL    HW214550   1.666   2.771   7.742  0.0484 -0.1159  0.6869
 1031SOL     OW14551   3.140   0.061   0.521  0.3380  0.3205  0.2296
 1031SOL    HW114552   3.228   0.057   0.483  0.1709  1.3243 -0.2843
 1031SOL    HW214553   3.128   0.155   0.530  0.2944  0.1923  1.4140
 1032SOL     OW14554   2.073   3.693   9.822  0.1728  0.1584  0.3064
 1032SOL    HW114555   1.992   3.651   9.851  0.6482 -0.4573  0.7386
 1032SOL    HW214556   2.130   3.664   9.894  1.4114  0.2800 -0.6229
 1033SOL     OW14557   4.127   4.400   6.622  0.4424 -0.0303  0.1277
 1033SOL    HW114558   4.031   4.400   6.622  0.4465  1.0824  2.8359
 1033SOL    HW214559   4.159   4.374   6.709 -1.6322 -0.2353  0.8380
 1034SOL     OW14560   3.698   3.025   8.342 -0.0340  0.4856  0.3549
 1034SOL    HW114561   3.688   3.120   8.347  1.5181  0.6049  1.1212
 1034SOL    HW214562   3.725   2.999   8.255 -0.9858  0.5950  0.0310
 1035SOL     OW14563   3.305   0.644   2.819  0.3861 -0.1427  0.7817
 1035SOL    HW114564   3.305   0.690   2.903 -0.4388  1.2649  0.0098
 1035SOL    HW214565   3.391   0.674   2.790  0.4625  0.9877  2.1531
 1036SOL     OW14566   3.767   4.599  11.418 -0.3315  0.5555 -0.5144
 1036SOL    HW114567   3.860   4.621  11.424  0.0197 -0.9663 -0.3833
 1036SOL    HW214568   3.731   4.670  11.365 -0.8839  0.4527 -0.2801
 1037SOL     OW14569   3.338   2.256   3.424  0.2043 -0.2686  0.1679
 1037SOL    HW114570   3.343   2.283   3.333 -0.9673 -0.4028  0.0686
 1037SOL    HW214571   3.287   2.175   3.419  1.0757 -0.7766 -0.2941
 1038SOL     OW14572   3.340   3.801   3.120  0.0897  0.0716 -0.0604
 1038SOL    HW114573   3.420   3.796   3.173 -0.5872  1.0266  1.0364
 1038SOL    HW214574   3.290   3.877   3.147  0.0372 -0.2793  0.8369
 1039SOL     OW14575   2.712   3.883  17.686 -0.7062 -0.1945 -0.1660
 1039SOL    HW114576   2.697   3.789  17.676  1.4575 -0.6007  0.4856
 1039SOL    HW214577   2.624   3.913  17.666 -0.9061 -0.7204 -0.0723
 1040SOL     OW14578   1.530   2.952  15.626  0.0788 -0.7217 -0.6537
 1040SOL    HW114579   1.529   2.863  15.662  1.2637 -0.3442  0.2821
 1040SOL    HW214580   1.620   2.980  15.641 -0.6082  0.2480  1.5855
 1041SOL     OW14581   3.012   1.582  14.602 -0.0765 -0.4972  0.5329
 1041SOL    HW114582   3.016   1.533  14.684 -1.1836 -1.0629  0.2505
 1041SOL    HW214583   3.084   1.645  14.605 -1.3665  1.1480 -2.6957
 1042SOL     OW14584   3.521   3.837   4.146 -0.4661 -0.0290  0.6486
 1042SOL    HW114585   3.610   3.858   4.117 -1.0873  2.4751  0.5419
 1042SOL    HW214586   3.457   3.874   4.085  0.1392  0.8016  0.5127
 1043SOL     OW14587   0.137   2.006   8.993 -0.3571  0.2699 -0.1424
 1043SOL    HW114588   0.152   1.921   9.034 -0.4798 -0.0606 -0.7955
 1043SOL    HW214589   0.230   2.029   8.988 -0.1731 -0.1891  1.1725
 1044SOL     OW14590   1.769   1.619   3.012 -0.0757  0.2526 -0.4612
 1044SOL    HW114591   1.789   1.609   3.105 -1.0911 -0.2294 -0.2892
 1044SOL    HW214592   1.769   1.524   3.005 -0.3602  0.2434 -0.3450
 1045SOL     OW14593   0.599   0.992   4.943 -0.0154  0.2620 -0.1331
 1045SOL    HW114594   0.687   1.020   4.969  0.5350 -0.1784 -1.5593
 1045SOL    HW214595   0.613   0.897   4.937  0.0211  0.2892 -0.4660
 1046SOL     OW14596   3.058   2.955  16.121 -0.5375  0.0871  0.6873
 1046SOL    HW114597   3.025   3.035  16.077  0.2619 -0.2214 -0.4793
 1046SOL    HW214598   3.005   2.941  16.199  0.4239 -0.4136  1.2346
 1047SOL     OW14599   1.675   1.638   9.052 -0.0551  0.0440  0.1389
 1047SOL    HW114600   1.758   1.611   9.014  0.7157  0.3551  1.6265
 1047SOL    HW214601   1.691   1.622   9.145  1.3899  1.3692  0.1093
 1048SOL     OW14602   0.260   1.603   7.086  0.2355 -0.0545  0.4398
 1048SOL    HW114603   0.337   1.603   7.029  0.9124  0.8338  1.3597
 1048SOL    HW214604   0.294   1.555   7.161 -0.5256 -0.6724  0.3983
 1049SOL     OW14605   3.084   1.100  16.173  0.6615 -0.1616 -0.2912
 1049SOL    HW114606   3.056   1.176  16.225  0.9715 -0.6207  0.5582
 1049SOL    HW214607   3.156   1.138  16.124  1.7940 -0.2395  1.3042
 1050SOL     OW14608   3.245   2.231   3.171 -0.4581 -0.4137  0.0753
 1050SOL    HW114609   3.256   2.322   3.144 -1.4189 -0.3418 -0.0680
 1050SOL    HW214610   3.164   2.207   3.126  0.1557  0.6683 -1.5645
 1051SOL     OW14611   2.165   2.616   3.249 -0.1221 -0.1353  0.3021
 1051SOL    HW114612   2.135   2.536   3.292  1.7771 -0.6893  0.5812
 1051SOL    HW214613   2.092   2.633   3.189  0.4508  2.1967  0.2695
 1052SOL     OW14614   4.640   2.977  11.310 -0.7817  0.2225 -0.3339
 1052SOL    HW114615   4.557   2.969  11.357 -0.1923 -1.9605  0.3072
 1052SOL    HW214616   4.699   2.939  11.374 -0.7141 -1.0789 -1.1667
 1053SOL     OW14617   2.380   3.005  13.683  0.3301  0.7331  0.2022
 1053SOL    HW114618   2.364   3.054  13.602 -0.0355 -0.7548 -0.6446
 1053SOL    HW214619   2.417   3.072  13.739  0.9467 -1.3538  2.2945
 1054SOL     OW14620   2.309   2.990   4.757 -0.0425 -0.7502 -0.0371
 1054SOL    HW114621   2.224   2.963   4.792  0.9886 -1.6948  1.7985
 1054SOL    HW214622   2.291   3.079   4.729 -2.7665 -1.5511 -0.8144
 1055SOL     OW14623   0.410   3.799   0.201 -0.5684  0.0460 -0.7152
 1055SOL    HW114624   0.399   3.791   0.106  1.8443 -1.3815 -0.8616
 1055SOL    HW214625   0.456   3.883   0.200 -3.9346  1.8868 -1.4660
 1056SOL     OW14626   2.246   2.976   9.497  0.3725 -0.0208  0.0146
 1056SOL    HW114627   2.309   2.904   9.499  0.4916  0.0527 -1.0653
 1056SOL    HW214628   2.159   2.939   9.506  0.2770  0.2605  0.2427
 1057SOL     OW14629   4.624   3.680   8.812 -0.2796  0.3350  0.0291
 1057SOL    HW114630   4.572   3.719   8.742  3.0071  2.1363 -1.3961
 1057SOL    HW214631   4.668   3.758   8.845 -0.0410 -0.5447  1.8077
 1058SOL     OW14632   0.168   3.816  12.404 -0.6879  0.6139  0.2941
 1058SOL    HW114633   0.165   3.884  12.472 -0.3351 -0.6742  1.5947
 1058SOL    HW214634   0.225   3.861  12.341 -0.8650 -0.3202 -0.5206
 1059SOL     OW14635   1.886   2.552   1.871 -0.4785 -0.1430 -0.2728
 1059SOL    HW114636   1.916   2.643   1.868  2.0202 -0.9595  0.4502
 1059SOL    HW214637   1.948   2.518   1.935 -1.4979  0.7776  1.2069
 1060SOL     OW14638   4.309   1.938  12.849  0.4026  0.3923  0.0159
 1060SOL    HW114639   4.253   1.931  12.771 -0.1205 -0.7868  0.4903
 1060SOL    HW214640   4.390   1.974  12.813 -0.2726  0.1717 -1.7256
 1061SOL     OW14641   2.779   1.185  17.477 -0.0148  0.2111 -0.2319
 1061SOL    HW114642   2.748   1.114  17.420  0.7243 -1.0371  0.9181
 1061SOL    HW214643   2.747   1.264  17.433 -0.6755  1.0499  1.7734
 1062SOL     OW14644   1.780   2.958   2.798 -0.0418 -0.1779 -0.3081
 1062SOL    HW114645   1.693   2.970   2.758 -0.3377 -1.8405 -0.1400
 1062SOL    HW214646   1.797   2.864   2.795  0.4989 -0.0739 -0.5451
 1063SOL     OW14647   4.356   4.641   4.070 -0.0039 -0.1157  0.5976
 1063SOL    HW114648   4.336   4.570   4.131  1.7572 -0.1297  1.1617
 1063SOL    HW214649   4.408   4.594   4.004 -0.6473  0.0951 -0.0567
 1064SOL     OW14650   1.372   1.855  11.341 -0.2914  0.3684  0.0934
 1064SOL    HW114651   1.425   1.889  11.269  0.0939  0.1345  0.2647
 1064SOL    HW214652   1.287   1.864  11.297 -0.8665 -2.2925  0.6517
 1065SOL     OW14653   0.889   1.969   7.985 -0.4456 -0.4100 -0.2655
 1065SOL    HW114654   0.932   1.885   7.998 -0.6057 -0.2908  1.0964
 1065SOL    HW214655   0.919   2.026   8.056  0.0345  1.0593 -1.6545
 1066SOL     OW14656   1.503   1.550   8.256 -0.4228 -0.2525  0.3181
 1066SOL    HW114657   1.457   1.614   8.311  0.4428  0.0055  0.7335
 1066SOL    HW214658   1.452   1.552   8.175 -1.5453  1.1947  1.0602
 1067SOL     OW14659   3.185   2.215   6.115  0.1361 -0.7610  0.2309
 1067SOL    HW114660   3.115   2.216   6.179  0.8257  1.0413  0.9618
 1067SOL    HW214661   3.270   2.213   6.158  0.1670 -1.2231  0.1528
 1068SOL     OW14662   3.615   2.259   9.032  0.5252  0.4518  0.2408
 1068SOL    HW114663   3.529   2.286   9.000  0.5373  2.4337  1.8303
 1068SOL    HW214664   3.604   2.256   9.127 -0.5018 -1.6084  0.0565
 1069SOL     OW14665   2.760   2.605   7.494 -0.2372  0.0155 -0.3021
 1069SOL    HW114666   2.723   2.665   7.559  0.2763  1.1920 -1.0938
 1069SOL    HW214667   2.743   2.660   7.417 -0.0564 -1.2880 -1.2736
 1070SOL     OW14668   0.724   2.536   4.321  0.4077 -0.1762  0.0722
 1070SOL    HW114669   0.663   2.606   4.300 -0.4180 -1.2688 -1.1834
 1070SOL    HW214670   0.777   2.583   4.386  0.4633 -0.4431  0.2205
 1071SOL     OW14671   4.083   4.623   3.539  0.4124  0.1218 -0.3238
 1071SOL    HW114672   4.099   4.695   3.599  1.3736  1.3472 -2.0466
 1071SOL    HW214673   4.010   4.663   3.493  0.3458  1.6825  1.1649
 1072SOL     OW14674   3.258   2.652  12.476  0.1103 -0.2303  0.3106
 1072SOL    HW114675   3.258   2.561  12.447 -0.8271 -0.0074 -0.4002
 1072SOL    HW214676   3.272   2.703  12.396 -3.5370 -0.8022 -0.7140
 1073SOL     OW14677   3.200   0.397   4.357  0.2603 -0.1262  0.1059
 1073SOL    HW114678   3.121   0.352   4.328  0.2068 -0.2241  0.4025
 1073SOL    HW214679   3.194   0.395   4.452 -0.3525 -1.7663  0.0352
 1074SOL     OW14680   2.762   0.641   4.331  0.0234 -0.0023 -0.1038
 1074SOL    HW114681   2.786   0.578   4.263 -1.2331  0.1112 -0.6651
 1074SOL    HW214682   2.666   0.642   4.324 -0.1636  0.6011  2.4163
 1075SOL     OW14683   2.145   3.353   2.757 -0.1232 -0.5501 -0.4204
 1075SOL    HW114684   2.086   3.280   2.740 -1.2212  0.1144  0.5268
 1075SOL    HW214685   2.091   3.432   2.754 -1.2761 -1.4276 -3.8566
 1076SOL     OW14686   2.932   2.594   0.358 -0.3195 -0.3431  0.5470
 1076SOL    HW114687   2.924   2.548   0.275 -1.2263  1.0679 -0.1408
 1076SOL    HW214688   2.956   2.528   0.424 -1.3398  0.8523  2.1153
 1077SOL     OW14689   0.797   2.519   5.486  0.0415 -0.5055  0.0932
 1077SOL    HW114690   0.788   2.479   5.573 -1.4050  1.1490  0.6930
 1077SOL    HW214691   0.846   2.450   5.441  1.7595  0.8513 -0.0870
 1078SOL     OW14692   3.755   2.117  15.428 -0.4526 -0.2670  0.2540
 1078SOL    HW114693   3.787   2.044  15.375 -0.2839 -0.5591  0.7638
 1078SOL    HW214694   3.665   2.091  15.445 -0.9026  2.7303  2.5852
 1079SOL     OW14695   0.868   0.495   4.043 -0.5899 -0.0707  0.9235
 1079SOL    HW114696   0.880   0.458   3.955 -1.9305 -1.1011  1.1865
 1079SOL    HW214697   0.948   0.468   4.088 -0.9308 -0.4644  1.2866
 1080SOL     OW14698   3.431   3.285   3.347 -0.0391  0.3309  0.1541
 1080SOL    HW114699   3.374   3.322   3.415 -2.8028 -0.2471 -1.8190
 1080SOL    HW214700   3.412   3.195   3.372 -0.7045 -0.1394 -2.1062
 1081SOL     OW14701   4.161   1.439   2.294  0.4375 -0.0865  0.0904
 1081SOL    HW114702   4.158   1.450   2.389 -2.3464 -2.4866  0.2639
 1081SOL    HW214703   4.081   1.477   2.258 -0.5483 -1.1856  1.1349
 1082SOL     OW14704   3.556   0.309   9.812  0.1969  0.2184  0.9735
 1082SOL    HW114705   3.574   0.395   9.849  1.0878  0.4176  0.0460
 1082SOL    HW214706   3.632   0.293   9.757 -0.7701 -2.1014  0.2671
 1083SOL     OW14707   4.703   2.997   2.786 -0.1489  0.0854 -0.1362
 1083SOL    HW114708   4.652   3.065   2.830  0.2681  0.0879  0.3414
 1083SOL    HW214709   0.060   3.046   2.761  0.0907  0.8446  2.0499
 1084SOL     OW14710   3.251   4.675  10.086 -0.2231 -0.2460  0.4693
 1084SOL    HW114711   3.327   4.634  10.045  0.7243  3.0726 -1.1027
 1084SOL    HW214712   3.187   4.683  10.015  1.5253  0.0326 -1.0602
 1085SOL     OW14713   4.178   1.644   1.514 -0.2413  0.1324  0.4629
 1085SOL    HW114714   4.228   1.715   1.474 -0.3854  1.1716  2.1030
 1085SOL    HW214715   4.128   1.602   1.444 -0.4089 -0.0163  0.6680
 1086SOL     OW14716   4.054   3.191  16.826  0.6726 -0.2117 -0.1579
 1086SOL    HW114717   4.094   3.134  16.892 -1.2166  0.3689  1.4747
 1086SOL    HW214718   4.043   3.274  16.873 -2.2866 -0.3844 -0.5835
 1087SOL     OW14719   4.106   3.864  14.972  0.6952  0.2497 -0.3246
 1087SOL    HW114720   4.042   3.851  14.903  1.9715  2.0367 -1.8511
 1087SOL    HW214721   4.122   3.958  14.966  1.7517  0.0631 -0.4775
 1088SOL     OW14722   1.782   1.806   8.523  0.1334  0.2576 -0.1389
 1088SOL    HW114723   1.722   1.747   8.568  2.7552 -1.1297  1.5013
 1088SOL    HW214724   1.807   1.853   8.603  0.3062  1.2001 -0.7515
 1089SOL     OW14725   3.636   3.729   6.815 -0.0092 -0.2471 -0.3695
 1089SOL    HW114726   3.593   3.803   6.772 -0.3075 -0.5455 -0.5880
 1089SOL    HW214727   3.657   3.759   6.903 -1.6978 -0.8183  0.2265
 1090SOL     OW14728   0.378   1.390   6.284 -0.3769 -0.0859 -0.0531
 1090SOL    HW114729   0.399   1.409   6.193 -0.5379  1.5987  0.2642
 1090SOL    HW214730   0.445   1.435   6.334 -1.9060  2.7917 -0.5647
 1091SOL     OW14731   0.322   0.426   3.773  0.1061  0.3859  0.0281
 1091SOL    HW114732   0.264   0.494   3.808  1.4959 -0.0706  3.2309
 1091SOL    HW214733   0.257   0.385   3.715  1.9211 -1.4569 -0.7182
 1092SOL     OW14734   1.237   3.863   4.237  0.4204 -0.0602 -0.5852
 1092SOL    HW114735   1.267   3.869   4.328  2.1677 -0.4240 -1.1412
 1092SOL    HW214736   1.231   3.957   4.217 -0.8095 -0.5240 -2.4230
 1093SOL     OW14737   4.636   1.924   5.422  0.3245 -0.4612  0.0691
 1093SOL    HW114738   4.710   1.938   5.362  0.0796 -0.5630 -0.2589
 1093SOL    HW214739   4.570   1.914   5.354  0.7006 -1.0973 -0.1979
 1094SOL     OW14740   3.462   1.205   5.259  0.4318 -0.2367 -0.0042
 1094SOL    HW114741   3.464   1.180   5.351 -0.5084 -0.4228 -0.0335
 1094SOL    HW214742   3.378   1.250   5.255  0.1685 -0.6529  0.8811
 1095SOL     OW14743   2.066   3.087   0.649  0.0585  0.2457  0.1171
 1095SOL    HW114744   2.099   3.159   0.596 -0.5498  0.5365  0.1231
 1095SOL    HW214745   2.141   3.028   0.651  0.6478  0.9091 -2.9206
 1096SOL     OW14746   0.503   3.978   3.281  0.1920 -0.2295 -0.1634
 1096SOL    HW114747   0.424   3.926   3.293 -0.6143  1.2768  1.0189
 1096SOL    HW214748   0.576   3.924   3.312  1.5633  0.4818 -2.0863
 1097SOL     OW14749   2.278   2.719   1.758 -0.4404 -0.2510  0.1653
 1097SOL    HW114750   2.246   2.685   1.841 -0.5338 -1.1573 -0.2458
 1097SOL    HW214751   2.359   2.746   1.800 -0.7201 -1.5025  1.4955
 1098SOL     OW14752   1.218   3.573   0.033 -0.2363  0.5629  0.2905
 1098SOL    HW114753   1.224   3.608   0.122 -0.3803 -0.7354  0.8196
 1098SOL    HW214754   1.190   3.655  17.681 -2.3109  0.8618  2.4454
 1099SOL     OW14755   0.076   1.742   8.246 -0.0093 -0.1356 -0.0749
 1099SOL    HW114756   0.093   1.834   8.225  0.6819 -0.1733  0.3090
 1099SOL    HW214757   4.717   1.743   8.298  1.4693 -0.5112  2.2283
 1100SOL     OW14758   3.018   2.392   1.076 -0.3131 -0.0171 -0.5967
 1100SOL    HW114759   3.076   2.399   1.152  0.8822 -1.6692 -1.3632
 1100SOL    HW214760   3.054   2.467   1.028  2.3582  1.4208  3.6811
 1101SOL     OW14761   1.100   0.046  10.509  0.3041  0.5493  0.0373
 1101SOL    HW114762   1.126   4.705  10.441  3.0959  1.9307 -0.1481
 1101SOL    HW214763   1.184   0.063  10.553 -0.0837  1.9272  0.2641
 1102SOL     OW14764   3.679   1.505   6.327 -0.2445 -0.0816  0.5554
 1102SOL    HW114765   3.752   1.528   6.269  0.4439 -0.4808  1.2648
 1102SOL    HW214766   3.610   1.481   6.265  0.8884 -1.1212 -0.3097
 1103SOL     OW14767   2.051   1.488   7.583  0.6691 -0.0899  0.2434
 1103SOL    HW114768   2.120   1.540   7.623 -0.7138  2.8966 -1.1821
 1103SOL    HW214769   1.981   1.554   7.589 -0.5740 -1.1461 -2.4699
 1104SOL     OW14770   3.268   3.721   4.914  0.3695 -0.4458  0.2704
 1104SOL    HW114771   3.304   3.633   4.909 -1.1976 -1.1034  0.5405
 1104SOL    HW214772   3.249   3.731   4.820 -0.6724  0.1607  0.5453
 1105SOL     OW14773   0.093   2.565   5.180  0.5521 -0.1226 -0.4273
 1105SOL    HW114774   0.170   2.517   5.153  0.5143 -0.5068  0.1494
 1105SOL    HW214775   0.075   2.517   5.261 -1.2570  0.4275 -0.4935
 1106SOL     OW14776   2.014   2.435   3.368  0.0124 -0.1760 -0.7669
 1106SOL    HW114777   1.956   2.363   3.393  2.1931 -1.4577  0.5510
 1106SOL    HW214778   2.089   2.413   3.423 -0.9489  1.1982  1.0965
 1107SOL     OW14779   3.840   4.502   8.639  0.8413 -0.0638 -0.0650
 1107SOL    HW114780   3.852   4.512   8.545 -0.5288 -0.3395 -0.2648
 1107SOL    HW214781   3.930   4.491   8.670  0.8810 -1.8278 -0.8303
 1108SOL     OW14782   4.466   1.373  17.026 -0.4232 -0.5897  0.6144
 1108SOL    HW114783   4.483   1.287  17.064  2.2090  1.1965  3.5475
 1108SOL    HW214784   4.446   1.420  17.107  0.5521  0.7916  0.0496
 1109SOL     OW14785   0.391   2.932   9.617 -0.4627 -0.6435  0.1048
 1109SOL    HW114786   0.387   2.907   9.710 -1.6006 -1.1963 -0.0925
 1109SOL    HW214787   0.321   2.997   9.608 -2.3233 -2.5069  1.0355
 1110SOL     OW14788   4.250   3.046  10.612  0.3431  0.1665 -0.2056
 1110SOL    HW114789   4.270   2.952  10.613  1.1009  0.3197 -1.4593
 1110SOL    HW214790   4.329   3.084  10.651  0.3668  2.5646 -2.6185
 1111SOL     OW14791   4.050   2.800   8.721 -0.5133 -0.3880  0.1773
 1111SOL    HW114792   3.964   2.769   8.748 -1.4112 -0.8944 -3.3160
 1111SOL    HW214793   4.104   2.731   8.760  0.4251  0.5249  0.5324
 1112SOL     OW14794   3.450   3.241   4.888 -0.0194  0.0855 -0.3650
 1112SOL    HW114795   3.398   3.285   4.820 -1.5771 -0.1807  0.6451
 1112SOL    HW214796   3.538   3.267   4.863  0.5864  0.0887  1.8063
 1113SOL     OW14797   0.062   3.788   4.021 -0.2760  0.2814  0.2442
 1113SOL    HW114798   0.100   3.704   4.046  0.1799  0.3372 -0.2493
 1113SOL    HW214799   0.020   3.766   3.938  0.0534 -0.6748  0.3231
 1114SOL     OW14800   1.819   0.724   6.689  0.0162  0.1085  0.6310
 1114SOL    HW114801   1.820   0.659   6.619 -0.3199  2.0682 -1.1843
 1114SOL    HW214802   1.887   0.691   6.747  1.0862 -0.5988 -1.0199
 1115SOL     OW14803   3.446   3.945   7.088  0.0470 -0.0121  0.4579
 1115SOL    HW114804   3.430   3.944   6.994  1.3839 -0.9969  0.2383
 1115SOL    HW214805   3.529   3.898   7.079 -0.1356 -0.1448 -0.5211
 1116SOL     OW14806   3.425   1.275   4.704  0.0875  0.2625 -0.5498
 1116SOL    HW114807   3.331   1.279   4.723  0.0371 -1.2091 -0.5119
 1116SOL    HW214808   3.434   1.182   4.723 -2.1662 -0.2767 -2.1386
 1117SOL     OW14809   1.139   2.578   2.413  0.7766  0.2924  0.5241
 1117SOL    HW114810   1.129   2.567   2.318  0.1253 -1.4144  0.7887
 1117SOL    HW214811   1.225   2.537   2.425  0.4786 -0.1776  1.0270
 1118SOL     OW14812   3.908   0.085   8.765 -0.0569  0.4490 -0.3060
 1118SOL    HW114813   3.943   0.015   8.821 -0.0157 -0.6957 -1.7823
 1118SOL    HW214814   3.846   0.031   8.718  1.2693 -0.7444 -0.6986
 1119SOL     OW14815   4.055   2.481   1.859 -0.0397  0.3461 -0.8052
 1119SOL    HW114816   4.017   2.550   1.805 -0.7668 -0.8649 -1.8293
 1119SOL    HW214817   3.984   2.417   1.855 -0.6713  0.7850  3.1515
 1120SOL     OW14818   3.805   1.232   7.173  0.0611 -0.0123  0.1986
 1120SOL    HW114819   3.858   1.268   7.102  1.0597  0.0871  0.9861
 1120SOL    HW214820   3.734   1.296   7.179  1.0349  1.0106  0.7311
 1121SOL     OW14821   3.767   3.980   7.771 -0.0495 -0.2410  0.4907
 1121SOL    HW114822   3.852   3.943   7.747  0.4246  0.6194  0.8304
 1121SOL    HW214823   3.760   3.924   7.849 -1.8768  0.4221  0.7888
 1122SOL     OW14824   0.328   1.736   5.098 -0.1210  0.4708 -0.0490
 1122SOL    HW114825   0.409   1.686   5.089 -0.5807 -0.7492  2.5898
 1122SOL    HW214826   0.348   1.804   5.033  0.7136  0.0258 -0.2589
 1123SOL     OW14827   4.075   1.221  14.861 -0.2533  0.2432 -0.3340
 1123SOL    HW114828   4.027   1.235  14.943 -1.8045  1.1706 -1.4138
 1123SOL    HW214829   4.160   1.193  14.895 -1.3673 -1.0978  1.3642
 1124SOL     OW14830   3.161   1.305   5.246 -0.3419 -0.5918 -0.1850
 1124SOL    HW114831   3.141   1.398   5.249  0.0932 -0.4848 -0.7595
 1124SOL    HW214832   3.143   1.290   5.339  2.3924  0.8431  0.5643
 1125SOL     OW14833   4.422   2.285   1.696 -0.2682  0.1564 -0.0345
 1125SOL    HW114834   4.488   2.354   1.698 -0.2024  0.1155 -0.8358
 1125SOL    HW214835   4.433   2.254   1.786  0.1490 -0.3402 -0.2566
 1126SOL     OW14836   0.425   0.407   4.277  0.9401  0.2937  0.1675
 1126SOL    HW114837   0.371   0.461   4.219  0.4458 -1.2583 -0.8287
 1126SOL    HW214838   0.461   0.348   4.210  0.6432  1.4980 -1.0617
 1127SOL     OW14839   2.408   4.136   2.745  0.4743 -0.1463 -0.1127
 1127SOL    HW114840   2.414   4.080   2.823 -0.6102  0.5572  0.4793
 1127SOL    HW214841   2.462   4.083   2.687  1.0149  0.2938 -0.0077
 1128SOL     OW14842   0.139   4.549   8.917  0.2094  0.3442 -0.2242
 1128SOL    HW114843   0.231   4.522   8.916 -0.1786 -0.9277 -1.4153
 1128SOL    HW214844   0.142   4.644   8.908 -0.4575  0.3423 -0.4640
 1129SOL     OW14845   0.851   1.561   7.197 -0.1104  0.2667 -0.7310
 1129SOL    HW114846   0.850   1.656   7.210  1.1549  0.1027  0.5349
 1129SOL    HW214847   0.912   1.561   7.124 -2.5570  1.1492 -2.8012
 1130SOL     OW14848   3.170   2.269   5.079 -0.0190  0.2515  0.0333
 1130SOL    HW114849   3.111   2.231   5.143 -1.6985 -1.9209 -2.7887
 1130SOL    HW214850   3.145   2.233   4.994  3.3173  1.5040 -1.5086
 1131SOL     OW14851   1.686   3.065   7.553  0.2514 -0.7300  0.4462
 1131SOL    HW114852   1.607   3.083   7.604 -0.3458  0.5001 -0.8823
 1131SOL    HW214853   1.726   3.006   7.616 -0.6267 -1.3216  0.4543
 1132SOL     OW14854   4.133   3.226   0.744  0.4797 -0.6422 -0.4399
 1132SOL    HW114855   4.132   3.243   0.650  0.5892 -1.9940 -0.6865
 1132SOL    HW214856   4.074   3.150   0.748 -0.1444 -0.0600  1.4713
 1133SOL     OW14857   1.425   0.890  14.383 -0.6425  0.3752 -0.0373
 1133SOL    HW114858   1.461   0.869  14.470  1.6659  0.6708 -0.9381
 1133SOL    HW214859   1.493   0.955  14.365  0.6990 -0.7425  1.0175
 1134SOL     OW14860   4.601   3.858   4.930  0.2533  0.2131  0.2737
 1134SOL    HW114861   4.565   3.789   4.873  1.2041  1.5348 -1.9060
 1134SOL    HW214862   4.529   3.921   4.932  0.9016  0.9661 -0.2035
 1135SOL     OW14863   1.937   0.715   5.019  0.2497 -0.3148  0.2514
 1135SOL    HW114864   1.947   0.656   5.093  0.6928  1.4267  1.5950
 1135SOL    HW214865   2.026   0.734   4.991 -0.0401  0.5763 -0.0902
 1136SOL     OW14866   4.621   1.302   2.302  0.3637  0.0098  0.0994
 1136SOL    HW114867   4.654   1.372   2.246  0.3979 -0.3808 -0.3749
 1136SOL    HW214868   4.540   1.288   2.252 -0.7249  0.6061  1.7107
 1137SOL     OW14869   4.712   0.000   7.500  0.4672  0.0234 -0.3320
 1137SOL    HW114870   4.690   0.088   7.531  2.0837 -0.2847  1.6843
 1137SOL    HW214871   0.021   0.008   7.410  1.4558 -1.6713 -0.1635
 1138SOL     OW14872   4.542   2.663   3.165 -0.1342 -0.0977  0.5025
 1138SOL    HW114873   4.617   2.659   3.225 -1.1812  1.1908  1.8768
 1138SOL    HW214874   4.578   2.709   3.089  2.8224 -1.8959  0.8105
 1139SOL     OW14875   0.157   0.746   7.115  0.4918 -0.4995 -0.2869
 1139SOL    HW114876   0.244   0.769   7.083 -0.2548  0.7534 -1.4277
 1139SOL    HW214877   0.176   0.659   7.149  0.1578 -0.5572 -0.2425
 1140SOL     OW14878   1.127   3.798   6.469 -0.5051 -0.4224 -0.4776
 1140SOL    HW114879   1.188   3.868   6.445 -1.1492  0.9823  1.9937
 1140SOL    HW214880   1.051   3.856   6.461 -1.1078 -1.3864 -1.8768
 1141SOL     OW14881   4.178   1.740   5.023 -0.1008  0.5414 -0.4963
 1141SOL    HW114882   4.263   1.781   5.009  0.0293  0.2253 -0.6172
 1141SOL    HW214883   4.187   1.654   4.982  3.6005  0.7564 -0.1201
 1142SOL     OW14884   1.191   2.364  11.532  0.2492 -0.6525 -0.6855
 1142SOL    HW114885   1.138   2.411  11.467 -0.3295 -0.3909 -0.0132
 1142SOL    HW214886   1.137   2.293  11.566 -0.7986  0.3725 -0.2099
 1143SOL     OW14887   2.994   0.941   4.434  0.3655 -0.2258 -0.9993
 1143SOL    HW114888   2.941   0.913   4.510  1.0638 -2.3253 -1.2954
 1143SOL    HW214889   2.923   0.976   4.380 -1.6781  1.0769  2.5230
 1144SOL     OW14890   4.534   1.141   9.253 -0.4891  0.5339 -0.5950
 1144SOL    HW114891   4.514   1.072   9.316 -1.9037  0.5606 -1.0281
 1144SOL    HW214892   4.548   1.096   9.170 -0.4731 -0.7442  0.1042
 1145SOL     OW14893   4.656   3.743   4.453 -0.1716 -0.1585 -0.1378
 1145SOL    HW114894   4.610   3.659   4.457 -1.4864  0.5922  0.5594
 1145SOL    HW214895   4.632   3.790   4.373 -0.7569 -1.1165 -0.5260
 1146SOL     OW14896   3.974   1.326   6.255 -0.2912  0.7691  0.0534
 1146SOL    HW114897   3.926   1.399   6.216 -0.5360  0.5738 -0.0116
 1146SOL    HW214898   4.031   1.298   6.184 -0.8697 -2.1679  0.7401
 1147SOL     OW14899   0.886   3.986   3.145  0.8017 -0.3514 -0.2327
 1147SOL    HW114900   0.868   4.066   3.194 -1.5817  0.7809 -2.9410
 1147SOL    HW214901   0.846   4.003   3.060  0.2083  1.2836  0.3757
 1148SOL     OW14902   3.635   2.710   7.429 -0.3141 -0.3298 -0.1635
 1148SOL    HW114903   3.647   2.729   7.523  0.8732 -1.0340 -0.1625
 1148SOL    HW214904   3.603   2.620   7.429 -1.8662  0.2278 -1.5436
 1149SOL     OW14905   0.464   4.472  11.182 -0.1726 -0.3465 -0.3912
 1149SOL    HW114906   0.372   4.495  11.197  0.0864  0.4186  0.0710
 1149SOL    HW214907   0.469   4.399  11.121  2.4641 -0.0420 -0.5202
 1150SOL     OW14908   0.603   0.602   7.559  0.3397  0.2533 -0.4827
 1150SOL    HW114909   0.660   0.608   7.636 -2.4094  2.4586  1.4046
 1150SOL    HW214910   0.519   0.593   7.604  0.3707 -0.3193 -0.5409
 1151SOL     OW14911   0.715   0.406   7.952 -0.1354 -0.4880 -0.5725
 1151SOL    HW114912   0.743   0.482   8.002  0.2891 -2.2216  1.7984
 1151SOL    HW214913   0.623   0.423   7.930 -0.0691 -0.3056 -0.7114
 1152SOL     OW14914   3.356   1.328   6.737  0.8046  0.0427 -0.1342
 1152SOL    HW114915   3.340   1.418   6.765  2.4202  0.1610  0.4145
 1152SOL    HW214916   3.409   1.340   6.658  0.6540  1.0823 -0.0822
 1153SOL     OW14917   2.894   2.454   5.808 -0.0253  0.3206  0.1976
 1153SOL    HW114918   2.875   2.444   5.715 -0.2031  0.0112  0.2665
 1153SOL    HW214919   2.854   2.374   5.841 -1.3795  1.2658  0.8480
 1154SOL     OW14920   2.824   2.561   9.294 -0.2983  0.4604 -0.8132
 1154SOL    HW114921   2.829   2.640   9.239 -4.9071  1.3394  0.0910
 1154SOL    HW214922   2.737   2.524   9.287 -0.9429  1.8454 -0.1334
 1155SOL     OW14923   0.292   0.770   6.688  0.1971  0.5123  0.7926
 1155SOL    HW114924   0.265   0.853   6.726 -0.6702  0.3727  0.4832
 1155SOL    HW214925   0.379   0.793   6.655 -0.3002 -0.7714 -1.4369
 1156SOL     OW14926   2.790   0.466   0.907 -0.0632  0.7614 -0.0090
 1156SOL    HW114927   2.772   0.375   0.930  2.5241 -0.0343 -1.1406
 1156SOL    HW214928   2.839   0.491   0.985 -0.1581 -1.5687  0.8081
 1157SOL     OW14929   0.100   2.360  10.541  0.4901  0.3734 -0.0142
 1157SOL    HW114930   0.027   2.338  10.597 -0.1566  1.5553 -0.3951
 1157SOL    HW214931   0.110   2.455  10.548 -0.6521  0.6392 -2.0015
 1158SOL     OW14932   1.337   2.204   8.587  0.5511  0.0028 -0.4075
 1158SOL    HW114933   1.412   2.220   8.645 -0.0330  2.6177 -0.3818
 1158SOL    HW214934   1.270   2.255   8.633  0.9407  1.1199 -1.0886
 1159SOL     OW14935   2.107   1.289   6.252 -0.1236  0.0298  0.3799
 1159SOL    HW114936   2.132   1.348   6.324 -0.4242  1.6728 -0.8675
 1159SOL    HW214937   2.016   1.313   6.235  0.1022  0.8713  0.3541
 1160SOL     OW14938   0.819   1.486   4.061 -0.0990  0.0755  0.2543
 1160SOL    HW114939   0.824   1.429   3.984 -2.7074 -1.4868  1.2558
 1160SOL    HW214940   0.819   1.425   4.135 -0.5506 -2.5665 -1.9304
 1161SOL     OW14941   3.872   1.386   7.837 -0.4728 -0.4291  0.2505
 1161SOL    HW114942   3.865   1.385   7.741  1.1717  1.4784  0.0974
 1161SOL    HW214943   3.780   1.405   7.850 -1.0440 -2.4945 -0.8083
 1162SOL     OW14944   0.784   0.655   6.878 -0.1738 -0.2545  0.0488
 1162SOL    HW114945   0.801   0.570   6.838  0.9300  0.6432 -1.4157
 1162SOL    HW214946   0.792   0.646   6.972  0.3688 -0.0113  0.0215
 1163SOL     OW14947   1.805   0.396   5.147  0.3433 -0.4783  0.1022
 1163SOL    HW114948   1.838   0.313   5.181  0.6782 -0.4272 -0.0974
 1163SOL    HW214949   1.813   0.446   5.228 -0.1653 -0.8686  0.3954
 1164SOL     OW14950   2.304   3.435  12.366  0.1948 -0.3259  0.1309
 1164SOL    HW114951   2.291   3.378  12.443  0.2707 -2.0346 -1.1127
 1164SOL    HW214952   2.398   3.447  12.365  0.0807  0.3238 -2.0445
 1165SOL     OW14953   0.416   1.862   0.322  0.0184 -0.3772  0.3922
 1165SOL    HW114954   0.370   1.816   0.252  1.6871 -4.0494  1.7187
 1165SOL    HW214955   0.360   1.938   0.334 -1.0836 -1.1276  0.0063
 1166SOL     OW14956   4.307   3.816   4.401 -0.3762 -0.0596 -0.4809
 1166SOL    HW114957   4.287   3.809   4.308  0.3822 -0.5972 -0.6041
 1166SOL    HW214958   4.220   3.845   4.427 -0.4126 -0.1694 -0.4827
 1167SOL     OW14959   3.757   1.747   5.551  0.4201 -0.2402 -0.1550
 1167SOL    HW114960   3.666   1.773   5.541  0.4191 -0.2576 -0.1912
 1167SOL    HW214961   3.785   1.740   5.460  2.4167 -0.4378  0.4594
 1168SOL     OW14962   4.439   3.420   7.463  0.6341 -0.2352 -0.0050
 1168SOL    HW114963   4.408   3.330   7.477 -0.0674 -0.2633 -1.7679
 1168SOL    HW214964   4.479   3.438   7.548  1.0932  1.0774 -0.5096
 1169SOL     OW14965   3.565   0.967   4.316  0.2728  0.0602  1.0839
 1169SOL    HW114966   3.510   0.988   4.392 -0.5297 -1.8851  1.0550
 1169SOL    HW214967   3.538   1.031   4.250  1.2174  0.4135  1.0473
 1170SOL     OW14968   1.592   1.165   5.209 -0.5003  0.1235  0.2457
 1170SOL    HW114969   1.591   1.202   5.297  1.8721  1.9140 -0.4882
 1170SOL    HW214970   1.670   1.112   5.196 -0.4252  0.9385 -2.6576
 1171SOL     OW14971   1.789   3.434   3.612  0.2851 -0.2855 -0.3464
 1171SOL    HW114972   1.709   3.480   3.587 -0.5788 -0.3862  2.2570
 1171SOL    HW214973   1.768   3.342   3.628  0.5905 -0.0095  1.6127
 1172SOL     OW14974   3.920   3.042   1.235  0.2966  0.1863 -0.0097
 1172SOL    HW114975   4.013   3.020   1.240  0.1654  0.0303  1.6288
 1172SOL    HW214976   3.891   2.990   1.160 -0.7548 -0.6266  0.9454
 1173SOL     OW14977   2.440   2.980   5.147  0.2991  0.1480  0.0696
 1173SOL    HW114978   2.398   2.931   5.217  1.7356  1.0097  1.5187
 1173SOL    HW214979   2.387   3.059   5.146 -2.5999 -1.7957 -1.0415
 1174SOL     OW14980   2.746   0.007   2.508  0.2271 -0.3219 -0.0241
 1174SOL    HW114981   2.665   0.054   2.526 -0.2801 -1.8775  1.7712
 1174SOL    HW214982   2.725   4.715   2.416  1.7250  0.0558 -0.4278
 1175SOL     OW14983   3.007   2.625   8.508  0.4525 -0.1653  0.2023
 1175SOL    HW114984   3.076   2.689   8.525  0.2906 -0.1002  0.6203
 1175SOL    HW214985   3.062   2.549   8.524  0.8074 -0.2147 -1.2040
 1176SOL     OW14986   4.154   0.797   6.925  0.4119  0.0411 -0.0133
 1176SOL    HW114987   4.210   0.719   6.929 -0.9639 -0.8771  2.0751
 1176SOL    HW214988   4.104   0.755   6.855 -0.7108 -0.9685  1.3670
 1177SOL     OW14989   2.027   3.199  11.129 -0.2316  0.0234  0.1616
 1177SOL    HW114990   2.098   3.239  11.078  0.1869 -0.0191  0.7134
 1177SOL    HW214991   1.996   3.267  11.188  0.4614  1.1222 -0.7284
 1178SOL     OW14992   3.770   3.339  15.386  0.0367  0.0579  0.2037
 1178SOL    HW114993   3.779   3.249  15.415  2.2192 -0.1588 -1.1294
 1178SOL    HW214994   3.675   3.346  15.377  0.1351  0.5244 -0.4733
 1179SOL     OW14995   2.030   1.399  13.812 -0.2661  0.5044 -0.1096
 1179SOL    HW114996   1.970   1.331  13.842 -0.8384  1.2145  0.3474
 1179SOL    HW214997   1.990   1.481  13.842 -1.5620  0.0363 -0.5228
 1180SOL     OW14998   1.170   4.545   0.463  0.2007 -0.0853  0.1474
 1180SOL    HW114999   1.206   4.610   0.402  1.1636  0.4001  1.2360
 1180SOL    HW215000   1.176   4.577   0.553  1.3159  0.1769 -0.0124
 1181SOL     OW15001   1.503   2.267  14.009  0.7971  0.0520 -0.5302
 1181SOL    HW115002   1.409   2.280  14.020  0.2836 -2.4921 -1.8830
 1181SOL    HW215003   1.523   2.359  13.989  1.4999  0.2959  1.3603
 1182SOL     OW15004   3.788   0.266   6.307  0.5710  0.6316  0.1254
 1182SOL    HW115005   3.823   0.263   6.218  1.6053 -1.5496  0.5946
 1182SOL    HW215006   3.813   0.353   6.338 -1.5162  0.9489  0.8996
 1183SOL     OW15007   2.906   2.667   4.655  0.7079  0.1344 -0.2449
 1183SOL    HW115008   2.979   2.723   4.681  0.2099  1.5724 -1.8869
 1183SOL    HW215009   2.867   2.651   4.741  1.2366 -1.5776 -0.3247
 1184SOL     OW15010   1.654   1.550   6.778 -0.5424  0.0278  0.4671
 1184SOL    HW115011   1.573   1.509   6.808 -2.1996  2.5529 -0.6341
 1184SOL    HW215012   1.691   1.579   6.861 -0.6843  0.6653  0.3061
 1185SOL     OW15013   4.568   3.121  11.097  0.4322  0.1579 -0.2848
 1185SOL    HW115014   4.494   3.061  11.083  1.5703 -1.1050 -0.8763
 1185SOL    HW215015   4.615   3.071  11.163  0.3272  1.0830  0.4770
 1186SOL     OW15016   4.594   4.378   1.878 -0.9107 -0.4942  0.0061
 1186SOL    HW115017   4.648   4.423   1.944 -0.0076 -0.1718 -0.9578
 1186SOL    HW215018   4.631   4.290   1.886 -0.6737 -0.1912  2.2048
 1187SOL     OW15019   1.652   1.999   7.088  0.3828  0.6686 -0.3617
 1187SOL    HW115020   1.715   1.994   7.160  0.5146 -0.9417 -0.5884
 1187SOL    HW215021   1.569   2.004   7.134  1.1358  0.9147  0.9686
 1188SOL     OW15022   1.516   4.396   8.226 -0.5787 -0.4181  0.0778
 1188SOL    HW115023   1.535   4.394   8.319  0.1282 -3.3593 -0.1116
 1188SOL    HW215024   1.564   4.321   8.192  0.4208 -0.8574  2.4574
 1189SOL     OW15025   4.212   2.245   3.359 -0.3043  0.4538  0.1034
 1189SOL    HW115026   4.229   2.335   3.385 -1.5988  1.0823 -1.2094
 1189SOL    HW215027   4.118   2.241   3.377  0.1981 -2.7353  2.0987
 1190SOL     OW15028   1.359   2.823  11.059 -0.3233 -0.4570  0.0479
 1190SOL    HW115029   1.309   2.797  10.981  1.8081 -0.8349 -1.1720
 1190SOL    HW215030   1.321   2.910  11.073 -0.6981 -1.0015  2.5640
 1191SOL     OW15031   2.188   1.708  11.715 -0.2241 -0.5738 -0.3092
 1191SOL    HW115032   2.188   1.803  11.727 -1.0372 -0.4607 -1.1865
 1191SOL    HW215033   2.201   1.675  11.804  2.3339 -0.3228 -0.5875
 1192SOL     OW15034   3.045   4.144   2.694  0.2026 -0.3720  0.2206
 1192SOL    HW115035   3.126   4.177   2.654 -0.5249 -2.1454 -2.7105
 1192SOL    HW215036   3.087   4.100   2.768  3.1495  2.1749  0.0997
 1193SOL     OW15037   1.915   0.416   4.452  0.1484  0.5339  0.3575
 1193SOL    HW115038   1.977   0.453   4.514  1.4761 -0.5807 -0.3110
 1193SOL    HW215039   1.896   0.493   4.399  0.2800  1.1559  1.2130
 1194SOL     OW15040   0.119   3.704   5.769 -0.0229  0.0960 -0.0466
 1194SOL    HW115041   0.059   3.738   5.703 -1.2190 -0.0932  0.9615
 1194SOL    HW215042   0.067   3.659   5.835 -1.7964 -3.5153 -3.8787
 1195SOL     OW15043   3.463   3.979   6.811  0.4260 -0.8391 -0.0657
 1195SOL    HW115044   3.505   4.065   6.815  0.5992 -0.9337  0.1676
 1195SOL    HW215045   3.422   3.971   6.725 -2.8214  0.1107  1.4112
 1196SOL     OW15046   0.804   0.090   3.764  0.7176 -0.0048  0.9326
 1196SOL    HW115047   0.833   0.003   3.737 -1.7829 -0.3956 -0.4901
 1196SOL    HW215048   0.880   0.139   3.794  1.7947 -0.4591 -1.0714
 1197SOL     OW15049   3.433   0.068  13.318  0.1840  0.2266  0.0576
 1197SOL    HW115050   3.465   4.704  13.287  0.4753  0.3107  0.1293
 1197SOL    HW215051   3.488   0.119  13.258  0.5555 -0.1699  0.0620
 1198SOL     OW15052   2.871   2.298   4.243  0.5385 -0.0928  0.2007
 1198SOL    HW115053   2.836   2.378   4.204 -0.3616 -0.6677 -0.1745
 1198SOL    HW215054   2.816   2.296   4.322 -0.2926  1.0240 -0.3467
 1199SOL     OW15055   2.084   2.665   4.468  0.2987 -0.2847 -0.5506
 1199SOL    HW115056   2.172   2.663   4.431 -0.8516 -2.4183 -3.1553
 1199SOL    HW215057   2.041   2.604   4.408 -0.1180 -1.3108  0.7821
 1200SOL     OW15058   1.378   3.819   4.967  0.1139 -0.4021  0.8075
 1200SOL    HW115059   1.424   3.862   4.896  0.8936  0.5421  1.8857
 1200SOL    HW215060   1.299   3.788   4.922 -0.6040  2.4781  0.1138
 1201SOL     OW15061   2.559   0.005   8.450 -0.4976 -0.0795 -0.1416
 1201SOL    HW115062   2.491   4.695   8.510  0.5086 -1.7726  0.1132
 1201SOL    HW215063   2.616   0.057   8.507 -0.3597  1.5540 -1.7619
 1202SOL     OW15064   2.690   3.301   8.495 -0.0159  0.2378  0.2619
 1202SOL    HW115065   2.695   3.229   8.432  2.5916 -1.4771  2.4236
 1202SOL    HW215066   2.725   3.372   8.441 -0.5346  0.0902 -0.2623
 1203SOL     OW15067   4.347   0.179   7.395  0.4082 -0.2538 -0.5542
 1203SOL    HW115068   4.360   0.114   7.464 -0.3007  1.6084  1.3236
 1203SOL    HW215069   4.412   0.156   7.328  0.9224  2.1620 -0.8789
 1204SOL     OW15070   4.114   1.880   4.748 -0.4586 -0.2508  0.1762
 1204SOL    HW115071   4.208   1.888   4.733  0.0187  0.5972  3.6662
 1204SOL    HW215072   4.116   1.875   4.844  1.2561 -2.2597  0.0245
 1205SOL     OW15073   2.085   3.127   1.018 -0.1489  0.1183  0.2196
 1205SOL    HW115074   2.046   3.187   0.955 -0.8633 -0.4960  0.0744
 1205SOL    HW215075   2.100   3.181   1.095 -0.3692  0.2221  0.1901
 1206SOL     OW15076   3.241   2.420  11.052  0.3753  0.5441  0.3183
 1206SOL    HW115077   3.315   2.359  11.055 -0.2645 -0.2174  0.6276
 1206SOL    HW215078   3.241   2.440  10.958  2.0673 -3.4173 -0.5508
 1207SOL     OW15079   1.990   4.541   5.812  0.3814 -0.8039  0.3417
 1207SOL    HW115080   2.075   4.529   5.771  0.3216  0.5851 -0.1951
 1207SOL    HW215081   1.957   4.455   5.787 -0.3000 -0.1902 -0.8688
 1208SOL     OW15082   3.367   3.803   5.675 -0.3177 -0.6918  0.5972
 1208SOL    HW115083   3.372   3.711   5.697  0.9439 -0.7378  0.1388
 1208SOL    HW215084   3.286   3.838   5.711 -0.6277 -2.3627  1.5003
 1209SOL     OW15085   0.788   2.763   8.469 -0.2014 -0.3612 -0.5733
 1209SOL    HW115086   0.823   2.851   8.452  0.4251 -0.5507 -0.2970
 1209SOL    HW215087   0.806   2.761   8.563 -2.0518  3.6348 -0.1547
 1210SOL     OW15088   4.483   1.233  14.579  0.7710  0.3239  0.0646
 1210SOL    HW115089   4.499   1.308  14.636  0.5534 -0.0848  0.6709
 1210SOL    HW215090   4.397   1.263  14.551  0.6845 -0.1182 -0.1393
 1211SOL     OW15091   1.043   0.713   3.726 -0.2692  0.2767  0.1656
 1211SOL    HW115092   1.112   0.647   3.726  1.1643  1.7701 -1.2668
 1211SOL    HW215093   1.044   0.735   3.633  0.8569  1.8286  0.5458
 1212SOL     OW15094   0.922   2.075   8.961 -0.2910 -0.2541  0.6078
 1212SOL    HW115095   0.947   2.038   9.045 -1.2850 -0.9255  0.6042
 1212SOL    HW215096   0.838   2.114   8.987 -0.3136  1.6774 -2.2709
 1213SOL     OW15097   3.551   0.165   5.356  0.7006 -0.1321  0.2229
 1213SOL    HW115098   3.560   0.152   5.261 -1.7389  1.6117 -0.2609
 1213SOL    HW215099   3.467   0.208   5.342  1.2092  0.3921 -1.2555
 1214SOL     OW15100   1.731   4.505   4.229  0.2156  0.5753 -0.2529
 1214SOL    HW115101   1.735   4.446   4.304  2.0195  0.5909 -0.3411
 1214SOL    HW215102   1.817   4.481   4.195 -1.0087 -1.3839 -1.9366
 1215SOL     OW15103   1.294   0.596   4.776  0.1731  0.2025 -0.2708
 1215SOL    HW115104   1.221   0.579   4.717 -0.1166  1.3867 -0.2637
 1215SOL    HW215105   1.245   0.561   4.850  0.7400 -0.8121 -0.3740
 1216SOL     OW15106   1.122   1.215   5.800  0.1564  0.6603  0.6043
 1216SOL    HW115107   1.147   1.126   5.775  0.3600  0.9165 -0.1111
 1216SOL    HW215108   1.158   1.217   5.889  4.3905 -2.1258 -1.0964
 1217SOL     OW15109   0.389   2.208   9.263 -0.4502 -0.2415  0.1400
 1217SOL    HW115110   0.308   2.156   9.258 -0.5199 -0.1963  0.7591
 1217SOL    HW215111   0.419   2.188   9.352  1.1383 -0.0034 -0.3490
 1218SOL     OW15112   0.737   1.786  16.009 -0.2290 -0.4035 -0.3542
 1218SOL    HW115113   0.670   1.783  16.077  1.7905  0.5175  1.6722
 1218SOL    HW215114   0.788   1.863  16.034 -1.4101  0.5728 -0.9721
 1219SOL     OW15115   1.467   4.460   7.703 -0.9387  0.6331 -0.1430
 1219SOL    HW115116   1.450   4.424   7.616 -0.6181 -2.0807  0.9194
 1219SOL    HW215117   1.454   4.378   7.750 -1.6216  1.1142  0.5101
 1220SOL     OW15118   0.462   4.251  10.985 -0.3838 -0.1357 -0.0171
 1220SOL    HW115119   0.460   4.185  10.915  0.0609 -1.0490  0.8220
 1220SOL    HW215120   0.371   4.282  10.983  0.9579  3.6758 -1.3678
 1221SOL     OW15121   3.795   0.450   7.522 -0.3180  0.4998 -0.5670
 1221SOL    HW115122   3.748   0.388   7.466 -1.5477 -0.3710  1.4465
 1221SOL    HW215123   3.803   0.399   7.603 -0.9987  0.5845 -0.4413
 1222SOL     OW15124   1.777   2.598  17.309 -0.1225  0.0231  0.7290
 1222SOL    HW115125   1.710   2.666  17.302 -0.9638 -0.8920 -0.1428
 1222SOL    HW215126   1.723   2.536  17.359 -1.0292  1.5111  1.6085
 1223SOL     OW15127   1.788   1.534   3.749  0.2258  0.0947 -0.5537
 1223SOL    HW115128   1.875   1.526   3.790 -0.7671 -2.6924  0.9994
 1223SOL    HW215129   1.803   1.600   3.682  0.6618  0.0330 -0.5184
 1224SOL     OW15130   0.994   1.306  17.205  0.2099  0.0607 -0.0171
 1224SOL    HW115131   0.975   1.397  17.182 -0.1697 -0.1424 -0.5037
 1224SOL    HW215132   0.940   1.297  17.283 -0.7124 -4.2038 -1.1226
 1225SOL     OW15133   1.091   4.082   2.865  0.5207 -0.5013 -0.3087
 1225SOL    HW115134   1.118   4.167   2.831 -0.9627 -0.2161 -0.7759
 1225SOL    HW215135   1.014   4.104   2.918 -1.3693 -1.3689 -2.7114
 1226SOL     OW15136   0.430   2.506  12.779  0.5561 -0.5145  0.0743
 1226SOL    HW115137   0.416   2.493  12.873  1.5692 -0.8647  0.1731
 1226SOL    HW215138   0.337   2.516  12.757  1.1178  0.4278 -1.8210
 1227SOL     OW15139   2.868   4.648   6.868  1.0067  0.1487  0.6154
 1227SOL    HW115140   2.842   0.016   6.889  0.0344  0.0036  0.0460
 1227SOL    HW215141   2.786   4.602   6.889  0.0811  1.5986  0.1526
 1228SOL     OW15142   0.016   0.171   2.654  0.5299  0.6417 -0.0753
 1228SOL    HW115143   4.702   0.179   2.566  2.1886  1.1885 -0.6823
 1228SOL    HW215144   4.670   0.116   2.695  0.5402 -1.2885 -2.6795
 1229SOL     OW15145   1.841   1.671   4.776  0.4277 -0.3008  0.1099
 1229SOL    HW115146   1.816   1.759   4.747 -1.4099 -0.9587 -0.3273
 1229SOL    HW215147   1.801   1.616   4.709  0.8949  0.7101 -0.9829
 1230SOL     OW15148   1.067   3.633   5.681  0.0282 -0.3321  0.2133
 1230SOL    HW115149   1.027   3.717   5.704  2.3679  1.5329 -2.6306
 1230SOL    HW215150   0.994   3.580   5.651  0.0392 -0.8619  1.1145
 1231SOL     OW15151   4.085   0.686   5.909 -0.7107 -0.0985 -0.1966
 1231SOL    HW115152   4.153   0.683   5.976 -0.6240 -1.8798 -0.3891
 1231SOL    HW215153   4.098   0.602   5.866 -3.8015 -0.6181 -0.1206
 1232SOL     OW15154   1.343   3.732  10.081 -0.2248  0.2402  0.0412
 1232SOL    HW115155   1.309   3.818  10.055 -1.0187 -0.1602 -0.2215
 1232SOL    HW215156   1.270   3.671  10.079 -0.2662  0.3519 -1.3975
 1233SOL     OW15157   2.145   4.598   5.370 -0.2396  0.4686 -0.3019
 1233SOL    HW115158   2.201   4.660   5.324 -0.3849  1.1813  0.4747
 1233SOL    HW215159   2.209   4.542   5.414 -0.4607  0.8965  0.5663
 1234SOL     OW15160   2.463   0.554  12.339 -0.0884 -0.4456  0.2515
 1234SOL    HW115161   2.411   0.560  12.420 -0.6003  0.2974 -0.1381
 1234SOL    HW215162   2.555   0.550  12.363  0.6034 -0.2688 -2.4212
 1235SOL     OW15163   2.479   4.142  16.671  0.3453  0.5369  0.1674
 1235SOL    HW115164   2.416   4.207  16.701 -1.1797 -1.1647  0.6553
 1235SOL    HW215165   2.542   4.183  16.611  1.4908 -0.4153  0.7033
 1236SOL     OW15166   1.698   0.026   6.669  0.0283  0.0128  0.0164
 1236SOL    HW115167   1.792   0.011   6.681  0.3187  1.2585 -0.7146
 1236SOL    HW215168   1.688   4.706   6.583 -0.3237  0.6393 -0.2393
 1237SOL     OW15169   0.519   2.290   4.220  0.3529  0.5295 -0.2930
 1237SOL    HW115170   0.487   2.334   4.299 -0.0876 -1.5978  0.6943
 1237SOL    HW215171   0.490   2.356   4.157  0.4907  0.6937 -0.1872
 1238SOL     OW15172   0.409   1.907   4.911  0.0048  0.4013 -0.4678
 1238SOL    HW115173   0.433   1.999   4.919  0.3783  0.1742  0.9456
 1238SOL    HW215174   0.384   1.918   4.819 -1.6432 -1.1179 -0.2149
 1239SOL     OW15175   1.828   3.109   1.962  0.2625 -0.3453 -0.9398
 1239SOL    HW115176   1.921   3.133   1.968 -0.2837  1.6092 -0.3077
 1239SOL    HW215177   1.798   3.171   1.896  3.6712 -1.2384 -3.2981
 1240SOL     OW15178   3.497   2.933   3.735 -0.2895 -0.3329  0.1473
 1240SOL    HW115179   3.438   2.858   3.748 -0.9468  0.3843  1.3581
 1240SOL    HW215180   3.563   2.894   3.678 -1.7355  0.1866 -1.8683
 1241SOL     OW15181   3.401   1.462   7.389 -0.1613  0.1784 -0.0372
 1241SOL    HW115182   3.319   1.510   7.378 -0.5212 -0.1361  1.1945
 1241SOL    HW215183   3.377   1.385   7.440 -1.7624  2.0980  2.1323
 1242SOL     OW15184   2.024   0.743   1.560 -0.2384 -0.2385 -0.6839
 1242SOL    HW115185   2.003   0.753   1.653  0.1142  1.1083 -0.7482
 1242SOL    HW215186   1.952   0.687   1.532 -1.4738  1.2074 -0.4066
 1243SOL     OW15187   1.212   0.558  16.595  0.0416  0.2068  0.2934
 1243SOL    HW115188   1.127   0.601  16.601 -1.0107 -1.7628 -0.4902
 1243SOL    HW215189   1.272   0.632  16.592 -0.5287  0.6540  0.1086
 1244SOL     OW15190   3.469   1.982  12.624  0.4670  0.5304 -0.3728
 1244SOL    HW115191   3.529   2.053  12.600  0.6782  0.3406 -0.4090
 1244SOL    HW215192   3.510   1.955  12.707 -1.4173  2.8833  1.3279
 1245SOL     OW15193   1.570   2.417   4.003  0.0830 -0.4036  0.0907
 1245SOL    HW115194   1.568   2.379   4.091 -0.1994 -0.8298 -0.0962
 1245SOL    HW215195   1.578   2.512   4.011 -0.8687 -0.4295  1.2946
 1246SOL     OW15196   0.599   3.752   2.385 -0.0080 -0.7903 -0.0857
 1246SOL    HW115197   0.638   3.715   2.465  2.1845 -0.4101 -0.9871
 1246SOL    HW215198   0.673   3.744   2.325  0.0010 -1.1928 -0.0231
 1247SOL     OW15199   3.986   2.694   6.424 -0.4435  0.6039  0.4614
 1247SOL    HW115200   3.934   2.775   6.427  1.1283  1.6000  0.5859
 1247SOL    HW215201   4.052   2.717   6.490  1.0736  0.2972 -0.9622
 1248SOL     OW15202   3.855   2.986   3.188  0.2613 -0.3023 -0.2463
 1248SOL    HW115203   3.824   3.038   3.114 -1.8356 -0.2298  0.6997
 1248SOL    HW215204   3.944   2.968   3.158 -0.3205 -0.8237 -1.6585
 1249SOL     OW15205   1.524   3.780   1.563  0.2643  0.3622  0.0200
 1249SOL    HW115206   1.440   3.741   1.588  0.2227 -0.4160 -1.3805
 1249SOL    HW215207   1.524   3.766   1.468  0.2527  1.2971 -0.1197
 1250SOL     OW15208   4.203   4.614  13.816  0.3199 -0.3583  0.1900
 1250SOL    HW115209   4.144   4.538  13.815  2.3634 -1.9217 -1.8028
 1250SOL    HW215210   4.291   4.579  13.826  0.3502 -0.1466  0.6282
 1251SOL     OW15211   0.120   3.232  13.640  0.4301 -0.4401 -0.2652
 1251SOL    HW115212   0.152   3.319  13.615  0.6152  0.6224  3.6204
 1251SOL    HW215213   0.199   3.183  13.661  1.5027  0.7959 -1.4321
 1252SOL     OW15214   0.879   3.900   9.983  0.0283  0.2429 -0.2340
 1252SOL    HW115215   0.815   3.944  10.039  1.5656  1.1526  0.8241
 1252SOL    HW215216   0.944   3.970   9.981 -0.4769  0.7352  0.5497
 1253SOL     OW15217   0.894   3.032   4.651  0.6239 -0.0316  0.3992
 1253SOL    HW115218   0.801   3.038   4.674  0.4062  1.2182 -0.7536
 1253SOL    HW215219   0.932   2.982   4.723 -0.9352  0.8005  1.8298
 1254SOL     OW15220   3.973   2.424   8.863  0.2875  0.4736  0.2135
 1254SOL    HW115221   3.987   2.330   8.877  1.0720  0.4499 -0.7693
 1254SOL    HW215222   3.936   2.451   8.947  0.5194  0.5108  0.3042
 1255SOL     OW15223   3.331   4.434   6.063  0.0358  0.1206 -0.3323
 1255SOL    HW115224   3.367   4.488   5.993 -0.0534  0.1951 -0.3202
 1255SOL    HW215225   3.338   4.344   6.031  0.6010 -0.2559  0.8618
 1256SOL     OW15226   0.942   0.984  13.836 -0.1263 -0.4332 -0.1323
 1256SOL    HW115227   0.929   0.898  13.875 -1.3394 -0.4929 -0.6664
 1256SOL    HW215228   1.033   1.000  13.861 -0.8593  2.2371  0.8427
 1257SOL     OW15229   0.238   1.747   4.113  0.1959 -0.1233 -0.3691
 1257SOL    HW115230   0.281   1.831   4.098  2.8446 -1.3171  0.4996
 1257SOL    HW215231   0.240   1.749   4.208  1.8901  0.7986 -0.4195
 1258SOL     OW15232   0.252   1.644   8.495  0.3843 -0.0539  0.9472
 1258SOL    HW115233   0.177   1.681   8.541  0.5636 -1.7624  2.6137
 1258SOL    HW215234   0.206   1.578   8.442  0.9365 -1.4772  2.2290
 1259SOL     OW15235   0.857   2.859   8.134  0.3940 -0.6850 -0.7371
 1259SOL    HW115236   0.858   2.780   8.080 -0.2885 -1.0394 -0.2397
 1259SOL    HW215237   0.769   2.894   8.116  2.5959  2.6594 -4.8886
 1260SOL     OW15238   2.413   2.950   7.581  0.2566 -0.0234  0.4377
 1260SOL    HW115239   2.450   3.030   7.544  2.0685 -0.9111  0.3501
 1260SOL    HW215240   2.360   2.988   7.651 -0.3692  1.4421 -0.8112
 1261SOL     OW15241   0.683   0.350   2.120  0.2651 -0.7139  0.1619
 1261SOL    HW115242   0.712   0.377   2.033 -1.5317  1.0669  0.0838
 1261SOL    HW215243   0.588   0.356   2.107  0.1877  1.1479  1.5350
 1262SOL     OW15244   1.165   2.848   9.745 -0.0198  0.0322 -0.3911
 1262SOL    HW115245   1.152   2.784   9.815  1.5037  0.5137  0.3406
 1262SOL    HW215246   1.101   2.822   9.678  0.2805 -1.1798 -0.2111
 1263SOL     OW15247   1.394   3.803   2.574  0.0628 -0.2024  0.1948
 1263SOL    HW115248   1.343   3.727   2.547  1.7865 -1.2383 -0.1711
 1263SOL    HW215249   1.459   3.796   2.504 -0.6314  1.5588 -0.5913
 1264SOL     OW15250   4.215   2.180  12.964 -0.4431 -0.4641  0.7272
 1264SOL    HW115251   4.127   2.179  13.003  0.5780  0.1290  3.0430
 1264SOL    HW215252   4.239   2.088  12.953 -2.4292 -0.8724 -0.2091
 1265SOL     OW15253   2.349   4.074   8.878  0.1354  0.3398  0.2444
 1265SOL    HW115254   2.338   4.116   8.963  0.2077  0.8593  0.0022
 1265SOL    HW215255   2.272   4.103   8.829  1.4172  0.5655 -1.6255
 1266SOL     OW15256   1.495   4.716   3.347 -0.5266  0.4006  0.0133
 1266SOL    HW115257   1.453   0.074   3.313 -1.2612  0.0761  0.1450
 1266SOL    HW215258   1.570   4.705   3.289 -0.7653  0.0355 -0.2274
 1267SOL     OW15259   3.817   2.309   2.867 -0.4267  0.2039 -0.5093
 1267SOL    HW115260   3.755   2.348   2.805  0.3907  0.0919 -1.3946
 1267SOL    HW215261   3.875   2.261   2.808  0.3300  1.6675 -0.9442
 1268SOL     OW15262   3.234   1.636   3.102  0.4460 -0.3666 -0.5247
 1268SOL    HW115263   3.285   1.601   3.174  2.4096 -1.7293 -2.5634
 1268SOL    HW215264   3.249   1.562   3.043 -0.9856 -1.9458  1.1293
 1269SOL     OW15265   2.178   3.398   1.894  0.2224 -0.8853 -0.3395
 1269SOL    HW115266   2.129   3.317   1.907 -2.1844  0.8384  1.1537
 1269SOL    HW215267   2.116   3.462   1.929  0.6799 -0.3007 -0.5894
 1270SOL     OW15268   3.281   0.726  11.490 -0.1770 -0.4232 -0.2483
 1270SOL    HW115269   3.269   0.660  11.422 -1.2470  1.1908 -1.6469
 1270SOL    HW215270   3.271   0.667  11.565 -0.7744 -0.1705 -0.1227
 1271SOL     OW15271   0.319   0.030   3.404 -0.6225  0.2675  0.3697
 1271SOL    HW115272   0.264   0.002   3.478 -0.0136  0.9474  1.0874
 1271SOL    HW215273   0.314   0.126   3.399 -0.1070  0.1924 -1.3383
 1272SOL     OW15274   4.565   3.376   0.752 -0.4773 -0.7285 -0.3190
 1272SOL    HW115275   4.532   3.317   0.684  0.1895 -0.9076 -0.4832
 1272SOL    HW215276   4.517   3.457   0.731  0.8176  0.3696  0.9674
 1273SOL     OW15277   3.941   3.232  10.400  0.0844  0.3532  0.5327
 1273SOL    HW115278   3.919   3.299  10.466 -2.0339  0.5752 -0.3761
 1273SOL    HW215279   4.033   3.214  10.419  0.5722 -0.6549 -2.8686
 1274SOL     OW15280   3.816   2.121   3.065  0.1121 -0.1499  0.6228
 1274SOL    HW115281   3.761   2.077   3.000 -1.4696  1.1750  1.0610
 1274SOL    HW215282   3.789   2.212   3.052 -1.3621 -0.8326 -1.1280
 1275SOL     OW15283   1.542   3.472  12.098 -0.6964 -0.2673  0.2389
 1275SOL    HW115284   1.532   3.542  12.163  0.8001 -0.5797  0.8144
 1275SOL    HW215285   1.568   3.521  12.020  0.3426  0.2103  0.8771
 1276SOL     OW15286   1.684   0.978   3.724  0.0335 -0.3247 -0.3188
 1276SOL    HW115287   1.687   1.057   3.670  1.2241  1.0617  1.7884
 1276SOL    HW215288   1.597   0.952   3.695 -0.4974 -1.1423  2.0107
 1277SOL     OW15289   1.393   4.629  15.639  0.2065 -0.0083 -0.0606
 1277SOL    HW115290   1.432   4.643  15.553  0.2360  1.3827  0.1848
 1277SOL    HW215291   1.423   4.541  15.661  1.0392  0.1561 -0.5521
 1278SOL     OW15292   0.250   0.256   5.309 -0.1117  0.2083 -0.0074
 1278SOL    HW115293   0.322   0.240   5.248 -1.1400 -0.2827 -1.0880
 1278SOL    HW215294   0.267   0.351   5.315  2.6024 -0.3378  1.1878
 1279SOL     OW15295   3.943   2.136   5.751 -0.2675 -0.5615 -0.1682
 1279SOL    HW115296   4.036   2.150   5.764 -0.3155 -1.0035  0.6010
 1279SOL    HW215297   3.949   2.104   5.661 -1.4249  0.8803 -0.7661
 1280SOL     OW15298   3.284   3.453  15.285 -0.5653 -0.1222  0.0864
 1280SOL    HW115299   3.246   3.427  15.369 -1.5879  3.9431  0.8533
 1280SOL    HW215300   3.219   3.507  15.240  0.0202  1.5453  1.2452
 1281SOL     OW15301   0.494   0.833   4.371  0.1975 -0.2977  0.2129
 1281SOL    HW115302   0.572   0.883   4.394  1.2407 -0.5440 -2.8145
 1281SOL    HW215303   0.527   0.786   4.294 -0.5335  0.9765 -0.9008
 1282SOL     OW15304   4.532   0.492   7.119  0.3142  0.2377 -0.0031
 1282SOL    HW115305   4.460   0.438   7.088 -0.5911  1.5680 -0.2291
 1282SOL    HW215306   4.502   0.583   7.110  0.7066  0.4816  1.1880
 1283SOL     OW15307   3.746   3.768   9.057  0.2747  0.1764  0.0483
 1283SOL    HW115308   3.697   3.769   8.974 -2.5882  0.2777  1.7517
 1283SOL    HW215309   3.701   3.696   9.101 -1.8879  1.2787 -0.3043
 1284SOL     OW15310   0.150   1.845   5.607  0.4647  0.3762  0.3287
 1284SOL    HW115311   0.123   1.931   5.639  0.3179  1.0863 -1.7230
 1284SOL    HW215312   0.196   1.869   5.527  2.2438 -0.9095  0.9664
 1285SOL     OW15313   3.970   0.673  11.174  0.0678 -0.4599  0.0701
 1285SOL    HW115314   3.946   0.624  11.096 -0.0386 -0.6312  0.2097
 1285SOL    HW215315   3.985   0.763  11.145  1.3137 -0.7942 -0.3072
 1286SOL     OW15316   4.156   2.382   1.212 -0.1493  0.0162 -0.1979
 1286SOL    HW115317   4.175   2.406   1.302 -0.9406  0.0989 -0.0489
 1286SOL    HW215318   4.063   2.405   1.202  0.8075  3.4658 -1.1527
 1287SOL     OW15319   4.667   2.529   4.888  0.3043 -0.5197  0.6658
 1287SOL    HW115320   4.612   2.557   4.816 -0.2189 -1.1054  0.8349
 1287SOL    HW215321   4.650   2.594   4.956  2.8484 -0.4424  1.2447
 1288SOL     OW15322   1.098   3.158   1.520 -0.3959  0.4141  0.1228
 1288SOL    HW115323   1.035   3.198   1.460 -0.8881 -0.8591 -0.1925
 1288SOL    HW215324   1.124   3.226   1.583  0.1960 -0.0579  0.3863
 1289SOL     OW15325   4.327   2.472   3.145  0.4397 -0.3018  0.3631
 1289SOL    HW115326   4.349   2.416   3.070  1.1540 -2.6220  2.3046
 1289SOL    HW215327   4.401   2.533   3.136 -0.6466  1.1359  1.2004
 1290SOL     OW15328   4.706   1.540  14.495 -0.7311  0.3593 -0.2848
 1290SOL    HW115329   4.632   1.554  14.435 -0.3342 -0.4930 -0.9707
 1290SOL    HW215330   0.057   1.566  14.439 -0.4206 -3.6917 -1.7969
 1291SOL     OW15331   2.018   3.223  10.715  0.4989 -0.2631 -0.0016
 1291SOL    HW115332   2.043   3.130  10.714  1.4060 -0.0206  0.0164
 1291SOL    HW215333   2.085   3.272  10.668 -0.3606  1.6565  0.8160
 1292SOL     OW15334   0.576   3.985  12.413  0.5433 -0.2599  0.2916
 1292SOL    HW115335   0.644   4.037  12.370  0.7875 -1.4137 -0.7245
 1292SOL    HW215336   0.529   3.945  12.340 -0.5439  0.8501  0.3814
 1293SOL     OW15337   0.186   3.448   4.648  0.4664  0.2523  0.0420
 1293SOL    HW115338   0.109   3.408   4.688 -0.4623  1.2297 -0.7594
 1293SOL    HW215339   0.194   3.388   4.574  3.5330  0.5011  0.1735
 1294SOL     OW15340   4.449   2.700   2.531 -0.5026 -0.0756 -0.0572
 1294SOL    HW115341   4.423   2.773   2.475  2.9669  1.9106  0.8932
 1294SOL    HW215342   4.366   2.653   2.539 -0.6646  0.4554  1.4496
 1295SOL     OW15343   2.021   2.937   8.504  0.1465  0.2069 -0.1275
 1295SOL    HW115344   1.938   2.889   8.501  1.6456 -2.3923 -0.7230
 1295SOL    HW215345   1.998   2.999   8.435 -0.7094  0.6625  0.5814
 1296SOL     OW15346   3.552   1.030   4.755 -0.1404  0.3233 -0.4546
 1296SOL    HW115347   3.609   1.048   4.829 -0.1142  0.9984 -0.6352
 1296SOL    HW215348   3.506   0.956   4.793 -0.0240  0.0117 -0.9123
 1297SOL     OW15349   3.870   3.371   9.770  0.1648  0.0332 -0.2666
 1297SOL    HW115350   3.902   3.355   9.681 -1.5894 -0.9425 -0.7382
 1297SOL    HW215351   3.824   3.455   9.775 -0.7075 -0.4212 -0.5961
 1298SOL     OW15352   0.789   2.469   7.547 -0.2265 -0.9285 -0.0116
 1298SOL    HW115353   0.877   2.487   7.512 -0.4295 -1.4651 -0.7899
 1298SOL    HW215354   0.752   2.435   7.465 -0.9544  4.0876 -1.7892
 1299SOL     OW15355   3.512   3.016  16.801  0.0666 -0.3727  0.5341
 1299SOL    HW115356   3.534   2.950  16.735 -1.4842  0.3341 -0.6938
 1299SOL    HW215357   3.597   3.060  16.803 -0.8349  1.3865  0.1656
 1300SOL     OW15358   2.316   2.959   2.592 -0.4050 -0.2330  0.1483
 1300SOL    HW115359   2.412   2.961   2.594 -0.3218 -1.7716 -2.0633
 1300SOL    HW215360   2.290   2.972   2.501 -1.4812  0.5751  0.5669
 1301SOL     OW15361   4.077   0.813   3.867 -0.1425  0.0481 -0.0215
 1301SOL    HW115362   4.146   0.817   3.934 -1.2506 -0.4863  1.1441
 1301SOL    HW215363   4.013   0.878   3.896  0.3661  0.9114 -0.8128
 1302SOL     OW15364   1.385   2.416   0.729  0.2793 -0.7746  0.7573
 1302SOL    HW115365   1.445   2.359   0.680 -0.7708  0.3649 -1.8758
 1302SOL    HW215366   1.428   2.423   0.814 -0.0172  3.4775  0.5501
 1303SOL     OW15367   3.347   2.072   6.764  0.0986 -0.0518 -0.4607
 1303SOL    HW115368   3.279   2.010   6.740  1.0953 -1.2514 -0.1794
 1303SOL    HW215369   3.310   2.093   6.850  0.0133 -0.0305 -0.5032
 1304SOL     OW15370   2.008   1.236   2.030  0.0872 -0.1228 -0.1726
 1304SOL    HW115371   1.934   1.277   1.986 -0.3062 -1.4749 -0.7652
 1304SOL    HW215372   2.076   1.278   1.976  1.7832 -0.6184  1.5711
 1305SOL     OW15373   4.111   3.152   7.662 -0.1687 -0.3072 -0.2855
 1305SOL    HW115374   4.031   3.100   7.659 -0.7343  0.4915  1.2212
 1305SOL    HW215375   4.168   3.088   7.703 -1.0419 -0.4553  0.6910
 1306SOL     OW15376   3.311   4.192   3.509 -0.1767  0.0465  0.3898
 1306SOL    HW115377   3.296   4.277   3.548  1.7224  0.2396  0.6958
 1306SOL    HW215378   3.236   4.150   3.551 -1.1080  0.5547 -0.7527
 1307SOL     OW15379   0.698   1.718   4.635  0.4621  0.2081 -0.5396
 1307SOL    HW115380   0.714   1.812   4.639 -2.2357  0.5712  2.1697
 1307SOL    HW215381   0.602   1.710   4.640  0.5824  0.0396  1.5711
 1308SOL     OW15382   2.107   2.367   7.660  0.4893 -0.2830  0.5757
 1308SOL    HW115383   2.130   2.316   7.582 -1.5905 -0.4116  0.0567
 1308SOL    HW215384   2.095   2.310   7.736  2.2573 -0.1587  0.9539
 1309SOL     OW15385   0.167   4.517   6.166  0.1180 -0.0379 -0.4796
 1309SOL    HW115386   0.153   4.611   6.161  0.2428 -0.0897 -1.7722
 1309SOL    HW215387   0.256   4.528   6.200  0.1057  1.0421 -0.7868
 1310SOL     OW15388   3.968   0.205  11.604  0.3383 -0.3502  0.1780
 1310SOL    HW115389   3.923   0.163  11.678 -0.1158  1.7968  1.1189
 1310SOL    HW215390   3.974   0.298  11.628  0.5807 -0.6008  1.0988
 1311SOL     OW15391   1.500   0.327   3.149  0.3667  0.3487 -0.8843
 1311SOL    HW115392   1.554   0.298   3.223 -0.6402 -1.4751 -0.8627
 1311SOL    HW215393   1.555   0.399   3.119  0.7523  0.3368 -0.2059
 1312SOL     OW15394   1.453   3.123   5.845  0.3545  0.1141 -0.0383
 1312SOL    HW115395   1.502   3.100   5.766 -1.0573  1.4298 -1.3067
 1312SOL    HW215396   1.472   3.216   5.857 -0.6472  0.3604 -0.3659
 1313SOL     OW15397   0.165   2.908   5.966  0.3859 -0.2876 -0.0590
 1313SOL    HW115398   0.079   2.948   5.982  0.2514 -0.5081 -0.2378
 1313SOL    HW215399   0.190   2.939   5.879  2.3449 -2.0792 -0.1135
 1314SOL     OW15400   3.141   1.122  14.334 -0.0398 -0.4111 -0.8286
 1314SOL    HW115401   3.152   1.167  14.418  1.2412 -0.0631 -1.1913
 1314SOL    HW215402   3.063   1.070  14.351  0.1795 -0.3013  0.5147
 1315SOL     OW15403   2.258   1.821   9.860 -0.0728 -0.0903  0.0343
 1315SOL    HW115404   2.257   1.894   9.798 -0.6814 -2.4237 -2.6968
 1315SOL    HW215405   2.210   1.857   9.935 -0.7129 -0.8032 -0.0373
 1316SOL     OW15406   2.502   0.578   3.569  0.4688 -0.0136 -0.1274
 1316SOL    HW115407   2.597   0.570   3.573  0.4924  0.2509 -0.1813
 1316SOL    HW215408   2.485   0.568   3.663 -0.3417  2.4753 -0.0216
 1317SOL     OW15409   2.547   2.173   4.268  0.2273  0.2971 -0.2095
 1317SOL    HW115410   2.501   2.227   4.333  1.6664  1.9677 -0.5650
 1317SOL    HW215411   2.522   2.222   4.189  1.8253 -0.8119 -1.4033
 1318SOL     OW15412   0.910   3.573   3.262 -0.3212 -0.2141  0.9365
 1318SOL    HW115413   0.821   3.563   3.228  0.9672 -4.3018 -1.2833
 1318SOL    HW215414   0.904   3.503   3.328 -0.8132  0.4884  1.6324
 1319SOL     OW15415   4.641   0.301  12.543  0.0499 -0.2420  0.7903
 1319SOL    HW115416   4.720   0.339  12.581  1.7270 -3.1542  0.2618
 1319SOL    HW215417   4.605   0.273  12.627  0.7931 -1.0333  0.8514
 1320SOL     OW15418   3.552   0.239   5.822 -0.1141  0.2118  0.0472
 1320SOL    HW115419   3.463   0.206   5.835 -0.8316  1.6336 -1.3442
 1320SOL    HW215420   3.583   0.189   5.746  1.8649 -1.8166  2.1677
 1321SOL     OW15421   2.165   0.603   7.782  0.2545  0.1887  0.4504
 1321SOL    HW115422   2.159   0.683   7.835  0.1544  0.9086 -0.6418
 1321SOL    HW215423   2.260   0.598   7.772 -0.2100  1.0107 -4.3160
 1322SOL     OW15424   0.542   1.488  10.930 -0.4206  0.1593  0.4484
 1322SOL    HW115425   0.523   1.549  11.001  2.6601  1.1631  0.3988
 1322SOL    HW215426   0.523   1.403  10.970  0.0578 -0.6483 -1.0462
 1323SOL     OW15427   0.435   4.077   6.873  0.1636  0.1173  0.3549
 1323SOL    HW115428   0.433   4.088   6.969 -0.1758  1.2559  0.2246
 1323SOL    HW215429   0.342   4.089   6.854  0.8241  2.9780 -1.0825
 1324SOL     OW15430   1.132   3.986   3.286  0.5384  0.1161  0.0272
 1324SOL    HW115431   1.057   3.997   3.228 -0.5769 -5.0431  0.5763
 1324SOL    HW215432   1.203   3.993   3.222  0.2096  0.4411 -0.2984
 1325SOL     OW15433   0.667   4.150  14.681 -0.3112  0.2371 -0.3383
 1325SOL    HW115434   0.751   4.141  14.726 -0.7214 -1.9689 -0.0077
 1325SOL    HW215435   0.668   4.066  14.635 -1.1350  0.4454 -0.7423
 1326SOL     OW15436   4.592   1.649   0.995 -0.3223  0.4534  0.4974
 1326SOL    HW115437   4.668   1.665   1.051 -0.4056 -0.3603  0.8561
 1326SOL    HW215438   4.528   1.638   1.066 -0.6429  2.0700  0.4475
 1327SOL     OW15439   0.660   1.220   2.878  0.3408 -0.2333  0.3835
 1327SOL    HW115440   0.651   1.142   2.823 -1.2178  0.5141 -0.4022
 1327SOL    HW215441   0.628   1.193   2.964 -0.1836  1.6442  0.7868
 1328SOL     OW15442   2.271   0.796   9.668 -0.3887  0.3521 -0.3776
 1328SOL    HW115443   2.285   0.722   9.609 -0.4653  0.1106 -0.0880
 1328SOL    HW215444   2.339   0.788   9.735 -1.7646 -1.2428  0.8403
 1329SOL     OW15445   1.241   4.177   5.803 -0.1013  0.4669  0.5100
 1329SOL    HW115446   1.332   4.183   5.774  1.1649 -1.6317  4.1210
 1329SOL    HW215447   1.259   4.194   5.895  0.4755  0.6323  0.3670
 1330SOL     OW15448   0.256   4.203   8.750  0.4891 -0.3559 -0.2696
 1330SOL    HW115449   0.319   4.202   8.822  0.6070  2.3675 -0.3356
 1330SOL    HW215450   0.176   4.241   8.786 -0.6594 -2.2164 -0.8260
 1331SOL     OW15451   0.141   2.253   8.060  0.4802 -0.2012 -0.3163
 1331SOL    HW115452   0.229   2.281   8.035  1.2509 -0.2984  2.3682
 1331SOL    HW215453   0.116   2.210   7.978  0.7103 -1.2801  0.1714
 1332SOL     OW15454   1.692   2.432  11.201  0.0684 -0.5525 -0.2657
 1332SOL    HW115455   1.606   2.397  11.177  0.2815 -1.9616  1.0519
 1332SOL    HW215456   1.692   2.402  11.292 -0.3052 -2.3736 -0.8860
 1333SOL     OW15457   0.729   1.980   2.814 -0.5645 -0.6348 -0.6528
 1333SOL    HW115458   0.811   1.983   2.765  1.0989 -4.1619  1.8889
 1333SOL    HW215459   0.741   2.057   2.871 -1.0215 -0.9412 -0.1404
 1334SOL     OW15460   3.065   0.726   8.528 -0.0107 -0.2541 -0.6641
 1334SOL    HW115461   3.093   0.703   8.617  1.1505 -0.8714 -1.1939
 1334SOL    HW215462   3.127   0.797   8.515 -0.2455 -0.0274 -0.5462
 1335SOL     OW15463   1.460   1.458   5.181 -0.0132  0.0289  0.2424
 1335SOL    HW115464   1.415   1.510   5.114 -1.7449 -1.3017  0.3655
 1335SOL    HW215465   1.417   1.497   5.257 -0.7001 -0.2358 -0.0065
 1336SOL     OW15466   1.302   2.191  13.353 -0.1298  0.7359 -0.3757
 1336SOL    HW115467   1.356   2.167  13.277  2.1409  0.5677  1.2831
 1336SOL    HW215468   1.324   2.284  13.355 -2.1961  1.2492 -1.8505
 1337SOL     OW15469   0.798   1.512   3.444 -0.6399  0.2653 -0.5317
 1337SOL    HW115470   0.824   1.581   3.504 -3.3491 -0.9804  2.0548
 1337SOL    HW215471   0.842   1.539   3.363  1.5335 -0.6493  0.3489
 1338SOL     OW15472   4.531   2.298   5.260 -0.3039  0.3604 -0.0805
 1338SOL    HW115473   4.484   2.218   5.234 -0.1555  0.8086 -1.7692
 1338SOL    HW215474   4.578   2.321   5.180  1.1893  0.9003  0.9548
 1339SOL     OW15475   4.623   1.372  16.788  0.4458 -0.6113  0.2651
 1339SOL    HW115476   4.583   1.459  16.787  1.3577 -0.1957 -0.4568
 1339SOL    HW215477   4.582   1.339  16.868  0.0913 -0.5145  0.1236
 1340SOL     OW15478   2.466   3.659  14.431 -0.3544  0.0036 -0.2321
 1340SOL    HW115479   2.387   3.681  14.482  0.0357 -0.7099  0.6706
 1340SOL    HW215480   2.528   3.645  14.503  0.1352  1.4100 -0.3701
 1341SOL     OW15481   3.070   0.072   3.782  0.5748 -0.0462  0.1317
 1341SOL    HW115482   3.060   4.721   3.721  0.5608  0.1930 -0.1518
 1341SOL    HW215483   3.160   0.090   3.753  0.7280  0.4990  0.9115
 1342SOL     OW15484   3.218   2.562   6.366  0.4485 -0.1380  0.6923
 1342SOL    HW115485   3.284   2.624   6.397 -1.3949  2.4267 -0.5194
 1342SOL    HW215486   3.230   2.485   6.420 -1.4038 -0.0203  1.2795
 1343SOL     OW15487   2.313   0.981   7.100  0.3657  0.1098  0.0429
 1343SOL    HW115488   2.294   1.060   7.049 -1.1003  0.3093  0.9164
 1343SOL    HW215489   2.388   0.958   7.045 -0.3592  0.7772 -1.2340
 1344SOL     OW15490   0.042   0.168   6.961 -0.3649  0.1077  0.4212
 1344SOL    HW115491   0.108   0.206   7.018  0.0873  1.0334 -0.7116
 1344SOL    HW215492   0.020   0.239   6.900 -0.0569  2.3605  2.9397
 1345SOL     OW15493   1.864   3.558  15.949  0.2907 -0.6725  0.0986
 1345SOL    HW115494   1.845   3.585  16.039  1.9262 -2.2121  0.8899
 1345SOL    HW215495   1.958   3.577  15.945  0.0656 -0.2077 -2.5980
 1346SOL     OW15496   3.803   0.519   4.025  0.3497  0.1625  0.6034
 1346SOL    HW115497   3.754   0.558   4.098 -0.3927 -0.6558  0.5422
 1346SOL    HW215498   3.890   0.537   4.061  0.5445 -1.3397  0.8859
 1347SOL     OW15499   1.565   2.976   2.589 -0.3391 -0.0277  0.0320
 1347SOL    HW115500   1.623   3.051   2.577  0.9581 -0.7642  1.7090
 1347SOL    HW215501   1.627   2.907   2.567 -0.8846 -0.1409 -1.1310
 1348SOL     OW15502   3.989   1.659   5.666 -0.4261  0.1697  0.0956
 1348SOL    HW115503   3.969   1.567   5.685 -1.3850  0.4657  0.5414
 1348SOL    HW215504   3.906   1.683   5.623 -0.3915  0.8655  0.4210
 1349SOL     OW15505   4.435   2.913   7.184 -0.0221  0.9194  0.1610
 1349SOL    HW115506   4.508   2.973   7.165 -0.1700  0.0635 -3.0593
 1349SOL    HW215507   4.436   2.915   7.280  0.6383 -0.7333  0.1903
 1350SOL     OW15508   4.617   2.422   2.523 -0.0207 -0.1899 -0.0435
 1350SOL    HW115509   4.673   2.390   2.452  0.3768 -0.3858  0.3588
 1350SOL    HW215510   4.545   2.360   2.528 -0.9977  0.8621 -0.9970
 1351SOL     OW15511   4.530   0.022  12.545  0.0956 -0.0060  0.5256
 1351SOL    HW115512   4.533   0.073  12.626 -1.2288  1.0217 -0.0751
 1351SOL    HW215513   4.439   4.714  12.550  0.3805 -0.9689  0.1364
 1352SOL     OW15514   2.302   1.725   9.148  0.0043  0.2647  0.1824
 1352SOL    HW115515   2.283   1.652   9.207 -1.7287  1.4731  1.1277
 1352SOL    HW215516   2.384   1.691   9.113 -1.1962 -2.7488  0.3391
 1353SOL     OW15517   2.485   3.816   8.293  0.1310 -0.4017 -0.7105
 1353SOL    HW115518   2.395   3.816   8.325 -0.0358  1.9818 -1.1660
 1353SOL    HW215519   2.532   3.750   8.344  0.4617 -0.5214 -1.1649
 1354SOL     OW15520   3.319   3.305   4.057  0.0631 -0.0977  0.6788
 1354SOL    HW115521   3.378   3.237   4.025 -0.0531  1.3821 -2.6961
 1354SOL    HW215522   3.355   3.378   4.007 -2.8407  0.5463 -0.4650
 1355SOL     OW15523   0.064   4.669   4.957 -0.1378  0.6005  0.4639
 1355SOL    HW115524   0.052   0.026   5.010 -0.4253  1.0079 -0.2086
 1355SOL    HW215525   4.708   4.616   4.981 -0.4301  0.2997 -1.1231
 1356SOL     OW15526   3.245   1.679   8.670 -0.3840 -0.1721  0.1503
 1356SOL    HW115527   3.165   1.638   8.704 -1.5586  0.0457 -2.3305
 1356SOL    HW215528   3.292   1.711   8.746 -1.2511  0.2419  0.5059
 1357SOL     OW15529   1.090   1.558  12.130  0.0202  0.2116  0.6126
 1357SOL    HW115530   1.150   1.627  12.101  0.2467 -0.1249  0.2843
 1357SOL    HW215531   1.100   1.546  12.225  0.2366 -0.8239  0.4548
 1358SOL     OW15532   1.406   2.062   7.192  0.2936 -0.2961  0.5862
 1358SOL    HW115533   1.435   2.126   7.257  0.9217  0.4822 -0.4511
 1358SOL    HW215534   1.320   2.089   7.159  1.0884 -0.5424 -1.7014
 1359SOL     OW15535   3.934   2.175   4.227 -0.3123  0.0316 -0.0847
 1359SOL    HW115536   3.919   2.092   4.271 -0.4640 -0.9626 -1.9946
 1359SOL    HW215537   3.947   2.240   4.295  1.4342 -1.8440  1.3705
 1360SOL     OW15538   1.018   2.982   1.712  0.2528 -0.3100 -1.1621
 1360SOL    HW115539   1.103   2.972   1.756 -0.6094  1.6857  0.9436
 1360SOL    HW215540   1.034   3.043   1.641 -1.6659  1.1179 -0.3653
 1361SOL     OW15541   4.571   2.639   7.892  0.0433 -0.5803 -0.4860
 1361SOL    HW115542   4.552   2.555   7.935 -1.4379 -0.2016 -0.4039
 1361SOL    HW215543   4.667   2.633   7.890  0.1101  0.3495  0.0048
 1362SOL     OW15544   4.182   1.592  16.208 -0.1881  0.0018  0.1129
 1362SOL    HW115545   4.174   1.671  16.261  0.1715 -0.3306  0.6687
 1362SOL    HW215546   4.244   1.537  16.256 -0.1062 -0.0207 -0.0197
 1363SOL     OW15547   4.666   2.273   6.984 -0.2174 -0.3865 -0.0563
 1363SOL    HW115548   0.027   2.272   7.034 -1.3131 -2.1416  1.6947
 1363SOL    HW215549   4.665   2.183   6.950  1.1790 -0.1758 -0.6808
 1364SOL     OW15550   2.187   0.546   8.290  0.0064  0.2485  0.3571
 1364SOL    HW115551   2.263   0.605   8.298 -1.2739  2.0701 -0.8516
 1364SOL    HW215552   2.208   0.465   8.336  0.5997  0.3113  0.2051
 1365SOL     OW15553   1.313   0.265   6.619 -0.3505  0.6742  0.1105
 1365SOL    HW115554   1.291   0.172   6.617 -1.8601  1.0516 -0.9173
 1365SOL    HW215555   1.317   0.274   6.714  0.4092 -0.9461  0.2302
 1366SOL     OW15556   1.026   3.581   0.800 -0.0476 -0.8796 -0.4046
 1366SOL    HW115557   1.104   3.594   0.747  1.1837 -1.7196  1.2211
 1366SOL    HW215558   1.038   3.665   0.846 -1.8727  0.5242 -2.5055
 1367SOL     OW15559   1.754   4.199  14.854 -0.0008  0.5919 -0.5709
 1367SOL    HW115560   1.661   4.225  14.852 -0.3834 -0.7397  0.2393
 1367SOL    HW215561   1.798   4.245  14.925 -1.0086 -0.2490  0.6105
 1368SOL     OW15562   2.953   4.596   5.138  0.4762 -0.0090 -0.3044
 1368SOL    HW115563   2.935   4.528   5.073  0.8651 -1.1856  0.8191
 1368SOL    HW215564   2.898   4.671   5.114  1.9366  1.1009 -0.1241
 1369SOL     OW15565   4.484   0.766  14.466 -0.2666  0.5263 -0.1200
 1369SOL    HW115566   4.492   0.746  14.560  0.3785 -0.7784 -0.4618
 1369SOL    HW215567   4.472   0.676  14.435 -1.0146  0.7511 -0.4894
 1370SOL     OW15568   3.516   1.392   6.519 -0.1857 -0.4283 -0.5356
 1370SOL    HW115569   3.587   1.399   6.455  0.2726  0.2252  0.0519
 1370SOL    HW215570   3.440   1.425   6.471  0.1815  1.4053  0.1675
 1371SOL     OW15571   1.420   4.392   6.925  0.4688 -0.1959 -0.2426
 1371SOL    HW115572   1.386   4.479   6.943 -2.5473 -1.7999  1.8538
 1371SOL    HW215573   1.477   4.408   6.849  0.3651 -2.1174 -0.7296
 1372SOL     OW15574   3.203   0.132  17.200  0.3181  0.4253 -0.0074
 1372SOL    HW115575   3.122   0.167  17.235  0.4737  0.2682  0.5090
 1372SOL    HW215576   3.177   0.040  17.195 -0.2060  0.4414  2.3090
 1373SOL     OW15577   1.053   4.531  13.537  0.2604  0.6154 -0.4986
 1373SOL    HW115578   1.094   4.529  13.623  1.1519  0.9961 -0.9081
 1373SOL    HW215579   0.966   4.548  13.573  0.8365  0.1809  1.0661
 1374SOL     OW15580   3.423   0.965   8.653  0.4799  0.0109 -0.2929
 1374SOL    HW115581   3.462   1.033   8.708 -0.9657  0.4699  0.1760
 1374SOL    HW215582   3.506   0.927   8.625  0.9354  1.6349 -1.1519
 1375SOL     OW15583   2.119   4.191   7.307 -0.7552  0.1867 -0.0725
 1375SOL    HW115584   2.090   4.273   7.265  0.0984  0.6140  0.1778
 1375SOL    HW215585   2.044   4.167   7.360  0.1065 -0.9830  0.6025
 1376SOL     OW15586   1.151   4.399  13.303 -0.4774 -0.1053 -0.0415
 1376SOL    HW115587   1.144   4.461  13.375  2.1329 -0.8244  0.8132
 1376SOL    HW215588   1.243   4.406  13.279 -0.1976 -2.7960  0.2158
 1377SOL     OW15589   1.281   4.534  14.922  0.0016  0.3232 -0.2082
 1377SOL    HW115590   1.188   4.552  14.936 -0.2656 -0.3506 -1.1853
 1377SOL    HW215591   1.304   4.584  14.844  1.3087 -0.3462 -0.2489
 1378SOL     OW15592   0.887   2.233   7.861  0.3521 -0.8330 -0.0935
 1378SOL    HW115593   0.875   2.270   7.949  1.7138  0.5940 -0.5234
 1378SOL    HW215594   0.905   2.140   7.877  0.2801 -0.7510  0.4748
 1379SOL     OW15595   1.302   4.098   6.686 -0.7068  0.0847 -0.3561
 1379SOL    HW115596   1.278   4.011   6.717 -0.9629  0.4990  0.5856
 1379SOL    HW215597   1.396   4.093   6.705 -0.6109  0.0510 -0.8408
 1380SOL     OW15598   1.023   3.024   2.034 -0.4904  0.0619  0.2391
 1380SOL    HW115599   1.070   2.967   1.973  0.2344  0.6012  0.3060
 1380SOL    HW215600   1.009   2.970   2.112  1.9636  1.1801  1.4289
 1381SOL     OW15601   1.880   2.553   2.456  0.0977  0.0266  0.3317
 1381SOL    HW115602   1.862   2.460   2.443 -0.3520  0.3126 -1.1362
 1381SOL    HW215603   1.969   2.549   2.489  0.2387  1.3185  0.1205
 1382SOL     OW15604   0.675   1.125   7.720 -0.4179  0.5812  0.4325
 1382SOL    HW115605   0.679   1.145   7.626  0.3369  0.4928  0.4475
 1382SOL    HW215606   0.747   1.063   7.717 -1.4239 -0.6190  1.4031
 1383SOL     OW15607   1.991   0.225   2.811  0.4610 -0.2271  0.0606
 1383SOL    HW115608   2.010   0.199   2.901 -1.0300 -0.3100  0.3534
 1383SOL    HW215609   2.080   0.249   2.789  1.3293 -3.1407  0.3357
 1384SOL     OW15610   2.372   1.589   3.500 -0.8254  0.4942 -0.4038
 1384SOL    HW115611   2.411   1.504   3.519  0.8002  1.3666  0.1219
 1384SOL    HW215612   2.451   1.634   3.471 -0.3536  0.5104  0.9205
 1385SOL     OW15613   2.012   3.381   1.124  0.6237 -0.2487 -0.3730
 1385SOL    HW115614   1.925   3.375   1.162 -0.1130  0.0960 -2.0236
 1385SOL    HW215615   1.995   3.432   1.044 -1.0773 -0.2324  0.0084
 1386SOL     OW15616   1.375   4.423   4.884  0.4219  0.3334 -0.0556
 1386SOL    HW115617   1.334   4.459   4.963 -0.3525  1.5137 -0.9818
 1386SOL    HW215618   1.323   4.459   4.812 -1.1375  2.0055  1.9075
 1387SOL     OW15619   1.666   0.171   4.171 -0.4192  0.0622 -0.1952
 1387SOL    HW115620   1.601   0.101   4.161  1.0415 -1.4371  0.8418
 1387SOL    HW215621   1.610   0.248   4.181 -1.4312 -0.8779  1.4175
 1388SOL     OW15622   0.414   3.599   8.216 -0.1991  0.1070  0.2335
 1388SOL    HW115623   0.351   3.654   8.170 -1.2067 -0.5169  0.8934
 1388SOL    HW215624   0.362   3.519   8.218  0.5527 -0.3663  0.8925
 1389SOL     OW15625   2.764   3.251   2.598 -0.4639  0.2135 -0.0449
 1389SOL    HW115626   2.821   3.204   2.659  0.9570  0.9842 -0.7534
 1389SOL    HW215627   2.803   3.239   2.511  1.2008 -2.0295  1.0219
 1390SOL     OW15628   2.763   1.685  13.571 -0.5887 -0.3912  0.2479
 1390SOL    HW115629   2.813   1.737  13.507  0.4074 -0.0429  1.3017
 1390SOL    HW215630   2.731   1.762  13.618  1.1692 -0.6790  1.8886
 1391SOL     OW15631   0.004   0.785   1.309 -0.4130 -0.5065 -0.2452
 1391SOL    HW115632   0.016   0.868   1.354 -1.1113  0.6493 -2.1712
 1391SOL    HW215633   4.700   0.816   1.221 -0.5171  0.4850  0.1374
 1392SOL     OW15634   4.277   0.405  12.617 -0.6665  0.1787 -0.1609
 1392SOL    HW115635   4.266   0.424  12.710  1.2419 -2.5895  0.6185
 1392SOL    HW215636   4.291   0.497  12.594  0.1299  0.1218  0.1020
 1393SOL     OW15637   1.570   1.355   7.880 -0.2723  0.1204 -0.0698
 1393SOL    HW115638   1.485   1.345   7.922 -0.2324  1.1138  0.2454
 1393SOL    HW215639   1.546   1.344   7.788  1.6782  2.4774 -0.8498
 1394SOL     OW15640   1.552   3.781  16.432  0.1255  0.1527  0.0768
 1394SOL    HW115641   1.481   3.833  16.469 -2.5872 -2.9764 -0.7949
 1394SOL    HW215642   1.526   3.689  16.428 -1.4201  0.5320  1.5614
 1395SOL     OW15643   1.740   3.638   4.941  0.1944 -0.4040  0.0833
 1395SOL    HW115644   1.823   3.591   4.930  0.1342 -0.2668 -0.9471
 1395SOL    HW215645   1.690   3.606   4.866 -0.6717 -1.1298  0.9670
 1396SOL     OW15646   2.488   3.055  16.842 -0.1697  0.4186  0.2623
 1396SOL    HW115647   2.426   2.987  16.868  0.8280 -0.2387  0.9368
 1396SOL    HW215648   2.460   3.132  16.893 -1.7651 -0.6000  0.9209
 1397SOL     OW15649   2.975   3.059   3.757 -0.4493  0.1946 -0.0229
 1397SOL    HW115650   2.952   3.051   3.664 -0.2765  0.2402 -0.0699
 1397SOL    HW215651   3.062   3.021   3.746  1.1865  4.9560 -3.6333
 1398SOL     OW15652   0.390   2.539  13.715  0.3082  0.4407  0.1823
 1398SOL    HW115653   0.321   2.487  13.673 -0.5105  0.6560  1.2553
 1398SOL    HW215654   0.350   2.542  13.802  0.9244 -0.2804  0.4990
 1399SOL     OW15655   4.580   1.642   9.249 -0.1099  0.1608 -0.6558
 1399SOL    HW115656   4.545   1.605   9.168  0.4012 -0.4881 -0.5793
 1399SOL    HW215657   4.504   1.667   9.302 -0.4290 -2.5042  0.1545
 1400SOL     OW15658   1.084   2.172   3.675 -0.4601 -0.5037  0.3439
 1400SOL    HW115659   1.020   2.202   3.740  0.4619 -0.5435  1.2500
 1400SOL    HW215660   1.169   2.183   3.717 -0.0001 -1.0860 -0.4342
 1401SOL     OW15661   2.746   2.106   3.751 -0.0876  0.4264  0.1764
 1401SOL    HW115662   2.830   2.060   3.745  0.4537  1.5212 -0.6669
 1401SOL    HW215663   2.722   2.106   3.659 -0.1047  1.3611  0.1867
 1402SOL     OW15664   1.955   4.696   7.590  0.5099  0.3879 -0.4731
 1402SOL    HW115665   1.905   4.640   7.531 -0.0057 -1.2720  1.5346
 1402SOL    HW215666   1.888   0.043   7.585 -1.2691 -1.3342  0.0638
 1403SOL     OW15667   3.256   0.624   4.854  0.2213 -0.3175  0.0908
 1403SOL    HW115668   3.244   0.645   4.762 -2.3557  0.4608  0.6112
 1403SOL    HW215669   3.348   0.647   4.865  0.4058 -0.5759 -0.9263
 1404SOL     OW15670   1.261   1.348   4.952 -0.0901 -0.3043 -0.1559
 1404SOL    HW115671   1.269   1.395   4.870  1.2140 -1.4765 -0.6833
 1404SOL    HW215672   1.190   1.287   4.930 -0.7746  0.2010  0.6159
 1405SOL     OW15673   3.372   4.370   7.269 -0.2324 -0.0528  0.2613
 1405SOL    HW115674   3.386   4.432   7.198  2.2193 -0.9176 -0.0291
 1405SOL    HW215675   3.388   4.429   7.343 -1.3372 -0.2576  0.6562
 1406SOL     OW15676   0.820   2.055  11.349  0.0244 -0.4169 -0.5509
 1406SOL    HW115677   0.847   2.037  11.258  0.7357  2.7437 -0.9796
 1406SOL    HW215678   0.881   2.003  11.402 -1.9449 -1.4459  0.7050
 1407SOL     OW15679   4.195   3.460   6.252 -0.9008 -0.2477 -0.6045
 1407SOL    HW115680   4.201   3.371   6.287 -1.5101  0.3601  1.0544
 1407SOL    HW215681   4.175   3.504   6.335  0.0702  0.0913 -0.5510
 1408SOL     OW15682   0.243   0.795  12.111 -0.4201 -0.3445  0.0501
 1408SOL    HW115683   0.216   0.884  12.134  2.7412  0.3807  0.9489
 1408SOL    HW215684   0.171   0.738  12.137 -0.7955  0.9644  1.9196
 1409SOL     OW15685   0.461   2.539  14.302 -0.0111 -0.0869 -0.0735
 1409SOL    HW115686   0.516   2.573  14.231 -0.6589 -0.6885 -0.8536
 1409SOL    HW215687   0.376   2.543  14.259  0.3297  0.7138 -0.6904
 1410SOL     OW15688   0.871   4.712   7.006 -0.1946  0.3553  0.0960
 1410SOL    HW115689   0.953   4.716   7.055 -0.2606  0.9632  0.1643
 1410SOL    HW215690   0.823   4.641   7.047  2.1143 -1.5809 -0.5533
 1411SOL     OW15691   3.410   4.144  14.731 -0.0031 -0.1289 -0.2179
 1411SOL    HW115692   3.463   4.105  14.662  0.5805 -0.2195  0.2789
 1411SOL    HW215693   3.478   4.183  14.786 -1.4465  2.9191 -0.5639
 1412SOL     OW15694   1.617   0.876   2.665 -0.2378 -0.7914 -0.5518
 1412SOL    HW115695   1.622   0.781   2.669 -2.3441 -0.9106 -0.7444
 1412SOL    HW215696   1.532   0.884   2.621 -0.4151 -2.2702 -0.4713
 1413SOL     OW15697   3.307   1.812   9.840  0.3335 -0.0434  0.3745
 1413SOL    HW115698   3.394   1.781   9.866  1.5232  1.3918 -1.7987
 1413SOL    HW215699   3.272   1.781   9.923  2.0153 -2.4805  0.1758
 1414SOL     OW15700   1.141   3.775   2.158  0.2225  0.0451 -0.2158
 1414SOL    HW115701   1.200   3.735   2.094 -1.6059 -1.2168 -1.0836
 1414SOL    HW215702   1.093   3.815   2.086 -1.4432 -1.7084 -0.0731
 1415SOL     OW15703   2.843   0.237  16.314  0.0848 -0.0458 -0.3863
 1415SOL    HW115704   2.849   0.178  16.390 -1.6830 -0.9353 -0.9340
 1415SOL    HW215705   2.928   0.280  16.324 -0.3132  0.6824 -0.1177
 1416SOL     OW15706   1.253   0.628   2.515  0.1341 -0.5134  0.2037
 1416SOL    HW115707   1.304   0.547   2.520 -2.8547 -2.4495 -1.0300
 1416SOL    HW215708   1.302   0.684   2.575  1.1492 -0.0178 -1.0746
 1417SOL     OW15709   3.166   4.480   0.446  0.1366 -0.0943  0.5521
 1417SOL    HW115710   3.117   4.514   0.371 -0.9935  1.8980  2.2111
 1417SOL    HW215711   3.235   4.425   0.408  1.8014  1.6263  1.0815
 1418SOL     OW15712   1.837   3.544   2.472  0.3566 -0.4277  0.3261
 1418SOL    HW115713   1.863   3.548   2.379  1.0532  0.3146  0.5531
 1418SOL    HW215714   1.918   3.579   2.508  1.4581 -0.9845 -1.5681
 1419SOL     OW15715   2.458   1.292   4.466 -0.3520  0.7275 -0.2185
 1419SOL    HW115716   2.386   1.319   4.522 -1.8616  0.7455 -2.1554
 1419SOL    HW215717   2.507   1.371   4.443  0.7367 -0.0864 -0.7333
 1420SOL     OW15718   4.381   0.012  10.412 -0.0798  0.2635  0.7150
 1420SOL    HW115719   4.444   0.055  10.470  0.5634  0.1688  0.0885
 1420SOL    HW215720   4.333   4.686  10.480  0.3322 -1.0828  0.0695
 1421SOL     OW15721   1.550   4.180  17.563 -0.3419  0.0030  0.4295
 1421SOL    HW115722   1.572   4.125  17.488 -1.7386 -0.8241  0.6174
 1421SOL    HW215723   1.607   4.256  17.549 -1.4534  0.6367 -0.5994
 1422SOL     OW15724   0.605   3.689   7.314  0.2507  0.0643  0.2970
 1422SOL    HW115725   0.575   3.610   7.360 -1.2779  0.9872  0.8821
 1422SOL    HW215726   0.564   3.752   7.373  1.6939  2.7938 -1.6409
 1423SOL     OW15727   1.598   3.511   1.961  0.1609  0.2716  0.4034
 1423SOL    HW115728   1.621   3.436   2.015 -2.1783 -1.2141 -0.6695
 1423SOL    HW215729   1.678   3.563   1.965 -0.0567  0.5618  1.0082
 1424SOL     OW15730   0.877   1.963   5.035 -0.3466  0.1353  0.2809
 1424SOL    HW115731   0.926   1.882   5.049  0.0348  0.5808  1.4839
 1424SOL    HW215732   0.829   1.974   5.117 -3.3343 -1.7575 -1.2196
 1425SOL     OW15733   2.604   0.870   4.099  0.0679  0.5258 -0.0864
 1425SOL    HW115734   2.557   0.948   4.128  2.1780  1.4980  0.7144
 1425SOL    HW215735   2.556   0.809   4.155 -0.7077  1.6910  0.5117
 1426SOL     OW15736   2.511   0.393   6.689 -0.1727  0.0737 -0.1199
 1426SOL    HW115737   2.588   0.448   6.704 -1.1960  1.4778 -0.1013
 1426SOL    HW215738   2.485   0.422   6.602  1.4358 -0.1820 -0.6947
 1427SOL     OW15739   2.187   2.515   4.915  0.5103  0.4940 -0.0504
 1427SOL    HW115740   2.131   2.586   4.885  3.3029  2.4801 -0.6041
 1427SOL    HW215741   2.131   2.479   4.983  4.1255 -1.5805  1.7788
 1428SOL     OW15742   2.068   0.905   7.201  0.2707 -0.2643 -0.6437
 1428SOL    HW115743   2.146   0.955   7.180 -0.6869  1.4255 -0.1760
 1428SOL    HW215744   2.112   0.820   7.205 -0.3868 -0.6815 -2.0238
 1429SOL     OW15745   2.527   1.012   6.807  0.1564  0.3621 -0.1793
 1429SOL    HW115746   2.502   1.104   6.798  0.3036  0.4517  0.3082
 1429SOL    HW215747   2.597   1.008   6.741  0.1338  2.4459 -0.3358
 1430SOL     OW15748   3.197   1.633   7.332  0.3606 -0.1620 -0.5585
 1430SOL    HW115749   3.115   1.617   7.285  0.2933 -0.0251 -0.4863
 1430SOL    HW215750   3.197   1.728   7.344  0.8689 -0.5520  2.6506
 1431SOL     OW15751   2.806   0.272   5.441 -0.2233 -0.0486  0.2595
 1431SOL    HW115752   2.881   0.296   5.386  0.4968  0.3081  1.3867
 1431SOL    HW215753   2.780   0.359   5.474  1.7129  0.5723  0.1537
 1432SOL     OW15754   0.152   3.716   7.680 -0.5233 -0.0506 -0.0705
 1432SOL    HW115755   0.157   3.809   7.656  0.1924 -0.5843 -1.9942
 1432SOL    HW215756   0.245   3.692   7.689 -0.8348 -1.1266  0.1730
 1433SOL     OW15757   1.028   0.705  11.014 -0.5803  0.1572 -0.4334
 1433SOL    HW115758   1.036   0.800  11.003 -0.8585  0.3012  0.5415
 1433SOL    HW215759   1.049   0.673  10.927 -0.2594  2.4354 -1.1763
 1434SOL     OW15760   1.869   4.615   3.863  0.0799 -0.1813  0.2231
 1434SOL    HW115761   1.857   4.705   3.832  0.2661  0.1045  0.9878
 1434SOL    HW215762   1.925   4.573   3.798  0.6029 -1.3789  1.4505
 1435SOL     OW15763   0.300   2.785   3.805  0.1093 -0.3195  0.6213
 1435SOL    HW115764   0.275   2.859   3.859  1.4501  0.7580 -0.2484
 1435SOL    HW215765   0.215   2.743   3.792  0.2500 -0.6900  0.9079
 1436SOL     OW15766   3.848   1.552   1.012  0.3972 -0.3470 -0.5881
 1436SOL    HW115767   3.877   1.461   1.024  0.4008 -0.1204  1.1036
 1436SOL    HW215768   3.777   1.553   0.947  0.0200 -3.3078 -0.2291
 1437SOL     OW15769   1.401   2.278  16.842  0.0829 -0.1967  0.4422
 1437SOL    HW115770   1.410   2.281  16.937 -1.2514  2.5590  0.4878
 1437SOL    HW215771   1.307   2.269  16.829  0.3050 -1.9335  0.0360
 1438SOL     OW15772   3.136   1.921  17.002  0.1418  0.0815 -0.6771
 1438SOL    HW115773   3.088   1.865  17.062 -0.2686  1.8010  0.5865
 1438SOL    HW215774   3.076   1.995  16.993  0.8017  1.1964  4.1144
 1439SOL     OW15775   0.091   0.420   7.961  0.2325  0.4486  0.0723
 1439SOL    HW115776   0.172   0.467   7.939 -1.2619  1.8170 -2.4438
 1439SOL    HW215777   0.126   0.386   8.044 -2.2538  0.0046  0.9305
 1440SOL     OW15778   2.827   0.941   5.641  0.6074  0.6397 -0.2858
 1440SOL    HW115779   2.797   0.865   5.590  2.6434 -0.7595  0.5726
 1440SOL    HW215780   2.748   0.993   5.629  0.6158  1.2125  2.1301
 1441SOL     OW15781   4.015   4.566  12.269 -0.2921 -0.0736 -0.2607
 1441SOL    HW115782   3.989   4.645  12.316 -0.9568 -0.5658  0.1869
 1441SOL    HW215783   3.990   4.493  12.325 -1.4626 -0.5898 -1.4287
 1442SOL     OW15784   1.288   0.163   5.460 -0.2327 -0.1977  0.1735
 1442SOL    HW115785   1.339   0.118   5.527  0.8314  0.8697  0.0999
 1442SOL    HW215786   1.242   0.090   5.418  1.0632  0.2228 -1.9888
 1443SOL     OW15787   0.431   3.581  17.473 -0.3948 -0.4021 -0.0678
 1443SOL    HW115788   0.402   3.658  17.521 -1.4900  0.0752 -1.4984
 1443SOL    HW215789   0.346   3.538  17.461  0.8713 -2.4998 -1.3989
 1444SOL     OW15790   0.334   1.679   8.158 -0.4400 -0.8402  0.1461
 1444SOL    HW115791   0.370   1.766   8.142  0.1934 -1.3067 -0.9935
 1444SOL    HW215792   0.254   1.704   8.205  1.9603  2.1443  2.6903
 1445SOL     OW15793   2.229   0.700   0.551 -0.6451 -0.2007  0.3889
 1445SOL    HW115794   2.310   0.649   0.551 -0.7406 -0.3531  0.5952
 1445SOL    HW215795   2.171   0.628   0.528 -0.3114 -0.7462  1.2446
 1446SOL     OW15796   3.056   0.984   5.436  0.7188 -0.6337  0.3150
 1446SOL    HW115797   2.978   0.944   5.475 -1.3195  2.0293 -1.0511
 1446SOL    HW215798   3.091   1.030   5.512  0.8117 -1.7540  0.9450
 1447SOL     OW15799   3.079   1.109   9.526 -0.0504  0.6219  0.2773
 1447SOL    HW115800   3.062   1.017   9.506 -1.9979  1.3366 -1.3982
 1447SOL    HW215801   3.129   1.089   9.605  0.1903 -0.9015 -0.2676
 1448SOL     OW15802   3.797   3.621   3.958 -0.3228 -0.6863 -0.0758
 1448SOL    HW115803   3.768   3.700   3.912  0.5853  1.0599  2.3022
 1448SOL    HW215804   3.889   3.611   3.934 -0.3403 -3.2971  0.9220
 1449SOL     OW15805   1.928   2.920  12.854 -0.4601 -0.3070 -0.7375
 1449SOL    HW115806   1.986   2.956  12.786  0.7689  1.2420  1.1173
 1449SOL    HW215807   1.847   2.956  12.820 -0.2808  0.7093 -0.0766
 1450SOL     OW15808   2.802   1.655   6.574 -0.2656  0.0856  0.3805
 1450SOL    HW115809   2.739   1.680   6.506  0.5360 -2.2184 -1.1980
 1450SOL    HW215810   2.808   1.734   6.628  0.5864 -0.5681  1.2514
 1451SOL     OW15811   0.564   3.093   7.797  0.1245  0.2261 -0.3360
 1451SOL    HW115812   0.593   3.014   7.842  0.0447  0.2205 -0.2940
 1451SOL    HW215813   0.622   3.152   7.844  0.7840 -0.2595 -0.5441
 1452SOL     OW15814   1.697   4.502  15.194  0.1640  0.4914 -0.1240
 1452SOL    HW115815   1.768   4.478  15.134 -0.0360 -0.0286 -0.1573
 1452SOL    HW215816   1.631   4.530  15.132  0.1639  1.0653  0.1387
 1453SOL     OW15817   3.563   0.095   4.537 -0.6949  0.4661 -0.5308
 1453SOL    HW115818   3.593   0.162   4.475  0.4789  0.2201 -0.2364
 1453SOL    HW215819   3.492   0.058   4.484 -2.6123  1.0779  1.6344
 1454SOL     OW15820   1.378   0.919   0.170  0.7563  0.0544  0.0533
 1454SOL    HW115821   1.325   0.927   0.090  0.9577  0.3156 -0.0570
 1454SOL    HW215822   1.459   0.969   0.155  2.3700 -1.9753  2.0553
 1455SOL     OW15823   0.601   0.108  15.494  0.3151  0.1829  0.4824
 1455SOL    HW115824   0.636   0.182  15.446  0.1782 -0.2159 -0.2271
 1455SOL    HW215825   0.522   0.086  15.445  2.8428 -2.4010 -2.4360
 1456SOL     OW15826   0.176   3.219   4.085  0.1912 -0.2312 -0.2143
 1456SOL    HW115827   0.162   3.313   4.074  1.7306  0.0694  0.4910
 1456SOL    HW215828   0.110   3.197   4.151 -0.1728 -1.3666 -0.9549
 1457SOL     OW15829   0.062   0.096  16.089  0.2397 -0.1402 -0.3093
 1457SOL    HW115830   0.146   0.050  16.085  0.1867 -0.3175  0.6654
 1457SOL    HW215831   0.090   0.166  16.030  3.6503  0.9882  2.6509
 1458SOL     OW15832   2.417   3.285   4.852  0.4924 -0.2987  0.5924
 1458SOL    HW115833   2.410   3.266   4.946  2.3839  0.9530  1.0071
 1458SOL    HW215834   2.506   3.257   4.831 -0.1086 -1.1466 -0.7952
 1459SOL     OW15835   0.812   3.124  13.852  0.5299 -0.4674 -0.0846
 1459SOL    HW115836   0.852   3.058  13.909  1.3461 -0.1494 -0.2932
 1459SOL    HW215837   0.779   3.189  13.914 -1.4716 -0.3650 -1.2658
 1460SOL     OW15838   0.409   4.073  12.597  0.0431 -0.9407  0.7034
 1460SOL    HW115839   0.481   4.059  12.536  0.5045  1.2690  0.7383
 1460SOL    HW215840   0.455   4.115  12.670  1.2697 -1.4365  0.2204
 1461SOL     OW15841   2.945   0.385  10.619  0.3702 -0.6064  0.0010
 1461SOL    HW115842   2.966   0.388  10.712 -2.4282 -0.2058  0.6249
 1461SOL    HW215843   2.996   0.458  10.583 -2.7394  0.8831 -1.4020
 1462SOL     OW15844   0.645   3.258   3.250  0.1581 -0.0195 -0.1447
 1462SOL    HW115845   0.666   3.179   3.201 -1.6364 -1.6956  1.8072
 1462SOL    HW215846   0.573   3.304   3.207  1.4694  3.0474  0.9058
 1463SOL     OW15847   0.518   0.807   5.214  0.1036  0.0873  0.1728
 1463SOL    HW115848   0.449   0.740   5.216  1.8364 -1.6736  0.9382
 1463SOL    HW215849   0.572   0.773   5.285 -0.8596  0.3276  1.0241
 1464SOL     OW15850   0.738   4.688  12.577  0.2236 -0.3345 -0.0515
 1464SOL    HW115851   0.723   4.604  12.532 -0.1967 -0.5664  0.5197
 1464SOL    HW215852   0.803   4.659  12.641 -0.1892 -2.3889 -0.5614
 1465SOL     OW15853   4.468   3.824   8.648 -0.4200 -0.2983 -0.2683
 1465SOL    HW115854   4.504   3.874   8.575 -0.7721 -1.0483 -0.9532
 1465SOL    HW215855   4.385   3.791   8.614 -1.0761 -1.1083  2.0507
 1466SOL     OW15856   1.449   4.693   5.608 -0.2545 -0.1093 -0.0462
 1466SOL    HW115857   1.509   4.708   5.681  0.1923  3.0603 -1.0529
 1466SOL    HW215858   1.517   4.662   5.547 -0.6775 -2.2217  0.5462
 1467SOL     OW15859   0.225   0.761   4.318  0.4833  0.3531 -0.2638
 1467SOL    HW115860   0.301   0.814   4.343  1.2521 -0.5412 -0.7369
 1467SOL    HW215861   0.189   0.729   4.401 -1.4136  1.6497 -0.5845
 1468SOL     OW15862   2.126   3.577   2.449  0.0854  0.7672 -0.4819
 1468SOL    HW115863   2.221   3.585   2.447  0.0409  1.0027 -2.2241
 1468SOL    HW215864   2.114   3.489   2.412 -4.7437  0.8963  0.8027
 1469SOL     OW15865   0.501   2.054   6.248  0.0562 -0.4917  0.1705
 1469SOL    HW115866   0.486   2.110   6.325 -1.1044 -1.2299  0.4915
 1469SOL    HW215867   0.445   2.094   6.181 -0.3608 -3.4637 -1.2525
 1470SOL     OW15868   1.149   3.589   7.739 -0.0547 -0.4162 -0.2423
 1470SOL    HW115869   1.074   3.531   7.725 -0.2809 -0.7811  2.5513
 1470SOL    HW215870   1.123   3.669   7.692 -0.1995 -0.6179 -0.5009
 1471SOL     OW15871   3.998   0.292   2.919 -0.0735  0.0134  0.1884
 1471SOL    HW115872   4.081   0.328   2.952  0.4394 -1.7678  0.8486
 1471SOL    HW215873   4.032   0.206   2.893 -0.1325  1.2396 -3.9522
 1472SOL     OW15874   2.729   1.960   6.375  0.2778  0.1677 -0.5294
 1472SOL    HW115875   2.640   1.924   6.383 -0.5155  1.6838 -2.4237
 1472SOL    HW215876   2.734   1.963   6.279 -1.6728 -0.6720 -0.6689
 1473SOL     OW15877   4.419   0.050   0.304 -0.0133  0.4915  0.0892
 1473SOL    HW115878   4.464   0.051   0.389 -0.3898 -0.8355  0.2925
 1473SOL    HW215879   4.403   4.678   0.289  0.8307  0.6010 -1.4609
 1474SOL     OW15880   4.007   0.629   6.742  0.0290  0.2391 -1.0109
 1474SOL    HW115881   4.016   0.556   6.681  0.2289  0.4587 -1.2437
 1474SOL    HW215882   3.959   0.591   6.816  2.1214  0.9162  0.7064
 1475SOL     OW15883   4.173   1.225   0.951  0.4038 -0.2768 -0.4916
 1475SOL    HW115884   4.243   1.275   0.910 -0.8593  3.1900  1.5926
 1475SOL    HW215885   4.165   1.142   0.904 -0.2527 -0.9593  0.8040
 1476SOL     OW15886   3.909   0.647   0.906  0.7697 -0.1670 -0.8542
 1476SOL    HW115887   3.979   0.610   0.851  3.2219  0.4582  1.8255
 1476SOL    HW215888   3.834   0.633   0.848  1.0000  0.7911 -1.3859
 1477SOL     OW15889   2.109   2.476  12.419  0.3566  0.5618 -0.1211
 1477SOL    HW115890   2.099   2.490  12.325  2.6518  2.3799 -0.0921
 1477SOL    HW215891   2.045   2.406  12.432  2.8177 -1.7324 -0.4148
 1478SOL     OW15892   4.425   3.891   6.398 -0.2874 -0.4842 -0.5384
 1478SOL    HW115893   4.382   3.939   6.469  1.4094 -0.7306  0.6727
 1478SOL    HW215894   4.459   3.821   6.454  1.9273  1.8962  1.0997
 1479SOL     OW15895   0.713   2.361  17.419 -0.3998  0.0870 -0.0610
 1479SOL    HW115896   0.617   2.362  17.423 -0.3989 -0.5018  0.1142
 1479SOL    HW215897   0.723   2.336  17.327 -0.3386 -0.4568  0.0928
 1480SOL     OW15898   4.456   3.197  10.720  0.2768  0.0057  0.0197
 1480SOL    HW115899   4.522   3.128  10.723 -0.2501 -0.4634  0.9527
 1480SOL    HW215900   4.479   3.244  10.801  2.2995  0.3341 -0.7553
 1481SOL     OW15901   3.054   0.848  16.406 -0.4505  0.6429  0.5646
 1481SOL    HW115902   3.020   0.930  16.441  0.0471  0.2759  1.8994
 1481SOL    HW215903   2.974   0.801  16.382  0.9443 -1.8427  0.8066
 1482SOL     OW15904   2.283   0.192   7.195 -0.8737  0.5396 -0.2337
 1482SOL    HW115905   2.313   0.156   7.278 -0.2489  0.1771 -0.6115
 1482SOL    HW215906   2.356   0.195   7.133 -0.7407  0.4978 -0.0777
 1483SOL     OW15907   2.405   1.268  11.940  0.8654  0.7646  0.0047
 1483SOL    HW115908   2.490   1.269  11.984  0.0527  2.6219  1.5316
 1483SOL    HW215909   2.355   1.311  12.010  2.7701 -1.1529  2.5480
 1484SOL     OW15910   0.986   1.036   7.843  0.7830 -0.3310  0.3039
 1484SOL    HW115911   1.081   1.025   7.841  0.6559 -1.3548 -0.1977
 1484SOL    HW215912   0.975   1.031   7.938  3.3711  0.2734  0.6277
 1485SOL     OW15913   3.613   4.409   5.014  0.0309 -0.0083 -0.6067
 1485SOL    HW115914   3.580   4.481   4.960 -0.0435  0.2606 -0.2041
 1485SOL    HW215915   3.551   4.402   5.087 -1.0768  0.3395 -1.5018
 1486SOL     OW15916   4.486   1.155  15.825 -0.4334 -0.1233 -0.2476
 1486SOL    HW115917   4.510   1.165  15.917 -0.8133 -0.0251 -0.1603
 1486SOL    HW215918   4.422   1.225  15.815  1.4224  1.5402 -0.4822
 1487SOL     OW15919   3.276   0.414   5.554  0.9065  0.4083  0.2194
 1487SOL    HW115920   3.297   0.357   5.481  1.2847 -1.0422  1.4557
 1487SOL    HW215921   3.186   0.388   5.571  0.2306  2.3074 -0.4664
 1488SOL     OW15922   1.836   4.158   4.622 -0.1019  0.0258  0.5370
 1488SOL    HW115923   1.762   4.104   4.647 -1.6641  1.2255 -1.4617
 1488SOL    HW215924   1.907   4.095   4.635 -0.1736 -0.0007  0.7926
 1489SOL     OW15925   3.512   4.065   5.376 -0.2631 -0.2869 -0.3472
 1489SOL    HW115926   3.477   3.976   5.373 -1.1266  0.0357  0.1842
 1489SOL    HW215927   3.527   4.077   5.470  1.2814 -1.3434 -0.4627
 1490SOL     OW15928   4.318   0.972  14.907 -0.6908 -0.0770 -0.1717
 1490SOL    HW115929   4.295   0.947  14.817  2.2787 -0.5005 -0.8128
 1490SOL    HW215930   4.303   0.888  14.951  0.2484 -1.9846 -3.4826
 1491SOL     OW15931   0.066   3.294   9.365 -0.4969  0.5899 -0.3561
 1491SOL    HW115932   0.044   3.378   9.405 -1.1781  0.2046  0.0670
 1491SOL    HW215933   0.102   3.319   9.280 -0.1934 -0.1099 -0.4318
 1492SOL     OW15934   3.688   1.433   6.769 -0.3001  0.5098 -0.2560
 1492SOL    HW115935   3.689   1.338   6.776 -1.8849  0.5822  1.0676
 1492SOL    HW215936   3.651   1.447   6.682 -1.2467 -0.8872 -0.0736
 1493SOL     OW15937   2.018   1.317  12.559  0.0668 -0.2571  0.1861
 1493SOL    HW115938   2.038   1.311  12.653  3.8693  0.6623 -0.5657
 1493SOL    HW215939   1.928   1.286  12.550  1.1398 -3.4995  0.5929
 1494SOL     OW15940   3.219   3.651   3.430  0.0019 -0.1500  0.3193
 1494SOL    HW115941   3.190   3.742   3.442  0.1538  0.3092 -2.8739
 1494SOL    HW215942   3.237   3.638   3.337 -0.4629 -1.4951  0.4185
 1495SOL     OW15943   0.313   4.333  14.855  0.2223  0.1764 -0.0427
 1495SOL    HW115944   0.223   4.326  14.888  0.8188 -1.0254  1.3365
 1495SOL    HW215945   0.339   4.422  14.879 -0.8799  0.2555  0.8676
 1496SOL     OW15946   4.105   1.992   2.354  0.0707 -0.5836 -0.1898
 1496SOL    HW115947   4.146   2.028   2.432 -0.9698 -4.2864  2.0690
 1496SOL    HW215948   4.076   2.066   2.301 -0.1659  1.0697  2.2712
 1497SOL     OW15949   2.435   1.032  10.023  0.0521  0.2126 -0.3688
 1497SOL    HW115950   2.490   1.104  10.055  1.2930 -1.5478  1.3908
 1497SOL    HW215951   2.491   0.966  10.062  0.1645 -0.0894 -1.0447
 1498SOL     OW15952   3.737   0.425   2.320 -0.6817  0.3868 -0.2735
 1498SOL    HW115953   3.752   0.519   2.328  0.1124 -0.1476  4.3090
 1498SOL    HW215954   3.831   0.406   2.324 -0.5357  1.5035  1.5599
 1499SOL     OW15955   3.944   3.388   8.537  0.6071  0.6498  0.0836
 1499SOL    HW115956   4.017   3.434   8.578 -0.6481  1.8000  1.0538
 1499SOL    HW215957   3.991   3.344   8.466 -0.8934 -1.7145  0.5440
 1500SOL     OW15958   3.588   2.072   7.981 -0.2307 -0.0007 -0.2956
 1500SOL    HW115959   3.523   2.119   8.033  1.1236  0.9070  0.6033
 1500SOL    HW215960   3.659   2.136   7.982  0.6204 -0.9217 -2.5049
 1501SOL     OW15961   2.185   1.995  11.742  0.4975  0.0014  0.2912
 1501SOL    HW115962   2.126   2.002  11.818 -0.6028  0.0725 -0.5723
 1501SOL    HW215963   2.131   2.049  11.684 -1.7781 -1.1787  1.2966
 1502SOL     OW15964   2.776   0.491   9.822  0.2154  0.0775  0.1300
 1502SOL    HW115965   2.824   0.540   9.889  1.3504 -0.8771  0.0160
 1502SOL    HW215966   2.683   0.506   9.838 -0.2685 -2.2323 -0.5426
 1503SOL     OW15967   0.366   1.859   2.255  0.4457  0.2763 -1.0014
 1503SOL    HW115968   0.457   1.850   2.285  0.7776  2.0752 -1.4564
 1503SOL    HW215969   0.362   1.940   2.205  0.6943  0.5100 -0.6455
 1504SOL     OW15970   0.459   4.297   1.015  0.4193  0.6957 -0.4033
 1504SOL    HW115971   0.548   4.323   0.991  1.0224 -1.8201 -0.9358
 1504SOL    HW215972   0.488   4.207   1.032 -0.7698  0.0052 -1.9969
 1505SOL     OW15973   0.159   4.237   7.924  0.2653 -0.1843 -0.5149
 1505SOL    HW115974   0.130   4.185   7.849 -1.1065 -0.7436  0.3807
 1505SOL    HW215975   0.147   4.322   7.883 -1.9810  0.3289  1.1201
 1506SOL     OW15976   2.947   2.135   7.454  0.1250 -0.4247  0.1161
 1506SOL    HW115977   3.031   2.098   7.483  1.4537  1.3272 -1.5001
 1506SOL    HW215978   2.958   2.226   7.485  0.6476 -1.1229  2.0144
 1507SOL     OW15979   1.659   0.175  15.418  0.1663  0.1504  0.2234
 1507SOL    HW115980   1.617   0.089  15.414  0.9826 -0.1815 -1.2120
 1507SOL    HW215981   1.682   0.180  15.325  0.0475  2.1436  0.3020
 1508SOL     OW15982   4.087   4.125  14.888 -0.1829 -0.0829 -0.1270
 1508SOL    HW115983   4.065   4.198  14.830 -0.8813  0.2094  0.4963
 1508SOL    HW215984   4.177   4.118  14.857 -0.4900 -1.2902 -0.7401
 1509SOL     OW15985   0.379   2.180   2.909  0.5768 -0.3533 -0.1908
 1509SOL    HW115986   0.318   2.212   2.842  0.5639  0.8325  0.3850
 1509SOL    HW215987   0.367   2.086   2.895 -1.9569  0.0701 -0.8130
 1510SOL     OW15988   3.845   1.568   7.289  0.3200 -0.4642 -0.0926
 1510SOL    HW115989   3.819   1.567   7.197  2.5014 -2.6174 -0.6878
 1510SOL    HW215990   3.762   1.592   7.329 -0.5830 -0.0762 -2.2070
 1511SOL     OW15991   2.678   0.289   8.103 -1.0483  0.2712 -0.1530
 1511SOL    HW115992   2.681   0.342   8.023  0.1837  0.4630  0.0230
 1511SOL    HW215993   2.591   0.250   8.106 -0.4948 -0.7867  1.9181
 1512SOL     OW15994   3.812   3.836   5.365 -0.3081  0.2814  0.2312
 1512SOL    HW115995   3.782   3.915   5.409  1.2342 -0.7750  3.1228
 1512SOL    HW215996   3.780   3.769   5.425 -1.9147  0.7095 -0.1534
 1513SOL     OW15997   1.066   1.875   3.416 -0.2907  0.8214  0.3420
 1513SOL    HW115998   1.080   1.949   3.357 -0.0205  1.3276  1.0358
 1513SOL    HW215999   1.149   1.845   3.452 -0.3891 -1.7291 -1.5832
 1514SOL     OW16000   1.249   2.122   1.894  0.4188 -0.0892  0.4378
 1514SOL    HW116001   1.173   2.178   1.910  0.6127  0.1131  0.6549
 1514SOL    HW216002   1.276   2.160   1.810 -0.0321 -0.9239 -0.0961
 1515SOL     OW16003   2.230   2.217   6.966  0.4364  0.1121  0.6921
 1515SOL    HW116004   2.202   2.250   6.881  0.7638  1.4707  1.1004
 1515SOL    HW216005   2.146   2.193   7.005  0.1827  0.1823  0.1781
 1516SOL     OW16006   4.051   1.327   4.186  0.0523 -0.0195 -0.1248
 1516SOL    HW116007   4.010   1.346   4.102 -1.4852  0.0200  0.6461
 1516SOL    HW216008   4.071   1.235   4.169  2.8164  0.6769 -0.6403
 1517SOL     OW16009   0.368   3.339   6.630  0.5738  0.3020  0.0552
 1517SOL    HW116010   0.434   3.276   6.599  2.6205  1.3783  2.2239
 1517SOL    HW216011   0.419   3.419   6.620 -0.9631  1.3769  0.8401
 1518SOL     OW16012   4.400   4.080   4.865  0.0928  0.0498 -0.2122
 1518SOL    HW116013   4.353   4.163   4.857  0.1251  0.2792  1.9761
 1518SOL    HW216014   4.332   4.016   4.847 -1.7019  1.6935  0.7825
 1519SOL     OW16015   1.826   3.149   5.270  0.3914  0.5184 -0.4545
 1519SOL    HW116016   1.755   3.089   5.293 -0.4067  1.8580  0.5830
 1519SOL    HW216017   1.795   3.230   5.229  0.4063 -0.5017 -2.4726
 1520SOL     OW16018   2.702   3.670  15.101 -0.1867  0.4780  0.6911
 1520SOL    HW116019   2.609   3.654  15.084  0.2324  0.2935 -1.4087
 1520SOL    HW216020   2.730   3.597  15.156 -2.3533 -0.0890  1.0439
 1521SOL     OW16021   4.550   4.631   5.994 -0.1266 -0.4567  0.0909
 1521SOL    HW116022   4.627   4.670   5.953  0.6112 -1.1343  0.8301
 1521SOL    HW216023   4.499   4.606   5.917  1.0090 -1.1145 -0.4330
 1522SOL     OW16024   2.673   3.423   0.965 -1.1558  0.2487 -0.4562
 1522SOL    HW116025   2.592   3.467   0.942 -1.3399  0.5119  0.6913
 1522SOL    HW216026   2.678   3.360   0.893 -1.0467  0.4728 -0.6445
 1523SOL     OW16027   4.041   0.193   2.061 -0.8261 -0.0828  0.2811
 1523SOL    HW116028   4.028   0.243   2.142  1.6070 -0.5781  0.9773
 1523SOL    HW216029   4.132   0.171   2.078 -0.3941 -0.6865 -2.7952
 1524SOL     OW16030   4.388   4.648  11.858 -0.1446  0.5194 -0.2852
 1524SOL    HW116031   4.314   4.684  11.906 -0.4991  0.0618 -0.4884
 1524SOL    HW216032   4.393   4.696  11.775  0.7307  0.7271 -0.1177
 1525SOL     OW16033   4.692   4.472  10.313  0.0173 -0.2387  0.0001
 1525SOL    HW116034   4.679   4.501  10.403  2.7334  1.2843 -0.1041
 1525SOL    HW216035   0.059   4.502  10.293 -0.2853  2.2614  2.3991
 1526SOL     OW16036   3.221   4.061   7.538 -0.1978  0.1486  0.0077
 1526SOL    HW116037   3.253   3.992   7.596 -1.4996  0.1108  0.6745
 1526SOL    HW216038   3.232   4.024   7.451  0.0692  0.8373 -0.2495
 1527SOL     OW16039   2.097   3.853   7.835  0.4642  0.3444 -0.3344
 1527SOL    HW116040   2.030   3.811   7.888  2.1728 -0.6165  1.0531
 1527SOL    HW216041   2.032   3.904   7.787 -1.7603 -1.2751  0.9490
 1528SOL     OW16042   1.020   0.973   8.098  0.1366  0.4154  0.2527
 1528SOL    HW116043   1.020   0.877   8.102 -0.8062  0.5922  3.7323
 1528SOL    HW216044   1.100   0.992   8.146  0.2353 -0.3490  0.3998
 1529SOL     OW16045   2.115   4.369   2.942  0.6903 -0.3077 -0.1916
 1529SOL    HW116046   2.151   4.393   3.027 -2.7784 -0.7149  1.3749
 1529SOL    HW216047   2.094   4.278   2.961  0.6174  0.1816  2.0449
 1530SOL     OW16048   4.498   0.255   2.925 -0.2165 -0.5539 -0.6714
 1530SOL    HW116049   4.499   0.196   2.850 -1.6606 -0.2633 -0.9128
 1530SOL    HW216050   4.530   0.201   2.997  1.8076  1.7457  0.1679
 1531SOL     OW16051   3.095   1.099   6.130 -0.2189 -0.0806 -0.6132
 1531SOL    HW116052   3.083   1.004   6.127  0.8889 -0.2967  1.9155
 1531SOL    HW216053   3.144   1.107   6.211 -0.4007  1.5482 -0.6702
 1532SOL     OW16054   2.696   2.445  16.751  0.7638  0.6229  0.4808
 1532SOL    HW116055   2.790   2.462  16.737  1.1766 -1.4069  0.7989
 1532SOL    HW216056   2.686   2.462  16.844  0.7755 -0.5695  0.6964
 1533SOL     OW16057   4.691   4.655   2.468  0.3145 -0.1960  0.2007
 1533SOL    HW116058   0.013   4.623   2.389 -1.3899  1.4876 -1.4067
 1533SOL    HW216059   0.027   4.620   2.536  1.0802  1.7001  0.5252
 1534SOL     OW16060   3.425   0.285   8.027 -0.1536  0.1303  0.6465
 1534SOL    HW116061   3.381   0.301   7.944  0.6041  1.7377  0.5645
 1534SOL    HW216062   3.488   0.219   7.996 -0.5763 -0.0385  0.1530
 1535SOL     OW16063   0.963   1.949   8.718 -0.1750 -0.4283 -0.3537
 1535SOL    HW116064   0.966   1.871   8.774  0.9183  0.4179  0.7641
 1535SOL    HW216065   0.913   2.013   8.768  0.4910 -1.8346  2.0879
 1536SOL     OW16066   3.296   4.122  11.002 -0.9381 -0.4881 -0.5463
 1536SOL    HW116067   3.375   4.109  10.949 -0.0054 -0.1580  0.7408
 1536SOL    HW216068   3.309   4.204  11.050  1.8982 -0.8067 -0.7337
 1537SOL     OW16069   2.710   4.049  10.628  0.4527  0.3216  0.0613
 1537SOL    HW116070   2.652   4.090  10.565 -0.1865  0.1858  0.5627
 1537SOL    HW216071   2.676   3.960  10.640  1.9585 -0.1578  0.8781
 1538SOL     OW16072   2.035   4.070   2.622  0.1062  0.3762  0.1129
 1538SOL    HW116073   2.126   4.082   2.593 -0.3311  2.5043 -0.4019
 1538SOL    HW216074   1.994   4.147   2.582  1.7311  1.7402  1.1045
 1539SOL     OW16075   1.435   2.655   5.619  0.0867 -0.0402 -0.5644
 1539SOL    HW116076   1.465   2.615   5.701 -0.8994 -0.3263 -0.3431
 1539SOL    HW216077   1.369   2.714   5.655 -0.4607 -0.6118 -0.6183
 1540SOL     OW16078   3.052   1.852   6.316  0.3141 -0.4100  0.0921
 1540SOL    HW116079   3.045   1.943   6.344  0.0038  0.6978 -3.4785
 1540SOL    HW216080   3.078   1.800   6.392  1.3696 -0.8524 -0.5709
 1541SOL     OW16081   2.760   4.190   2.887 -0.2058  0.6848 -0.1053
 1541SOL    HW116082   2.696   4.259   2.868 -2.8957 -1.9787 -0.7869
 1541SOL    HW216083   2.791   4.163   2.801  2.0651 -0.0697  0.9344
 1542SOL     OW16084   1.992   2.615  14.522 -0.0463 -0.2549 -0.2324
 1542SOL    HW116085   2.061   2.614  14.456 -0.0751 -0.0210 -0.2685
 1542SOL    HW216086   2.037   2.656  14.596  0.9230  1.1546 -1.5840
 1543SOL     OW16087   3.853   2.951  11.135  0.5816  0.2503 -0.7573
 1543SOL    HW116088   3.905   2.874  11.157 -0.8688 -0.6736 -0.5412
 1543SOL    HW216089   3.769   2.906  11.121  0.1548  0.9756 -0.5143
 1544SOL     OW16090   2.425   3.033  12.061 -0.2917  0.1040  0.5718
 1544SOL    HW116091   2.337   3.029  12.024  0.3253 -2.1133 -0.6172
 1544SOL    HW216092   2.457   2.946  12.040  1.1867  0.7702  0.0300
 1545SOL     OW16093   2.732   1.670   7.331 -0.3523 -0.4075  0.3619
 1545SOL    HW116094   2.689   1.700   7.251  1.0435  1.1756  0.1890
 1545SOL    HW216095   2.746   1.751   7.379  0.8008 -1.1911  1.3754
 1546SOL     OW16096   3.891   2.277   1.881  0.1774  0.1247  0.8920
 1546SOL    HW116097   3.868   2.272   1.789 -0.0534  0.3023  0.9423
 1546SOL    HW216098   3.823   2.219   1.915  1.0567 -0.2926  1.9781
 1547SOL     OW16099   1.027   1.233   1.998  0.4146  0.5033  0.1941
 1547SOL    HW116100   1.005   1.143   2.021  0.4346  0.4230 -0.1091
 1547SOL    HW216101   1.046   1.266   2.086  0.5129 -1.6569  0.9697
 1548SOL     OW16102   1.826   4.198   9.413  0.1544  0.1872  0.4315
 1548SOL    HW116103   1.731   4.208   9.411  0.3439  1.5168 -2.0740
 1548SOL    HW216104   1.829   4.104   9.427  0.9630  0.5342  2.6634
 1549SOL     OW16105   2.982   2.391  13.058  0.3005 -0.0393  0.2081
 1549SOL    HW116106   3.059   2.444  13.036  1.6638 -1.4892  1.5108
 1549SOL    HW216107   3.005   2.354  13.143  0.9170  0.2588  0.1713
 1550SOL     OW16108   0.406   1.959  14.223  0.2833 -0.3995 -0.5295
 1550SOL    HW116109   0.338   1.943  14.288  2.5919 -0.3733  1.8778
 1550SOL    HW216110   0.475   1.997  14.277  0.4026  0.5724 -1.3513
 1551SOL     OW16111   3.748   4.286   2.597  0.4391  0.1289 -0.1673
 1551SOL    HW116112   3.724   4.334   2.517  0.9061  0.3768 -0.1613
 1551SOL    HW216113   3.688   4.212   2.603 -0.3635  0.6406 -1.8597
 1552SOL     OW16114   4.140   2.391  13.983  0.5346  0.8895  0.0523
 1552SOL    HW116115   4.176   2.426  13.902 -1.1654  0.2790 -0.9393
 1552SOL    HW216116   4.178   2.447  14.052  2.1522 -0.1534  0.0182
 1553SOL     OW16117   0.099   3.465   2.290  0.1685 -0.0641 -0.4845
 1553SOL    HW116118   0.043   3.455   2.367  0.4338  2.2970  0.0014
 1553SOL    HW216119   0.084   3.389   2.233 -0.1740 -0.6837  0.4156
 1554SOL     OW16120   2.170   0.279  14.907  0.4712 -0.0067 -0.0805
 1554SOL    HW116121   2.239   0.214  14.927  1.4246  0.2429 -2.6036
 1554SOL    HW216122   2.219   0.334  14.846 -1.3426  1.8240  0.1290
 1555SOL     OW16123   2.066   2.049  15.172 -0.3128  0.5539  0.0324
 1555SOL    HW116124   2.104   2.058  15.084 -1.1865 -0.9245 -0.5001
 1555SOL    HW216125   2.043   1.956  15.166  0.6712  0.3980 -1.3335
 1556SOL     OW16126   3.502   3.962  10.254 -0.0292 -0.0860 -0.3397
 1556SOL    HW116127   3.547   3.881  10.280 -1.9698 -1.6234 -1.7803
 1556SOL    HW216128   3.437   3.964  10.323  1.0690 -0.5192  0.7160
 1557SOL     OW16129   1.747   3.340   1.237  0.0899 -0.2041 -0.1922
 1557SOL    HW116130   1.683   3.281   1.197 -0.9891  0.8953 -0.0754
 1557SOL    HW216131   1.778   3.283   1.307  1.2091  0.8295  0.1548
 1558SOL     OW16132   3.962   2.263  13.047 -0.1941  0.1024 -0.0463
 1558SOL    HW116133   3.967   2.259  13.142  1.3888 -3.3906 -0.2675
 1558SOL    HW216134   3.968   2.357  13.031  0.8752  0.2521  1.1980
 1559SOL     OW16135   3.547   4.560  11.105 -0.1454 -0.0367  0.7921
 1559SOL    HW116136   3.634   4.530  11.134  0.1049  0.1945  0.2694
 1559SOL    HW216137   3.559   4.569  11.011 -1.1407 -0.8185  0.6008
 1560SOL     OW16138   1.363   0.799   3.989 -0.1310 -0.9308 -0.1302
 1560SOL    HW116139   1.349   0.891   4.011  1.9834 -0.4511 -0.7578
 1560SOL    HW216140   1.370   0.811   3.894  1.2080 -0.3950  0.0297
 1561SOL     OW16141   0.786   2.816  12.514 -0.5901  0.2306 -0.2602
 1561SOL    HW116142   0.839   2.860  12.580  1.3942 -1.1449 -0.9555
 1561SOL    HW216143   0.734   2.757  12.568  1.1952  0.6818  1.9269
 1562SOL     OW16144   1.164   0.359  11.156  0.1232 -0.0737 -0.1862
 1562SOL    HW116145   1.120   0.431  11.111 -0.8932 -0.2707  0.5026
 1562SOL    HW216146   1.233   0.411  11.196 -1.8372  0.9962  1.8015
 1563SOL     OW16147   2.107   1.301   0.272 -0.6358  0.1967  0.0660
 1563SOL    HW116148   2.201   1.285   0.275 -0.8619 -1.4854 -2.1151
 1563SOL    HW216149   2.092   1.248   0.350  3.8765 -2.3191 -0.7906
 1564SOL     OW16150   3.516   0.085   6.161  0.1995 -0.3951 -0.3110
 1564SOL    HW116151   3.440   0.061   6.214 -1.0345  0.6231 -1.6188
 1564SOL    HW216152   3.518   0.180   6.175 -1.5107 -0.1323 -1.7462
 1565SOL     OW16153   3.061   3.994  16.669 -0.1689 -0.1943  0.7299
 1565SOL    HW116154   3.059   4.054  16.594  0.0571 -1.3577 -0.2247
 1565SOL    HW216155   3.022   3.912  16.639 -0.9399  0.0573  1.0432
 1566SOL     OW16156   0.257   2.478   6.083  0.6388 -0.5455 -0.3835
 1566SOL    HW116157   0.276   2.567   6.112  0.4676 -0.6888  0.1685
 1566SOL    HW216158   0.232   2.496   5.993 -1.4068 -0.3155  0.2213
 1567SOL     OW16159   0.469   0.546   3.199  0.4944 -0.4361 -0.6554
 1567SOL    HW116160   0.434   0.600   3.271  0.6504 -0.8043 -0.3044
 1567SOL    HW216161   0.544   0.517   3.251 -0.5266  1.2374  1.7899
 1568SOL     OW16162   4.713   4.645   5.585  0.4118 -0.0650 -0.2694
 1568SOL    HW116163   4.670   0.007   5.562 -1.3814 -1.5622 -2.2442
 1568SOL    HW216164   4.685   4.640   5.677  2.2051  0.5169  0.3097
 1569SOL     OW16165   1.638   3.976   8.005  0.2812 -0.2557 -0.1010
 1569SOL    HW116166   1.545   3.998   8.011  0.4611 -0.1535  2.2033
 1569SOL    HW216167   1.671   4.017   8.085  0.3582 -1.5546  0.5382
 1570SOL     OW16168   2.236   1.648  12.840  0.1290 -0.6696 -0.5142
 1570SOL    HW116169   2.277   1.623  12.923 -1.7825 -2.1243  0.0002
 1570SOL    HW216170   2.254   1.740  12.824 -1.7970  0.1002  1.8298
 1571SOL     OW16171   3.656   2.667  13.532 -0.7558 -0.2735 -0.3621
 1571SOL    HW116172   3.692   2.727  13.597 -0.1891  1.8067 -2.6077
 1571SOL    HW216173   3.594   2.721  13.484 -1.7779  0.0223  1.2901
 1572SOL     OW16174   4.455   0.220   1.363 -0.6435 -0.2384 -0.3557
 1572SOL    HW116175   4.527   0.262   1.316  0.8997 -1.3152  1.0401
 1572SOL    HW216176   4.448   0.138   1.313  1.1126  0.2762 -1.4354
 1573SOL     OW16177   4.562   1.033   5.281 -0.3792  0.0147  0.4633
 1573SOL    HW116178   4.525   1.093   5.216 -0.0025  1.1183  1.2710
 1573SOL    HW216179   4.645   1.007   5.240 -0.6914 -0.6498  0.2623
 1574SOL     OW16180   3.141   4.094   6.035  0.1890 -0.1775  0.3735
 1574SOL    HW116181   3.221   4.124   5.992 -0.0322  1.5731  1.1485
 1574SOL    HW216182   3.083   4.106   5.961  1.3350  2.1220 -0.1508
 1575SOL     OW16183   0.264   3.034   5.736  0.2559  0.3702  0.4032
 1575SOL    HW116184   0.181   3.079   5.752  0.7643  1.1388  0.8614
 1575SOL    HW216185   0.326   3.092   5.693 -0.9609  1.8565  0.6763
 1576SOL     OW16186   3.702   2.615  13.144  0.0943 -0.0017  0.0896
 1576SOL    HW116187   3.617   2.660  13.148 -0.5963 -1.4807  1.8039
 1576SOL    HW216188   3.725   2.615  13.237  2.2591  0.5818 -0.4366
 1577SOL     OW16189   4.414   2.890  11.442  0.5403  0.2120  0.0267
 1577SOL    HW116190   4.320   2.900  11.427  0.6504  0.8892 -0.1927
 1577SOL    HW216191   4.418   2.794  11.451  0.1532  0.3983  2.2225
 1578SOL     OW16192   1.340   1.759   8.466 -0.3979  0.8552  0.6063
 1578SOL    HW116193   1.276   1.785   8.532  1.1070  1.0729  1.9811
 1578SOL    HW216194   1.398   1.835   8.465  2.1074 -1.0255  1.1103
 1579SOL     OW16195   0.214   2.586   3.605 -0.6184 -0.4493  0.0407
 1579SOL    HW116196   0.137   2.606   3.659 -0.2944  1.0955 -0.0672
 1579SOL    HW216197   0.203   2.625   3.519  2.0491  1.1035  0.4070
 1580SOL     OW16198   2.991   0.800   3.519 -0.1659  0.8096 -0.5854
 1580SOL    HW116199   2.897   0.813   3.532 -0.5608 -3.1629  0.5520
 1580SOL    HW216200   2.992   0.717   3.471 -0.9925  0.3233  0.2278
 1581SOL     OW16201   2.561   4.679   5.055  0.0347 -0.3558  0.1213
 1581SOL    HW116202   2.508   4.611   5.096  3.8197 -2.6094  1.2257
 1581SOL    HW216203   2.618   4.709   5.125 -0.5500  2.3850 -0.5629
 1582SOL     OW16204   3.313   3.839   6.577  0.3356  0.2223 -0.3686
 1582SOL    HW116205   3.348   3.867   6.492  2.0827 -3.7451 -0.9640
 1582SOL    HW216206   3.281   3.752   6.551 -0.3551  0.3082  0.1892
 1583SOL     OW16207   4.529   0.860   5.765 -0.2373 -0.3237  0.8222
 1583SOL    HW116208   4.433   0.853   5.769 -0.2906 -1.2746 -2.0823
 1583SOL    HW216209   4.549   0.893   5.678  2.1149 -0.1185  1.4468
 1584SOL     OW16210   1.222   2.782   9.021 -0.3300 -0.2868  0.0464
 1584SOL    HW116211   1.214   2.722   9.095  1.2812  2.8957  2.7696
 1584SOL    HW216212   1.242   2.720   8.951 -1.4288  0.6563 -1.1288
 1585SOL     OW16213   0.321   3.896   5.711 -0.1173  0.1220 -0.4864
 1585SOL    HW116214   0.268   3.819   5.730 -1.0120  0.9508  0.3621
 1585SOL    HW216215   0.261   3.956   5.756 -1.4944 -3.1325  1.9453
 1586SOL     OW16216   2.824   3.546   6.768  0.3432 -0.1049  0.6843
 1586SOL    HW116217   2.809   3.579   6.679  0.2305  1.3950  1.2658
 1586SOL    HW216218   2.739   3.507   6.790  0.0448  0.2153  0.0931
 1587SOL     OW16219   0.685   4.713   8.059 -0.0507 -0.6328  0.1116
 1587SOL    HW116220   0.658   4.624   8.035  2.9460 -1.8257  1.1628
 1587SOL    HW216221   0.596   0.024   8.070  0.7889  1.3468  1.1033
 1588SOL     OW16222   3.067   1.594   7.864 -0.4916 -0.0337  0.9054
 1588SOL    HW116223   3.112   1.674   7.838  1.9664 -1.1630  1.7460
 1588SOL    HW216224   3.002   1.619   7.930 -0.8004 -1.2048  1.0511
 1589SOL     OW16225   2.586   1.314   7.214 -0.3240  0.7540  0.0088
 1589SOL    HW116226   2.626   1.388   7.168  2.5918 -1.1975 -0.5751
 1589SOL    HW216227   2.596   1.245   7.149  0.6949  2.7161 -1.9186
 1590SOL     OW16228   2.458   1.528   8.833  0.3505 -0.1975  0.5197
 1590SOL    HW116229   2.441   1.528   8.927 -2.8534  0.9702 -0.0519
 1590SOL    HW216230   2.413   1.610   8.811  0.0481 -0.2957  0.7790
 1591SOL     OW16231   3.262   1.486   4.141 -0.2698  0.2331 -0.0420
 1591SOL    HW116232   3.217   1.419   4.089  0.1861 -2.0786  2.5512
 1591SOL    HW216233   3.290   1.548   4.073 -1.2101  1.3000  0.5412
 1592SOL     OW16234   0.754   4.194   4.979  0.3504  0.6001 -0.5581
 1592SOL    HW116235   0.760   4.153   5.065 -1.3813  2.2973  0.3631
 1592SOL    HW216236   0.735   4.114   4.930  1.5823 -0.6027  0.9165
 1593SOL     OW16237   2.144   1.698   4.250  0.1643  0.2783  0.0277
 1593SOL    HW116238   2.072   1.694   4.188 -0.1271 -1.0113  0.4561
 1593SOL    HW216239   2.093   1.704   4.330 -2.2359 -1.6000 -1.3818
 1594SOL     OW16240   1.186   3.356   1.683 -0.4172 -0.0550 -0.2359
 1594SOL    HW116241   1.142   3.410   1.749 -1.8794  1.8009 -2.7362
 1594SOL    HW216242   1.277   3.384   1.691 -0.6533  0.4842  0.5096
 1595SOL     OW16243   2.967   2.743   8.894  0.3034  0.0504 -0.3512
 1595SOL    HW116244   2.943   2.651   8.884 -0.0710  0.0859  0.2844
 1595SOL    HW216245   2.880   2.778   8.878 -0.1190  0.2460  2.4493
 1596SOL     OW16246   0.523   3.206   0.076  0.1606 -0.3300  0.0976
 1596SOL    HW116247   0.562   3.162   0.151  1.4474  1.2808  0.3807
 1596SOL    HW216248   0.529   3.298   0.102 -3.1964  0.1144 -0.6428
 1597SOL     OW16249   0.446   1.806   6.157  0.5518  0.4509 -0.0614
 1597SOL    HW116250   0.360   1.835   6.128  0.2720  0.2711  0.5797
 1597SOL    HW216251   0.478   1.882   6.204 -1.8051  1.0129  0.6024
 1598SOL     OW16252   2.061   1.468  16.607 -0.2867 -0.2574  0.1513
 1598SOL    HW116253   2.115   1.394  16.579 -0.6784 -0.6792  0.5037
 1598SOL    HW216254   2.013   1.436  16.683 -2.5544  1.3142 -0.6327
 1599SOL     OW16255   4.716   1.476   7.659  0.2877 -0.1635 -0.4015
 1599SOL    HW116256   0.026   1.485   7.569  0.1937 -1.4209 -0.5709
 1599SOL    HW216257   4.691   1.567   7.670  2.4619  0.4657 -0.6937
 1600SOL     OW16258   1.691   4.611   6.415  0.0793  0.3057  0.0878
 1600SOL    HW116259   1.627   4.667   6.371  1.3901  0.5133 -1.5140
 1600SOL    HW216260   1.763   4.610   6.353  1.3196  3.5657  1.4771
 1601SOL     OW16261   4.561   1.832   6.117  0.2540  0.6294 -0.2730
 1601SOL    HW116262   4.480   1.807   6.073 -0.3679  1.0525  0.6306
 1601SOL    HW216263   4.522   1.884   6.188 -0.4918 -2.5294  1.6508
 1602SOL     OW16264   0.531   2.398   6.073 -0.3354 -0.0154  0.1527
 1602SOL    HW116265   0.554   2.332   6.139 -1.7178 -1.0295 -0.3676
 1602SOL    HW216266   0.438   2.416   6.090 -0.0731  1.1197  0.3334
 1603SOL     OW16267   4.566   2.055   7.155  0.4299  0.3945 -0.5473
 1603SOL    HW116268   4.621   1.978   7.143 -2.4495 -1.4480 -2.0258
 1603SOL    HW216269   4.625   2.113   7.202  0.2235  0.2526 -0.1177
 1604SOL     OW16270   0.568   3.058  17.524  0.3937  0.6255  0.1763
 1604SOL    HW116271   0.550   3.081  17.615 -0.9630 -1.7765  0.5111
 1604SOL    HW216272   0.579   3.141  17.478  2.8017 -0.5983 -1.5065
 1605SOL     OW16273   1.288   3.024   8.931  0.3490 -0.1900 -0.1936
 1605SOL    HW116274   1.197   3.030   8.958  0.2117  1.5578 -1.0604
 1605SOL    HW216275   1.299   2.933   8.959 -0.2395 -0.4770 -0.9113
 1606SOL     OW16276   1.273   1.859  12.382  0.6543  0.1510  0.3965
 1606SOL    HW116277   1.357   1.815  12.375  0.3125 -0.1675 -1.6536
 1606SOL    HW216278   1.252   1.846  12.475 -2.1208 -0.2770 -0.2871
 1607SOL     OW16279   1.524   3.719   6.727  0.0759  0.6237  0.1738
 1607SOL    HW116280   1.516   3.802   6.773 -0.5259  0.2010  0.8269
 1607SOL    HW216281   1.604   3.681   6.765 -0.1023 -0.2438 -0.3106
 1608SOL     OW16282   2.298   4.671   1.672 -0.1968 -0.1358 -0.0411
 1608SOL    HW116283   2.274   0.018   1.609  1.3116 -0.0836 -0.5520
 1608SOL    HW216284   2.393   4.671   1.675 -0.0242 -2.9629 -5.2942
 1609SOL     OW16285   1.910   3.249   0.807  0.4190  0.6592  0.2360
 1609SOL    HW116286   1.954   3.185   0.751 -2.9534 -2.3328  1.0701
 1609SOL    HW216287   1.818   3.227   0.800  0.7693 -0.9441  0.6273
 1610SOL     OW16288   1.931   1.472   7.328 -0.6199  0.2172 -0.2377
 1610SOL    HW116289   1.997   1.455   7.396 -0.4393  0.3870 -0.3684
 1610SOL    HW216290   1.871   1.399   7.337 -1.6642  0.9915 -0.9748
 1611SOL     OW16291   2.341   3.942   7.890 -0.1427  0.0636  0.5927
 1611SOL    HW116292   2.252   3.916   7.866  0.4467 -1.5056  0.1465
 1611SOL    HW216293   2.318   4.002   7.960 -2.5297 -1.4536  1.1150
 1612SOL     OW16294   4.533   1.455   8.037  0.1210  0.0535 -0.2309
 1612SOL    HW116295   4.461   1.512   8.064  1.2651  1.3250  0.0979
 1612SOL    HW216296   4.502   1.422   7.952  1.5391  1.5402 -1.3451
 1613SOL     OW16297   0.907   3.037  17.208 -0.1440  0.1417 -0.8948
 1613SOL    HW116298   0.973   2.971  17.230 -0.3464  1.7393  4.4146
 1613SOL    HW216299   0.971   3.093  17.164  0.8404  0.3376  0.7669
 1614SOL     OW16300   0.471   2.794  17.444  0.4172 -0.0025 -0.3809
 1614SOL    HW116301   0.550   2.789  17.390 -0.1793  0.4517 -1.2969
 1614SOL    HW216302   0.472   2.888  17.460 -1.2425 -0.3863  2.0013
 1615SOL     OW16303   3.178   1.938   0.239  0.3481  0.4234  0.5200
 1615SOL    HW116304   3.247   1.927   0.305  0.9796  1.9293  0.1232
 1615SOL    HW216305   3.191   1.855   0.193 -1.5057  0.4026  0.0415
 1616SOL     OW16306   2.618   4.206  13.454  0.5252 -0.0878 -0.4009
 1616SOL    HW116307   2.604   4.296  13.484  2.9710  0.3498 -0.6166
 1616SOL    HW216308   2.540   4.189  13.400  0.8896 -0.0335 -0.9417
 1617SOL     OW16309   4.580   2.673  12.014 -0.4752  0.5195  0.1890
 1617SOL    HW116310   4.550   2.712  11.932 -0.6950  1.7231  0.8270
 1617SOL    HW216311   4.583   2.583  11.984 -1.4699  0.7064 -0.4847
 1618SOL     OW16312   0.165   3.509   4.068 -0.0124  0.1675  0.2436
 1618SOL    HW116313   0.229   3.512   3.996  0.0151 -0.5622  0.2413
 1618SOL    HW216314   0.228   3.554   4.125  2.4943  0.3367 -2.5990
 1619SOL     OW16315   0.741   2.310   2.396 -0.3270 -0.4635  0.7674
 1619SOL    HW116316   0.833   2.335   2.405 -0.2347 -0.7445  0.6108
 1619SOL    HW216317   0.719   2.296   2.488 -0.6815  2.0305  1.0539
 1620SOL     OW16318   1.607   3.492   8.610 -0.0127 -0.2555 -0.3119
 1620SOL    HW116319   1.572   3.574   8.576 -1.4565  0.2283  2.3551
 1620SOL    HW216320   1.542   3.468   8.676  0.9893 -2.2425 -0.0405
 1621SOL     OW16321   1.380   4.188   2.474  0.1924  0.1685  0.2609
 1621SOL    HW116322   1.285   4.182   2.488  0.2266 -0.0736  0.3801
 1621SOL    HW216323   1.387   4.219   2.384  1.2948  0.4379  0.4422
 1622SOL     OW16324   2.948   2.009  14.187  0.0944 -0.2176  0.0463
 1622SOL    HW116325   2.942   1.916  14.162 -0.6039 -0.2212  0.2414
 1622SOL    HW216326   2.874   2.045  14.138 -1.0538  2.5554  3.8987
 1623SOL     OW16327   0.801   1.851   8.487 -0.3579 -0.1200 -0.3752
 1623SOL    HW116328   0.828   1.769   8.528 -0.8382 -1.3495 -2.5357
 1623SOL    HW216329   0.814   1.913   8.559 -2.4220 -0.3132  0.1734
 1624SOL     OW16330   2.489   1.214   3.251  0.0411  0.3317  0.2796
 1624SOL    HW116331   2.467   1.176   3.336 -1.9515  1.9986  0.5066
 1624SOL    HW216332   2.445   1.153   3.193 -0.4332  2.5810 -1.7286
 1625SOL     OW16333   2.242   3.619   7.835  0.1972 -0.0270 -0.2546
 1625SOL    HW116334   2.171   3.559   7.861 -0.6468  0.9127 -0.3809
 1625SOL    HW216335   2.206   3.707   7.841 -0.7168 -0.5311  1.5361
 1626SOL     OW16336   3.367   1.408   7.841  0.2336 -0.2101 -0.3493
 1626SOL    HW116337   3.447   1.376   7.881  0.0119 -1.0409 -0.5818
 1626SOL    HW216338   3.387   1.502   7.844  1.1702 -0.4163 -0.3295
 1627SOL     OW16339   2.759   4.230   9.035 -0.2622 -0.3115  0.5222
 1627SOL    HW116340   2.743   4.321   9.059 -1.5211 -0.3868 -0.0105
 1627SOL    HW216341   2.720   4.223   8.947  0.3481  0.1930  0.2132
 1628SOL     OW16342   3.957   3.099   5.491 -0.5226  0.5504  0.1303
 1628SOL    HW116343   4.001   3.073   5.409  1.9801 -1.2700  2.0406
 1628SOL    HW216344   4.023   3.164   5.517 -0.1671 -0.1469  0.9693
 1629SOL     OW16345   0.713   1.628  13.160  0.7096 -0.1324 -0.0620
 1629SOL    HW116346   0.625   1.604  13.189 -0.2665  0.8117 -2.3074
 1629SOL    HW216347   0.746   1.650  13.247 -0.3755 -0.1227  0.3514
 1630SOL     OW16348   0.117   1.536   2.415  0.2165 -0.0591  0.3155
 1630SOL    HW116349   0.067   1.542   2.334 -1.2004  0.4128  1.2125
 1630SOL    HW216350   0.069   1.589   2.479  0.6370  0.0752  0.5205
 1631SOL     OW16351   4.179   1.527   4.586  0.2591 -0.6189  0.7503
 1631SOL    HW116352   4.252   1.503   4.643  1.0674 -0.3836 -0.1756
 1631SOL    HW216353   4.205   1.474   4.510  3.4127  0.9165  0.7744
 1632SOL     OW16354   2.771   4.051   0.191 -0.0919  0.1219 -0.7530
 1632SOL    HW116355   2.693   4.018   0.235  0.2994 -1.6683 -1.4213
 1632SOL    HW216356   2.767   3.999   0.110  2.9253 -1.0233 -0.1923
 1633SOL     OW16357   3.780   2.895  12.541  0.8295 -0.0880 -0.0911
 1633SOL    HW116358   3.738   2.953  12.477  1.1655  0.3945  0.1257
 1633SOL    HW216359   3.861   2.879  12.492 -1.2444 -1.4678 -3.0261
 1634SOL     OW16360   0.185   1.940  12.267  0.1796 -0.1056 -0.2700
 1634SOL    HW116361   0.250   2.009  12.270 -1.4417  1.4588 -0.9366
 1634SOL    HW216362   0.202   1.907  12.179  0.9876 -1.0837  0.2532
 1635SOL     OW16363   0.574   0.653   6.330 -0.8552 -0.3516  0.0306
 1635SOL    HW116364   0.582   0.558   6.324 -2.1456 -0.5385  1.3132
 1635SOL    HW216365   0.640   0.681   6.266 -1.9522 -0.2555 -1.0765
 1636SOL     OW16366   1.902   3.113   5.524  0.6036  0.3230 -0.4527
 1636SOL    HW116367   1.982   3.149   5.563  0.2161 -0.7983  1.3469
 1636SOL    HW216368   1.921   3.147   5.436  0.5757  0.3375 -0.4530
 1637SOL     OW16369   4.490   1.241   5.123  0.1102 -0.0074  0.3588
 1637SOL    HW116370   4.484   1.311   5.189  1.2114 -0.1857  0.6445
 1637SOL    HW216371   4.488   1.267   5.031 -0.7964  2.8090  1.1770
 1638SOL     OW16372   1.839   3.816   4.026 -0.2036 -0.0435 -0.1099
 1638SOL    HW116373   1.826   3.776   3.941 -1.7996 -0.9472  0.5588
 1638SOL    HW216374   1.750   3.818   4.062 -0.6759 -0.8626 -1.2762
 1639SOL     OW16375   3.601   0.053   0.228 -0.0377  0.2049 -0.2445
 1639SOL    HW116376   3.660   0.126   0.246  1.6194 -1.7500  2.0991
 1639SOL    HW216377   3.659   4.703   0.203  2.3256  1.7586  0.9072
 1640SOL     OW16378   4.358   2.603   1.263 -0.0984 -0.2059 -0.2321
 1640SOL    HW116379   4.300   2.547   1.211  0.3512  0.0533 -1.0267
 1640SOL    HW216380   4.426   2.545   1.298 -1.3937  0.2503  3.0098
 1641SOL     OW16381   0.068   2.685   3.318 -0.0789 -0.2447 -0.5395
 1641SOL    HW116382   0.103   2.672   3.229  2.1906  0.6671  0.2136
 1641SOL    HW216383   0.092   2.776   3.339 -0.5815 -0.0179 -0.9435
 1642SOL     OW16384   0.181   1.868  14.364 -0.0423 -0.1761  0.3842
 1642SOL    HW116385   0.088   1.885  14.351  0.1649  0.2797 -0.4703
 1642SOL    HW216386   0.169   1.774  14.347 -0.5817 -0.5941  2.9692
 1643SOL     OW16387   2.948   1.212  10.622 -0.6148  0.1199  0.1026
 1643SOL    HW116388   2.868   1.265  10.625 -1.4245 -1.2358  2.0964
 1643SOL    HW216389   2.978   1.245  10.707 -0.6107  1.1498 -0.2963
 1644SOL     OW16390   2.974   4.716   7.253  0.4768  0.0306  0.3970
 1644SOL    HW116391   2.916   4.676   7.318 -1.7570  1.4414 -0.7142
 1644SOL    HW216392   3.023   0.058   7.306 -0.3938  1.0821 -0.0494
 1645SOL     OW16393   3.737   1.017   6.821  0.4557 -0.0686  0.1542
 1645SOL    HW116394   3.741   0.982   6.910  0.4866  1.1104  0.6229
 1645SOL    HW216395   3.675   1.086   6.842 -0.4884 -0.8623 -0.0622
 1646SOL     OW16396   3.051   2.754   8.023  0.4692 -0.4866 -0.8276
 1646SOL    HW116397   3.080   2.785   8.109 -0.8745  1.5753 -1.1263
 1646SOL    HW216398   2.962   2.788   8.031  0.4924 -0.7328  0.4693
 1647SOL     OW16399   0.393   2.791  11.606  0.0731 -0.3381  0.1981
 1647SOL    HW116400   0.415   2.728  11.674  0.4438  0.3511  0.7150
 1647SOL    HW216401   0.330   2.740  11.556  0.4386 -2.2275  1.6865
 1648SOL     OW16402   2.556   3.071   4.218 -0.0254 -0.7070  0.1779
 1648SOL    HW116403   2.642   3.112   4.210  0.0716 -0.4799  2.2451
 1648SOL    HW216404   2.522   3.076   4.129  0.1858 -0.4148  0.1139
 1649SOL     OW16405   2.391   2.070   6.201 -0.2566 -0.6254  0.3978
 1649SOL    HW116406   2.436   2.064   6.117 -0.2078 -1.0719  0.4561
 1649SOL    HW216407   2.320   2.009   6.182 -0.3774 -0.3714  0.0507
 1650SOL     OW16408   0.392   2.399  10.404 -0.1882  0.0656 -0.6178
 1650SOL    HW116409   0.318   2.391  10.344 -0.7157 -1.2714  0.1908
 1650SOL    HW216410   0.398   2.490  10.431 -1.2723  0.2135 -0.8598
 1651SOL     OW16411   2.568   4.143   3.727  0.5600  0.1303 -0.5786
 1651SOL    HW116412   2.523   4.140   3.812  0.6671 -0.0637 -0.5266
 1651SOL    HW216413   2.495   4.116   3.671  0.2275 -0.6424  0.2113
 1652SOL     OW16414   1.324   2.330   2.222  0.6028 -0.0028  0.4307
 1652SOL    HW116415   1.411   2.292   2.214  1.3557  1.5669  1.0606
 1652SOL    HW216416   1.349   2.406   2.275 -0.8578 -0.4841  1.8241
 1653SOL     OW16417   2.718   2.215   7.707 -0.3381 -0.0351  0.6045
 1653SOL    HW116418   2.749   2.124   7.707 -2.7674 -0.8716  1.2448
 1653SOL    HW216419   2.742   2.246   7.620 -3.3987  1.3953  0.2812
 1654SOL     OW16420   3.340   3.400   8.628 -0.0462  0.3418  0.7716
 1654SOL    HW116421   3.327   3.370   8.538  2.5521 -1.0315  0.8321
 1654SOL    HW216422   3.249   3.399   8.657 -0.3201 -0.6302 -0.0925
 1655SOL     OW16423   2.224   3.335   3.029 -0.4763 -0.2171  0.3319
 1655SOL    HW116424   2.208   3.312   2.937  0.2842 -1.5777  0.5473
 1655SOL    HW216425   2.139   3.309   3.064  0.0224 -0.7661  1.1244
 1656SOL     OW16426   2.043   2.365   1.550 -0.3097  0.2980 -0.0998
 1656SOL    HW116427   1.979   2.422   1.509 -2.1567 -1.0667  0.8805
 1656SOL    HW216428   2.118   2.423   1.533  1.6925 -2.1547  0.2640
 1657SOL     OW16429   4.380   4.361   5.556  0.0648 -0.3705 -0.0111
 1657SOL    HW116430   4.294   4.323   5.537 -0.9178  1.0043  1.7667
 1657SOL    HW216431   4.435   4.349   5.478  0.2094 -1.9608  0.3325
 1658SOL     OW16432   2.497   3.564   8.720 -0.1384 -0.0854 -0.4954
 1658SOL    HW116433   2.556   3.503   8.765 -1.0053 -0.4255  0.1839
 1658SOL    HW216434   2.423   3.550   8.779  0.3671  0.5616  0.2914
 1659SOL     OW16435   3.950   1.108   9.230 -0.0388 -0.0601  0.5202
 1659SOL    HW116436   4.040   1.087   9.252  0.2085 -0.4238 -0.8421
 1659SOL    HW216437   3.922   1.023   9.197  1.1963  0.0125 -0.6727
 1660SOL     OW16438   1.061   2.733   1.100  0.3842 -0.4200  0.5519
 1660SOL    HW116439   1.142   2.739   1.049 -1.5091  1.0672 -2.2926
 1660SOL    HW216440   1.026   2.822   1.101  2.8395  0.5166  2.5779
 1661SOL     OW16441   3.012   1.894  10.964 -0.1943  0.4208 -0.1315
 1661SOL    HW116442   3.064   1.949  11.023 -1.0825  0.9670  0.1333
 1661SOL    HW216443   3.037   1.945  10.887  2.6521 -0.3063  0.3013
 1662SOL     OW16444   4.611   4.045   1.390 -0.1909 -0.8623  0.0632
 1662SOL    HW116445   4.533   4.018   1.438 -0.4011  1.0617  0.7935
 1662SOL    HW216446   4.661   4.081   1.463  1.6226  0.6162 -1.8614
 1663SOL     OW16447   3.181   0.753  16.954 -0.5171 -0.5925 -0.4042
 1663SOL    HW116448   3.211   0.805  17.028 -0.5142 -1.9428  0.5414
 1663SOL    HW216449   3.191   0.825  16.891  0.8944 -0.7891 -0.3958
 1664SOL     OW16450   3.358   0.873   5.878  0.2953 -0.1167  0.6728
 1664SOL    HW116451   3.440   0.859   5.830  0.5732  0.2435  1.0432
 1664SOL    HW216452   3.392   0.913   5.958  3.0272  0.7158 -0.8970
 1665SOL     OW16453   4.616   4.524  17.611 -0.1937 -0.3273 -0.2418
 1665SOL    HW116454   4.539   4.470  17.629  0.1724 -0.3400  1.3382
 1665SOL    HW216455   4.678   4.473  17.664 -0.0313 -0.6785 -0.7736
 1666SOL     OW16456   2.236   2.969   3.454 -0.3531  0.0321  0.5886
 1666SOL    HW116457   2.172   3.032   3.422  1.3077  1.5050  0.1576
 1666SOL    HW216458   2.317   3.016   3.437 -0.3569  0.2972  1.2795
 1667SOL     OW16459   0.184   3.928  10.826  0.4662 -0.0756  0.2197
 1667SOL    HW116460   0.274   3.953  10.848 -0.0990  2.5344 -0.3951
 1667SOL    HW216461   0.138   4.010  10.841  0.2055 -0.3288  0.7847
 1668SOL     OW16462   4.531   2.756   8.993 -0.3307 -0.1796  0.7202
 1668SOL    HW116463   4.544   2.851   9.001  3.2886 -0.5770 -0.3669
 1668SOL    HW216464   4.551   2.726   9.082  2.8930 -1.8675 -0.5646
 1669SOL     OW16465   2.708   0.571   6.757 -0.7643 -0.0417  0.4172
 1669SOL    HW116466   2.691   0.615   6.840  1.3790 -1.1681  1.4611
 1669SOL    HW216467   2.714   0.637   6.688 -0.0251 -0.2793  0.2452
 1670SOL     OW16468   1.547   0.832   7.692  0.2951  0.2415 -0.4409
 1670SOL    HW116469   1.541   0.855   7.784 -0.2717 -0.4276 -0.3094
 1670SOL    HW216470   1.629   0.783   7.693 -1.9246 -3.4854 -1.1827
 1671SOL     OW16471   0.349   2.550   7.050  0.0343 -0.0499  0.0036
 1671SOL    HW116472   0.406   2.549   6.974  2.7528 -0.5622  2.0599
 1671SOL    HW216473   0.267   2.550   7.000  1.3907 -0.4069 -2.2252
 1672SOL     OW16474   3.423   2.576   4.667  0.1587 -0.0312 -0.1126
 1672SOL    HW116475   3.395   2.614   4.750 -0.6757  0.1470 -0.4671
 1672SOL    HW216476   3.359   2.509   4.643  1.7254 -1.1495 -1.1843
 1673SOL     OW16477   3.166   2.951   1.131  0.0976  0.2191 -0.0528
 1673SOL    HW116478   3.259   2.970   1.117  0.3192  0.3430  1.5228
 1673SOL    HW216479   3.121   2.938   1.048 -0.0186  0.0445  0.0373
 1674SOL     OW16480   2.430   1.757  11.037  0.3544  0.7353  0.8326
 1674SOL    HW116481   2.425   1.802  11.122  1.1712 -0.7801  1.6837
 1674SOL    HW216482   2.437   1.665  11.063 -0.0718  1.2416  2.8150
 1675SOL     OW16483   2.069   4.241  14.396 -0.0791 -0.2682 -0.0019
 1675SOL    HW116484   1.977   4.263  14.412  0.2801  1.1892  0.0165
 1675SOL    HW216485   2.109   4.220  14.481 -0.3306 -2.4493 -0.4285
 1676SOL     OW16486   1.124   1.000   2.232 -0.1130  0.4193 -0.5797
 1676SOL    HW116487   1.102   0.911   2.259 -2.4098  0.7566 -1.2774
 1676SOL    HW216488   1.055   1.004   2.165  0.2462  0.6719 -0.9364
 1677SOL     OW16489   2.927   2.714  14.987 -0.0984 -0.1071  0.1031
 1677SOL    HW116490   2.872   2.792  14.974  0.8799  0.5917  0.1634
 1677SOL    HW216491   2.914   2.705  15.081 -0.0308  2.4812  0.3582
 1678SOL     OW16492   0.697   2.421  16.191  0.3778  0.5648 -0.3279
 1678SOL    HW116493   0.660   2.490  16.137  0.3798  0.2310 -0.7560
 1678SOL    HW216494   0.635   2.415  16.264 -0.0576  1.9466 -0.5951
 1679SOL     OW16495   3.971   2.032   6.532  0.2008  0.3799 -0.3871
 1679SOL    HW116496   3.923   2.093   6.588 -0.4159 -0.8188  0.3875
 1679SOL    HW216497   3.901   2.011   6.470  0.2441 -0.2137 -0.2325
 1680SOL     OW16498   2.281   4.625  12.321 -0.0253  0.0307 -0.1273
 1680SOL    HW116499   2.190   4.605  12.298  0.2995  0.7417 -2.0534
 1680SOL    HW216500   2.277   4.663  12.409 -3.7252  4.0813 -2.0306
 1681SOL     OW16501   2.061   3.132   4.623 -0.5969  0.1426  0.6573
 1681SOL    HW116502   2.093   3.060   4.569 -1.3771  1.1677 -1.1646
 1681SOL    HW216503   2.016   3.188   4.560  1.3339  0.4726 -0.4100
 1682SOL     OW16504   3.495   3.059   4.007  0.4638 -0.3920 -0.1065
 1682SOL    HW116505   3.556   3.069   3.934  0.8605  0.9951  0.3984
 1682SOL    HW216506   3.553   3.043   4.082 -1.9115 -2.3438  1.3077
 1683SOL     OW16507   1.106   3.074  13.041 -0.1371 -0.2390 -0.0246
 1683SOL    HW116508   1.095   3.000  12.981  1.5347 -1.1049  0.7442
 1683SOL    HW216509   1.055   3.148  13.007 -2.8098 -0.8161  2.7466
 1684SOL     OW16510   4.330   0.057   5.103  0.0538 -0.4249  1.1865
 1684SOL    HW116511   4.371   0.142   5.121 -1.8180  0.9490 -1.0340
 1684SOL    HW216512   4.393   0.013   5.046  0.9942  1.6178  0.6499
 1685SOL     OW16513   2.571   2.334   8.530  0.3561 -0.4043  0.0831
 1685SOL    HW116514   2.547   2.410   8.476  1.1766  0.4512  0.9220
 1685SOL    HW216515   2.647   2.372   8.574  0.7611 -1.0775 -0.0344
 1686SOL     OW16516   1.828   3.561  16.933 -0.3370 -0.2067  0.4965
 1686SOL    HW116517   1.885   3.517  16.996  1.0444 -0.7970 -1.1722
 1686SOL    HW216518   1.772   3.490  16.901  0.4057 -0.7105  0.3106
 1687SOL     OW16519   0.454   4.700   9.361 -0.1075  0.1503 -0.0934
 1687SOL    HW116520   0.496   4.708   9.275  1.5073  0.4863  0.7233
 1687SOL    HW216521   0.531   4.689   9.417 -1.1852  0.1851  1.3655
 1688SOL     OW16522   0.337   2.511   3.964 -0.0882 -0.2604 -0.6891
 1688SOL    HW116523   0.424   2.529   4.001  0.2465  1.1836 -2.1993
 1688SOL    HW216524   0.312   2.603   3.953  2.5849  0.3713 -1.5136
 1689SOL     OW16525   1.714   0.223   1.199 -0.0345 -0.0672  0.4212
 1689SOL    HW116526   1.645   0.159   1.182 -0.6627  0.9840 -0.9009
 1689SOL    HW216527   1.756   0.177   1.273 -0.4158 -0.5796  0.3232
 1690SOL     OW16528   2.137   0.059   4.338  0.2292  0.0600 -0.6507
 1690SOL    HW116529   2.112   4.690   4.320  1.0412 -0.3864  0.4788
 1690SOL    HW216530   2.072   0.106   4.286  1.4262  1.2925 -1.0591
 1691SOL     OW16531   4.638   0.345  12.073  0.1178  0.5252 -0.2041
 1691SOL    HW116532   0.007   0.312  12.076 -0.2456 -0.6047 -1.2628
 1691SOL    HW216533   4.608   0.347  12.164 -2.2201  2.7376 -1.0140
 1692SOL     OW16534   4.091   2.686  12.228 -0.0148  0.1324  0.4139
 1692SOL    HW116535   4.101   2.735  12.146 -0.3623 -0.8250 -0.1973
 1692SOL    HW216536   4.181   2.654  12.233  0.2372  0.9807  1.1836
 1693SOL     OW16537   2.958   0.134   2.640  0.3047 -0.1690  0.1897
 1693SOL    HW116538   3.023   0.065   2.650  1.9508  1.4957  1.0340
 1693SOL    HW216539   2.884   0.087   2.603  2.1709 -1.7670 -1.5093
 1694SOL     OW16540   1.998   1.120   2.274  0.2826 -0.6217  0.0591
 1694SOL    HW116541   2.091   1.113   2.293 -0.1847 -1.7886  1.9325
 1694SOL    HW216542   2.013   1.171   2.195  0.4753  0.1657  0.6084
 1695SOL     OW16543   3.935   1.730  13.594  0.1944  0.7825 -0.0562
 1695SOL    HW116544   3.952   1.675  13.670  0.6328 -0.7660 -1.2667
 1695SOL    HW216545   3.877   1.798  13.626 -1.4780 -1.0378  0.7742
 1696SOL     OW16546   1.873   2.446  13.795  0.2371  0.2176  0.4584
 1696SOL    HW116547   1.862   2.466  13.702 -0.7095  0.0687  0.5449
 1696SOL    HW216548   1.968   2.448  13.808  0.2964 -0.5059  0.1010
 1697SOL     OW16549   0.208   1.730   3.082  1.0734 -0.0250 -0.3176
 1697SOL    HW116550   0.148   1.781   3.137  1.4077  0.4554 -0.4007
 1697SOL    HW216551   0.146   1.694   3.018  1.8777  0.9957 -1.6674
 1698SOL     OW16552   2.273   4.167   6.666 -0.3921  0.2408 -0.2266
 1698SOL    HW116553   2.362   4.201   6.670  0.2901 -1.6258  0.6006
 1698SOL    HW216554   2.274   4.114   6.586  1.1351  2.1662 -1.4503
 1699SOL     OW16555   2.223   2.375   3.536 -0.5025 -0.2048 -0.3708
 1699SOL    HW116556   2.164   2.386   3.610 -0.8736 -0.4820 -0.6235
 1699SOL    HW216557   2.304   2.409   3.576  0.0717 -2.5874  0.4717
 1700SOL     OW16558   1.626   2.466   8.011 -0.0048  0.1338  0.5080
 1700SOL    HW116559   1.585   2.536   7.960 -0.8458 -1.8460 -1.4754
 1700SOL    HW216560   1.610   2.481   8.105  1.9763 -1.2493  1.0600
 1701SOL     OW16561   2.463   3.078   3.389  1.1312  0.4436  0.9316
 1701SOL    HW116562   2.551   3.065   3.424  0.8509 -1.6669  0.8450
 1701SOL    HW216563   2.451   3.172   3.378 -0.1452  0.3498  1.5112
 1702SOL     OW16564   1.720   0.531   3.081  0.2473  0.2296 -0.0721
 1702SOL    HW116565   1.768   0.588   3.021 -0.1609  0.1652 -0.4680
 1702SOL    HW216566   1.789   0.474   3.115  1.4515  1.3503 -0.6797
 1703SOL     OW16567   3.811   3.650   5.603 -0.0846 -0.0381  0.2026
 1703SOL    HW116568   3.762   3.723   5.640  2.0148  0.4218  2.0750
 1703SOL    HW216569   3.851   3.604   5.677 -1.5574  1.9294  2.2402
 1704SOL     OW16570   2.965   1.108   4.666 -0.2390  0.0463  0.0061
 1704SOL    HW116571   3.008   1.061   4.594  2.0891  1.6654  0.3583
 1704SOL    HW216572   2.886   1.145   4.625  1.4867  1.5155 -2.0148
 1705SOL     OW16573   3.008   0.227  10.235 -0.0561  0.1633  0.2961
 1705SOL    HW116574   3.012   0.207  10.142 -1.3469  1.7501 -0.0978
 1705SOL    HW216575   3.097   0.234  10.268 -1.4322 -0.0173  4.1124
 1706SOL     OW16576   0.958   0.594   2.552 -0.1874  0.0347 -0.0392
 1706SOL    HW116577   1.053   0.595   2.537 -0.2561 -2.7037 -0.6499
 1706SOL    HW216578   0.961   0.613   2.646  0.9705 -2.9231  0.5069
 1707SOL     OW16579   1.106   0.928   9.137 -0.0500 -0.2060  0.2160
 1707SOL    HW116580   1.136   0.975   9.215 -3.1171 -0.6551  1.6629
 1707SOL    HW216581   1.181   0.870   9.123  0.5351  0.4755  0.5609
 1708SOL     OW16582   1.981   3.536  15.581  0.0376  0.0216  0.7140
 1708SOL    HW116583   1.927   3.544  15.502  2.9458 -0.5964 -1.3146
 1708SOL    HW216584   1.931   3.474  15.634  1.1454 -1.7949 -0.4148
 1709SOL     OW16585   3.837   4.371   6.340 -0.2257 -0.3363 -0.3687
 1709SOL    HW116586   3.875   4.437   6.283 -1.5783  0.5040 -0.3039
 1709SOL    HW216587   3.827   4.299   6.277 -0.3521  1.7976 -2.7759
 1710SOL     OW16588   1.260   4.037   5.392 -0.2530 -0.0364  0.3981
 1710SOL    HW116589   1.336   3.979   5.387 -0.8633 -0.5842 -2.7828
 1710SOL    HW216590   1.186   3.986   5.360 -0.2217 -0.8107  1.5684
 1711SOL     OW16591   0.763   4.417   2.169 -0.5037  0.5272  0.2751
 1711SOL    HW116592   0.835   4.441   2.110  0.7508  1.0375  2.0292
 1711SOL    HW216593   0.710   4.353   2.121 -0.6345  0.3115  0.7125
 1712SOL     OW16594   0.097   0.124  11.892  0.1446  0.1712  0.2270
 1712SOL    HW116595   0.025   0.075  11.932  1.2669 -0.5484  1.3601
 1712SOL    HW216596   0.076   0.106  11.800  2.7546 -3.1650  0.2724
 1713SOL     OW16597   0.923   1.518   5.140  0.3361 -0.1698 -0.0283
 1713SOL    HW116598   0.884   1.474   5.215  1.4318 -1.1806 -0.0468
 1713SOL    HW216599   0.890   1.475   5.061  1.4383 -0.3377 -0.3940
 1714SOL     OW16600   2.514   2.224   3.381 -0.0682 -0.0655 -0.5938
 1714SOL    HW116601   2.513   2.310   3.422  0.6747 -0.1712 -0.3533
 1714SOL    HW216602   2.551   2.246   3.295  2.7973  0.3837  0.7565
 1715SOL     OW16603   0.432   2.972   6.680 -0.1100  0.0537 -0.6961
 1715SOL    HW116604   0.480   2.969   6.762  0.6280 -1.9097 -1.1987
 1715SOL    HW216605   0.478   3.043   6.635  0.7852 -0.6131 -0.8283
 1716SOL     OW16606   0.413   0.601   3.489  0.0922  0.2551 -0.0371
 1716SOL    HW116607   0.444   0.514   3.464 -0.7572 -0.3802  1.1743
 1716SOL    HW216608   0.480   0.623   3.554  0.4065  0.4995 -0.4407
 1717SOL     OW16609   1.039   4.302   3.600 -0.2449 -0.0076 -0.0659
 1717SOL    HW116610   1.104   4.278   3.535 -0.3802 -1.5888  0.3790
 1717SOL    HW216611   1.044   4.227   3.659 -0.9681  0.4782  0.6277
 1718SOL     OW16612   1.942   3.515  13.324 -0.4833  0.7327 -0.0993
 1718SOL    HW116613   1.871   3.516  13.260 -0.3425 -1.2232 -0.2815
 1718SOL    HW216614   1.914   3.586  13.382 -0.5108  0.5882  0.0648
 1719SOL     OW16615   4.471   0.085  11.082  0.7446  0.2157  0.1419
 1719SOL    HW116616   4.463   4.719  11.120  0.7265 -0.1183 -0.6310
 1719SOL    HW216617   4.397   0.134  11.117  0.5942  0.2835 -0.2791
 1720SOL     OW16618   1.295   3.183   0.302 -0.0608 -0.0432  0.2432
 1720SOL    HW116619   1.369   3.228   0.343  0.4586 -0.0975 -0.6574
 1720SOL    HW216620   1.326   3.098   0.273 -1.1681  0.5236 -2.5838
 1721SOL     OW16621   0.742   3.242   3.679  0.2660 -0.1181 -0.3794
 1721SOL    HW116622   0.807   3.174   3.660 -0.6476 -0.9589 -0.4900
 1721SOL    HW216623   0.798   3.318   3.663 -0.9111  0.9866  0.7544
 1722SOL     OW16624   0.295   0.107   2.668  0.4256 -0.9228  0.0399
 1722SOL    HW116625   0.219   0.159   2.643 -0.5617 -3.6779 -2.7048
 1722SOL    HW216626   0.303   0.056   2.587  3.4178 -2.0177  1.0305
 1723SOL     OW16627   1.246   2.940  11.994 -0.1263 -0.0982 -0.3872
 1723SOL    HW116628   1.174   2.899  12.042  0.7516 -1.7524 -0.5204
 1723SOL    HW216629   1.310   2.942  12.065 -1.0040  0.1751  0.4008
 1724SOL     OW16630   1.794   3.924   4.980 -0.3951 -0.1913 -0.7105
 1724SOL    HW116631   1.786   3.829   4.986 -0.9101 -0.1275 -0.3365
 1724SOL    HW216632   1.773   3.949   5.070  2.3058  1.3152 -0.4944
 1725SOL     OW16633   0.318   0.013   6.459 -0.3476  0.1954 -0.2574
 1725SOL    HW116634   0.349   4.682   6.385  0.6014 -0.0934  0.3442
 1725SOL    HW216635   0.311   4.666   6.527  0.2577  0.8669  0.4724
 1726SOL     OW16636   2.081   2.403   3.807 -0.4427  0.0763 -0.0032
 1726SOL    HW116637   2.129   2.477   3.845  1.0073  0.4133 -2.4997
 1726SOL    HW216638   1.991   2.430   3.828 -0.5430 -1.2346  1.2224
 1727SOL     OW16639   4.270   3.802   8.256 -0.4842 -0.4176  0.5530
 1727SOL    HW116640   4.205   3.817   8.325 -0.9731  0.7484 -0.1491
 1727SOL    HW216641   4.290   3.893   8.234 -0.1855 -0.7361 -0.4860
 1728SOL     OW16642   0.383   4.236   3.003  0.2449 -0.7473  0.6137
 1728SOL    HW116643   0.422   4.179   2.937 -0.4939 -0.6808  0.1254
 1728SOL    HW216644   0.460   4.230   3.060 -0.8048  0.9224  2.2080
 1729SOL     OW16645   3.607   1.568   0.902 -0.3535  0.1469  0.0918
 1729SOL    HW116646   3.575   1.647   0.857  0.9283  1.8066  2.0968
 1729SOL    HW216647   3.537   1.547   0.964 -0.3398 -1.6057 -0.4840
 1730SOL     OW16648   1.527   1.691   4.872  0.2007 -0.8493 -0.6806
 1730SOL    HW116649   1.536   1.631   4.798  0.1820 -0.6666 -0.8282
 1730SOL    HW216650   1.606   1.668   4.922 -0.3572  0.1494  0.6525
 1731SOL     OW16651   3.980   4.573   7.082 -0.2942 -0.0311  0.4484
 1731SOL    HW116652   3.909   4.637   7.076 -1.3149 -1.3414 -1.5261
 1731SOL    HW216653   3.986   4.546   6.991 -0.3060  0.0109  0.4355
 1732SOL     OW16654   0.778   0.118   8.471 -0.1966 -0.0740  0.0843
 1732SOL    HW116655   0.852   0.072   8.510  0.9588  1.1476 -0.6267
 1732SOL    HW216656   0.755   0.187   8.533  3.4687  1.4068 -0.1674
 1733SOL     OW16657   2.897   1.389   3.069  0.2297  0.2001 -0.7096
 1733SOL    HW116658   2.891   1.350   3.157 -1.0033  1.7827 -0.1059
 1733SOL    HW216659   2.807   1.395   3.039  0.7999  0.3603 -2.4141
 1734SOL     OW16660   0.159   0.386  11.785 -0.0903  0.2593 -0.1195
 1734SOL    HW116661   0.192   0.417  11.869 -1.2563  1.1751  0.0010
 1734SOL    HW216662   0.103   0.313  11.813  0.1396  0.6537  1.3742
 1735SOL     OW16663   0.078   3.755  10.093  0.1665 -0.0751  0.0751
 1735SOL    HW116664   0.150   3.708  10.135 -0.2442  2.1066  3.2200
 1735SOL    HW216665   0.003   3.702  10.120 -0.3121 -0.3566 -1.8149
 1736SOL     OW16666   4.004   1.897   1.885  0.0976  0.4660  0.7418
 1736SOL    HW116667   3.915   1.934   1.885 -0.4624 -0.9424 -0.6827
 1736SOL    HW216668   4.057   1.973   1.910  1.2855 -0.0837 -0.0965
 1737SOL     OW16669   1.688   2.110   1.710 -0.7788  0.0152  0.0997
 1737SOL    HW116670   1.746   2.167   1.761  0.9634  1.7871 -3.7979
 1737SOL    HW216671   1.644   2.170   1.649 -0.4391 -0.2602 -0.4178
 1738SOL     OW16672   1.952   3.811   6.162  0.0901 -0.3142 -0.3303
 1738SOL    HW116673   2.027   3.759   6.190 -0.4541 -0.9275 -0.0115
 1738SOL    HW216674   1.989   3.899   6.152 -1.6221  0.7249  2.3118
 1739SOL     OW16675   3.133   2.474   2.351  0.2955 -0.1003  0.4339
 1739SOL    HW116676   3.172   2.391   2.326 -0.0519  0.3358 -1.5833
 1739SOL    HW216677   3.215   2.521   2.364  0.5311 -0.7017  1.0856
 1740SOL     OW16678   2.746   0.441  17.094 -0.0731  0.4580 -0.4613
 1740SOL    HW116679   2.661   0.403  17.119 -1.0430  0.2296 -4.2284
 1740SOL    HW216680   2.727   0.513  17.035  0.6689 -1.3665 -2.9342
 1741SOL     OW16681   2.240   0.732   9.090  0.3664 -0.0989 -0.0568
 1741SOL    HW116682   2.258   0.640   9.074 -0.9991  0.3318 -4.1676
 1741SOL    HW216683   2.318   0.783   9.067  0.9646 -1.0842 -0.2089
 1742SOL     OW16684   2.978   4.610   3.614 -0.2643 -0.2357  0.4701
 1742SOL    HW116685   2.885   4.624   3.632  0.1469  0.1536  2.2919
 1742SOL    HW216686   2.982   4.552   3.539  1.5320 -2.0650  1.9609
 1743SOL     OW16687   4.391   1.308   7.818 -0.0361  0.6508 -0.4273
 1743SOL    HW116688   4.308   1.354   7.809 -0.6242 -0.7063 -2.0326
 1743SOL    HW216689   4.410   1.281   7.728  1.0225  0.4782 -0.1537
 1744SOL     OW16690   4.236   3.016  15.677  0.6178  0.1559  0.6646
 1744SOL    HW116691   4.145   2.985  15.672  1.0386 -0.6756 -2.2781
 1744SOL    HW216692   4.240   3.073  15.600  1.7546  1.1827  1.4762
 1745SOL     OW16693   3.671   4.038   2.252 -0.4802 -0.5584  0.0884
 1745SOL    HW116694   3.594   4.093   2.239 -0.5024 -1.2800 -2.7091
 1745SOL    HW216695   3.740   4.101   2.235 -1.1917 -0.0588 -0.9684
 1746SOL     OW16696   3.260   3.268   5.678  0.3419  0.5763  0.0622
 1746SOL    HW116697   3.321   3.286   5.606 -0.5077  1.6552 -0.3792
 1746SOL    HW216698   3.276   3.173   5.682  0.8378  0.6818  0.6080
 1747SOL     OW16699   1.190   3.220   4.115 -0.4808  0.4045  0.2868
 1747SOL    HW116700   1.207   3.295   4.172  0.2635 -0.4504  1.2121
 1747SOL    HW216701   1.249   3.242   4.043  0.5542  1.2656  1.3882
 1748SOL     OW16702   0.118   1.445   8.850  0.0598 -0.1160  0.1157
 1748SOL    HW116703   0.200   1.451   8.800  0.4390 -0.1897  0.7269
 1748SOL    HW216704   0.132   1.393   8.929  1.6544 -0.0680 -0.1364
 1749SOL     OW16705   0.921   0.270   6.355 -0.5682 -0.1348 -0.7976
 1749SOL    HW116706   0.929   0.175   6.360  0.5369 -0.0520 -0.9115
 1749SOL    HW216707   0.970   0.285   6.274 -1.1632  0.0422 -1.1232
 1750SOL     OW16708   1.842   3.651  16.213  0.5468  0.7293 -0.0948
 1750SOL    HW116709   1.861   3.736  16.254  0.2287  0.5748  0.3698
 1750SOL    HW216710   1.823   3.591  16.285  0.9540  1.3798  0.5559
 1751SOL     OW16711   4.455   4.537   2.135  0.7161  0.4119 -0.0638
 1751SOL    HW116712   4.541   4.508   2.105  0.5304  0.0293 -0.2330
 1751SOL    HW216713   4.471   4.616   2.187  0.0004  1.4451 -1.3986
 1752SOL     OW16714   3.499   2.815   4.896 -0.8742 -0.0205 -0.3094
 1752SOL    HW116715   3.475   2.867   4.820 -2.1157  1.4507  1.0786
 1752SOL    HW216716   3.412   2.792   4.930 -0.9799  0.0184 -0.5563
 1753SOL     OW16717   3.025   0.490   7.367  0.1499  0.0970 -0.5158
 1753SOL    HW116718   3.006   0.564   7.310  1.8735  1.4057  0.6372
 1753SOL    HW216719   2.952   0.431   7.348 -1.2523  0.8455  2.5571
 1754SOL     OW16720   0.634   2.878   6.376 -0.0228  0.3839 -0.2812
 1754SOL    HW116721   0.572   2.936   6.332 -2.2637 -0.5215  1.6630
 1754SOL    HW216722   0.713   2.931   6.376  0.1308  0.1514 -0.9560
 1755SOL     OW16723   4.149   2.633   6.204  0.4693 -0.6917  0.8224
 1755SOL    HW116724   4.085   2.650   6.273 -1.1939  1.1949 -1.1641
 1755SOL    HW216725   4.105   2.651   6.121  0.4839 -0.6872  0.8158
 1756SOL     OW16726   1.505   1.060   8.877  0.4519 -0.5306 -0.4249
 1756SOL    HW116727   1.447   1.118   8.926 -1.5469 -1.1504 -2.0397
 1756SOL    HW216728   1.459   0.977   8.868 -0.6489  0.0089  0.1820
 1757SOL     OW16729   1.070   1.556   2.621  0.2246 -0.4701 -0.2741
 1757SOL    HW116730   1.114   1.625   2.571  0.0222 -0.8115 -0.9163
 1757SOL    HW216731   1.133   1.537   2.691  0.4798 -1.7699 -0.8646
 1758SOL     OW16732   1.814   4.109   8.877 -0.2317 -0.4737  0.2043
 1758SOL    HW116733   1.833   4.067   8.960 -0.8991 -1.6537 -0.2497
 1758SOL    HW216734   1.835   4.041   8.814  1.0711 -0.8903  1.0986
 1759SOL     OW16735   2.277   1.377   3.159  0.4108 -0.1252  0.0965
 1759SOL    HW116736   2.244   1.423   3.237  0.3469 -1.3689  0.7976
 1759SOL    HW216737   2.359   1.348   3.198  0.4393 -1.3648 -0.9097
 1760SOL     OW16738   3.528   3.274   6.663  0.0862  1.0884  0.2998
 1760SOL    HW116739   3.614   3.299   6.697  0.0910 -0.9025  1.7521
 1760SOL    HW216740   3.517   3.340   6.596  0.5746 -0.5352 -1.3885
 1761SOL     OW16741   4.037   0.249   4.545 -0.7931  0.2188 -0.0162
 1761SOL    HW116742   4.101   0.202   4.491 -3.3924 -1.0654 -1.9969
 1761SOL    HW216743   4.099   0.295   4.602 -0.1603 -0.2125 -0.3450
 1762SOL     OW16744   1.679   1.957   2.214 -0.3802  0.0395  0.4163
 1762SOL    HW116745   1.645   1.980   2.127 -3.4334 -1.9859  1.0758
 1762SOL    HW216746   1.764   2.001   2.222 -0.3733  0.0146  0.4798
 1763SOL     OW16747   3.276   4.016   0.266  0.0099 -0.0567 -0.1299
 1763SOL    HW116748   3.186   3.990   0.248 -0.5377 -0.6086  3.5137
 1763SOL    HW216749   3.317   4.003   0.180 -0.1605 -1.4774 -0.0022
 1764SOL     OW16750   3.084   0.060   5.764  0.1475  0.3450  0.4005
 1764SOL    HW116751   3.005   0.067   5.709 -0.0204  0.9980  0.7341
 1764SOL    HW216752   3.047   0.006   5.834  0.6726 -1.8151 -0.9552
 1765SOL     OW16753   0.810   2.371   2.663 -0.0332  0.1075  0.3587
 1765SOL    HW116754   0.731   2.373   2.718 -1.0558  0.1574 -1.1074
 1765SOL    HW216755   0.837   2.461   2.646  1.7655 -0.3876  0.5820
 1766SOL     OW16756   1.487   3.384   8.889 -0.4911  0.0607  0.0822
 1766SOL    HW116757   1.576   3.412   8.912  0.0405 -0.2384 -1.6400
 1766SOL    HW216758   1.444   3.464   8.918  1.3430  1.6714 -1.6650
 1767SOL     OW16759   2.353   3.169  13.479 -0.3707  0.5250 -0.1481
 1767SOL    HW116760   2.276   3.226  13.474 -0.7842  0.2230  2.7758
 1767SOL    HW216761   2.416   3.241  13.475 -1.2844  1.3567  0.3430
 1768SOL     OW16762   1.445   2.094   2.572 -0.5332 -0.1453 -0.3770
 1768SOL    HW116763   1.387   2.140   2.633 -1.1928  0.1451 -1.2314
 1768SOL    HW216764   1.508   2.047   2.627  2.1641  0.4596 -2.9393
 1769SOL     OW16765   0.580   3.186   2.227  0.1730 -0.0310 -0.2858
 1769SOL    HW116766   0.634   3.238   2.286  0.3522  0.7287 -1.1113
 1769SOL    HW216767   0.650   3.132   2.192  1.2370  0.2863  1.3859
 1770SOL     OW16768   3.258   0.455  13.734  0.0197  0.2193  0.2501
 1770SOL    HW116769   3.332   0.422  13.684 -1.2631 -0.1620 -1.4121
 1770SOL    HW216770   3.206   0.375  13.744 -2.7749  2.0781  0.5555
 1771SOL     OW16771   2.281   0.761   7.534  0.2034  0.9716  0.2671
 1771SOL    HW116772   2.339   0.708   7.587 -2.2739 -1.4352  0.5606
 1771SOL    HW216773   2.194   0.755   7.573  0.1987  2.1329  0.4427
 1772SOL     OW16774   2.769   2.830   9.226  0.4274  0.9936  0.2586
 1772SOL    HW116775   2.766   2.908   9.171 -1.8350  0.7554  0.0162
 1772SOL    HW216776   2.707   2.866   9.289 -1.5819 -1.7900 -0.1261
 1773SOL     OW16777   0.545   3.826   4.082  0.5454 -0.7124  0.5478
 1773SOL    HW116778   0.627   3.876   4.078  1.7336 -2.7853 -0.6834
 1773SOL    HW216779   0.512   3.833   3.992  1.3481  1.1246  0.4005
 1774SOL     OW16780   4.333   1.827   1.426  0.0959  0.2303  0.5703
 1774SOL    HW116781   4.417   1.781   1.425 -0.7842 -1.3400 -0.1392
 1774SOL    HW216782   4.363   1.912   1.458  1.5489 -0.5222  1.2581
 1775SOL     OW16783   2.189   1.694   7.761 -0.1319  0.3214  0.8324
 1775SOL    HW116784   2.138   1.766   7.798  0.7486  1.7662 -0.8064
 1775SOL    HW216785   2.166   1.626   7.824 -1.5404  0.4758  0.4920
 1776SOL     OW16786   0.875   1.288   8.793 -0.3523 -0.4428 -0.4222
 1776SOL    HW116787   0.786   1.319   8.782 -0.2006 -0.1832 -0.9466
 1776SOL    HW216788   0.882   1.278   8.888  2.7833 -1.0153 -0.6939
 1777SOL     OW16789   3.466   3.246  11.488 -0.4678 -0.6425  0.1574
 1777SOL    HW116790   3.421   3.321  11.525 -2.1763 -2.0603  0.9581
 1777SOL    HW216791   3.545   3.257  11.541 -0.3258 -0.6876 -0.0423
 1778SOL     OW16792   3.720   0.895  14.381 -0.3968 -0.3180 -0.2228
 1778SOL    HW116793   3.761   0.813  14.355  0.0858 -0.3177  0.5357
 1778SOL    HW216794   3.691   0.922  14.294 -2.3426  0.8660  0.7983
 1779SOL     OW16795   3.837   3.182   4.578  0.2046 -0.4658 -0.1242
 1779SOL    HW116796   3.785   3.111   4.613  0.4857 -0.5669  0.0845
 1779SOL    HW216797   3.929   3.172   4.603  0.3328 -1.9412 -1.1971
 1780SOL     OW16798   4.438   0.890   0.684  0.7768  0.1213 -0.5506
 1780SOL    HW116799   4.442   0.932   0.769  2.8439  0.2575 -0.7062
 1780SOL    HW216800   4.446   0.800   0.717 -1.3363  0.4307  0.7789
 1781SOL     OW16801   2.989   4.132  13.439  0.0947  0.7825  0.8002
 1781SOL    HW116802   3.045   4.128  13.361  1.2844  0.3591  1.6858
 1781SOL    HW216803   3.028   4.072  13.503 -0.5097 -0.6312 -0.1330
 1782SOL     OW16804   4.528   0.568   5.368  0.4612  0.3468 -0.3459
 1782SOL    HW116805   4.590   0.635   5.338  1.1102 -1.1360 -2.3217
 1782SOL    HW216806   4.546   0.563   5.462 -0.8875 -0.2024 -0.1200
 1783SOL     OW16807   2.763   2.436   8.190  0.2257 -0.5263  0.6727
 1783SOL    HW116808   2.728   2.361   8.143  0.9525 -1.2961  1.3701
 1783SOL    HW216809   2.822   2.394   8.252  1.1571  0.1656  0.2551
 1784SOL     OW16810   3.065   3.450   8.400 -0.0545  0.2679  0.2328
 1784SOL    HW116811   3.127   3.378   8.384  0.4606  1.3174 -2.5837
 1784SOL    HW216812   3.121   3.516   8.441  1.5064  0.9520 -2.9274
 1785SOL     OW16813   3.202   0.013   8.033 -0.0824 -0.6688 -0.1064
 1785SOL    HW116814   3.130   4.698   7.982  0.6720  0.9696 -2.3572
 1785SOL    HW216815   3.206   0.101   7.995 -2.1667 -0.3460  0.3998
 1786SOL     OW16816   4.365   3.525   5.669 -0.7785 -0.1389  0.0121
 1786SOL    HW116817   4.327   3.575   5.596 -0.2005 -0.8953 -0.8152
 1786SOL    HW216818   4.291   3.470   5.695  0.8449 -3.2208 -1.8897
 1787SOL     OW16819   2.317   3.381  14.154  0.0203 -0.1191 -0.2145
 1787SOL    HW116820   2.275   3.456  14.196  0.7804  0.2013 -0.0202
 1787SOL    HW216821   2.409   3.408  14.156 -0.7870  2.8423 -2.2138
 1788SOL     OW16822   4.552   2.967  10.504  0.4657  0.0046  0.3162
 1788SOL    HW116823   4.477   2.923  10.545  0.5362  0.7421  1.2579
 1788SOL    HW216824   4.616   2.955  10.575 -0.5172  0.4731  1.2743
 1789SOL     OW16825   0.898   1.782  16.447 -0.2639 -0.2937  0.4684
 1789SOL    HW116826   0.944   1.699  16.448  2.1698  1.0432 -0.1968
 1789SOL    HW216827   0.804   1.766  16.439 -0.3991  2.1158 -2.8508
 1790SOL     OW16828   3.148   1.025   7.763  0.0843 -0.1443  0.1128
 1790SOL    HW116829   3.144   1.116   7.731 -1.1332  0.0078  0.6861
 1790SOL    HW216830   3.222   1.031   7.823  0.5420  0.0286 -0.4704
 1791SOL     OW16831   0.648   1.808   6.888 -0.2244 -0.6336  0.2904
 1791SOL    HW116832   0.617   1.737   6.831 -0.4199 -1.0304  0.8870
 1791SOL    HW216833   0.564   1.849   6.912  0.2664  0.2995  0.3940
 1792SOL     OW16834   3.835   0.187  15.574 -0.2584  0.7790 -0.2402
 1792SOL    HW116835   3.920   0.154  15.545  0.0051 -0.7262  2.2911
 1792SOL    HW216836   3.774   0.123  15.536 -0.5319  1.3016 -0.6906
 1793SOL     OW16837   2.203   1.295   2.477 -0.2959  0.0742  0.1031
 1793SOL    HW116838   2.177   1.310   2.386  2.3018  0.5122 -0.5822
 1793SOL    HW216839   2.265   1.223   2.466 -0.4381  0.0545 -0.5347
 1794SOL     OW16840   1.276   1.025   7.837 -0.4231  0.4823 -0.6401
 1794SOL    HW116841   1.371   1.017   7.842 -0.2420  4.1504  1.8342
 1794SOL    HW216842   1.261   1.034   7.743  0.7484  0.9201 -0.7832
 1795SOL     OW16843   0.446   3.821   9.317  0.2475 -0.1772 -0.6967
 1795SOL    HW116844   0.392   3.892   9.351  0.5535  0.4681 -1.5629
 1795SOL    HW216845   0.486   3.799   9.402 -0.5657 -0.7667 -0.4706
 1796SOL     OW16846   2.494   1.739   6.647  0.0999 -0.2387 -0.0405
 1796SOL    HW116847   2.398   1.732   6.646  0.1432 -0.7274 -1.2679
 1796SOL    HW216848   2.495   1.812   6.709 -2.7341 -0.2045 -0.0205
 1797SOL     OW16849   3.215   1.309  16.003  0.2208  0.2530 -0.5970
 1797SOL    HW116850   3.238   1.401  15.992 -1.6632  0.9669  1.1451
 1797SOL    HW216851   3.277   1.277  16.068 -1.1065  0.0544  0.5821
 1798SOL     OW16852   4.654   0.768   9.469  0.1916  0.4577  0.4657
 1798SOL    HW116853   4.718   0.774   9.398 -0.4190  0.5853 -0.0733
 1798SOL    HW216854   4.608   0.684   9.463  2.8520 -0.8556 -1.6477
 1799SOL     OW16855   0.962   1.924   9.230 -0.1756  0.8476  0.3895
 1799SOL    HW116856   0.984   1.908   9.322 -1.5875 -1.4478  0.3406
 1799SOL    HW216857   0.867   1.911   9.229 -0.2737  1.3186  2.7848
 1800SOL     OW16858   2.969   4.573   5.912  0.1487 -0.6363  0.1654
 1800SOL    HW116859   2.934   4.484   5.905  0.2116 -0.6989  0.6567
 1800SOL    HW216860   2.883   4.615   5.909  1.4148  2.0239  0.7308
 1801SOL     OW16861   4.465   3.217   6.209  0.2707 -0.0937  0.2124
 1801SOL    HW116862   4.388   3.178   6.249  0.6213 -0.0427  0.9436
 1801SOL    HW216863   4.531   3.159   6.246  1.1922 -0.4306 -1.9732
 1802SOL     OW16864   4.334   2.895   0.585  0.3241  0.3680  0.2944
 1802SOL    HW116865   4.399   2.856   0.643  1.1880 -0.5201 -1.2543
 1802SOL    HW216866   4.273   2.929   0.650 -0.7016  0.0655 -0.4982
 1803SOL     OW16867   0.332   1.018   2.567 -0.3145 -0.4212 -1.0583
 1803SOL    HW116868   0.242   1.048   2.575 -0.3937 -0.4504 -1.8439
 1803SOL    HW216869   0.382   1.087   2.522 -2.7789  1.6643 -0.5826
 1804SOL     OW16870   0.974   3.448  10.906  0.1481 -0.3433  0.2873
 1804SOL    HW116871   1.025   3.463  10.827  1.4372  0.7698  1.3352
 1804SOL    HW216872   0.968   3.537  10.939 -1.5642 -0.5532  0.5520
 1805SOL     OW16873   2.521   4.378   8.445  0.4588 -0.0960 -0.2019
 1805SOL    HW116874   2.582   4.308   8.422  0.1216  0.0162 -1.4577
 1805SOL    HW216875   2.578   4.444   8.485  1.5818 -1.6622  0.8003
 1806SOL     OW16876   1.478   4.358   3.894  0.3167 -0.1806 -0.0438
 1806SOL    HW116877   1.521   4.441   3.915  1.2814 -1.0360  1.3556
 1806SOL    HW216878   1.456   4.374   3.802  0.7247  1.4472  0.1390
 1807SOL     OW16879   0.928   3.082  10.563  0.2259  0.2046  0.2227
 1807SOL    HW116880   0.999   3.137  10.531  2.4733 -1.5665  2.1666
 1807SOL    HW216881   0.938   3.004  10.509  0.0506  0.6213 -0.4083
 1808SOL     OW16882   3.964   3.390   4.441 -0.1751 -0.0150 -0.4848
 1808SOL    HW116883   3.908   3.324   4.482 -0.9259 -1.4723 -3.7868
 1808SOL    HW216884   3.903   3.452   4.401 -0.2962  0.4964  0.4928
 1809SOL     OW16885   1.419   2.052   4.968 -0.4325  0.0651 -0.8485
 1809SOL    HW116886   1.421   1.961   4.998  0.3854 -0.0155 -1.1577
 1809SOL    HW216887   1.335   2.075   5.008 -0.9513 -2.7185 -0.3745
 1810SOL     OW16888   0.412   1.915   6.963 -0.3769  0.3901 -0.0495
 1810SOL    HW116889   0.349   1.976   6.927 -2.0386  0.0874  2.3303
 1810SOL    HW216890   0.454   1.982   7.017  1.1780 -0.6036 -0.0264
 1811SOL     OW16891   1.383   4.135   1.975 -0.9114  0.3229 -0.2312
 1811SOL    HW116892   1.417   4.171   1.893 -1.1618 -1.1178 -0.9629
 1811SOL    HW216893   1.319   4.073   1.939  0.0197  0.1406 -1.5581
 1812SOL     OW16894   0.017   2.064   7.795  0.1284 -0.0600 -0.5042
 1812SOL    HW116895   4.647   2.058   7.825  0.5095 -2.8605  0.1327
 1812SOL    HW216896   0.051   1.984   7.837  0.0359 -0.6180 -1.4834
 1813SOL     OW16897   3.921   3.578   9.280 -0.3198  0.6141  0.0419
 1813SOL    HW116898   3.962   3.664   9.286  1.0800  0.0235 -0.9624
 1813SOL    HW216899   3.835   3.607   9.249 -0.2688  2.0280  1.2056
 1814SOL     OW16900   0.823   4.195   3.321 -0.4385  0.4099 -0.2915
 1814SOL    HW116901   0.809   4.169   3.412  0.4843  2.5720  0.4785
 1814SOL    HW216902   0.855   4.284   3.337 -1.9508  0.7395  0.8899
 1815SOL     OW16903   1.959   0.107  17.169 -0.1679  0.0889  0.0646
 1815SOL    HW116904   1.974   0.032  17.227 -0.3046 -1.4026 -1.8548
 1815SOL    HW216905   2.018   0.176  17.200 -1.7575  1.0755  0.9370
 1816SOL     OW16906   2.086   0.473  12.732 -0.2152  0.1213 -0.0489
 1816SOL    HW116907   2.129   0.535  12.673 -1.4654 -0.0221 -1.1076
 1816SOL    HW216908   2.158   0.409  12.737 -0.3536 -0.1002 -0.9601
 1817SOL     OW16909   2.423   3.480   4.644  0.9158 -0.3250 -0.4951
 1817SOL    HW116910   2.465   3.444   4.722 -0.4607  2.3384  1.4538
 1817SOL    HW216911   2.485   3.440   4.583  1.4415  1.1511 -0.9208
 1818SOL     OW16912   3.389   1.056  13.226 -0.1220 -0.6311  0.3431
 1818SOL    HW116913   3.298   1.033  13.245  0.1697 -1.4819  0.7411
 1818SOL    HW216914   3.426   1.055  13.314  0.3182  1.4972  0.1822
 1819SOL     OW16915   1.401   2.249  17.420 -0.6528 -0.2570 -0.2007
 1819SOL    HW116916   1.411   2.280  17.511  2.2214 -1.0786 -0.2293
 1819SOL    HW216917   1.400   2.154  17.432 -1.1626 -0.0833  1.1346
 1820SOL     OW16918   0.728   4.073  10.558  0.2200 -0.2555 -0.1377
 1820SOL    HW116919   0.792   4.144  10.556 -0.0578  0.0650  1.8536
 1820SOL    HW216920   0.721   4.077  10.654 -1.2432 -1.1244 -0.2204
 1821SOL     OW16921   1.961   0.746   7.420  0.2990  0.0710 -0.8362
 1821SOL    HW116922   1.994   0.797   7.346  1.2414 -0.3767 -0.7196
 1821SOL    HW216923   1.935   0.808   7.488 -1.6004 -0.1192 -1.3762
 1822SOL     OW16924   3.245   0.943   6.595  0.4049 -0.2854  0.2077
 1822SOL    HW116925   3.255   0.872   6.532 -0.4821 -1.1586  1.0638
 1822SOL    HW216926   3.336   0.972   6.593  0.6462 -1.0424  0.2920
 1823SOL     OW16927   0.133   4.555   7.071  0.0261 -0.0745  0.1745
 1823SOL    HW116928   0.168   4.488   7.130 -0.5834  0.3035  0.9546
 1823SOL    HW216929   0.219   4.591   7.046  0.7737 -1.6714  0.4648
 1824SOL     OW16930   2.314   1.252   5.681 -0.2756 -0.3511  0.1023
 1824SOL    HW116931   2.250   1.194   5.721 -2.2565  0.8070 -1.3892
 1824SOL    HW216932   2.275   1.279   5.598 -1.4165  1.3389  1.1844
 1825SOL     OW16933   2.759   0.267   3.350  0.5285  0.0578  0.0868
 1825SOL    HW116934   2.788   0.341   3.296  1.8609 -0.0017  0.7411
 1825SOL    HW216935   2.813   0.196   3.317  0.2177 -0.8303  1.4753
 1826SOL     OW16936   4.116   2.031   9.152  0.3091  0.2623  0.0170
 1826SOL    HW116937   4.107   2.098   9.219 -0.6190  0.5255 -0.3569
 1826SOL    HW216938   4.058   2.068   9.084  1.3208  0.0632 -0.9495
 1827SOL     OW16939   1.459   1.636  15.120  0.0924 -0.7230  0.6268
 1827SOL    HW116940   1.449   1.569  15.052 -0.8429  1.3770 -1.2859
 1827SOL    HW216941   1.369   1.666  15.127  1.1857  2.5546  0.3480
 1828SOL     OW16942   1.366   2.970   3.031 -0.7719 -0.1202  0.0078
 1828SOL    HW116943   1.332   2.987   2.943  0.2560  0.8720 -0.1945
 1828SOL    HW216944   1.446   3.020   3.022 -0.5447 -0.4053  0.4097
 1829SOL     OW16945   1.630   3.422   7.144  0.2134 -0.3931  0.6682
 1829SOL    HW116946   1.722   3.448   7.145 -0.2264  1.1620  0.6022
 1829SOL    HW216947   1.636   3.332   7.176  1.7949 -1.5361 -2.8332
 1830SOL     OW16948   3.203   0.335   4.609 -0.5353  0.4091  0.4256
 1830SOL    HW116949   3.149   0.406   4.645 -0.6131  0.9182 -0.6923
 1830SOL    HW216950   3.293   0.356   4.633 -0.9461  0.6745  1.7791
 1831SOL     OW16951   3.869   0.580   3.620 -0.0863  0.0370 -0.5283
 1831SOL    HW116952   3.800   0.566   3.686 -0.9007  0.9453 -1.1828
 1831SOL    HW216953   3.946   0.611   3.668 -1.4178  0.8448  1.0873
 1832SOL     OW16954   2.124   3.887   2.829  0.5941  1.3801  0.0671
 1832SOL    HW116955   2.193   3.867   2.766  0.4414 -0.2032  0.3859
 1832SOL    HW216956   2.066   3.917   2.759  2.5603  3.1468 -0.7993
 1833SOL     OW16957   4.519   2.545  12.892 -0.0492 -0.2454  0.3466
 1833SOL    HW116958   4.486   2.543  12.802  0.0810  1.0022  0.2750
 1833SOL    HW216959   4.587   2.477  12.882 -0.0427 -0.2511  0.4314
 1834SOL     OW16960   4.356   0.456  11.354  0.2861  0.1035  0.6453
 1834SOL    HW116961   4.367   0.379  11.298 -1.8518  1.7874 -2.0533
 1834SOL    HW216962   4.418   0.429  11.422  0.2558  0.3965  0.7881
 1835SOL     OW16963   2.718   4.331   3.176  0.5207  0.2144 -0.2340
 1835SOL    HW116964   2.718   4.309   3.269 -3.4153  2.9883  0.4348
 1835SOL    HW216965   2.783   4.268   3.146  2.0675  0.9418  1.5565
 1836SOL     OW16966   4.645   1.940   4.029 -0.0127 -0.0525 -0.1020
 1836SOL    HW116967   4.715   2.001   4.052  2.5617 -2.9149 -0.2408
 1836SOL    HW216968   4.681   1.912   3.945  0.4048 -0.2825  0.1483
 1837SOL     OW16969   3.796   1.300  11.920  0.1675  0.1219  0.1868
 1837SOL    HW116970   3.859   1.368  11.943 -0.6410 -0.0820  2.9078
 1837SOL    HW216971   3.841   1.253  11.849  2.7198  0.2361  1.7252
 1838SOL     OW16972   0.014   0.795  17.117  0.1859  0.2958 -0.0745
 1838SOL    HW116973   4.709   0.881  17.084  0.2547  1.3575  2.6440
 1838SOL    HW216974   0.110   0.797  17.109  0.0922  0.7850 -1.0240
 1839SOL     OW16975   3.951   4.259   9.023 -0.0104 -0.6405 -0.1043
 1839SOL    HW116976   3.942   4.169   9.053 -1.3350 -0.1180  1.0355
 1839SOL    HW216977   4.046   4.272   9.024  0.1602 -1.8658 -0.7577
 1840SOL     OW16978   3.745   3.526   8.388 -0.7320 -0.1410 -0.3207
 1840SOL    HW116979   3.777   3.598   8.334 -0.8416  2.8266  3.5775
 1840SOL    HW216980   3.824   3.488   8.427 -1.2347  0.9441  1.7754
 1841SOL     OW16981   3.564   3.627   6.176  0.1281 -0.3091  0.1397
 1841SOL    HW116982   3.578   3.652   6.267  1.1806  2.1635 -0.6911
 1841SOL    HW216983   3.470   3.641   6.171  0.3241 -0.0960 -3.3258
 1842SOL     OW16984   3.700   0.495  11.142 -0.1528 -0.1833 -0.4388
 1842SOL    HW116985   3.665   0.406  11.144 -1.8894  0.5307  0.7107
 1842SOL    HW216986   3.721   0.505  11.049 -1.1035  0.7742 -0.5486
 1843SOL     OW16987   3.972   3.810  14.721 -0.1977  0.3643  0.0161
 1843SOL    HW116988   3.974   3.723  14.680 -0.0184  0.4183 -0.0887
 1843SOL    HW216989   3.956   3.860  14.641  2.5225  2.0698  0.5204
 1844SOL     OW16990   1.595   2.507  13.926 -0.0194  0.1169  0.0981
 1844SOL    HW116991   1.668   2.503  13.865 -0.3835  0.0367 -0.3338
 1844SOL    HW216992   1.624   2.565  13.996  2.2324 -0.8578 -0.0426
 1845SOL     OW16993   4.562   0.667   9.117 -0.2695  0.0356  0.3791
 1845SOL    HW116994   4.469   0.681   9.135 -0.5356  2.9838 -3.3750
 1845SOL    HW216995   4.576   0.606   9.189  3.9623  0.2502 -0.2973
 1846SOL     OW16996   3.620   3.679   3.168 -0.1448  0.0253  0.6156
 1846SOL    HW116997   3.688   3.741   3.193  0.7943 -0.8333  0.1824
 1846SOL    HW216998   3.666   3.656   3.087 -1.5605 -1.6507  0.2808
 1847SOL     OW16999   3.648   2.370   2.286  0.5435  0.2290 -0.0427
 1847SOL    HW117000   3.608   2.424   2.355 -0.6876 -0.6744 -0.0479
 1847SOL    HW217001   3.721   2.426   2.261  0.9703  0.2088  1.1544
 1848SOL     OW17002   3.920   1.563   9.447 -0.1569  0.0311 -0.0539
 1848SOL    HW117003   3.858   1.572   9.520  0.7383 -2.1291  0.9634
 1848SOL    HW217004   3.912   1.472   9.421 -2.0975  0.0319  0.5090
 1849SOL     OW17005   4.605   1.338   4.898  0.0663  0.6512 -0.1643
 1849SOL    HW117006   4.640   1.249   4.896 -0.4103  0.4026  2.0908
 1849SOL    HW217007   4.538   1.334   4.830  0.8405  0.5257 -0.9119
 1850SOL     OW17008   3.197   2.028   1.818  0.2102  0.0237 -0.4333
 1850SOL    HW117009   3.202   2.049   1.911 -2.7932 -2.1820  0.2096
 1850SOL    HW217010   3.103   2.028   1.803 -0.0387 -0.4857  1.1471
 1851SOL     OW17011   4.280   4.704   5.947 -0.0639  0.3772 -0.3141
 1851SOL    HW117012   4.222   4.667   6.013 -1.2837  2.3007 -0.2804
 1851SOL    HW217013   4.362   0.007   5.988  0.3165  0.4032 -1.0813
 1852SOL     OW17014   2.264   3.320   7.828 -0.2366 -0.2443  0.0712
 1852SOL    HW117015   2.227   3.368   7.754 -1.2318  2.4816  2.3303
 1852SOL    HW217016   2.232   3.229   7.830 -2.8929  0.7216  1.4812
 1853SOL     OW17017   3.200   1.292  14.127  0.2578  0.5734  0.4940
 1853SOL    HW117018   3.171   1.213  14.172 -0.9092  1.3398  1.0959
 1853SOL    HW217019   3.264   1.332  14.186 -0.1794  1.9691  0.0363
 1854SOL     OW17020   0.655   0.176   4.318 -0.3842 -0.1057  0.2006
 1854SOL    HW117021   0.657   0.100   4.376  3.1799  0.0916  0.3243
 1854SOL    HW217022   0.563   0.171   4.291 -0.8830 -2.1572  2.2958
 1855SOL     OW17023   0.857   2.572   9.724 -0.3931 -0.2345  0.1806
 1855SOL    HW117024   0.761   2.571   9.719 -0.1993 -1.5658 -3.1923
 1855SOL    HW217025   0.873   2.484   9.757  1.1810 -1.0126 -2.6497
 1856SOL     OW17026   0.544   0.293   2.609  0.1265  0.0900 -1.1142
 1856SOL    HW117027   0.530   0.200   2.628  3.6001 -0.0954  0.6669
 1856SOL    HW217028   0.630   0.288   2.566  0.5601 -0.9981 -0.1308
 1857SOL     OW17029   2.904   2.245  10.448 -0.3189  0.5085  0.5124
 1857SOL    HW117030   2.865   2.218  10.366  0.4134  1.4263 -0.1454
 1857SOL    HW217031   2.996   2.265  10.427  0.7077 -3.5143  1.2658
 1858SOL     OW17032   4.659   3.414   2.500  0.0017  0.1299  0.2269
 1858SOL    HW117033   4.568   3.441   2.508 -0.5304 -0.8210 -2.5526
 1858SOL    HW217034   4.644   3.321   2.514 -2.7539  0.1830 -2.3884
 1859SOL     OW17035   4.295   1.319   0.659  0.2450 -0.3176 -0.8518
 1859SOL    HW117036   4.331   1.363   0.736  0.5229 -0.7672 -0.7283
 1859SOL    HW217037   4.377   1.284   0.626  0.2709 -1.5419  0.5573
 1860SOL     OW17038   2.099   0.546  12.990 -0.1495  0.1363  0.0526
 1860SOL    HW117039   2.062   0.475  13.044  1.9854 -1.3711 -0.4807
 1860SOL    HW217040   2.076   0.520  12.901 -0.3329  0.5643 -0.0213
 1861SOL     OW17041   2.269   4.094   8.119 -0.4680 -0.0129  0.2966
 1861SOL    HW117042   2.359   4.062   8.119 -0.2687  0.5604  0.2168
 1861SOL    HW217043   2.280   4.169   8.177 -3.7658  1.5933 -1.1682
 1862SOL     OW17044   4.354   2.686   7.712  0.3182  0.1094  0.3249
 1862SOL    HW117045   4.421   2.686   7.780 -0.2096  3.3938  0.8532
 1862SOL    HW217046   4.409   2.672   7.635 -1.0776  0.0855 -0.6638
 1863SOL     OW17047   2.280   1.271   8.582  0.0998  0.0873 -0.0970
 1863SOL    HW117048   2.235   1.347   8.620 -1.7006  0.5353 -3.1046
 1863SOL    HW217049   2.231   1.195   8.615  1.0421 -0.5983 -0.2597
 1864SOL     OW17050   3.616   1.277   2.666  0.5083  0.3659 -0.1412
 1864SOL    HW117051   3.637   1.358   2.714 -0.9448 -0.5490  2.0261
 1864SOL    HW217052   3.593   1.312   2.580 -0.1507  1.3809  0.4425
 1865SOL     OW17053   2.694   0.643   3.952  0.4242  0.5595 -0.0328
 1865SOL    HW117054   2.696   0.732   3.987 -1.5040  0.2623  0.8734
 1865SOL    HW217055   2.615   0.644   3.897  1.8962 -2.4041 -2.2125
 1866SOL     OW17056   0.479   0.904  17.514 -0.5056  0.1195  0.0364
 1866SOL    HW117057   0.415   0.853  17.563  0.2481  0.8705  1.7984
 1866SOL    HW217058   0.433   0.898  17.430  1.6897 -0.8936 -1.0844
 1867SOL     OW17059   3.571   4.245   6.210 -0.1555  1.1056 -0.1168
 1867SOL    HW117060   3.631   4.315   6.185  1.5201  0.6357  2.5291
 1867SOL    HW217061   3.557   4.196   6.129 -1.4658  2.0532 -0.4546
 1868SOL     OW17062   1.207   3.354  11.292  0.0737  0.0710  0.3274
 1868SOL    HW117063   1.163   3.325  11.212 -0.8120 -1.5705  1.4216
 1868SOL    HW217064   1.146   3.335  11.363 -0.2555  1.3920  0.3958
 1869SOL     OW17065   0.098   3.891   2.720  0.2289 -0.0883  0.1580
 1869SOL    HW117066   0.079   3.906   2.627  2.2704 -2.6829 -0.6659
 1869SOL    HW217067   0.029   3.949   2.754 -1.1353 -0.6256 -1.6703
 1870SOL     OW17068   3.297   2.184   6.516 -0.1737  0.4196  0.1058
 1870SOL    HW117069   3.316   2.273   6.546  2.7124  0.2049 -1.1155
 1870SOL    HW217070   3.320   2.134   6.594 -0.8706  1.7001  1.1359
 1871SOL     OW17071   0.989   2.828   5.415  0.1401 -0.0273 -0.9047
 1871SOL    HW117072   0.922   2.823   5.483 -0.5311 -0.9633 -1.6330
 1871SOL    HW217073   0.996   2.923   5.404  1.2577  0.1286  1.2601
 1872SOL     OW17074   4.491   0.017  12.232 -0.5946  0.6000 -0.0117
 1872SOL    HW117075   4.447   4.653  12.232  0.8555 -0.1545 -0.5841
 1872SOL    HW217076   4.524   0.024  12.322  0.4722  1.8996 -0.5049
 1873SOL     OW17077   3.266   4.310  14.139 -0.0983 -0.3016  0.1966
 1873SOL    HW117078   3.301   4.321  14.228  0.1346  2.4310 -0.2340
 1873SOL    HW217079   3.339   4.352  14.093  0.7225 -0.7429  1.0914
 1874SOL     OW17080   2.936   2.025  12.926 -0.0130 -0.6680 -0.4207
 1874SOL    HW117081   2.890   2.080  12.863  1.2679  1.1822  0.2789
 1874SOL    HW217082   3.007   1.998  12.867  0.6867  1.6215 -0.6095
 1875SOL     OW17083   1.947   0.641  15.702 -0.2442  0.0759 -0.4049
 1875SOL    HW117084   1.968   0.637  15.609 -4.2484 -2.8425 -1.1855
 1875SOL    HW217085   1.952   0.735  15.721 -1.4261  0.4005 -1.6598
 1876SOL     OW17086   2.366   3.345  15.231  0.5758  0.2466 -0.1625
 1876SOL    HW117087   2.378   3.396  15.311  0.6973 -0.4915  0.2769
 1876SOL    HW217088   2.286   3.382  15.191 -0.5683 -1.2504  0.7442
 1877SOL     OW17089   1.308   1.864   6.850 -0.0058  0.5675 -0.6991
 1877SOL    HW117090   1.285   1.819   6.931 -1.0963 -1.4681 -2.1531
 1877SOL    HW217091   1.403   1.868   6.861 -0.1489  0.8186  0.4139
 1878SOL     OW17092   1.280   0.683   9.302  0.4729  0.0200 -0.1302
 1878SOL    HW117093   1.293   0.712   9.212  1.5400  0.8095  0.2747
 1878SOL    HW217094   1.205   0.624   9.298  1.8474 -1.6969 -0.6539
 1879SOL     OW17095   0.768   0.799   6.180  0.1595  0.6223 -0.2355
 1879SOL    HW117096   0.808   0.885   6.167  0.1296  0.8153  0.9356
 1879SOL    HW217097   0.794   0.744   6.106 -0.1688  2.1464 -1.4713
 1880SOL     OW17098   0.441   0.026   4.213 -0.2779 -0.3700  0.2695
 1880SOL    HW117099   0.509   4.720   4.152  1.6988  1.9705  1.4051
 1880SOL    HW217100   0.362   0.033   4.159  0.6200  2.4096 -0.7221
 1881SOL     OW17101   4.279   4.272   5.856 -0.3426 -0.1027 -0.4370
 1881SOL    HW117102   4.334   4.286   5.778 -0.4686 -2.6236 -1.0078
 1881SOL    HW217103   4.327   4.196   5.890  0.4656  1.8045  2.5975
 1882SOL     OW17104   2.442   2.597   4.064  0.4116 -0.4679  0.3874
 1882SOL    HW117105   2.460   2.610   4.157 -1.0092  1.8399  0.3472
 1882SOL    HW217106   2.509   2.660   4.035 -1.6030  2.0359  1.0946
 1883SOL     OW17107   4.405   0.280   3.483 -0.7198 -0.0452 -0.4170
 1883SOL    HW117108   4.485   0.304   3.438 -1.4920 -0.5407 -2.0666
 1883SOL    HW217109   4.431   0.198   3.526  1.1327 -0.9635 -3.3036
 1884SOL     OW17110   0.997   0.129  15.669  0.3547 -0.7164  0.1559
 1884SOL    HW117111   0.923   0.129  15.728 -1.4469 -0.7300 -2.0952
 1884SOL    HW217112   0.998   0.225  15.663 -2.3789 -0.7378 -0.4945
 1885SOL     OW17113   3.286   0.617   3.270 -0.0290 -0.1802 -0.0529
 1885SOL    HW117114   3.345   0.632   3.343  0.6989 -0.1353 -0.6499
 1885SOL    HW217115   3.329   0.651   3.191 -2.7448  1.2723 -0.9265
 1886SOL     OW17116   1.529   2.711   6.723 -0.2992 -0.3933 -0.7090
 1886SOL    HW117117   1.510   2.727   6.631 -0.1203  0.1248 -0.6561
 1886SOL    HW217118   1.461   2.647   6.746  0.6784 -0.6994  1.3700
 1887SOL     OW17119   0.665   4.199   3.832  0.5855 -0.4315 -0.0461
 1887SOL    HW117120   0.675   4.265   3.764 -1.0437  0.3727  0.4946
 1887SOL    HW217121   0.575   4.221   3.856  0.8265 -0.7103  1.1264
 1888SOL     OW17122   0.949   2.725   7.722 -0.3969  0.6316 -0.5901
 1888SOL    HW117123   0.968   2.677   7.641  0.1096  3.3665 -2.0785
 1888SOL    HW217124   0.981   2.814   7.708 -0.1766  0.7355  0.5997
 1889SOL     OW17125   1.759   2.227  13.890  0.1206 -0.1482  0.1212
 1889SOL    HW117126   1.668   2.233  13.919 -0.5621 -0.8393 -1.9078
 1889SOL    HW217127   1.775   2.313  13.851  0.6133  0.3968  1.5017
 1890SOL     OW17128   2.961   1.141   6.911  0.2362  0.7344  0.6827
 1890SOL    HW117129   2.986   1.137   6.819  0.0218  0.2846  0.6451
 1890SOL    HW217130   3.036   1.103   6.958  2.9677  2.5078 -2.2452
 1891SOL     OW17131   2.544   2.212   6.654  0.3277 -0.2587 -0.4323
 1891SOL    HW117132   2.636   2.232   6.674 -0.3158  0.3522  1.9207
 1891SOL    HW217133   2.513   2.301   6.668  0.8102 -0.1522 -0.0132
 1892SOL     OW17134   3.543   4.039   3.109 -0.3149 -0.8439  0.0980
 1892SOL    HW117135   3.554   4.134   3.114 -1.5023 -0.6133 -1.5755
 1892SOL    HW217136   3.544   4.024   3.014 -0.8313  2.6449 -0.4359
 1893SOL     OW17137   4.612   2.342   5.618 -0.1203  0.0866  0.4033
 1893SOL    HW117138   4.558   2.267   5.640 -0.0847 -0.8102 -2.6025
 1893SOL    HW217139   4.584   2.393   5.694  0.2942 -0.6340  1.0387
 1894SOL     OW17140   3.951   1.514   4.371  0.2112  0.5294  0.1411
 1894SOL    HW117141   3.929   1.571   4.297  1.2967  1.4349  0.5154
 1894SOL    HW217142   3.971   1.428   4.334  0.9162  0.0494  1.6396
 1895SOL     OW17143   0.606   3.374   8.938  0.6944 -0.4487 -0.0777
 1895SOL    HW117144   0.571   3.421   8.862 -0.6529 -1.9588 -0.3885
 1895SOL    HW217145   0.653   3.446   8.981 -1.8859  1.4137 -0.3115
 1896SOL     OW17146   3.849   0.108   2.618  0.2097  0.6977 -0.5689
 1896SOL    HW117147   3.842   0.104   2.713 -1.1892 -0.3818 -0.7092
 1896SOL    HW217148   3.832   0.201   2.604 -1.9766  0.3610 -0.0999
 1897SOL     OW17149   2.370   1.300   9.488 -0.6497 -0.3463  0.0496
 1897SOL    HW117150   2.405   1.214   9.511 -2.5604 -1.1589 -0.0937
 1897SOL    HW217151   2.310   1.283   9.416 -2.2868  2.7575  0.7044
 1898SOL     OW17152   0.484   3.777   4.444 -0.1344  0.1582  0.1453
 1898SOL    HW117153   0.506   3.774   4.537 -0.7694  1.2134  0.3357
 1898SOL    HW217154   0.396   3.813   4.447  0.2597  1.3050 -1.6779
 1899SOL     OW17155   1.465   2.290   6.974 -0.5424 -0.2688  0.2165
 1899SOL    HW117156   1.519   2.251   6.905 -0.1954  1.0158 -0.2359
 1899SOL    HW217157   1.523   2.337   7.034  1.1903 -0.7246 -1.1017
 1900SOL     OW17158   3.346   4.284  10.136 -0.1654  0.4771  0.4883
 1900SOL    HW117159   3.356   4.335  10.216 -1.5512  0.5518  0.6222
 1900SOL    HW217160   3.398   4.343  10.083 -1.0618  0.8476  0.0287
 1901SOL     OW17161   0.072   0.681   5.723 -0.3916  0.2921 -0.5109
 1901SOL    HW117162   0.157   0.725   5.719 -0.2514  0.1772  1.0696
 1901SOL    HW217163   0.033   0.708   5.806 -0.6701  0.8493 -0.8293
 1902SOL     OW17164   1.166   1.185   4.636  0.6347 -0.2774  0.0334
 1902SOL    HW117165   1.163   1.099   4.593 -0.5416  0.1680 -0.7881
 1902SOL    HW217166   1.151   1.148   4.723 -3.6660  1.0953 -0.1271
 1903SOL     OW17167   2.690   1.934  13.660 -0.1051  0.0786  0.0672
 1903SOL    HW117168   2.719   2.010  13.609  0.3407  0.4071  0.8091
 1903SOL    HW217169   2.639   1.979  13.728 -0.2423  0.1393 -0.0755
 1904SOL     OW17170   3.645   3.431   1.333  0.3109 -0.9244  0.0571
 1904SOL    HW117171   3.705   3.358   1.323  0.7683 -0.5190 -0.1326
 1904SOL    HW217172   3.702   3.501   1.366  0.8449 -0.1931 -2.4185
 1905SOL     OW17173   1.712   3.779  15.232 -0.1549  0.7909 -0.3723
 1905SOL    HW117174   1.672   3.842  15.292 -1.4919 -0.8422  0.4340
 1905SOL    HW217175   1.634   3.729  15.208 -0.0157  0.2947  0.2392
 1906SOL     OW17176   4.561   1.436   2.927  0.7465 -0.2163  0.3145
 1906SOL    HW117177   4.494   1.502   2.946  1.4074 -0.5062  3.7713
 1906SOL    HW217178   4.627   1.465   2.990  2.2462 -1.1601 -0.8445
 1907SOL     OW17179   3.189   3.209  16.653 -0.1838 -0.5750  0.1231
 1907SOL    HW117180   3.110   3.244  16.696 -0.8629  0.8175 -2.2256
 1907SOL    HW217181   3.243   3.284  16.679 -0.1597 -0.7469  0.5678
 1908SOL     OW17182   4.362   1.613   5.667  0.0517  0.8237  0.1221
 1908SOL    HW117183   4.279   1.660   5.662  0.1615  0.9905 -0.1064
 1908SOL    HW217184   4.430   1.678   5.651 -0.0592  0.3135 -2.4013
 1909SOL     OW17185   1.423   4.084  15.769 -0.0062 -0.2272  1.0017
 1909SOL    HW117186   1.443   3.992  15.790  1.1029  0.0142  0.9759
 1909SOL    HW217187   1.511   4.119  15.779 -0.6885  1.4190  1.0910
 1910SOL     OW17188   0.283   3.783   3.297 -0.6021 -0.0080  0.3693
 1910SOL    HW117189   0.217   3.744   3.240  0.4257 -0.5793 -0.4125
 1910SOL    HW217190   0.315   3.706   3.345 -0.5291  0.3111  0.8401
 1911SOL     OW17191   3.432   4.702  13.571 -0.4738  0.0539 -0.1035
 1911SOL    HW117192   3.426   4.607  13.560 -0.3746  0.1111 -0.6420
 1911SOL    HW217193   3.442   0.007  13.479 -1.4999 -0.1288 -0.2631
 1912SOL     OW17194   0.937   1.297   3.503 -0.0421  0.0349  0.1890
 1912SOL    HW117195   0.990   1.334   3.573  1.4053 -4.6025  1.5343
 1912SOL    HW217196   0.888   1.373   3.471 -3.1225 -2.0257  0.0087
 1913SOL     OW17197   4.585   1.505   4.311  0.3373  0.5268  0.1099
 1913SOL    HW117198   4.649   1.474   4.247 -1.4016  0.5994 -1.6579
 1913SOL    HW217199   4.500   1.477   4.279  0.2832  2.4533 -1.4053
 1914SOL     OW17200   1.404   3.293  16.647 -0.2340 -0.3459 -0.1591
 1914SOL    HW117201   1.434   3.249  16.567  1.0988 -1.8879  1.1857
 1914SOL    HW217202   1.312   3.306  16.626 -0.0020  1.6052  0.0120
 1915SOL     OW17203   0.818   2.330  16.910 -0.8266  0.1484  0.8840
 1915SOL    HW117204   0.881   2.261  16.890 -1.3249 -0.0463  0.0048
 1915SOL    HW217205   0.866   2.413  16.908 -0.7784  0.0533 -1.2225
 1916SOL     OW17206   1.993   3.786   3.277  0.2227  0.4822  0.0488
 1916SOL    HW117207   1.993   3.692   3.290 -3.7959  0.1992 -1.9451
 1916SOL    HW217208   2.071   3.802   3.224 -1.6051 -0.5972 -2.9767
 1917SOL     OW17209   0.643   2.742   5.484 -0.0433 -0.2448  0.9810
 1917SOL    HW117210   0.674   2.652   5.466 -0.1480 -0.5176  2.1744
 1917SOL    HW217211   0.685   2.753   5.569  0.2610 -3.3137  1.2361
 1918SOL     OW17212   1.570   2.072   1.963  0.5488 -0.2133  0.2623
 1918SOL    HW117213   1.478   2.048   1.949  0.7890 -1.6705  1.1520
 1918SOL    HW217214   1.600   2.075   1.872 -0.6095  1.0552 -0.0792
 1919SOL     OW17215   1.779   4.194   4.246  0.1033 -0.0682  0.2110
 1919SOL    HW117216   1.778   4.248   4.325 -1.7016  0.9945 -0.5354
 1919SOL    HW217217   1.765   4.109   4.288  2.0422 -0.6695 -0.3627
 1920SOL     OW17218   0.663   3.832   0.767  0.1101 -0.8080  0.2818
 1920SOL    HW117219   0.705   3.900   0.714 -1.6933  0.6888  0.7681
 1920SOL    HW217220   0.582   3.873   0.799  1.4855 -0.0691  2.8262
 1921SOL     OW17221   1.684   0.914   5.944 -0.2737 -0.3371 -0.0336
 1921SOL    HW117222   1.641   0.882   5.865 -0.9634  2.0932 -0.6280
 1921SOL    HW217223   1.613   0.956   5.992 -1.8454 -3.0855  0.0258
 1922SOL     OW17224   2.118   1.162   3.279 -0.5716 -0.2920 -0.6509
 1922SOL    HW117225   2.170   1.102   3.226  0.6344  0.0828  0.1318
 1922SOL    HW217226   2.086   1.216   3.206 -1.2376  0.1079 -0.0575
 1923SOL     OW17227   3.969   1.583   8.979 -0.2474 -0.4184 -0.1290
 1923SOL    HW117228   3.999   1.503   9.022  0.1267 -1.0066 -1.4875
 1923SOL    HW217229   4.005   1.652   9.035 -0.4710 -2.4397  2.4931
 1924SOL     OW17230   0.271   3.899  15.882  0.2693  0.2161 -0.0509
 1924SOL    HW117231   0.299   3.820  15.836 -0.7363  0.3558 -0.9037
 1924SOL    HW217232   0.359   3.921  15.912 -0.2890  1.7603  0.4606
 1925SOL     OW17233   0.820   2.122   0.955 -0.1933  0.0929  0.1949
 1925SOL    HW117234   0.803   2.030   0.972 -1.4576 -0.2421 -2.8997
 1925SOL    HW217235   0.903   2.109   0.908 -0.4217  0.0120 -0.1883
 1926SOL     OW17236   1.587   3.613   4.690  0.2060 -0.9144 -0.2133
 1926SOL    HW117237   1.497   3.595   4.717 -0.7933  2.8835 -1.0366
 1926SOL    HW217238   1.600   3.546   4.623 -1.0651 -2.0450  0.6838
 1927SOL     OW17239   4.524   0.895   6.159 -0.0707 -0.2562 -0.3005
 1927SOL    HW117240   4.460   0.933   6.099  1.3931  1.9593 -0.4431
 1927SOL    HW217241   4.585   0.969   6.157 -1.7709  1.1720  0.2767
 1928SOL     OW17242   4.042   2.451   6.805  0.3373 -0.0385  0.6808
 1928SOL    HW117243   4.116   2.508   6.783  0.2134 -0.0250  0.2947
 1928SOL    HW217244   4.048   2.389   6.732 -0.6685 -0.3310  0.8542
 1929SOL     OW17245   2.288   1.009   2.769 -0.6693  0.4378  0.1023
 1929SOL    HW117246   2.320   1.079   2.826  2.4244 -0.3199 -0.7400
 1929SOL    HW217247   2.363   0.961   2.735 -1.9895 -0.6674 -1.2540
 1930SOL     OW17248   1.236   0.153   7.782  0.2691  0.2977  0.5815
 1930SOL    HW117249   1.286   0.099   7.842 -0.2754  0.1797  0.9248
 1930SOL    HW217250   1.243   0.096   7.705  0.9995 -0.0867  0.9277
 1931SOL     OW17251   1.277   1.531   5.406  0.0275  0.6870 -0.1076
 1931SOL    HW117252   1.192   1.489   5.421 -0.4675  0.8729 -2.4454
 1931SOL    HW217253   1.301   1.565   5.492 -0.0554 -0.6440  0.4511
 1932SOL     OW17254   4.191   2.899   7.317 -0.2647 -0.0288  0.0097
 1932SOL    HW117255   4.213   2.820   7.367  0.9243  0.7407  0.6786
 1932SOL    HW217256   4.262   2.896   7.253  0.7189 -0.4579  1.1210
 1933SOL     OW17257   0.732   2.766   1.166 -0.2671  0.1000 -0.3652
 1933SOL    HW117258   0.739   2.799   1.255  0.7620 -0.3984 -0.2588
 1933SOL    HW217259   0.721   2.846   1.114  0.3450  0.0565 -0.5643
 1934SOL     OW17260   0.581   2.417   2.790  0.3096  0.3152 -0.8553
 1934SOL    HW117261   0.529   2.348   2.830  0.1021  0.9663 -0.0067
 1934SOL    HW217262   0.620   2.457   2.868  0.1268 -2.0433  0.4420
 1935SOL     OW17263   1.929   2.585   7.939 -0.5603  0.0018 -0.5739
 1935SOL    HW117264   1.910   2.499   7.901 -0.2580 -0.9436  1.3919
 1935SOL    HW217265   1.960   2.561   8.027 -1.3886  0.9541 -0.0142
 1936SOL     OW17266   4.228   4.451   3.766 -0.0172  0.4493 -0.1824
 1936SOL    HW117267   4.199   4.482   3.680  1.3467  3.1362  0.3259
 1936SOL    HW217268   4.143   4.449   3.811  0.1869  0.8060  0.2196
 1937SOL     OW17269   1.390   3.890   0.409  0.7075 -1.0194  0.3177
 1937SOL    HW117270   1.379   3.850   0.495  1.8342 -1.9776  0.0256
 1937SOL    HW217271   1.483   3.885   0.388  0.7852  3.5970 -0.2456
 1938SOL     OW17272   1.424   1.998   2.295  0.4861 -0.6192  0.3640
 1938SOL    HW117273   1.503   1.946   2.282 -0.0939 -1.1604 -0.9326
 1938SOL    HW217274   1.435   2.024   2.387 -2.4677  0.4638  0.3986
 1939SOL     OW17275   1.101   0.150   8.544  0.2230  0.5504 -0.2765
 1939SOL    HW117276   1.100   0.055   8.540  1.4676  0.4647  1.6927
 1939SOL    HW217277   1.104   0.170   8.638 -0.1213 -1.1743  0.0900
 1940SOL     OW17278   3.522   0.748   4.862 -0.0531  0.4788 -0.1221
 1940SOL    HW117279   3.608   0.741   4.903 -0.6978 -2.9391  0.6160
 1940SOL    HW217280   3.540   0.692   4.787 -1.4105 -1.5804  1.0980
 1941SOL     OW17281   3.833   2.570  12.425  0.0855  0.3033 -0.4538
 1941SOL    HW117282   3.751   2.604  12.460  0.9702  2.4423 -0.4614
 1941SOL    HW217283   3.821   2.605  12.336 -2.9344 -0.4333 -0.3579
 1942SOL     OW17284   3.488   1.304   2.419 -0.2356 -0.3385  0.1583
 1942SOL    HW117285   3.543   1.252   2.360 -0.1828  0.8023 -0.7936
 1942SOL    HW217286   3.451   1.363   2.354  0.5116 -1.0144 -0.8861
 1943SOL     OW17287   1.025   2.997   9.292 -0.7186 -0.3714  0.1483
 1943SOL    HW117288   1.067   2.912   9.299  0.2985 -0.0471 -1.8484
 1943SOL    HW217289   0.944   2.987   9.341 -0.2545 -1.7485  0.6210
 1944SOL     OW17290   3.816   4.138  15.053 -0.1763  0.4358 -0.2765
 1944SOL    HW117291   3.820   4.086  15.133  0.6588 -0.9891 -1.2604
 1944SOL    HW217292   3.909   4.142  15.031  0.0034 -0.2869  0.3479
 1945SOL     OW17293   2.691   2.915   0.967 -0.4752 -0.1695  0.2025
 1945SOL    HW117294   2.731   2.975   1.030 -1.5336 -1.2152  1.8743
 1945SOL    HW217295   2.608   2.957   0.945 -1.8148 -1.1153  3.3485
 1946SOL     OW17296   0.341   1.639   2.657 -0.4610  0.1169  0.5379
 1946SOL    HW117297   0.383   1.556   2.636 -2.6075 -0.4902 -1.3734
 1946SOL    HW217298   0.422   1.690   2.653  0.2678 -1.1597 -0.6587
 1947SOL     OW17299   3.748   2.581   7.779  0.5977 -0.1494  0.1624
 1947SOL    HW117300   3.799   2.504   7.755  1.8370  0.7389 -0.0501
 1947SOL    HW217301   3.815   2.650   7.778  1.1833 -0.7133  0.4958
 1948SOL     OW17302   0.973   3.075  11.867 -0.1817  0.1579  0.1476
 1948SOL    HW117303   0.892   3.029  11.845 -0.3234 -0.3985  1.8329
 1948SOL    HW217304   0.965   3.158  11.820  1.8428  1.0783  1.4001
 1949SOL     OW17305   2.619   4.294  13.764  0.2944 -0.3515  0.4735
 1949SOL    HW117306   2.582   4.258  13.844  1.3831 -3.3866 -0.3873
 1949SOL    HW217307   2.695   4.339  13.799  0.8753 -0.8485 -0.1564
 1950SOL     OW17308   4.553   0.449  11.816 -0.8420 -0.5186  0.5929
 1950SOL    HW117309   4.576   0.430  11.907 -1.7547 -0.0761  0.9152
 1950SOL    HW217310   4.611   0.521  11.795  1.1117 -1.6032  2.1974
 1951SOL     OW17311   0.147   3.753   9.821  0.1633  0.5059 -0.1042
 1951SOL    HW117312   0.199   3.675   9.801  2.3360  1.5798  1.2476
 1951SOL    HW217313   0.125   3.734   9.912 -0.8767 -1.8285 -0.8726
 1952SOL     OW17314   3.599   3.155  14.259 -0.9531  0.2197  0.5261
 1952SOL    HW117315   3.535   3.227  14.259 -0.0385  1.0417  0.6862
 1952SOL    HW217316   3.661   3.193  14.321  0.2057  2.8116 -2.2152
 1953SOL     OW17317   4.017   3.932   8.322 -0.0842 -0.2895  0.4664
 1953SOL    HW117318   3.982   3.971   8.242  0.9142  0.5974  0.4575
 1953SOL    HW217319   4.097   3.985   8.318 -0.4148 -0.0429 -2.7003
 1954SOL     OW17320   0.295   2.157   6.066  0.2939  0.0045 -0.0923
 1954SOL    HW117321   0.221   2.217   6.057  0.5554  0.2485 -0.6046
 1954SOL    HW217322   0.254   2.070   6.059  1.2195 -0.3994 -0.5709
 1955SOL     OW17323   4.487   2.250  12.751  0.1936 -0.2024  0.1189
 1955SOL    HW117324   4.510   2.160  12.774  0.8434  0.1569  0.8797
 1955SOL    HW217325   4.490   2.238  12.656  0.6567 -0.1549  0.1320
 1956SOL     OW17326   3.846   2.103   4.997 -0.2707 -0.0605 -0.3471
 1956SOL    HW117327   3.771   2.053   4.965 -0.4203 -1.5616  2.3224
 1956SOL    HW217328   3.854   2.167   4.926 -0.8614 -1.3602 -1.5801
 1957SOL     OW17329   1.511   2.819  14.735 -0.4284  0.3196 -0.1475
 1957SOL    HW117330   1.464   2.890  14.780 -1.9763 -0.1971 -0.9591
 1957SOL    HW217331   1.440   2.765  14.701 -0.0889 -1.3318  1.7792
 1958SOL     OW17332   2.877   1.253   6.548 -0.4156  0.2294  0.4692
 1958SOL    HW117333   2.956   1.205   6.522 -1.3776 -0.3862 -1.3269
 1958SOL    HW217334   2.914   1.335   6.580 -0.6290  1.5337 -2.7143
 1959SOL     OW17335   0.592   2.271   9.755  0.5534  0.0738 -0.2559
 1959SOL    HW117336   0.640   2.294   9.835 -0.1700 -1.1082  0.5266
 1959SOL    HW217337   0.573   2.355   9.714  0.2122  1.0487  1.8960
 1960SOL     OW17338   0.485   4.121   8.566 -0.0611  0.1179  0.5279
 1960SOL    HW117339   0.416   4.110   8.501 -0.9342 -0.4916  1.5571
 1960SOL    HW217340   0.428   4.143   8.639 -2.4867 -0.5930 -1.1375
 1961SOL     OW17341   2.924   1.998   4.775 -0.2217 -0.2754 -0.4524
 1961SOL    HW117342   2.922   1.924   4.714  1.8533 -0.3936 -0.3698
 1961SOL    HW217343   2.843   2.044   4.751  0.2185  0.5114 -0.4434
 1962SOL     OW17344   0.659   4.289   8.323  0.0934  0.2034 -0.6568
 1962SOL    HW117345   0.711   4.320   8.249  1.7998 -0.2963  0.3435
 1962SOL    HW217346   0.731   4.251   8.374 -2.3026 -1.2427  1.6433
 1963SOL     OW17347   4.650   3.940   9.835  0.0495 -0.0064 -0.1399
 1963SOL    HW117348   4.711   3.869   9.813 -0.5414 -0.6958  0.3986
 1963SOL    HW217349   4.704   4.012   9.867 -0.6058  0.2146  0.4562
 1964SOL     OW17350   1.705   3.847   2.423 -0.4039  0.0630  0.2545
 1964SOL    HW117351   1.696   3.813   2.334  0.1087 -2.7690  1.2715
 1964SOL    HW217352   1.702   3.942   2.408  0.7267  0.2924  1.4514
 1965SOL     OW17353   1.778   1.921   8.069  0.6692  0.1410 -0.2536
 1965SOL    HW117354   1.810   1.956   8.153 -2.5861  2.5674 -0.0188
 1965SOL    HW217355   1.788   1.829   8.091  0.4014 -0.3399 -2.1843
 1966SOL     OW17356   3.323   0.260  16.192 -0.2158  0.3846  0.1358
 1966SOL    HW117357   3.401   0.298  16.151  0.0521 -1.5074 -1.1018
 1966SOL    HW217358   3.348   0.177  16.231 -0.5510  0.3491  0.2783
 1967SOL     OW17359   2.806   0.440   6.167 -0.0478  0.4201 -0.3366
 1967SOL    HW117360   2.887   0.408   6.209 -1.1101  1.4105  2.4785
 1967SOL    HW217361   2.747   0.395   6.228 -3.0749  0.9790 -2.9018
 1968SOL     OW17362   1.619   1.314  14.944 -0.0349  0.1811  0.4454
 1968SOL    HW117363   1.684   1.307  14.874 -1.8348  3.0362 -1.5398
 1968SOL    HW217364   1.627   1.231  14.990  0.9250 -0.0152 -0.0731
 1969SOL     OW17365   4.272   3.318  11.014  0.4001 -0.3123 -1.0927
 1969SOL    HW117366   4.323   3.285  11.088  1.5080  1.8036 -0.9004
 1969SOL    HW217367   4.205   3.250  11.007 -1.7206  1.4060  2.4996
 1970SOL     OW17368   4.354   3.164   8.174 -0.1390 -0.0414  0.5953
 1970SOL    HW117369   4.288   3.149   8.242 -0.6562 -2.9333 -0.5255
 1970SOL    HW217370   4.409   3.233   8.209 -1.4217  0.0097  2.5041
 1971SOL     OW17371   2.246   1.242   6.040  0.6059  0.1994 -0.2382
 1971SOL    HW117372   2.204   1.277   6.119 -2.1575 -1.0993 -1.1361
 1971SOL    HW217373   2.312   1.193   6.089  1.8482  1.5236 -0.6063
 1972SOL     OW17374   4.608   0.582  17.004  0.6180  0.3595  0.3686
 1972SOL    HW117375   4.650   0.502  17.037 -0.2289 -0.6315 -0.9085
 1972SOL    HW217376   4.671   0.647  17.033 -0.9198  1.9239  0.1625
 1973SOL     OW17377   4.590   4.323   5.387 -0.3428  0.9447  0.0161
 1973SOL    HW117378   4.633   4.244   5.355  0.3628  0.4332  2.2106
 1973SOL    HW217379   4.639   4.389   5.339 -0.3084  1.6216  0.9731
 1974SOL     OW17380   0.557   1.114  11.548  0.0019  0.2123  0.4904
 1974SOL    HW117381   0.578   1.103  11.641  5.3562 -1.1623 -0.8825
 1974SOL    HW217382   0.526   1.204  11.542 -0.7409  0.0182  1.3479
 1975SOL     OW17383   2.796   3.528  13.951  0.1310  0.2006  0.3155
 1975SOL    HW117384   2.765   3.438  13.937  1.6970 -0.2187 -0.4699
 1975SOL    HW217385   2.838   3.514  14.035 -0.1727  0.3587  0.4945
 1976SOL     OW17386   2.388   3.021   1.261 -0.3827  0.2227  0.2537
 1976SOL    HW117387   2.463   3.066   1.222 -0.0481 -3.7057 -3.6378
 1976SOL    HW217388   2.324   3.091   1.250  0.6196  1.2540  0.9694
 1977SOL     OW17389   0.145   2.985   8.679  0.2834 -0.1860  0.6407
 1977SOL    HW117390   0.077   2.921   8.657  0.4952 -0.1894  0.0118
 1977SOL    HW217391   0.155   3.023   8.592  0.1790  0.0517  0.7324
 1978SOL     OW17392   4.151   2.716   9.093 -0.3579  0.4557  0.0757
 1978SOL    HW117393   4.208   2.650   9.133 -1.0210  0.3632  0.8606
 1978SOL    HW217394   4.158   2.690   9.001  4.8731 -1.9172  1.1375
 1979SOL     OW17395   1.080   1.981  17.031  0.3606 -0.2095  0.1314
 1979SOL    HW117396   1.089   1.908  17.093 -0.0306  0.0059  0.4376
 1979SOL    HW217397   1.062   2.051  17.093  1.6465  0.4255 -0.2263
 1980SOL     OW17398   0.740   2.939   2.167 -0.2750 -0.0514  0.4147
 1980SOL    HW117399   0.820   2.899   2.200  1.0806  1.1358 -1.4098
 1980SOL    HW217400   0.678   2.866   2.169 -0.5250  0.2080  1.6314
 1981SOL     OW17401   4.238   2.592   4.094 -0.2818  0.0681  0.3028
 1981SOL    HW117402   4.294   2.598   4.017 -1.4193  1.1314 -0.4164
 1981SOL    HW217403   4.235   2.497   4.110 -0.7235  0.4799  2.7397
 1982SOL     OW17404   4.057   1.795   6.243 -0.2562  0.3276  0.0302
 1982SOL    HW117405   4.013   1.878   6.224  3.2644  1.9541 -1.2085
 1982SOL    HW217406   4.119   1.789   6.170  1.5304 -1.1429  1.6732
 1983SOL     OW17407   4.630   0.101   4.209 -0.1286  0.2412  0.2228
 1983SOL    HW117408   4.544   0.129   4.243  0.0530 -0.0890  0.9502
 1983SOL    HW217409   4.686   0.174   4.236 -0.3782  0.9153 -1.0508
 1984SOL     OW17410   1.401   0.482  10.896  0.5610  0.1287  0.0756
 1984SOL    HW117411   1.407   0.541  10.971 -0.3517  0.9580 -0.5053
 1984SOL    HW217412   1.363   0.536  10.827  1.5793 -1.7299 -1.9163
 1985SOL     OW17413   1.453   3.351   4.031 -0.6316 -0.1186  0.0597
 1985SOL    HW117414   1.536   3.398   4.025 -1.1569  0.7199 -0.6310
 1985SOL    HW217415   1.444   3.331   3.938  0.4733 -0.4330  0.0203
 1986SOL     OW17416   1.609   1.040   1.038 -0.1550  0.2710 -0.1489
 1986SOL    HW117417   1.686   0.984   1.037 -1.3580 -1.3772 -0.0054
 1986SOL    HW217418   1.636   1.123   0.999  0.1706  0.0349 -0.4191
 1987SOL     OW17419   3.366   0.926  12.506  0.1031  0.3651  0.4747
 1987SOL    HW117420   3.357   1.004  12.562 -0.7331  0.4454  0.2353
 1987SOL    HW217421   3.417   0.963  12.435  0.6655  2.0282  1.7314
 1988SOL     OW17422   2.312   2.982   8.271 -0.4153 -0.2946  0.1137
 1988SOL    HW117423   2.307   2.954   8.362 -0.3629  1.7098  0.7337
 1988SOL    HW217424   2.355   3.067   8.282 -0.5844 -0.0482 -1.0714
 1989SOL     OW17425   2.078   0.210   5.148  0.4212  0.2694 -0.9406
 1989SOL    HW117426   2.066   0.198   5.054 -3.4155 -0.6180 -0.3169
 1989SOL    HW217427   1.997   0.172   5.182  0.1884  2.2027  0.6209
 1990SOL     OW17428   4.645   3.428  12.204 -0.1515  0.8320 -0.0638
 1990SOL    HW117429   4.716   3.492  12.206  0.2877  0.3237  0.5139
 1990SOL    HW217430   4.696   3.371  12.146 -0.6622 -0.0209  0.3411
 1991SOL     OW17431   0.318   3.599   7.108 -0.2777 -0.9315 -0.3986
 1991SOL    HW117432   0.234   3.637   7.134  0.2081 -0.5467  0.6125
 1991SOL    HW217433   0.339   3.547   7.186  0.2160 -0.9567 -0.5550
 1992SOL     OW17434   3.595   3.088   6.038  0.1233 -0.2090 -0.0743
 1992SOL    HW117435   3.588   3.183   6.029 -0.6391 -0.2413  0.1557
 1992SOL    HW217436   3.632   3.079   6.126  0.2456  1.7047  0.0565
 1993SOL     OW17437   2.582   2.531   5.976  0.2776 -0.1085 -0.8539
 1993SOL    HW117438   2.569   2.538   5.882 -1.4833  0.0284 -0.6074
 1993SOL    HW217439   2.497   2.496   6.003 -0.3743  2.5420  0.6142
 1994SOL     OW17440   3.240   2.371   2.860  0.4901 -0.3279  0.2700
 1994SOL    HW117441   3.199   2.285   2.861  0.1991 -0.2051 -0.8508
 1994SOL    HW217442   3.335   2.362   2.852  0.6538  2.2696 -0.9106
 1995SOL     OW17443   2.677   4.316   2.463  0.4565 -0.0826  0.2042
 1995SOL    HW117444   2.766   4.303   2.494  0.0277 -3.4559  0.0126
 1995SOL    HW217445   2.636   4.365   2.534 -0.1241  0.8491 -0.7690
 1996SOL     OW17446   3.164   3.338  15.759  0.6232  0.2630  0.5377
 1996SOL    HW117447   3.104   3.276  15.717  0.1360  1.0864  0.0148
 1996SOL    HW217448   3.158   3.323  15.853 -0.2817  1.5132  0.6849
 1997SOL     OW17449   3.853   2.638   3.884 -0.8574  0.3090  0.3101
 1997SOL    HW117450   3.876   2.556   3.929  0.2821  0.7754  0.5690
 1997SOL    HW217451   3.788   2.613   3.819 -0.7627 -0.7096  0.6023
 1998SOL     OW17452   0.052   4.243   2.435  0.6611  0.3063  0.6077
 1998SOL    HW117453   0.070   4.150   2.445  0.1518  0.0357 -0.9504
 1998SOL    HW217454   4.684   4.249   2.470  0.4702  2.2079 -0.1920
 1999SOL     OW17455   1.010   1.602   6.512 -0.1481  0.0979 -0.3146
 1999SOL    HW117456   1.056   1.655   6.577 -0.3349  0.2513 -0.3067
 1999SOL    HW217457   1.023   1.514   6.548 -0.7330  0.8324  1.6841
 2000SOL     OW17458   2.794   2.301  14.516 -0.1354  0.6114  0.0215
 2000SOL    HW117459   2.835   2.311  14.430  2.6393  0.0055  1.2675
 2000SOL    HW217460   2.704   2.334  14.511  0.5709  2.6001  0.5791
 2001SOL     OW17461   4.607   3.745   1.254 -0.5127  0.2471  0.2506
 2001SOL    HW117462   4.591   3.657   1.289  0.1820  0.4706  1.1504
 2001SOL    HW217463   4.533   3.793   1.293 -0.5201  1.0681 -0.7964
 2002SOL     OW17464   1.461   4.482  11.010  0.1084 -0.1913 -0.1976
 2002SOL    HW117465   1.421   4.532  10.940 -0.6208 -0.6601 -0.1191
 2002SOL    HW217466   1.550   4.516  11.021  0.1598  0.4654 -2.7219
 2003SOL     OW17467   4.189   2.983   1.296  0.3283 -0.2264  0.2838
 2003SOL    HW117468   4.259   2.959   1.357  0.0399 -0.2152  0.6190
 2003SOL    HW217469   4.238   3.038   1.234 -1.0396  0.6173 -0.0451
 2004SOL     OW17470   1.136   4.216   4.791 -0.3593  0.4829  0.5415
 2004SOL    HW117471   1.115   4.126   4.766 -0.5992 -0.1213  2.9522
 2004SOL    HW217472   1.192   4.204   4.868 -0.1644 -0.4928  0.2426
 2005SOL     OW17473   3.136   4.029  14.679  0.1637 -0.2128 -0.0852
 2005SOL    HW117474   3.159   4.072  14.761 -1.0219  0.8121 -0.2889
 2005SOL    HW217475   3.218   4.036  14.629 -1.0965  0.8283 -1.9995
 2006SOL     OW17476   2.147   1.625   5.085  0.2179  0.1786  0.2164
 2006SOL    HW117477   2.156   1.530   5.086  1.2409  0.2805  3.4180
 2006SOL    HW217478   2.121   1.642   5.176  0.7753  0.8417  0.2539
 2007SOL     OW17479   4.619   2.360   7.913  0.4418  0.0838  0.1268
 2007SOL    HW117480   4.693   2.334   7.968  1.6476  1.8868 -0.6297
 2007SOL    HW217481   4.549   2.297   7.926  1.7726 -1.7156 -1.4805
 2008SOL     OW17482   2.646   2.963   5.662  0.1360 -0.3641  0.2247
 2008SOL    HW117483   2.676   2.906   5.733  0.3546  0.5276  0.8456
 2008SOL    HW217484   2.710   3.033   5.651 -0.6269  0.2023 -0.6243
 2009SOL     OW17485   2.945   2.219   2.138 -0.1567  0.6455  0.1346
 2009SOL    HW117486   2.873   2.225   2.075  1.8859 -2.1750 -2.4711
 2009SOL    HW217487   2.892   2.198   2.214 -0.1780  0.8954  0.1894
 2010SOL     OW17488   4.529   4.010   3.615  0.9512  0.2332  0.4436
 2010SOL    HW117489   4.503   4.023   3.523  0.8345 -2.3356  0.0974
 2010SOL    HW217490   4.446   3.978   3.650  1.3907 -0.2198  1.0678
 2011SOL     OW17491   3.297   1.783   4.015  0.3123 -0.2443 -0.0206
 2011SOL    HW117492   3.214   1.773   3.967  0.9125  0.7193 -1.2854
 2011SOL    HW217493   3.265   1.819   4.098  2.1898  0.8760  0.2149
 2012SOL     OW17494   2.271   4.488   6.956 -0.1571  0.1498  0.5040
 2012SOL    HW117495   2.195   4.547   6.951 -0.4083 -0.0397  2.2344
 2012SOL    HW217496   2.330   4.541   6.901  1.1005 -0.4298  1.2942
 2013SOL     OW17497   1.341   0.170  15.663 -0.2628 -0.0256  0.3884
 2013SOL    HW117498   1.372   0.079  15.660  1.2006  0.3669  2.7385
 2013SOL    HW217499   1.334   0.190  15.570 -3.5267 -0.0811  0.6393
 2014SOL     OW17500   3.229   0.985   7.003  0.0623 -0.3815 -0.6028
 2014SOL    HW117501   3.310   1.024   6.972  0.3513 -2.4946 -2.5093
 2014SOL    HW217502   3.228   0.917   6.936 -3.7219 -0.4911 -0.4099
 2015SOL     OW17503   4.353   1.790  13.359  0.3282  0.5264 -0.0546
 2015SOL    HW117504   4.435   1.772  13.314  0.1636  0.1482 -0.2135
 2015SOL    HW217505   4.295   1.799  13.283 -0.0373  0.0337  0.1586
 2016SOL     OW17506   1.163   4.373   1.210  0.0853  0.3043 -0.1138
 2016SOL    HW117507   1.186   4.423   1.288 -2.4709  0.0352  0.8136
 2016SOL    HW217508   1.250   4.391   1.176  0.3940  0.0423  0.5335
 2017SOL     OW17509   3.131   1.110  16.542 -0.7076 -0.6450 -0.0819
 2017SOL    HW117510   3.105   1.159  16.464 -2.4898 -0.8399  0.3750
 2017SOL    HW217511   3.198   1.049  16.513  0.2779  0.5659 -0.3237
 2018SOL     OW17512   1.541   0.110   5.310 -0.4003 -0.2857  0.1663
 2018SOL    HW117513   1.529   0.123   5.216  0.0404  2.5178  0.4734
 2018SOL    HW217514   1.452   0.128   5.341 -0.0156  1.4970  0.2651
 2019SOL     OW17515   0.979   0.540   8.349  0.1037  0.1489 -0.1530
 2019SOL    HW117516   0.899   0.582   8.380  0.8386  1.1800  0.3555
 2019SOL    HW217517   0.971   0.465   8.408 -1.2083  1.1584  0.9506
 2020SOL     OW17518   0.176   3.555  11.256  0.5532  0.1567 -0.6288
 2020SOL    HW117519   0.106   3.491  11.267  0.9696 -0.1238  0.3241
 2020SOL    HW217520   0.257   3.503  11.259  0.4242  0.1442  2.1645
 2021SOL     OW17521   1.546   0.832   3.169 -0.6457  0.2590  0.7873
 2021SOL    HW117522   1.540   0.928   3.171 -1.8174  0.1974  0.5002
 2021SOL    HW217523   1.622   0.817   3.225 -0.1278  1.7153  0.4804
 2022SOL     OW17524   3.729   1.120  17.525  0.4436 -0.5606 -0.6220
 2022SOL    HW117525   3.755   1.195  17.472  2.9218 -0.5040  0.6293
 2022SOL    HW217526   3.637   1.133  17.548  0.1997 -2.4072 -0.5833
 2023SOL     OW17527   0.051   3.715   0.031  0.5161 -0.2935 -0.3368
 2023SOL    HW117528   0.105   3.707  17.639 -0.0472 -0.8822 -0.6649
 2023SOL    HW217529   4.714   3.639   0.024  1.8219 -1.3110 -0.3663
 2024SOL     OW17530   0.849   3.189   6.172 -0.8327  0.5589 -0.3937
 2024SOL    HW117531   0.771   3.225   6.129 -1.0164 -2.1511 -2.2949
 2024SOL    HW217532   0.864   3.259   6.236 -0.8324  0.1167  0.0917
 2025SOL     OW17533   3.272   3.215   7.036  0.4588  0.8890 -0.2789
 2025SOL    HW117534   3.250   3.231   6.944 -0.7244  1.7570  0.1558
 2025SOL    HW217535   3.364   3.242   7.042  0.7623  0.8100 -4.6183
 2026SOL     OW17536   1.952   0.156   2.317  0.2995  0.1923 -0.0912
 2026SOL    HW117537   2.013   0.100   2.365  0.0204 -1.7230 -1.9764
 2026SOL    HW217538   1.927   0.087   2.256  1.7584 -0.0503 -0.4160
 2027SOL     OW17539   3.164   2.585  14.242 -0.2402  0.2720 -0.1957
 2027SOL    HW117540   3.068   2.585  14.236 -0.2303  1.4276 -0.2235
 2027SOL    HW217541   3.189   2.622  14.158  1.6974 -1.1955 -0.2800
 2028SOL     OW17542   1.321   1.478   6.197 -0.2651  0.0114 -0.1197
 2028SOL    HW117543   1.338   1.498   6.290  0.5874 -0.5984 -0.1419
 2028SOL    HW217544   1.314   1.567   6.163  2.4529  0.2368 -0.0797
 2029SOL     OW17545   3.185   2.176   7.893 -0.0398 -0.6561  0.3488
 2029SOL    HW117546   3.175   2.244   7.827 -2.4955 -1.1483  0.2121
 2029SOL    HW217547   3.263   2.210   7.936 -0.9778  0.4298  1.1759
 2030SOL     OW17548   3.088   4.706   0.763 -0.4848 -0.0123  0.1164
 2030SOL    HW117549   3.178   0.016   0.758 -0.3517 -0.6167 -1.3792
 2030SOL    HW217550   3.061   0.024   0.680 -2.0037  1.4439  1.3029
 2031SOL     OW17551   4.385   3.737   5.889  0.1342  0.3839  0.4189
 2031SOL    HW117552   4.370   3.643   5.880 -0.3143  0.5300 -0.3704
 2031SOL    HW217553   4.408   3.745   5.982 -0.0515 -1.8636  0.6623
 2032SOL     OW17554   4.283   4.232  12.881 -0.3349 -0.1611 -0.4688
 2032SOL    HW117555   4.209   4.188  12.838 -1.3259 -0.1101  1.1743
 2032SOL    HW217556   4.353   4.178  12.845  0.9587  1.3504 -0.2075
 2033SOL     OW17557   1.829   2.482   3.866 -0.1924 -0.1796  0.2860
 2033SOL    HW117558   1.736   2.481   3.890 -0.4695 -3.0227 -0.9952
 2033SOL    HW217559   1.864   2.543   3.931 -1.0655  1.1103 -0.4530
 2034SOL     OW17560   2.562   4.466   4.869 -0.7496 -0.4845  0.1100
 2034SOL    HW117561   2.589   4.529   4.936  2.3950 -0.8354 -0.8257
 2034SOL    HW217562   2.499   4.521   4.821  0.2126  0.0508 -0.5271
 2035SOL     OW17563   4.030   1.553   4.830  0.5733  0.2545  0.1078
 2035SOL    HW117564   4.121   1.524   4.826  0.3723 -0.1117 -2.2193
 2035SOL    HW217565   4.001   1.520   4.914  0.5146  0.7303  0.2755
 2036SOL     OW17566   1.769   3.373   5.113  0.0631  0.1375 -0.0248
 2036SOL    HW117567   1.825   3.364   5.036  0.9821 -1.0512  0.7838
 2036SOL    HW217568   1.744   3.464   5.098  0.5985  0.3038  0.1137
 2037SOL     OW17569   2.253   4.177  17.675  0.5830  0.6907  0.4831
 2037SOL    HW117570   2.194   4.253  17.679 -0.6308 -0.1983 -0.4318
 2037SOL    HW217571   2.335   4.218  17.648  1.1497 -1.0943 -0.5340
 2038SOL     OW17572   0.051   4.440   3.351 -0.0777 -0.5354 -0.0220
 2038SOL    HW117573   0.032   4.495   3.275  1.6887  0.3422  0.1785
 2038SOL    HW217574   0.142   4.415   3.335 -0.1987 -1.0930  0.1736
 2039SOL     OW17575   0.078   0.033   7.254 -0.1859  0.1744 -0.2773
 2039SOL    HW117576   0.141   0.092   7.212 -1.8017  1.2068 -1.2687
 2039SOL    HW217577   0.075   4.693   7.180  0.5239 -0.3270  0.1204
 2040SOL     OW17578   3.918   3.695   7.066 -0.9646 -0.5365  0.0806
 2040SOL    HW117579   3.980   3.652   7.007  2.5104  1.9184  1.9485
 2040SOL    HW217580   3.959   3.679   7.152 -0.4880  5.5952  0.9898
 2041SOL     OW17581   1.818   4.672   4.511 -0.6075  0.1172  0.4352
 2041SOL    HW117582   1.861   4.633   4.435 -0.8916  1.9770 -0.6842
 2041SOL    HW217583   1.871   4.643   4.585  2.1931  1.1524 -1.1717
 2042SOL     OW17584   4.489   3.609   3.081  0.1936 -0.1815 -0.0031
 2042SOL    HW117585   4.528   3.696   3.089 -0.2185 -0.0576  0.6650
 2042SOL    HW217586   4.456   3.607   2.991 -0.7522 -1.3769  0.3765
 2043SOL     OW17587   4.274   0.503  12.864  0.0599  0.5823 -0.6431
 2043SOL    HW117588   4.349   0.557  12.889 -1.0104  2.4886 -1.5542
 2043SOL    HW217589   4.211   0.575  12.859 -0.1596  0.4408  0.1912
 2044SOL     OW17590   0.854   2.064  10.344  0.1117 -0.0902  0.4014
 2044SOL    HW117591   0.878   2.155  10.328  3.2569 -1.0103 -0.0349
 2044SOL    HW217592   0.766   2.058  10.305  1.7042 -1.7986 -2.8964
 2045SOL     OW17593   2.281   0.825  13.649 -0.4474 -0.3548 -0.1085
 2045SOL    HW117594   2.291   0.882  13.726  0.8736  0.7105 -1.0700
 2045SOL    HW217595   2.253   0.741  13.686  1.8900 -1.3165 -0.5139
 2046SOL     OW17596   0.441   2.324   2.325 -0.2332 -0.2426 -0.3354
 2046SOL    HW117597   0.373   2.292   2.384 -0.7735 -0.6815 -1.1943
 2046SOL    HW217598   0.500   2.371   2.383 -0.9520  0.3884 -0.1279
 2047SOL     OW17599   1.737   2.405  14.254  0.1854  0.0554 -0.9148
 2047SOL    HW117600   1.771   2.494  14.245  1.1016  0.0541  2.5566
 2047SOL    HW217601   1.808   2.348  14.225 -0.5750 -1.4266  0.1666
 2048SOL     OW17602   1.647   4.040   0.671 -0.2433 -0.4927 -0.2635
 2048SOL    HW117603   1.623   4.080   0.587  0.2827 -2.8602 -1.5347
 2048SOL    HW217604   1.694   4.115   0.708 -1.2166 -0.8252  1.5866
 2049SOL     OW17605   1.031   3.637   2.585 -0.0386 -0.3345  0.2852
 2049SOL    HW117606   1.068   3.661   2.670  1.5237  0.3262 -0.5738
 2049SOL    HW217607   1.109   3.631   2.529 -0.7695 -0.7802 -0.6866
 2050SOL     OW17608   4.027   3.994  13.163 -0.0730  0.1418  0.3790
 2050SOL    HW117609   4.027   3.959  13.252 -1.9643  2.0772  1.1429
 2050SOL    HW217610   4.116   4.030  13.165 -0.3959  0.9796 -0.8317
 2051SOL     OW17611   0.032   3.595   2.705 -0.8597 -0.0848  0.1129
 2051SOL    HW117612   4.714   3.538   2.639 -2.7151  2.7457 -1.2568
 2051SOL    HW217613   0.003   3.552   2.785 -3.0911  1.3586  0.0995
 2052SOL     OW17614   2.504   4.149  10.472  0.6959 -0.1564  0.4588
 2052SOL    HW117615   2.427   4.100  10.445  0.5382  0.5626 -0.3697
 2052SOL    HW217616   2.470   4.237  10.489 -1.0601 -0.8414  0.4695
 2053SOL     OW17617   0.743   2.864   4.935  0.1120 -0.2107 -0.3171
 2053SOL    HW117618   0.828   2.902   4.955 -0.5157  1.9193 -1.7247
 2053SOL    HW217619   0.724   2.822   5.019 -0.8725  2.0580  0.5923
 2054SOL     OW17620   1.230   0.526   3.700  0.0610  0.1046 -0.4685
 2054SOL    HW117621   1.187   0.443   3.676  1.4437 -0.5123 -0.7996
 2054SOL    HW217622   1.303   0.509   3.641 -1.0463  1.6066 -2.2791
 2055SOL     OW17623   2.567   3.908   1.493  0.5028 -0.2902  0.1109
 2055SOL    HW117624   2.586   3.870   1.579  0.2575 -0.3645  0.1312
 2055SOL    HW217625   2.487   3.863   1.468  0.0986  0.1482  0.6179
 2056SOL     OW17626   4.206   3.791   4.123 -0.2269  0.2446  0.4204
 2056SOL    HW117627   4.210   3.850   4.048  2.7363  1.7275  1.7315
 2056SOL    HW217628   4.209   3.713   4.068  1.1283  0.5042  0.1137
 2057SOL     OW17629   2.149   1.787   5.949 -0.1349 -0.0109  0.0122
 2057SOL    HW117630   2.199   1.784   6.030  1.4186 -1.1738 -1.0031
 2057SOL    HW217631   2.200   1.729   5.893 -0.8120 -1.2651  0.6875
 2058SOL     OW17632   3.776   1.077   8.046 -0.3590 -0.5249 -0.0458
 2058SOL    HW117633   3.794   1.028   8.127 -2.3425 -0.5772  0.3584
 2058SOL    HW217634   3.838   1.150   8.056 -1.6059  0.7008 -1.2947
 2059SOL     OW17635   0.785   1.966   3.393 -0.4684 -0.0273 -0.5627
 2059SOL    HW117636   0.717   1.919   3.345  0.5621 -2.5965  0.4477
 2059SOL    HW217637   0.865   1.940   3.347 -0.7244 -2.3659  0.2962
 2060SOL     OW17638   2.691   0.614  13.709 -0.3105  0.0493 -0.4608
 2060SOL    HW117639   2.785   0.604  13.702 -0.2168  1.8908 -1.7782
 2060SOL    HW217640   2.689   0.680  13.640  1.6310 -0.1660 -0.7169
 2061SOL     OW17641   3.517   3.533   5.670 -0.0955 -0.4277 -0.0419
 2061SOL    HW117642   3.505   3.448   5.713 -1.9711 -0.5983 -0.8657
 2061SOL    HW217643   3.582   3.510   5.603 -1.3436 -2.4644 -0.5757
 2062SOL     OW17644   3.602   0.935  12.777  0.1426 -0.2590  0.7129
 2062SOL    HW117645   3.537   0.972  12.717 -1.5070 -0.7413  2.2325
 2062SOL    HW217646   3.584   0.974  12.862  2.5767  1.5551  0.4095
 2063SOL     OW17647   2.625   4.162   1.802  0.3496  0.3765  0.3090
 2063SOL    HW117648   2.531   4.158   1.785  1.1268  0.3811 -3.9089
 2063SOL    HW217649   2.655   4.163   1.711 -0.0425  0.4103  0.1819
 2064SOL     OW17650   1.606   3.728  10.204  0.1873 -0.1965 -0.1465
 2064SOL    HW117651   1.510   3.734  10.198  0.1374  0.8148  1.6063
 2064SOL    HW217652   1.626   3.811  10.247  0.4133 -0.6417  0.6112
 2065SOL     OW17653   4.044   3.656   7.304  0.4079  0.6276 -0.2141
 2065SOL    HW117654   4.033   3.747   7.334  0.3735  0.8883 -1.0300
 2065SOL    HW217655   4.008   3.609   7.380 -0.8307  0.1466 -1.0953
 2066SOL     OW17656   0.661   1.100   3.142  0.1612  0.4336 -0.2231
 2066SOL    HW117657   0.696   1.189   3.151 -0.2094  0.5970 -0.3926
 2066SOL    HW217658   0.729   1.043   3.176 -0.0371  0.5141  0.3145
 2067SOL     OW17659   1.722   3.252   2.506 -0.3440  0.3617 -0.4083
 2067SOL    HW117660   1.773   3.177   2.475  1.3491  0.8984  1.0685
 2067SOL    HW217661   1.777   3.329   2.491  1.1973 -0.8641 -1.0523
 2068SOL     OW17662   1.405   3.847   9.599  0.2400 -0.1274 -0.5355
 2068SOL    HW117663   1.336   3.795   9.639 -1.3872  1.3340 -1.4591
 2068SOL    HW217664   1.358   3.894   9.530  1.9856  1.1694 -0.8478
 2069SOL     OW17665   3.063   2.828   7.122  0.2934 -0.4444  0.0069
 2069SOL    HW117666   3.018   2.826   7.038  0.3970 -0.7641 -0.0436
 2069SOL    HW217667   2.995   2.822   7.189  0.2530 -2.4528 -0.2066
 2070SOL     OW17668   3.025   1.212  10.352  0.3984 -0.6977 -0.2959
 2070SOL    HW117669   2.980   1.199  10.435  0.8199 -0.0283  0.0367
 2070SOL    HW217670   2.954   1.188  10.292  0.4292  0.4339 -0.7851
 2071SOL     OW17671   3.115   4.139   6.319  0.0249  0.2056 -0.0274
 2071SOL    HW117672   3.194   4.187   6.345  0.0437  0.2228 -0.1143
 2071SOL    HW217673   3.137   4.135   6.226  1.9410  1.2314  0.3845
 2072SOL     OW17674   2.069   3.113  10.255 -0.3904 -0.0471 -0.0097
 2072SOL    HW117675   2.093   3.037  10.203 -1.8145 -0.1364 -0.5363
 2072SOL    HW217676   2.003   3.077  10.315 -1.7213 -0.8041 -1.9388
 2073SOL     OW17677   0.534   4.602   3.414  1.2167  0.3533  0.1292
 2073SOL    HW117678   0.591   4.666   3.371  3.3450 -2.5593 -1.3527
 2073SOL    HW217679   0.449   4.638   3.389  1.7232  2.7682  1.8424
 2074SOL     OW17680   2.870   2.480   8.865 -0.2042  0.1793 -0.7451
 2074SOL    HW117681   2.827   2.490   8.780 -1.6988 -4.8468 -0.5773
 2074SOL    HW217682   2.899   2.389   8.860 -0.5743 -0.0963  2.1853
 2075SOL     OW17683   1.390   2.699   9.218 -0.3492  0.0532  0.4782
 2075SOL    HW117684   1.448   2.729   9.148 -0.2021 -1.0773  0.1218
 2075SOL    HW217685   1.443   2.625   9.249  0.8203  0.8967  0.5106
 2076SOL     OW17686   4.337   1.324  12.069  0.1817 -0.1122  0.4759
 2076SOL    HW117687   4.258   1.358  12.028  1.9450  2.1885 -0.9626
 2076SOL    HW217688   4.295   1.305  12.153  0.4770 -2.3105  0.1214
 2077SOL     OW17689   2.949   2.772   5.974 -0.4531 -0.1213  0.6877
 2077SOL    HW117690   2.896   2.760   5.896  0.1269 -0.3572  0.3307
 2077SOL    HW217691   2.959   2.683   6.008 -0.0843  0.1114  1.1982
 2078SOL     OW17692   2.630   0.627   5.794 -0.1574 -0.9011  0.6253
 2078SOL    HW117693   2.575   0.681   5.850  0.6354 -2.0048  2.4754
 2078SOL    HW217694   2.707   0.618   5.851 -0.9758 -2.2026  1.5203
 2079SOL     OW17695   4.500   0.633  12.995  0.5622  0.4969 -0.0687
 2079SOL    HW117696   4.520   0.721  12.964  0.3496  0.1853 -1.0860
 2079SOL    HW217697   4.492   0.647  13.089 -0.7211 -1.9974  0.2038
 2080SOL     OW17698   2.634   3.770  14.206  0.1002 -0.2579  0.0064
 2080SOL    HW117699   2.626   3.690  14.153  0.3640  0.0606 -0.5028
 2080SOL    HW217700   2.588   3.736  14.284  0.6313  2.5296  1.5178
 2081SOL     OW17701   4.565   1.216   7.342 -0.3081 -0.5250  0.5652
 2081SOL    HW117702   4.509   1.193   7.268  0.4280 -2.2107  0.5425
 2081SOL    HW217703   4.634   1.150   7.334 -1.2003 -1.1937 -1.6282
 2082SOL     OW17704   3.850   2.797   9.555 -0.3487 -0.0986  0.1179
 2082SOL    HW117705   3.755   2.807   9.558 -0.4302 -0.3245 -1.4155
 2082SOL    HW217706   3.873   2.878   9.601 -1.3294  0.3076 -0.1021
 2083SOL     OW17707   0.077   2.924   3.961  0.0075 -0.1216 -0.2632
 2083SOL    HW117708   0.067   2.987   4.033  0.2152 -3.0834  2.3513
 2083SOL    HW217709   4.704   2.911   3.949  0.0352 -2.0518  1.4846
 2084SOL     OW17710   1.955   1.788   0.727  0.7804 -0.0065  0.0255
 2084SOL    HW117711   1.910   1.858   0.774 -2.0421  0.1530 -2.9441
 2084SOL    HW217712   1.944   1.812   0.635 -0.6270 -0.6194  0.0428
 2085SOL     OW17713   4.707   1.748   7.670  0.3711  0.4255  0.6639
 2085SOL    HW117714   0.007   1.784   7.584 -3.3259 -1.8070 -1.1882
 2085SOL    HW217715   0.060   1.775   7.724 -1.4467 -0.4935  3.6507
 2086SOL     OW17716   0.824   0.108   1.938 -0.6508 -0.1116 -0.4826
 2086SOL    HW117717   0.819   0.203   1.929 -0.9229 -0.0887 -0.0915
 2086SOL    HW217718   0.874   0.083   1.860 -1.7867 -0.2797 -1.1603
 2087SOL     OW17719   2.446   4.637   6.807  0.3896  0.1886  0.2754
 2087SOL    HW117720   2.534   4.617   6.838  0.5057  1.2137  0.6154
 2087SOL    HW217721   2.449   0.010   6.788  0.8992 -0.0315 -0.7197
 2088SOL     OW17722   4.203   4.348   8.030  0.0742  0.0064 -0.1319
 2088SOL    HW117723   4.264   4.276   8.013 -0.0222 -0.3772  1.1218
 2088SOL    HW217724   4.239   4.413   7.970 -3.4423 -0.0349 -2.2619
 2089SOL     OW17725   1.845   4.672   2.154 -0.0702 -0.1743  0.3558
 2089SOL    HW117726   1.844   4.596   2.211  2.0596  0.0310  0.6583
 2089SOL    HW217727   1.760   4.712   2.175 -0.0110  0.6594 -0.9609
 2090SOL     OW17728   4.679   3.024   1.063  0.4867 -0.3337 -0.3282
 2090SOL    HW117729   4.623   2.999   0.990 -0.9247 -2.5329  1.4978
 2090SOL    HW217730   4.684   2.950   1.123  0.7194  0.1340  0.2362
 2091SOL     OW17731   4.026   0.218  15.261 -0.1894 -0.0132  0.5525
 2091SOL    HW117732   3.933   0.233  15.242 -0.0860  1.8616  1.6311
 2091SOL    HW217733   4.032   0.198  15.354  0.2632 -1.6967  0.1711
 2092SOL     OW17734   3.480   2.074   3.172 -0.0434  0.1402  0.2455
 2092SOL    HW117735   3.396   2.110   3.201  0.1503 -1.2353  2.5255
 2092SOL    HW217736   3.546   2.143   3.187  0.0313  0.6076 -2.2465
 2093SOL     OW17737   2.541   1.585   5.637 -0.3602 -0.0079  0.0684
 2093SOL    HW117738   2.597   1.525   5.588  2.0130  0.5815  2.0862
 2093SOL    HW217739   2.593   1.665   5.628  1.3268 -1.1120  0.0001
 2094SOL     OW17740   2.373   1.534  14.110  0.4347  0.0148  0.4205
 2094SOL    HW117741   2.372   1.629  14.111 -1.1095 -0.0136  0.9254
 2094SOL    HW217742   2.463   1.522  14.141  0.0965 -1.5768  0.7755
 2095SOL     OW17743   1.888   0.584   3.406  0.2699  0.5802 -0.4656
 2095SOL    HW117744   1.955   0.645   3.433  0.0152  0.5464  0.2345
 2095SOL    HW217745   1.932   0.529   3.341  2.1832  0.6374  0.7999
 2096SOL     OW17746   1.289   2.891   7.136  0.3790 -0.7364 -0.1206
 2096SOL    HW117747   1.285   2.893   7.040  1.8837 -1.0308 -0.1941
 2096SOL    HW217748   1.324   2.979   7.150  2.0361 -1.4655  0.3617
 2097SOL     OW17749   1.913   2.801   6.943 -0.3878  0.2073  0.6848
 2097SOL    HW117750   1.853   2.840   7.007 -0.9128 -0.3367  0.5175
 2097SOL    HW217751   1.932   2.711   6.966  0.2783  0.2521  0.3020
 2098SOL     OW17752   1.029   2.078   6.141 -0.3427  0.2866  0.3905
 2098SOL    HW117753   1.033   2.005   6.079  1.3990 -0.0312  0.8807
 2098SOL    HW217754   0.977   2.032   6.207 -0.5334  2.6215  1.8863
 2099SOL     OW17755   1.934   3.109   7.202 -0.1776 -0.6163  0.0992
 2099SOL    HW117756   1.879   3.162   7.259  0.5732  1.2293 -0.8782
 2099SOL    HW217757   1.888   3.026   7.206  0.4807 -0.9237  1.1703
 2100SOL     OW17758   2.793   1.994  10.736  0.2703  0.1004 -0.5515
 2100SOL    HW117759   2.744   2.076  10.742  0.6783  0.2903  0.1378
 2100SOL    HW217760   2.882   2.027  10.730  0.2435  0.2493 -0.1040
 2101SOL     OW17761   1.261   1.485  17.529 -0.4080  0.1364 -0.1559
 2101SOL    HW117762   1.305   1.486  17.614  1.8017 -1.6061 -1.2736
 2101SOL    HW217763   1.268   1.393  17.504 -0.9771  0.3773 -1.2013
 2102SOL     OW17764   3.678   1.336   5.090  0.1628 -0.4574 -0.3531
 2102SOL    HW117765   3.601   1.304   5.138  0.5390  0.3779  0.7979
 2102SOL    HW217766   3.640   1.374   5.011 -1.6841 -1.4700  0.0424
 2103SOL     OW17767   2.833   1.630   4.102  0.1135  0.6884  0.2334
 2103SOL    HW117768   2.739   1.647   4.103 -0.3561 -1.7869 -0.1481
 2103SOL    HW217769   2.832   1.558   4.039  0.8711  1.1732 -0.3200
 2104SOL     OW17770   1.723   3.718  16.707  0.5243 -0.7246 -0.0898
 2104SOL    HW117771   1.645   3.665  16.689 -0.0105  0.2603 -0.6891
 2104SOL    HW217772   1.750   3.671  16.786  2.3880 -1.2202 -1.0121
 2105SOL     OW17773   4.159   4.391  15.837 -0.5501 -0.0053  0.6719
 2105SOL    HW117774   4.249   4.381  15.870 -0.7488 -0.5165  1.0623
 2105SOL    HW217775   4.120   4.379  15.924 -2.4458 -0.3973 -0.2474
 2106SOL     OW17776   0.876   2.572   3.790  0.4597 -0.0001 -0.4596
 2106SOL    HW117777   0.871   2.609   3.878  0.4169  1.4762 -1.0791
 2106SOL    HW217778   0.871   2.482   3.821  0.5780  0.3855  0.6904
 2107SOL     OW17779   1.236   2.220   2.797 -0.1220  0.6486 -0.5741
 2107SOL    HW117780   1.229   2.314   2.780 -1.0233  0.5464 -0.7889
 2107SOL    HW217781   1.163   2.195   2.740  0.4216 -2.0492 -0.0859
 2108SOL     OW17782   2.629   1.859  10.556 -0.6801 -0.5349  0.2304
 2108SOL    HW117783   2.588   1.812  10.628 -0.2986 -0.6970  0.3444
 2108SOL    HW217784   2.697   1.912  10.598 -0.5507  0.0018 -0.6425
 2109SOL     OW17785   4.511   2.033   6.702 -0.3185 -0.5023 -0.3490
 2109SOL    HW117786   4.577   2.040   6.772 -0.0183 -0.3936 -0.6450
 2109SOL    HW217787   4.446   1.975   6.742 -0.4901 -0.0658  0.0037
 2110SOL     OW17788   3.053   2.838   1.847 -0.0011  0.3215  0.0569
 2110SOL    HW117789   3.001   2.784   1.788  0.7720 -1.0427  0.6166
 2110SOL    HW217790   3.139   2.827   1.806 -0.0835 -0.1671  0.0225
 2111SOL     OW17791   1.421   2.775   1.562 -0.6854  0.4207  0.4012
 2111SOL    HW117792   1.462   2.862   1.554  1.5686 -0.7102 -0.2363
 2111SOL    HW217793   1.388   2.779   1.652  1.3253  3.2135  1.0312
 2112SOL     OW17794   1.708   1.495   9.287  0.1797 -0.9820 -0.1646
 2112SOL    HW117795   1.789   1.503   9.336  2.8864  0.7176 -4.9569
 2112SOL    HW217796   1.728   1.412   9.242  0.1526 -1.2677  0.3484
 2113SOL     OW17797   1.337   3.683   1.980 -0.1254  0.4637  0.3220
 2113SOL    HW117798   1.349   3.747   1.910 -0.6429  0.3145  0.0995
 2113SOL    HW217799   1.428   3.654   1.986 -0.0636  0.1392 -2.4993
 2114SOL     OW17800   2.972   3.145  15.657 -0.3646 -0.1307 -0.3293
 2114SOL    HW117801   2.944   3.103  15.739 -0.0741 -0.8726 -0.6127
 2114SOL    HW217802   2.883   3.140  15.622 -0.6773  3.1997 -0.0057
 2115SOL     OW17803   1.681   0.931   8.191 -0.5714  0.1634  0.5876
 2115SOL    HW117804   1.695   0.963   8.280 -0.1315 -0.2303  0.6579
 2115SOL    HW217805   1.769   0.905   8.165 -0.4231  0.4821  0.7731
 2116SOL     OW17806   1.830   3.352   1.864  0.7692  0.4872 -0.0941
 2116SOL    HW117807   1.905   3.391   1.909 -1.5832  2.5821  2.0433
 2116SOL    HW217808   1.783   3.430   1.834 -0.3690 -0.2856 -0.2993
 2117SOL     OW17809   2.216   3.832   8.596 -0.5660 -0.3441 -0.3539
 2117SOL    HW117810   2.195   3.850   8.504 -0.0590 -2.6086 -0.9281
 2117SOL    HW217811   2.311   3.844   8.602 -0.6490  0.4384 -0.6654
 2118SOL     OW17812   0.259   2.183   8.389 -0.2232  0.1031  0.1547
 2118SOL    HW117813   0.309   2.183   8.470 -0.9397 -0.1257  0.5982
 2118SOL    HW217814   0.293   2.261   8.345  1.1950 -1.0868 -0.8584
 2119SOL     OW17815   1.748   3.539   6.826 -0.0807 -0.7882  0.3677
 2119SOL    HW117816   1.682   3.529   6.894  1.6031 -1.3136  1.9415
 2119SOL    HW217817   1.835   3.510   6.852 -0.2048 -1.4345  0.0659
 2120SOL     OW17818   4.206   2.412   7.437  0.1687 -0.2054 -0.3950
 2120SOL    HW117819   4.261   2.408   7.359  0.9019 -0.3896  0.1207
 2120SOL    HW217820   4.248   2.343   7.489 -1.2780  0.0315  1.0955
 2121SOL     OW17821   3.616   1.761   7.654  0.1483 -0.2096 -0.2476
 2121SOL    HW117822   3.705   1.740   7.626 -0.3841  0.0973 -2.1571
 2121SOL    HW217823   3.625   1.856   7.648  0.7228 -0.2294  0.2894
 2122SOL     OW17824   3.111   3.740  14.873  0.2301 -0.3445 -0.3746
 2122SOL    HW117825   3.031   3.688  14.865 -0.3405  0.5038 -0.1875
 2122SOL    HW217826   3.102   3.751  14.967  4.8470 -2.4878  0.3137
 2123SOL     OW17827   0.725   3.281   0.957  0.2556 -1.4158  0.0467
 2123SOL    HW117828   0.793   3.242   0.901  2.4764  1.8569  0.4868
 2123SOL    HW217829   0.735   3.375   0.949  1.0689 -1.2765  2.4916
 2124SOL     OW17830   0.159   1.203   5.114  0.4752  0.0004 -0.5568
 2124SOL    HW117831   0.086   1.255   5.147  0.8666 -0.9402  1.8064
 2124SOL    HW217832   0.134   1.111   5.123  0.1707  0.2112  0.7558
 2125SOL     OW17833   3.198   0.740   6.821 -0.4957  0.3858 -0.2639
 2125SOL    HW117834   3.118   0.761   6.773  0.2238  0.8186 -1.2624
 2125SOL    HW217835   3.259   0.722   6.750  0.2982  2.3498 -0.1001
 2126SOL     OW17836   0.284   3.847   3.655  0.5960 -0.3834  0.0177
 2126SOL    HW117837   0.285   3.906   3.579  1.7486  0.7360  0.9025
 2126SOL    HW217838   0.191   3.862   3.675  0.5115  1.1628 -1.5161
 2127SOL     OW17839   0.432   3.575   2.902 -0.2970 -0.4541 -0.0539
 2127SOL    HW117840   0.371   3.504   2.922  0.8182 -1.1221  1.0027
 2127SOL    HW217841   0.375   3.651   2.888  0.4480 -0.2475 -1.9273
 2128SOL     OW17842   4.183   2.486   5.108  0.4811 -0.1516 -0.0736
 2128SOL    HW117843   4.243   2.494   5.182  1.3879  2.2698 -1.0545
 2128SOL    HW217844   4.103   2.464   5.156 -0.1683  1.6624 -0.3213
 2129SOL     OW17845   3.852   3.577   4.290 -0.2654  0.0935  0.5276
 2129SOL    HW117846   3.823   3.534   4.209  1.1031 -3.0129  1.6794
 2129SOL    HW217847   3.825   3.669   4.285  1.0818  0.4233 -0.9735
 2130SOL     OW17848   3.115   0.029   6.599  0.3351  0.4457  0.4424
 2130SOL    HW117849   3.155   4.701   6.671  0.7098  1.7897  1.1383
 2130SOL    HW217850   3.186   0.091   6.582  0.4759 -0.0171 -0.6837
 2131SOL     OW17851   4.287   2.325   1.993  1.1062 -0.2784  0.0181
 2131SOL    HW117852   4.232   2.403   2.000  0.5954 -0.7578  1.3370
 2131SOL    HW217853   4.358   2.325   2.057  0.6679 -0.5771  0.5107
 2132SOL     OW17854   0.475   0.060   9.000 -0.4185  0.2176  0.8969
 2132SOL    HW117855   0.540   4.716   8.972  0.3803  1.8508 -1.0387
 2132SOL    HW217856   0.414   0.000   9.042 -0.1760 -0.8789 -0.2918
 2133SOL     OW17857   2.959   3.289  14.619 -0.7318  0.3211 -0.2190
 2133SOL    HW117858   2.923   3.223  14.678 -0.3925  0.8521  0.5843
 2133SOL    HW217859   3.049   3.261  14.602 -0.8732 -0.3242  0.0878
 2134SOL     OW17860   4.193   2.406   3.809 -0.0401 -0.1692 -0.2506
 2134SOL    HW117861   4.127   2.406   3.879  1.4924  0.0651  1.1924
 2134SOL    HW217862   4.229   2.318   3.821  0.8061  0.0285 -1.3690
 2135SOL     OW17863   0.275   0.381  15.656 -0.3521 -0.5863  0.0340
 2135SOL    HW117864   0.306   0.290  15.651  0.8135 -0.1689 -0.3185
 2135SOL    HW217865   0.220   0.370  15.733  1.0664 -2.2094  0.8321
 2136SOL     OW17866   1.692   1.932   2.633 -0.3157 -0.0230 -0.4382
 2136SOL    HW117867   1.743   1.912   2.554  1.3871 -0.1922  0.7021
 2136SOL    HW217868   1.656   1.844   2.639  2.4914 -1.0982  0.5679
 2137SOL     OW17869   2.795   3.712   2.651 -0.1841  0.3397 -0.2948
 2137SOL    HW117870   2.818   3.803   2.634 -0.9300  0.3130 -1.4866
 2137SOL    HW217871   2.851   3.660   2.592 -1.2260 -3.3918  1.9870
 2138SOL     OW17872   2.309   2.768   7.399 -0.3770 -1.0275 -0.2144
 2138SOL    HW117873   2.356   2.800   7.476 -1.3691  0.0809 -0.0726
 2138SOL    HW217874   2.282   2.678   7.418  1.6894 -1.5437  0.2069
 2139SOL     OW17875   0.403   1.512   5.765  0.0610  0.2074  0.1005
 2139SOL    HW117876   0.383   1.521   5.672  0.8188 -1.1449 -0.1936
 2139SOL    HW217877   0.316   1.532   5.798 -1.5276 -0.5435 -3.6398
 2140SOL     OW17878   0.837   3.632  16.011  0.1537 -0.6135  0.5498
 2140SOL    HW117879   0.791   3.714  15.991 -1.4593 -1.2412  1.7028
 2140SOL    HW217880   0.925   3.648  15.976 -0.4441 -0.7678 -1.0451
 2141SOL     OW17881   0.027   4.401   8.675  0.5471 -0.0644 -0.0913
 2141SOL    HW117882   0.113   4.433   8.649  1.6016 -2.2883  0.6606
 2141SOL    HW217883   0.027   4.423   8.768  1.4020  1.1821 -0.3907
 2142SOL     OW17884   3.907   1.103   7.636  0.6044  0.7792  0.3780
 2142SOL    HW117885   3.935   1.149   7.557 -1.6957 -2.0119 -2.0657
 2142SOL    HW217886   3.930   1.013   7.612 -1.3489  0.8269 -1.7024
 2143SOL     OW17887   4.479   0.710  16.816  0.5930  0.0581  0.0173
 2143SOL    HW117888   4.523   0.670  16.891 -0.9543 -0.9018  0.4202
 2143SOL    HW217889   4.439   0.629  16.786  0.3103  0.1152  0.2412
 2144SOL     OW17890   3.670   1.579  12.851 -0.5991 -0.4774  0.7971
 2144SOL    HW117891   3.680   1.484  12.857  0.0889 -0.4593 -0.1492
 2144SOL    HW217892   3.717   1.615  12.926 -0.4732 -0.0561  0.5145
 2145SOL     OW17893   4.210   2.054   2.652 -0.1509  0.0193 -0.2650
 2145SOL    HW117894   4.193   2.109   2.729 -1.0355 -0.2607 -0.2581
 2145SOL    HW217895   4.158   1.982   2.688  1.1691 -0.0067  1.5926
 2146SOL     OW17896   1.704   2.399   3.441  0.1642 -0.3190 -0.4834
 2146SOL    HW117897   1.724   2.308   3.464  1.3486 -0.3648 -1.6973
 2146SOL    HW217898   1.632   2.389   3.378  0.4316 -0.4965 -0.7625
 2147SOL     OW17899   0.300   3.895   6.658 -0.0559 -0.7140  0.3198
 2147SOL    HW117900   0.349   3.924   6.581  1.1757 -3.4270  0.0723
 2147SOL    HW217901   0.264   3.976   6.695 -0.7338 -0.2216 -1.3846
 2148SOL     OW17902   3.880   3.633   1.415 -0.2422  0.0871 -0.4277
 2148SOL    HW117903   3.924   3.701   1.466  0.3122 -0.1783 -0.5473
 2148SOL    HW217904   3.810   3.605   1.473 -2.7848 -0.3870 -3.6802
 2149SOL     OW17905   4.080   1.820   6.686 -0.1844  0.1900 -0.0686
 2149SOL    HW117906   4.060   1.749   6.624 -2.1558  0.1200  0.6648
 2149SOL    HW217907   4.042   1.893   6.637 -0.7198  0.6598  1.0713
 2150SOL     OW17908   0.763   0.964   4.352 -0.2137  0.0914  0.6415
 2150SOL    HW117909   0.830   1.032   4.356 -0.6977  0.6706 -1.0756
 2150SOL    HW217910   0.804   0.895   4.301 -1.0935  0.0292  0.0116
 2151SOL     OW17911   2.695   1.110   7.018  0.0550 -0.3347 -0.1619
 2151SOL    HW117912   2.767   1.131   6.959  0.8020  1.2057  1.2923
 2151SOL    HW217913   2.643   1.063   6.953  0.2417 -2.9656  1.5866
 2152SOL     OW17914   0.392   2.312  16.182  0.1904  0.4147 -0.1528
 2152SOL    HW117915   0.461   2.246  16.194  0.2969  0.4170 -0.7521
 2152SOL    HW217916   0.407   2.362  16.262  1.7481 -0.2225 -0.0373
 2153SOL     OW17917   1.402   3.031   1.996 -0.5631  0.0941 -0.3514
 2153SOL    HW117918   1.489   3.052   2.030 -0.9950 -0.8640  1.3915
 2153SOL    HW217919   1.359   3.116   2.001 -0.1263  0.4130 -2.0756
 2154SOL     OW17920   0.262   0.032   7.622  0.1692 -0.3630 -0.3426
 2154SOL    HW117921   0.170   0.008   7.606  0.2731 -0.4712 -0.7695
 2154SOL    HW217922   0.264   0.119   7.582  0.5041  0.1907  0.8928
 2155SOL     OW17923   2.445   1.978   0.073  0.3227 -0.0858  0.0285
 2155SOL    HW117924   2.363   1.939   0.042 -0.2390  1.2696 -0.1752
 2155SOL    HW217925   2.436   2.073   0.074 -1.7536 -0.2881  0.5187
 2156SOL     OW17926   2.013   0.284  10.189  0.4056  0.9739  0.1082
 2156SOL    HW117927   2.017   0.211  10.127 -2.3400  1.4485 -0.6403
 2156SOL    HW217928   2.101   0.320  10.179  0.6008  0.4284 -0.1327
 2157SOL     OW17929   1.629   2.219   5.003 -0.2410  0.9231  0.1115
 2157SOL    HW117930   1.613   2.262   5.087 -2.3495  0.2999  0.0289
 2157SOL    HW217931   1.558   2.156   4.994 -1.9860  2.5196  3.1854
 2158SOL     OW17932   1.588   0.537  12.217  0.1965 -0.3644  0.3341
 2158SOL    HW117933   1.626   0.475  12.155 -1.7922 -1.8201  0.5932
 2158SOL    HW217934   1.644   0.524  12.294  0.0725 -0.7575  0.3558
 2159SOL     OW17935   1.610   0.308   2.683  0.0172 -0.0417  0.0838
 2159SOL    HW117936   1.641   0.247   2.749 -1.0908  0.1710  0.7925
 2159SOL    HW217937   1.651   0.270   2.605  2.2825 -0.8372  1.6572
 2160SOL     OW17938   3.394   0.728   3.057 -0.1937  0.1051 -0.1309
 2160SOL    HW117939   3.452   0.652   3.051 -1.6287 -0.9879 -0.1912
 2160SOL    HW217940   3.458   0.797   3.070  0.4999 -1.2015  3.3673
 2161SOL     OW17941   4.703   2.021   6.906  0.5471 -0.7188  0.5453
 2161SOL    HW117942   0.050   2.066   6.955 -0.7102 -0.8559  2.4431
 2161SOL    HW217943   0.011   1.930   6.902  1.3970 -0.2409 -4.3746
 2162SOL     OW17944   4.000   1.855   1.592 -0.1050  0.0730 -0.0704
 2162SOL    HW117945   4.034   1.899   1.670  0.6095  1.2875 -1.0881
 2162SOL    HW217946   4.064   1.786   1.575 -0.0839 -0.5989  2.7372
 2163SOL     OW17947   1.926   1.197   1.369  0.0947  0.1790  0.7143
 2163SOL    HW117948   1.899   1.272   1.317 -0.4588 -0.5154 -0.0006
 2163SOL    HW217949   1.855   1.187   1.432  0.1560 -0.8820  0.6144
 2164SOL     OW17950   4.176   4.516   6.131 -0.5252  0.2510 -0.0736
 2164SOL    HW117951   4.122   4.439   6.115 -2.0168  1.1455  0.6602
 2164SOL    HW217952   4.250   4.483   6.182 -2.1560 -0.4074  1.8773
 2165SOL     OW17953   0.757   2.867   1.684  0.3654  0.3415 -0.5099
 2165SOL    HW117954   0.848   2.876   1.712  0.6415 -0.9166 -1.0272
 2165SOL    HW217955   0.750   2.947   1.632 -0.1107 -0.6229 -1.9192
 2166SOL     OW17956   1.283   3.133   5.491  0.4019  0.1343  0.3453
 2166SOL    HW117957   1.275   3.113   5.585  0.3356  1.0194  0.5357
 2166SOL    HW217958   1.243   3.220   5.493 -0.0935 -0.1404  3.4940
 2167SOL     OW17959   1.819   1.746   5.374  0.1862  0.0086  0.3201
 2167SOL    HW117960   1.758   1.745   5.301  0.8823 -1.2830 -0.2454
 2167SOL    HW217961   1.887   1.806   5.343 -0.3982 -0.4062 -1.7377
 2168SOL     OW17962   3.111   4.190   4.190 -0.3398 -0.1463 -0.0250
 2168SOL    HW117963   3.048   4.122   4.166  0.5715 -1.6819  1.9534
 2168SOL    HW217964   3.186   4.145   4.229  0.0371  0.8636  0.3917
 2169SOL     OW17965   3.262   0.242  10.309 -0.5341 -0.2367 -0.2026
 2169SOL    HW117966   3.318   0.167  10.287  0.0799  0.6264 -1.5549
 2169SOL    HW217967   3.321   0.281  10.373 -1.7762 -0.5431  1.1135
 2170SOL     OW17968   3.576   2.497   5.637  0.3722  0.3732  0.7095
 2170SOL    HW117969   3.534   2.411   5.642 -0.7236  0.8358 -0.4447
 2170SOL    HW217970   3.596   2.507   5.544 -0.4545 -0.1361  0.4761
 2171SOL     OW17971   0.660   3.983   4.813 -0.1059  0.0148 -0.4567
 2171SOL    HW117972   0.721   3.987   4.739  0.0980  0.5537 -0.2570
 2171SOL    HW217973   0.589   3.931   4.775 -0.5656  0.1513  0.2275
 2172SOL     OW17974   1.935   3.281   2.288 -0.4673 -0.4561  0.1794
 2172SOL    HW117975   2.006   3.340   2.264 -0.8377 -0.4055 -0.8016
 2172SOL    HW217976   1.958   3.196   2.251 -1.0892 -1.8542  2.9903
 2173SOL     OW17977   3.567   0.196   8.467 -0.1589 -0.2214 -0.2212
 2173SOL    HW117978   3.488   0.225   8.420  0.0444  1.0330  0.2146
 2173SOL    HW217979   3.554   0.102   8.454  0.7876 -0.4440  0.4618
 2174SOL     OW17980   0.590   1.604   8.081  0.8581  0.0262  0.0265
 2174SOL    HW117981   0.496   1.605   8.100  0.3092  0.5457 -2.7239
 2174SOL    HW217982   0.599   1.685   8.030  0.0310 -1.0452 -1.8372
 2175SOL     OW17983   4.355   0.281   7.750  0.1926 -0.6211  0.0204
 2175SOL    HW117984   4.359   0.242   7.838 -0.4752  0.4382  0.5299
 2175SOL    HW217985   4.283   0.342   7.766  2.1009  1.4972  0.7416
 2176SOL     OW17986   0.938   0.842   4.202 -0.3714 -0.3304 -0.1099
 2176SOL    HW117987   0.976   0.858   4.115 -0.0306  1.2614  0.3371
 2176SOL    HW217988   1.016   0.807   4.245 -1.3199 -3.2385 -0.7160
 2177SOL     OW17989   3.216   2.193   4.381 -0.0301  0.0742 -0.6547
 2177SOL    HW117990   3.243   2.152   4.299 -0.1122 -2.1518  0.4259
 2177SOL    HW217991   3.158   2.128   4.422 -0.4992  0.1994 -1.1218
 2178SOL     OW17992   4.258   2.949   7.754 -0.1960  0.5524 -0.1862
 2178SOL    HW117993   4.269   2.854   7.743  1.0562  0.7867 -0.9279
 2178SOL    HW217994   4.309   2.975   7.831  1.1616  0.1076 -0.9437
 2179SOL     OW17995   3.438   1.006  17.533  0.0352 -0.6411 -0.1444
 2179SOL    HW117996   3.432   1.101  17.546 -0.5277 -1.0046  2.3990
 2179SOL    HW217997   3.520   1.003  17.484  0.4454  1.9315  0.3628
 2180SOL     OW17998   2.673   2.298   6.351 -0.1644  0.5109  0.2957
 2180SOL    HW117999   2.687   2.392   6.361  0.1591  0.2808  2.1273
 2180SOL    HW218000   2.657   2.284   6.444 -0.5264  0.4743  0.2247
 2181SOL     OW18001   0.529   2.629   1.496  0.0688 -0.2867 -0.2330
 2181SOL    HW118002   0.475   2.707   1.506  2.2019  1.4763 -2.3871
 2181SOL    HW218003   0.559   2.617   1.586  3.0595  1.7050 -0.9671
 2182SOL     OW18004   2.334   3.885   4.544 -0.1291 -0.1222  0.1073
 2182SOL    HW118005   2.381   3.858   4.623  1.9933  3.1181 -0.0163
 2182SOL    HW218006   2.322   3.979   4.561 -0.7084 -0.2311  0.2842
 2183SOL     OW18007   4.345   3.347   4.141 -0.4922  0.2834  0.0934
 2183SOL    HW118008   4.287   3.367   4.215 -0.1496  1.8697 -0.0706
 2183SOL    HW218009   4.350   3.435   4.105 -0.9475  0.1367 -0.3199
 2184SOL     OW18010   4.480   3.381  10.524  0.6642  0.2166  0.6645
 2184SOL    HW118011   4.572   3.405  10.534  0.6883 -0.0807  1.1634
 2184SOL    HW218012   4.475   3.299  10.573 -2.3487 -0.5880 -1.0029
 2185SOL     OW18013   2.569   0.182   4.539  0.1461 -0.1029  0.3198
 2185SOL    HW118014   2.487   0.223   4.567  0.2559  0.4246 -0.1397
 2185SOL    HW218015   2.633   0.252   4.552 -1.1800  1.2974 -0.7530
 2186SOL     OW18016   2.509   0.417  13.767 -0.1862 -0.7562 -0.1452
 2186SOL    HW118017   2.444   0.479  13.800  0.2260 -0.3050 -0.1921
 2186SOL    HW218018   2.572   0.478  13.731 -0.3657 -0.5731 -0.1516
 2187SOL     OW18019   0.641   4.375   3.612 -0.6931 -0.4594  0.4991
 2187SOL    HW118020   0.628   4.406   3.522  1.7463  1.5019  0.8324
 2187SOL    HW218021   0.640   4.455   3.664  0.6779  0.9792 -1.6863
 2188SOL     OW18022   4.110   4.135  15.757 -0.0608  0.4671  0.5452
 2188SOL    HW118023   4.136   4.219  15.795  2.8787  0.4136 -1.3334
 2188SOL    HW218024   4.043   4.173  15.701  1.2034 -2.8940 -3.2611
 2189SOL     OW18025   0.006   0.637  12.203 -0.1765  0.7528 -0.0409
 2189SOL    HW118026   4.648   0.674  12.163 -1.0540 -0.1550  0.8570
 2189SOL    HW218027   4.685   0.594  12.277  1.9841  1.9761  1.9050
 2190SOL     OW18028   3.184   2.136  14.038  0.0964 -0.4791 -0.5029
 2190SOL    HW118029   3.094   2.146  14.069 -0.6288 -1.1356 -2.3839
 2190SOL    HW218030   3.224   2.109  14.121 -1.0751 -0.9977 -0.1036
 2191SOL     OW18031   1.965   4.121  16.777 -0.3657  0.2635 -0.5457
 2191SOL    HW118032   1.892   4.064  16.753  0.5852 -0.7788 -1.0002
 2191SOL    HW218033   2.029   4.101  16.708  0.6089 -0.5116  0.5812
 2192SOL     OW18034   0.079   3.884   8.826  0.0293  0.1234  0.3753
 2192SOL    HW118035   0.137   3.895   8.751 -1.3407 -0.4244 -0.7627
 2192SOL    HW218036   0.132   3.853   8.899 -1.2518 -4.8089 -0.7574
 2193SOL     OW18037   2.810   1.367   8.031 -0.0275 -0.2182 -0.1591
 2193SOL    HW118038   2.734   1.411   7.993 -0.8374 -0.7739  0.8075
 2193SOL    HW218039   2.802   1.401   8.120 -2.9276  0.1521 -0.5780
 2194SOL     OW18040   0.816   3.416  16.179 -0.2300  0.2121  0.0338
 2194SOL    HW118041   0.845   3.489  16.125 -1.8060  2.7259  2.5995
 2194SOL    HW218042   0.729   3.398  16.143 -0.8266 -0.5603  1.8798
 2195SOL     OW18043   2.732   3.876   0.843  0.1204  0.0606  0.5476
 2195SOL    HW118044   2.669   3.842   0.906  0.0751  0.2077  0.5824
 2195SOL    HW218045   2.786   3.928   0.903 -2.0041  1.1228  1.5211
 2196SOL     OW18046   3.231   1.257   7.668  0.5718 -0.5751 -0.4872
 2196SOL    HW118047   3.281   1.307   7.733  0.0260 -0.7495  0.0603
 2196SOL    HW218048   3.149   1.306   7.669  0.4273 -0.8320  0.3501
 2197SOL     OW18049   0.130   1.222   3.404  0.0793  0.4201  0.2410
 2197SOL    HW118050   0.151   1.159   3.474 -1.0036 -0.4367 -0.2051
 2197SOL    HW218051   0.184   1.296   3.433 -0.1109  0.9238 -0.6866
 2198SOL     OW18052   2.634   4.284   1.261 -0.1385  0.2642 -0.0771
 2198SOL    HW118053   2.543   4.314   1.262 -0.2601 -0.1154  0.3732
 2198SOL    HW218054   2.663   4.299   1.171 -0.4851 -2.5338 -0.6603
 2199SOL     OW18055   3.715   4.370  14.508  0.0329  0.1265 -0.3043
 2199SOL    HW118056   3.715   4.460  14.475 -2.8019  0.8588  1.6939
 2199SOL    HW218057   3.738   4.386  14.599  1.0781 -0.6260 -0.4376
 2200SOL     OW18058   3.827   3.782   2.537 -0.0681 -0.0466  0.0575
 2200SOL    HW118059   3.799   3.789   2.628  0.6326  0.9000  0.2018
 2200SOL    HW218060   3.856   3.872   2.521  0.5486  0.1012  2.0106
 2201SOL     OW18061   0.897   1.750   8.869 -0.6754  0.1849 -0.5455
 2201SOL    HW118062   0.866   1.680   8.927  0.2001 -0.6664 -1.0940
 2201SOL    HW218063   0.823   1.808   8.886 -2.5355 -1.4675 -2.9224
 2202SOL     OW18064   2.597   4.269   7.203 -0.2587  0.8594 -0.6750
 2202SOL    HW118065   2.550   4.188   7.224  0.0165  0.6523 -0.8504
 2202SOL    HW218066   2.560   4.279   7.115 -0.6089 -0.5848 -0.6908
 2203SOL     OW18067   1.969   0.840   3.747 -0.3206 -0.4465  0.6241
 2203SOL    HW118068   1.883   0.882   3.734 -1.1551 -1.8301  1.6471
 2203SOL    HW218069   1.950   0.750   3.774 -0.5149 -0.3961  0.6554
 2204SOL     OW18070   1.528   3.179   2.934 -0.7431  0.0942 -1.4563
 2204SOL    HW118071   1.572   3.254   2.895 -1.2135  1.9925  1.6393
 2204SOL    HW218072   1.454   3.232   2.964 -0.4387 -0.1412 -0.2898
 2205SOL     OW18073   0.328   1.967   4.663  0.0003 -0.3415  0.2385
 2205SOL    HW118074   0.265   2.039   4.657  0.9769  0.4198 -0.9663
 2205SOL    HW218075   0.352   1.978   4.571 -2.4281 -4.1225 -0.8452
 2206SOL     OW18076   1.257   3.670   1.617  0.1417 -0.0467  0.0027
 2206SOL    HW118077   1.229   3.751   1.574 -0.6258  0.9439  2.3675
 2206SOL    HW218078   1.177   3.645   1.662  0.3282 -0.1827  0.2560
 2207SOL     OW18079   0.859   1.613  11.606 -0.0957  0.4323 -0.0343
 2207SOL    HW118080   0.924   1.591  11.674  1.3697  2.5655 -0.7528
 2207SOL    HW218081   0.797   1.540  11.613 -1.0631  1.2095 -0.5522
 2208SOL     OW18082   1.181   3.766  15.427 -0.0109  0.2457  0.6410
 2208SOL    HW118083   1.244   3.702  15.459  0.3641 -0.2995 -1.2473
 2208SOL    HW218084   1.228   3.841  15.465 -0.2027 -0.3855  2.1310
 2209SOL     OW18085   2.316   0.168   8.937  0.0201  0.3903  0.1302
 2209SOL    HW118086   2.302   0.253   8.895  1.4669 -0.8361 -2.8117
 2209SOL    HW218087   2.393   0.133   8.892 -0.3002  1.6403 -1.4071
 2210SOL     OW18088   1.737   2.750   2.556 -0.7723 -0.0657 -0.0039
 2210SOL    HW118089   1.786   2.681   2.510  1.0265  1.2448 -0.0226
 2210SOL    HW218090   1.710   2.706   2.637 -1.6630  3.2175  1.4701
 2211SOL     OW18091   1.680   2.294  16.863  0.3913 -0.2821 -0.0409
 2211SOL    HW118092   1.586   2.299  16.848  0.3105  0.6866  0.8358
 2211SOL    HW218093   1.701   2.376  16.907  1.2135 -0.5507  0.0758
 2212SOL     OW18094   0.160   3.422   0.665  0.1268 -0.3244 -0.5701
 2212SOL    HW118095   0.238   3.367   0.675  1.0108  0.8300 -1.1268
 2212SOL    HW218096   0.097   3.378   0.723 -0.6905  1.7962  0.1680
 2213SOL     OW18097   1.884   4.662   2.755  0.1383  0.0427  0.3287
 2213SOL    HW118098   1.939   0.019   2.751 -0.8400  0.7058 -0.3474
 2213SOL    HW218099   1.887   4.630   2.845  0.9017 -1.0230 -0.0769
 2214SOL     OW18100   3.087   4.515  15.776  0.5311  0.3982  0.5542
 2214SOL    HW118101   3.001   4.499  15.815 -0.6815  3.9192 -0.6233
 2214SOL    HW218102   3.138   4.453  15.828  0.6488 -0.1075 -0.1632
 2215SOL     OW18103   2.848   2.735   5.515 -0.2131 -0.0963  0.1076
 2215SOL    HW118104   2.796   2.657   5.494 -0.7323 -0.0145  1.0991
 2215SOL    HW218105   2.780   2.790   5.554  0.8654  1.2659  0.0731
 2216SOL     OW18106   0.385   3.261   1.102  0.1959 -0.5177 -0.3072
 2216SOL    HW118107   0.321   3.190   1.101 -0.6605  0.1986  4.6468
 2216SOL    HW218108   0.334   3.324   1.052 -2.0432  0.0405  2.7016
 2217SOL     OW18109   0.856   4.624   4.870  0.5237  0.0437 -0.3580
 2217SOL    HW118110   0.808   4.543   4.854  2.1740 -1.0800  0.4496
 2217SOL    HW218111   0.785   4.688   4.870 -0.4564 -1.0509 -1.2713
 2218SOL     OW18112   3.727   2.935   4.346 -0.5963 -0.1574 -0.1151
 2218SOL    HW118113   3.658   2.890   4.395 -0.3217 -0.5952 -0.1311
 2218SOL    HW218114   3.686   3.021   4.334 -1.2892 -0.2970  1.2373
 2219SOL     OW18115   2.020   0.078   3.329 -0.5157 -0.8086  0.0118
 2219SOL    HW118116   2.084   0.078   3.400  0.1779 -1.2790 -0.6227
 2219SOL    HW218117   1.948   0.090   3.391  0.1077  1.6675  0.2448
 2220SOL     OW18118   0.865   3.048   6.830 -0.0317  0.3126  0.1067
 2220SOL    HW118119   0.906   3.012   6.909  0.8073  0.2604 -0.3506
 2220SOL    HW218120   0.777   3.021   6.856 -0.0557 -1.9649 -2.3069
 2221SOL     OW18121   3.638   3.542   3.529  0.0701  0.4380 -0.3975
 2221SOL    HW118122   3.646   3.464   3.474 -2.8960 -1.4053  1.8467
 2221SOL    HW218123   3.727   3.552   3.564 -0.6355  0.1786  1.4395
 2222SOL     OW18124   3.817   2.321  14.783 -0.0587 -0.2479 -0.5619
 2222SOL    HW118125   3.805   2.411  14.753 -3.3680  0.1194  1.8124
 2222SOL    HW218126   3.771   2.270  14.716  0.1758 -0.4055 -0.6041
 2223SOL     OW18127   3.270   3.440   5.092  0.7652  0.1831 -0.0322
 2223SOL    HW118128   3.254   3.383   5.168 -1.0209  0.6414 -0.0603
 2223SOL    HW218129   3.186   3.486   5.096 -0.6279 -2.2639 -1.3809
 2224SOL     OW18130   4.123   3.010   8.547 -0.5379  0.3220 -0.0907
 2224SOL    HW118131   4.153   2.940   8.490  2.5406 -0.0535  2.0020
 2224SOL    HW218132   4.139   2.979   8.636 -1.0880  1.5518  0.4473
 2225SOL     OW18133   4.627   0.980   9.022 -0.3662  0.1772  0.3611
 2225SOL    HW118134   4.599   0.916   8.956 -1.5608  0.0857  0.9436
 2225SOL    HW218135   4.702   1.022   8.981 -1.8008  1.3184 -1.1132
 2226SOL     OW18136   4.361   4.116   8.023  0.1208  0.3768  0.0129
 2226SOL    HW118137   4.356   4.090   8.115 -2.7478  1.0792  0.0693
 2226SOL    HW218138   4.384   4.031   7.985  0.6847 -0.0990  1.4005
 2227SOL     OW18139   0.062   3.963   3.760  0.1984 -0.0841  0.2896
 2227SOL    HW118140   4.704   3.998   3.721  1.2647  0.5498 -1.2635
 2227SOL    HW218141   0.114   4.029   3.806 -3.2939  2.3240  0.7506
 2228SOL     OW18142   1.321   1.378   7.492  0.7081  0.2803  0.3430
 2228SOL    HW118143   1.407   1.413   7.516  0.9571  0.2079 -0.4716
 2228SOL    HW218144   1.264   1.434   7.544 -0.0437 -1.2472  1.1925
 2229SOL     OW18145   2.469   0.480   6.444  0.2573 -0.2738 -0.1270
 2229SOL    HW118146   2.521   0.551   6.407  0.0404 -1.2203 -2.2465
 2229SOL    HW218147   2.446   0.435   6.363  0.2307  0.9237 -0.7878
 2230SOL     OW18148   1.172   4.070   9.731 -0.1896  0.5547 -0.1367
 2230SOL    HW118149   1.082   4.064   9.701 -0.5383 -0.0219  1.0537
 2230SOL    HW218150   1.155   4.070   9.825  0.7805  1.2909  0.0348
 2231SOL     OW18151   3.755   0.465   8.240 -0.2703 -0.0082  0.5499
 2231SOL    HW118152   3.707   0.467   8.322  0.8891  0.3961  1.2216
 2231SOL    HW218153   3.783   0.374   8.253 -0.5489 -0.0409  0.9242
 2232SOL     OW18154   3.781   0.865  16.164 -0.0858  0.0060  0.0473
 2232SOL    HW118155   3.732   0.919  16.102 -1.0027 -1.6209 -0.6367
 2232SOL    HW218156   3.752   0.907  16.245 -1.2259  1.9048 -1.3630
 2233SOL     OW18157   2.658   3.622   0.016  0.2329  0.8435 -0.0839
 2233SOL    HW118158   2.680   3.609   0.108 -0.4188  1.0495  0.0961
 2233SOL    HW218159   2.593   3.553   0.007  1.7031 -0.4065 -1.1410
 2234SOL     OW18160   4.675   0.851   6.588  0.1200 -0.5845 -0.0533
 2234SOL    HW118161   4.588   0.889   6.574 -0.1149 -0.5308  1.5265
 2234SOL    HW218162   4.649   0.805   6.668  2.6747 -0.1149  1.0320
 2235SOL     OW18163   2.025   2.016   5.892 -0.0999 -0.0182  1.0920
 2235SOL    HW118164   2.053   1.928   5.917  1.1135  0.0648  0.0421
 2235SOL    HW218165   1.934   2.001   5.868 -0.4153 -0.4838  2.6226
 2236SOL     OW18166   4.053   3.863  10.642  0.3799 -0.6436 -0.2909
 2236SOL    HW118167   4.095   3.812  10.572  1.3152 -1.0620  0.5819
 2236SOL    HW218168   4.103   3.828  10.715 -3.9634  0.8378  3.4126
 2237SOL     OW18169   3.580   3.031   9.085 -0.0708 -0.4277 -0.5472
 2237SOL    HW118170   3.617   3.076   9.009 -0.4958  0.9142  0.0281
 2237SOL    HW218171   3.634   2.955   9.103 -1.1729 -1.4974 -1.7373
 2238SOL     OW18172   3.583   1.808   9.942  0.3078  0.5644  0.3785
 2238SOL    HW118173   3.606   1.897   9.968  0.6578  1.0290 -1.4857
 2238SOL    HW218174   3.664   1.768   9.973  1.2020  0.7576 -1.6895
 2239SOL     OW18175   1.230   0.950   5.737 -0.2914 -0.6176  0.0460
 2239SOL    HW118176   1.155   0.894   5.718 -2.9361  2.8103  0.3700
 2239SOL    HW218177   1.231   0.933   5.831  0.8778  0.2847  0.2043
 2240SOL     OW18178   3.917   0.953   6.501 -0.0667 -0.4740  0.1145
 2240SOL    HW118179   3.848   0.895   6.533  0.3234 -1.5098 -0.9179
 2240SOL    HW218180   3.867   1.034   6.501 -0.9118 -0.9899 -3.0900
 2241SOL     OW18181   1.832   2.207   8.137  0.5074 -0.4532  0.2836
 2241SOL    HW118182   1.852   2.129   8.189  0.1733  1.0403  2.6525
 2241SOL    HW218183   1.845   2.277   8.201 -0.2658  0.8446 -0.9701
 2242SOL     OW18184   0.471   0.908   3.683 -0.6021 -0.4543 -0.0105
 2242SOL    HW118185   0.548   0.912   3.626  0.2090  0.3432  1.1423
 2242SOL    HW218186   0.499   0.844   3.748  2.4015  4.3868  3.5162
 2243SOL     OW18187   2.225   4.589   6.044 -0.0724 -0.3839 -0.8003
 2243SOL    HW118188   2.229   4.575   5.949  0.9541 -3.4339 -0.3074
 2243SOL    HW218189   2.257   4.507   6.082  1.9175  0.4407 -0.7162
 2244SOL     OW18190   2.678   2.256   5.133  0.1739  0.9428  0.0219
 2244SOL    HW118191   2.627   2.337   5.134  0.4406  1.1400 -2.0097
 2244SOL    HW218192   2.730   2.273   5.055 -0.3633  0.2020 -0.5025
 2245SOL     OW18193   1.795   3.888   7.745  0.1174  0.4100  0.3720
 2245SOL    HW118194   1.794   3.902   7.839 -0.7026 -0.6614  0.5295
 2245SOL    HW218195   1.703   3.866   7.728  0.7545 -0.8644 -1.4744
 2246SOL     OW18196   2.144   0.963   8.218  0.0999  0.1581  0.1990
 2246SOL    HW118197   2.083   1.036   8.230 -0.6505  0.1368 -3.4561
 2246SOL    HW218198   2.195   1.001   8.146  0.4248 -0.8386 -0.0969
 2247SOL     OW18199   0.158   0.959  15.301 -0.0891 -0.4418 -0.5091
 2247SOL    HW118200   0.089   1.004  15.350 -0.1224 -0.8582 -0.1790
 2247SOL    HW218201   0.229   1.022  15.309 -0.1316 -0.3265 -1.0382
 2248SOL     OW18202   2.745   1.366   4.018  0.5460  0.4046  0.2393
 2248SOL    HW118203   2.714   1.394   3.931  2.3769  0.9478 -0.2475
 2248SOL    HW218204   2.815   1.307   3.990  1.7891  2.0047  0.0034
 2249SOL     OW18205   0.644   4.573   6.084 -0.7704 -0.3346 -0.2733
 2249SOL    HW118206   0.675   4.661   6.061  0.9918 -0.8216  0.2421
 2249SOL    HW218207   0.685   4.517   6.018 -2.4144 -0.1100 -1.4904
 2250SOL     OW18208   2.399   4.662  15.659  0.0887  0.0669 -0.0254
 2250SOL    HW118209   2.359   4.692  15.741  0.0848 -0.6172  0.2255
 2250SOL    HW218210   2.483   4.706  15.677  0.8308 -1.7351  1.0417
 2251SOL     OW18211   1.422   2.249   3.842 -0.1459  0.3923  0.0509
 2251SOL    HW118212   1.483   2.300   3.895 -0.1042 -0.6021  0.9553
 2251SOL    HW218213   1.381   2.310   3.780 -0.0764 -1.4003 -1.7575
 2252SOL     OW18214   2.040   1.374   5.946  0.3170  0.5415 -0.3817
 2252SOL    HW118215   2.009   1.438   6.010 -0.8666 -0.1192 -0.3074
 2252SOL    HW218216   2.119   1.344   5.992 -0.1634  0.9306  0.7006
 2253SOL     OW18217   1.166   2.405   6.663  0.3645  0.4118  0.1561
 2253SOL    HW118218   1.198   2.315   6.667 -0.3456  0.1566  0.1830
 2253SOL    HW218219   1.226   2.440   6.598 -1.4725  0.3772 -1.5797
 2254SOL     OW18220   1.050   0.790  15.997 -0.0935  0.0243 -0.5003
 2254SOL    HW118221   1.109   0.756  16.064 -1.5983  2.2744  1.9396
 2254SOL    HW218222   1.015   0.871  16.036  0.5044  0.1741 -0.2670
 2255SOL     OW18223   1.225   4.157   4.202  0.4140 -0.7579  0.1941
 2255SOL    HW118224   1.216   4.252   4.188 -1.4046 -0.9937 -0.2245
 2255SOL    HW218225   1.320   4.143   4.205  0.4754 -0.6606 -1.3610
 2256SOL     OW18226   3.781   0.572  13.769 -0.1047 -0.5402 -0.3584
 2256SOL    HW118227   3.745   0.570  13.857  1.2890  0.2281  0.2309
 2256SOL    HW218228   3.790   0.665  13.746 -1.5703 -0.5903 -1.1039
 2257SOL     OW18229   1.138   1.377   6.809  0.0363  0.5556 -1.0760
 2257SOL    HW118230   1.118   1.347   6.721  1.0306 -0.0701 -1.0906
 2257SOL    HW218231   1.224   1.419   6.799 -0.6048  2.6121  1.9136
 2258SOL     OW18232   0.597   4.257   8.921  0.0608 -0.7800  0.4606
 2258SOL    HW118233   0.662   4.195   8.886  0.0014 -1.1995  1.0879
 2258SOL    HW218234   0.536   4.194   8.961 -0.1908 -1.2584 -0.6688
 2259SOL     OW18235   0.308   0.719   8.914 -0.3258  0.3372 -0.3489
 2259SOL    HW118236   0.365   0.667   8.857  0.2721  0.9369 -0.2895
 2259SOL    HW218237   0.244   0.652   8.939  0.5679  0.5886  2.6672
 2260SOL     OW18238   0.068   4.497   6.475  0.1336  0.6452  0.1899
 2260SOL    HW118239   0.035   4.477   6.388 -0.3156  1.0060  0.2700
 2260SOL    HW218240   0.025   4.576   6.510 -0.2380 -0.2082  1.6839
 2261SOL     OW18241   1.517   4.190   5.357 -0.7244 -0.3537 -0.1575
 2261SOL    HW118242   1.508   4.264   5.297  0.0056 -2.6257 -3.0770
 2261SOL    HW218243   1.423   4.178   5.373 -0.7439  0.9128  0.6696
 2262SOL     OW18244   1.333   0.327  17.358 -0.2049 -0.9691  0.9277
 2262SOL    HW118245   1.420   0.341  17.319  0.2983 -2.1146  1.6303
 2262SOL    HW218246   1.281   0.330  17.278  0.8293 -1.4135  0.2308
 2263SOL     OW18247   3.469   4.272  11.863 -0.1302 -0.1676 -0.1874
 2263SOL    HW118248   3.524   4.197  11.888 -1.3612 -1.0279 -0.0395
 2263SOL    HW218249   3.421   4.284  11.945  2.2619 -0.3730  1.2593
 2264SOL     OW18250   0.479   3.991   7.172  0.0697 -0.0235  0.1196
 2264SOL    HW118251   0.569   4.011   7.194 -0.5184  1.6439  1.0250
 2264SOL    HW218252   0.497   3.913   7.119  0.6666 -1.1923  2.0799
 2265SOL     OW18253   2.840   0.194   6.522  0.7070 -0.3653  0.3683
 2265SOL    HW118254   2.893   0.273   6.537  1.8317 -1.0792  0.1710
 2265SOL    HW218255   2.886   0.134   6.581  2.6968  1.9226  1.1528
 2266SOL     OW18256   4.081   1.485  10.608  0.5763 -0.8209 -0.1544
 2266SOL    HW118257   4.040   1.528  10.683  1.4105 -0.0218 -0.1552
 2266SOL    HW218258   4.025   1.407  10.603 -0.9787  0.5441 -4.0824
 2267SOL     OW18259   0.860   4.572   3.664 -0.3756  0.5313  0.0900
 2267SOL    HW118260   0.935   4.602   3.612  0.0688 -1.1531 -0.2493
 2267SOL    HW218261   0.863   4.483   3.629 -0.2183 -0.7460  3.3235
 2268SOL     OW18262   1.377   0.776  16.628 -0.2473  0.3372  0.0176
 2268SOL    HW118263   1.452   0.835  16.621  0.8636 -1.0065  0.6905
 2268SOL    HW218264   1.320   0.842  16.589  0.5734 -0.5595 -2.6716
 2269SOL     OW18265   1.672   2.621  14.487  0.3278 -0.0484 -0.4780
 2269SOL    HW118266   1.637   2.602  14.574 -2.3615  0.7663 -1.3776
 2269SOL    HW218267   1.615   2.564  14.436  0.9865 -2.1230  1.1110
 2270SOL     OW18268   4.153   3.503   8.650 -0.0536  0.0454  0.1644
 2270SOL    HW118269   4.178   3.411   8.653  1.5349  0.4303 -1.3718
 2270SOL    HW218270   4.237   3.540   8.678  0.8604 -1.8596 -0.0340
 2271SOL     OW18271   0.736   3.606   9.031 -0.0115 -0.2709 -0.3929
 2271SOL    HW118272   0.822   3.620   9.071  0.5089 -2.6638 -0.6974
 2271SOL    HW218273   0.745   3.643   8.943  2.0209 -1.1000 -0.5325
 2272SOL     OW18274   0.070   0.829   3.212 -0.4206 -0.8027 -0.0230
 2272SOL    HW118275   0.110   0.816   3.126  2.2298 -1.7529  1.3351
 2272SOL    HW218276   0.041   0.920   3.218 -1.2660 -1.3029  3.5413
 2273SOL     OW18277   0.477   2.353   8.329 -0.0470  0.5429 -0.0320
 2273SOL    HW118278   0.572   2.357   8.314 -0.2559  6.1823  0.1818
 2273SOL    HW218279   0.462   2.447   8.318  1.2805  0.3139 -4.0807
 2274SOL     OW18280   2.878   1.414   0.968 -0.1304 -0.2815  0.5656
 2274SOL    HW118281   2.907   1.505   0.976 -0.3128 -0.5600  4.1898
 2274SOL    HW218282   2.831   1.410   1.051 -0.2611 -2.2466  0.3937
 2275SOL     OW18283   1.888   4.265   5.878 -0.0850  0.2285 -0.2332
 2275SOL    HW118284   1.880   4.177   5.841  0.8993  0.1842 -0.3636
 2275SOL    HW218285   1.821   4.313   5.831  0.4730  0.4930 -0.7609
 2276SOL     OW18286   1.713   1.980   4.749 -0.0564 -0.5656 -0.0386
 2276SOL    HW118287   1.769   2.055   4.768 -0.3123 -0.7195  1.3502
 2276SOL    HW218288   1.648   1.994   4.819  1.5802  1.1013  1.1486
 2277SOL     OW18289   2.766   2.099   4.510 -0.0041 -0.4633  0.2164
 2277SOL    HW118290   2.713   2.170   4.544  0.8279  0.8705 -1.2388
 2277SOL    HW218291   2.698   2.048   4.465 -0.6332  0.0533  0.6075
 2278SOL     OW18292   3.024   2.600  13.799  0.0267 -0.2587 -0.1682
 2278SOL    HW118293   2.984   2.686  13.806 -0.3848 -0.6190  1.9960
 2278SOL    HW218294   3.040   2.585  13.893  1.4070  0.4854 -0.2812
 2279SOL     OW18295   2.614   3.428  16.809  0.6126  0.1309 -0.1232
 2279SOL    HW118296   2.689   3.402  16.755  0.8989  1.6496 -0.4632
 2279SOL    HW218297   2.626   3.522  16.798 -0.8900  0.5932  2.2836
 2280SOL     OW18298   1.089   0.422   6.164  0.1176  0.0812 -0.2215
 2280SOL    HW118299   1.147   0.496   6.149 -0.4667 -0.1557 -3.4995
 2280SOL    HW218300   1.150   0.356   6.196 -0.9982 -0.3500  1.0671
 2281SOL     OW18301   1.558   3.036   1.582 -0.4990  0.1185  0.2941
 2281SOL    HW118302   1.476   3.048   1.535  0.1264  0.6840 -0.6507
 2281SOL    HW218303   1.605   3.116   1.559  0.6258  0.0497  2.3346
 2282SOL     OW18304   2.999   0.038   1.854 -0.5414  0.0249 -0.4516
 2282SOL    HW118305   2.974   4.685   1.797 -1.7889  0.9709 -1.1304
 2282SOL    HW218306   3.094   0.027   1.856 -0.5186  0.1648 -0.8466
 2283SOL     OW18307   4.584   2.122   2.354 -0.0450 -0.3644  0.0962
 2283SOL    HW118308   4.539   2.049   2.310  0.7441 -0.0104 -1.2887
 2283SOL    HW218309   4.570   2.095   2.445 -1.2513  0.9769  0.2962
 2284SOL     OW18310   0.352   2.989   5.283  0.2645 -1.0377 -0.1611
 2284SOL    HW118311   0.281   3.004   5.221  0.0615 -0.3490  0.2347
 2284SOL    HW218312   0.300   2.921   5.327 -1.3918  1.1190  1.2413
 2285SOL     OW18313   4.293   0.334  11.815 -0.7112  0.1184  0.3026
 2285SOL    HW118314   4.377   0.380  11.812 -1.3540  1.2184 -0.8701
 2285SOL    HW218315   4.318   0.248  11.779 -0.8893  0.1251  0.1638
 2286SOL     OW18316   4.630   4.252   4.449  0.7976  0.2401 -0.1879
 2286SOL    HW118317   4.695   4.277   4.515  0.6824 -2.1150  0.8109
 2286SOL    HW218318   4.594   4.176   4.494 -1.1339 -0.1608 -2.4293
 2287SOL     OW18319   4.413   0.001   8.518 -0.2772  0.2816  0.0824
 2287SOL    HW118320   4.474   4.653   8.493  0.4440  0.0720  2.4257
 2287SOL    HW218321   4.464   0.080   8.505 -2.0125  1.2906 -0.6522
 2288SOL     OW18322   1.925   4.550   6.153 -0.1242 -0.2872  0.7877
 2288SOL    HW118323   1.976   4.561   6.234 -1.3815  1.4494  1.3523
 2288SOL    HW218324   1.989   4.502   6.100 -1.2905 -0.0949 -0.7897
 2289SOL     OW18325   3.026   3.006   4.393 -0.8036  0.5043 -0.3003
 2289SOL    HW118326   3.057   3.082   4.343 -1.4384  0.4877 -0.7161
 2289SOL    HW218327   3.035   3.034   4.484  1.0129 -0.7930 -0.0804
 2290SOL     OW18328   2.151   4.120   5.194  0.4196 -0.2788 -0.4765
 2290SOL    HW118329   2.202   4.200   5.179 -1.7226  0.7250 -2.2937
 2290SOL    HW218330   2.126   4.092   5.106  0.2107 -0.2940 -0.4128
 2291SOL     OW18331   3.996   4.055   5.671 -0.3597 -0.4875 -0.4366
 2291SOL    HW118332   3.943   4.027   5.596 -1.1676 -2.3000  0.7767
 2291SOL    HW218333   4.042   3.972   5.681  0.1653  0.1739  2.4793
 2292SOL     OW18334   4.156   4.694   8.200 -0.0661  0.0311  0.1771
 2292SOL    HW118335   4.164   0.010   8.288 -2.0385 -2.3532  1.3878
 2292SOL    HW218336   4.249   4.682   8.182 -0.0850  0.9636 -0.5115
 2293SOL     OW18337   1.892   2.511   4.335 -0.2165  0.4641  0.1162
 2293SOL    HW118338   1.924   2.421   4.325  1.4664  1.0361  0.4606
 2293SOL    HW218339   1.828   2.498   4.405  1.2749 -0.0890  1.3710
 2294SOL     OW18340   1.722   2.956   3.794  0.9830 -0.1325  0.4205
 2294SOL    HW118341   1.727   2.882   3.733  0.4622  0.2576 -0.0947
 2294SOL    HW218342   1.669   2.927   3.868  1.6876  0.2503  1.0694
 2295SOL     OW18343   1.488   0.897  11.470  0.4014 -0.6617  0.3784
 2295SOL    HW118344   1.412   0.868  11.420  0.3057 -1.8061  1.1879
 2295SOL    HW218345   1.529   0.814  11.493 -1.3701 -1.0227  2.2058
 2296SOL     OW18346   1.838   1.288   7.025  0.1342  0.3941  0.0324
 2296SOL    HW118347   1.780   1.214   7.005  1.0600  0.3355 -2.4489
 2296SOL    HW218348   1.888   1.261   7.101  1.8743  0.4622 -1.1034
 2297SOL     OW18349   1.995   2.536   2.110 -0.0019 -0.0816  0.2385
 2297SOL    HW118350   1.919   2.561   2.163 -1.5838 -2.2857 -1.0312
 2297SOL    HW218351   2.020   2.462   2.166  0.7788 -0.1819 -0.2519
 2298SOL     OW18352   3.010   1.311  16.376  0.3172  0.1527 -0.0623
 2298SOL    HW118353   3.040   1.389  16.330 -0.3038  0.8688  0.7459
 2298SOL    HW218354   2.993   1.344  16.464  0.8876  1.4496 -0.4304
 2299SOL     OW18355   3.409   0.648   6.597 -0.1289 -0.0512 -0.0633
 2299SOL    HW118356   3.474   0.675   6.531 -1.5973  1.7389 -0.7770
 2299SOL    HW218357   3.463   0.611   6.666 -0.9459 -1.9707 -0.4728
 2300SOL     OW18358   0.659   1.072   8.673  0.2456  0.3377  0.2971
 2300SOL    HW118359   0.675   1.057   8.766 -0.1215 -1.3535  0.0817
 2300SOL    HW218360   0.699   1.157   8.655  0.7172 -0.1698 -1.0525
 2301SOL     OW18361   2.491   0.021   8.772  0.3500  0.7543 -0.1897
 2301SOL    HW118362   2.469   4.671   8.831  1.3677 -0.0771 -0.8085
 2301SOL    HW218363   2.435   4.716   8.699 -2.1017  0.2745  1.8931
 2302SOL     OW18364   2.920   2.076  13.182 -0.4644  0.1862 -0.0536
 2302SOL    HW118365   3.012   2.095  13.198 -0.6753  0.1972  1.1315
 2302SOL    HW218366   2.923   2.051  13.089  0.5480  1.4872 -0.3829
 2303SOL     OW18367   1.674   2.875  14.351 -0.2922 -0.1908 -0.7641
 2303SOL    HW118368   1.685   2.967  14.330  1.5446  0.0179  1.1384
 2303SOL    HW218369   1.581   2.858  14.334 -0.4435 -0.4199  0.2982
 2304SOL     OW18370   1.254   1.350   0.888  0.3165  0.1062  0.1824
 2304SOL    HW118371   1.203   1.322   0.812 -0.5534  1.2434  0.3379
 2304SOL    HW218372   1.248   1.446   0.890 -0.3719  0.0701 -0.3163
 2305SOL     OW18373   0.371   2.917   0.048  0.3274 -0.0433  0.1705
 2305SOL    HW118374   0.424   2.898   0.125  1.5131 -1.0010 -0.8980
 2305SOL    HW218375   0.317   2.838   0.042 -0.4232  0.3638  1.5775
 2306SOL     OW18376   0.749   0.865  17.443 -0.0530  0.5037  0.1898
 2306SOL    HW118377   0.742   0.802  17.372  0.2088 -0.9490  1.4565
 2306SOL    HW218378   0.662   0.858  17.482 -0.8736 -0.0940 -1.7492
 2307SOL     OW18379   1.682   3.749   2.714  0.0816  0.4939  0.2569
 2307SOL    HW118380   1.647   3.812   2.651 -2.3038  0.7985  1.9074
 2307SOL    HW218381   1.776   3.762   2.700  0.0496  0.0848 -0.3495
 2308SOL     OW18382   0.574   0.518   9.277 -0.3423  0.2508  0.0936
 2308SOL    HW118383   0.488   0.532   9.238  0.3597  1.8956 -0.8433
 2308SOL    HW218384   0.592   0.438   9.227  2.0185  0.7902  0.0693
 2309SOL     OW18385   1.270   4.016   3.070 -0.1844  0.7071 -0.1224
 2309SOL    HW118386   1.241   3.994   2.982  0.0049  1.0612 -0.2733
 2309SOL    HW218387   1.287   4.109   3.057  1.8659  0.0245 -2.2888
 2310SOL     OW18388   2.523   1.096   6.409  0.2723  0.3060  0.2120
 2310SOL    HW118389   2.571   1.173   6.381 -0.0873  0.1485 -0.8397
 2310SOL    HW218390   2.443   1.130   6.451  0.9270  1.8213  0.2382
 2311SOL     OW18391   0.067   4.262  14.981  0.3634  0.6523 -0.0947
 2311SOL    HW118392   0.045   4.324  15.051 -0.3214 -1.4633  1.5631
 2311SOL    HW218393   0.050   4.176  15.018  1.2799  0.8523  0.7916
 2312SOL     OW18394   3.856   2.372   5.926  0.2889 -0.1814 -0.6192
 2312SOL    HW118395   3.886   2.401   6.012  0.4174  0.1480 -0.7759
 2312SOL    HW218396   3.930   2.313   5.908 -0.9409 -1.7113 -0.6967
 2313SOL     OW18397   2.368   4.255   2.388  0.1675 -0.2500 -0.0297
 2313SOL    HW118398   2.431   4.309   2.437 -1.0864  2.3165 -1.2196
 2313SOL    HW218399   2.363   4.304   2.305 -0.6820  1.0373  0.7752
 2314SOL     OW18400   1.728   2.065  15.174 -0.0346  0.2008 -0.4835
 2314SOL    HW118401   1.643   2.022  15.186 -0.1210  0.7244  0.8275
 2314SOL    HW218402   1.790   1.992  15.169  0.4911  0.7043 -1.2319
 2315SOL     OW18403   3.644   1.934   8.655  0.8749  0.4310 -0.1375
 2315SOL    HW118404   3.655   1.839   8.646  1.7117  0.5911 -0.8159
 2315SOL    HW218405   3.676   1.936   8.745  0.8016  0.7735 -0.1178
 2316SOL     OW18406   4.307   1.915   1.164  0.3640  0.2845  0.3066
 2316SOL    HW118407   4.328   1.843   1.223  0.7924 -0.2167 -0.4529
 2316SOL    HW218408   4.240   1.957   1.217  0.2599  0.6996 -0.1494
 2317SOL     OW18409   1.582   2.758   3.155 -0.3142 -0.0553  0.1319
 2317SOL    HW118410   1.630   2.730   3.233  0.3763  2.1323  0.4880
 2317SOL    HW218411   1.631   2.839   3.145 -1.7883  0.8084 -0.1747
 2318SOL     OW18412   1.628   3.253  17.028  0.2968  0.3046 -0.4918
 2318SOL    HW118413   1.718   3.221  17.016  0.6725  0.6095  1.4116
 2318SOL    HW218414   1.633   3.305  16.948  1.2672  0.1931 -0.5131
 2319SOL     OW18415   2.343   1.839  15.422 -0.2682 -0.0834  0.0830
 2319SOL    HW118416   2.381   1.815  15.337  0.9819  0.2280  0.5447
 2319SOL    HW218417   2.286   1.767  15.447 -0.7274 -0.0739 -0.9308
 2320SOL     OW18418   0.434   0.126  16.342  0.2408 -0.0464  0.0468
 2320SOL    HW118419   0.459   0.041  16.307  0.6787  0.0559  0.1153
 2320SOL    HW218420   0.471   0.188  16.279  0.3834  2.4402  2.5631
 2321SOL     OW18421   1.743   1.368  14.295 -0.1317  0.0720  0.0688
 2321SOL    HW118422   1.774   1.319  14.371 -2.6374  0.1380  1.1300
 2321SOL    HW218423   1.811   1.340  14.233 -1.5094 -2.0529 -0.4944
 2322SOL     OW18424   3.113   1.174   4.134 -0.2846  0.6518 -0.3806
 2322SOL    HW118425   3.045   1.108   4.149  0.8060 -0.4002 -0.0378
 2322SOL    HW218426   3.145   1.195   4.221 -0.6616 -2.1527  0.4442
 2323SOL     OW18427   1.323   1.175   9.068  0.3018  0.2088  0.8226
 2323SOL    HW118428   1.372   1.207   9.144 -1.6027 -0.5254  2.3502
 2323SOL    HW218429   1.242   1.145   9.109  1.5234 -4.1420  0.0914
 2324SOL     OW18430   2.009   1.311   3.483  0.0567 -0.1892  0.0361
 2324SOL    HW118431   2.062   1.385   3.455  1.4906  0.2025  3.8225
 2324SOL    HW218432   2.035   1.241   3.423 -2.7591 -2.3862  1.3794
 2325SOL     OW18433   3.320   0.870  16.477 -0.1761  0.5770 -0.0861
 2325SOL    HW118434   3.368   0.797  16.438  0.8734  0.8041  0.7970
 2325SOL    HW218435   3.229   0.839  16.471 -0.1436  0.2054  1.5068
 2326SOL     OW18436   1.220   1.736   6.639  0.3447 -0.1917  0.4265
 2326SOL    HW118437   1.306   1.711   6.606  0.6244  0.2819  0.7943
 2326SOL    HW218438   1.247   1.761   6.727 -0.0506  0.6266  0.3178
 2327SOL     OW18439   4.397   4.236   9.030  0.1535 -1.0665  0.0055
 2327SOL    HW118440   4.320   4.223   9.086 -0.7368 -2.0258 -1.4741
 2327SOL    HW218441   4.473   4.208   9.082  2.0487 -0.5191 -2.4591
 2328SOL     OW18442   1.090   1.425   1.807 -0.4597  0.0139 -0.3547
 2328SOL    HW118443   1.007   1.461   1.776  0.3536  1.6360 -0.5906
 2328SOL    HW218444   1.069   1.355   1.870 -0.0700 -0.3781 -0.6604
 2329SOL     OW18445   4.531   1.220   6.876  0.1447 -0.3940  0.4361
 2329SOL    HW118446   4.462   1.157   6.894  0.4475 -1.2536 -1.4516
 2329SOL    HW218447   4.605   1.164   6.902 -0.0365  0.1611  2.1901
 2330SOL     OW18448   2.462   1.744   8.365  0.1884  0.0079  0.2899
 2330SOL    HW118449   2.384   1.799   8.367  0.3717  0.2196  1.9341
 2330SOL    HW218450   2.430   1.656   8.343 -2.1011  0.9170 -0.0050
 2331SOL     OW18451   0.276   1.856   7.253 -0.2067 -0.2504 -0.0213
 2331SOL    HW118452   0.240   1.810   7.178  0.0256 -0.4662  0.0021
 2331SOL    HW218453   0.350   1.798   7.271 -0.4136 -0.9471 -1.4845
 2332SOL     OW18454   2.483   1.883   4.256  0.5292  0.3831  0.1833
 2332SOL    HW118455   2.510   1.972   4.279 -1.0851  0.2714  2.5644
 2332SOL    HW218456   2.509   1.881   4.164  1.3269  0.7934  0.4088
 2333SOL     OW18457   4.466   3.341  15.919  0.6513 -0.2901 -0.2007
 2333SOL    HW118458   4.383   3.355  15.965  0.3775 -0.3234 -0.6805
 2333SOL    HW218459   4.466   3.411  15.853 -2.1270  0.0575  0.1584
 2334SOL     OW18460   1.573   4.057   6.695  0.4458  0.2143  0.3187
 2334SOL    HW118461   1.571   4.052   6.600  0.7518 -0.3883  0.3411
 2334SOL    HW218462   1.659   4.018   6.715  0.5048  0.4584  0.5397
 2335SOL     OW18463   1.922   0.700   5.719  0.4396  0.0844  0.5212
 2335SOL    HW118464   1.844   0.650   5.695  0.5351  0.1965 -0.0066
 2335SOL    HW218465   1.975   0.663   5.649 -0.9858 -3.1453  1.1304
 2336SOL     OW18466   2.032   3.594   2.729 -0.5143  0.3061  0.2159
 2336SOL    HW118467   2.095   3.576   2.659 -0.2704 -0.1532  0.5551
 2336SOL    HW218468   2.009   3.681   2.698  0.7014  0.4804 -0.2014
 2337SOL     OW18469   0.632   1.837   8.964 -0.3001  0.0124  0.0972
 2337SOL    HW118470   0.583   1.857   8.884 -0.1785 -0.2805 -0.0487
 2337SOL    HW218471   0.583   1.888   9.029 -0.1212  0.7512 -0.3551
 2338SOL     OW18472   1.328   0.036   3.683 -0.8975 -1.0658  0.1974
 2338SOL    HW118473   1.251   0.016   3.735 -1.7001  1.5388 -0.0024
 2338SOL    HW218474   1.298   4.715   3.602 -0.1231 -3.2697  1.0683
 2339SOL     OW18475   1.349   2.970   5.280 -0.2454 -0.4076  0.0022
 2339SOL    HW118476   1.306   2.895   5.322  0.0975  1.0529  3.0052
 2339SOL    HW218477   1.325   3.037   5.345  2.7900  0.1528  0.5697
 2340SOL     OW18478   3.134   3.202   0.418 -0.4751  0.5143 -0.2831
 2340SOL    HW118479   3.216   3.249   0.401 -0.0589 -0.1925 -0.2480
 2340SOL    HW218480   3.176   3.122   0.449 -0.3503  1.7272  2.6234
 2341SOL     OW18481   2.735   3.076  15.854  0.3721 -0.0657 -0.5171
 2341SOL    HW118482   2.674   3.054  15.783 -0.2510  1.2624 -0.4011
 2341SOL    HW218483   2.684   3.054  15.932  0.1694  0.1921 -0.5772
 2342SOL     OW18484   4.199   3.345  13.766 -0.4246  0.0456  0.3111
 2342SOL    HW118485   4.286   3.307  13.779 -1.6738 -3.4288 -1.5404
 2342SOL    HW218486   4.217   3.439  13.774  1.1688 -0.2421  0.0433
 2343SOL     OW18487   2.728   3.417   7.029  0.5927  0.3123  0.0374
 2343SOL    HW118488   2.814   3.453   7.006  1.0764 -0.2683  0.9200
 2343SOL    HW218489   2.742   3.325   7.050 -0.0518  0.6136  1.7754
 2344SOL     OW18490   3.629   3.551  10.730  0.1041  0.0583  0.1863
 2344SOL    HW118491   3.580   3.628  10.759  2.3058  1.6035 -0.2056
 2344SOL    HW218492   3.656   3.514  10.814 -0.0344  0.4528  0.4069
 2345SOL     OW18493   1.171   1.955   8.301 -0.0162 -0.1927  0.0087
 2345SOL    HW118494   1.184   1.896   8.227  1.1563 -0.4573  0.4329
 2345SOL    HW218495   1.260   1.961   8.336 -0.2445  0.4835  0.4806
 2346SOL     OW18496   1.629   2.918  11.231 -0.3248 -0.3433 -0.1834
 2346SOL    HW118497   1.543   2.942  11.266  0.2953  1.2517  0.2274
 2346SOL    HW218498   1.664   2.879  11.311  1.4355  1.6962  0.0217
 2347SOL     OW18499   4.195   2.132   8.062  0.0205 -0.3968 -0.1446
 2347SOL    HW118500   4.117   2.170   8.103  0.1394 -0.1689 -0.1229
 2347SOL    HW218501   4.221   2.069   8.129  0.2373 -0.9564 -0.7677
 2348SOL     OW18502   1.415   4.186  10.082 -0.5512 -0.2838  0.5029
 2348SOL    HW118503   1.350   4.122  10.051 -1.7882  1.3219 -0.2197
 2348SOL    HW218504   1.479   4.199  10.011  0.2756 -0.5414  1.1962
 2349SOL     OW18505   2.693   3.485  17.171 -0.4179 -0.1955  0.0379
 2349SOL    HW118506   2.681   3.551  17.239 -2.9398  0.6118 -1.1773
 2349SOL    HW218507   2.608   3.483  17.125 -0.9192 -0.6258  0.9810
 2350SOL     OW18508   3.632   3.226   0.304 -0.1830  0.7276  0.1880
 2350SOL    HW118509   3.654   3.230   0.211 -0.3690  0.4443  0.1317
 2350SOL    HW218510   3.673   3.147   0.339 -1.2183 -1.0986 -2.6784
 2351SOL     OW18511   4.244   3.682  16.248  1.0470 -0.1096 -0.2446
 2351SOL    HW118512   4.234   3.597  16.292  0.6866 -0.3814 -0.8517
 2351SOL    HW218513   4.158   3.689  16.206  0.8956 -0.6102 -0.0237
 2352SOL     OW18514   0.983   4.712   2.812 -0.3204  0.1363 -0.1055
 2352SOL    HW118515   0.980   4.652   2.738 -2.9127  1.2700 -0.9122
 2352SOL    HW218516   1.075   0.019   2.820 -0.3563  0.8968 -2.6650
 2353SOL     OW18517   2.994   2.720   2.178 -0.3520 -0.2986  0.3484
 2353SOL    HW118518   2.944   2.777   2.120 -0.5174 -1.2410 -0.4381
 2353SOL    HW218519   2.930   2.706   2.248 -0.1442  2.4197  1.0550
 2354SOL     OW18520   0.907   3.376   2.535  0.1146  0.0053  0.0666
 2354SOL    HW118521   0.837   3.385   2.471 -0.9330 -1.0855  1.0658
 2354SOL    HW218522   0.909   3.466   2.568 -1.3195  1.0484 -2.7417
 2355SOL     OW18523   3.403   2.424   6.572  0.3365  0.1763  0.6747
 2355SOL    HW118524   3.427   2.508   6.612 -0.2652  0.9489 -0.5804
 2355SOL    HW218525   3.480   2.405   6.517  0.4191 -1.2325  1.2853
 2356SOL     OW18526   3.325   3.878  16.700  0.3775 -0.0800 -0.1046
 2356SOL    HW118527   3.337   3.790  16.735 -0.1737 -0.3267 -0.5434
 2356SOL    HW218528   3.230   3.879  16.686  0.5543  0.3017 -1.3149
 2357SOL     OW18529   1.681   1.458   0.988 -0.6345 -0.2122 -0.5329
 2357SOL    HW118530   1.652   1.385   0.934 -0.9745 -0.3667 -0.1468
 2357SOL    HW218531   1.687   1.527   0.923 -0.0844  0.2606  0.0140
 2358SOL     OW18532   1.602   0.347  10.796 -0.1676 -0.4100  0.3510
 2358SOL    HW118533   1.634   0.430  10.762  0.2749 -1.2472 -1.2704
 2358SOL    HW218534   1.520   0.379  10.834  0.4033  1.3578  0.0845
 2359SOL     OW18535   4.236   3.392   8.002  0.1690  0.1960  0.0937
 2359SOL    HW118536   4.277   3.363   8.084 -0.0667 -0.8495 -0.1533
 2359SOL    HW218537   4.183   3.318   7.973  0.6802 -0.0823 -0.1312
 2360SOL     OW18538   3.592   0.238  11.080 -0.0606  0.0302  0.0831
 2360SOL    HW118539   3.570   0.176  11.011  0.1320  0.0367  0.0160
 2360SOL    HW218540   3.650   0.182  11.132 -2.0003 -0.5613  1.5809
 2361SOL     OW18541   4.371   4.421   5.108  0.3334 -0.0592 -0.0047
 2361SOL    HW118542   4.425   4.438   5.185 -0.6939  0.5871  0.5678
 2361SOL    HW218543   4.288   4.433   5.154 -1.1287  1.2532 -3.0097
 2362SOL     OW18544   0.970   3.949   5.412  0.0671  0.4452 -0.3142
 2362SOL    HW118545   1.004   3.950   5.502 -0.2716  1.7216 -0.2044
 2362SOL    HW218546   1.010   3.877   5.364  2.3005  0.9548  0.7775
 2363SOL     OW18547   2.554   3.545   4.128  0.6749 -0.2303  0.2427
 2363SOL    HW118548   2.646   3.542   4.100  0.2967 -1.3427 -0.8621
 2363SOL    HW218549   2.512   3.533   4.043 -1.4838 -1.0194  1.4329
 2364SOL     OW18550   0.575   1.830  16.336 -0.3809 -0.0451 -0.3102
 2364SOL    HW118551   0.592   1.864  16.424  0.5165  0.1825 -0.5740
 2364SOL    HW218552   0.505   1.768  16.356 -2.2992  2.1006 -0.3748
 2365SOL     OW18553   3.505   3.169  15.065 -0.1232 -0.3845  0.1199
 2365SOL    HW118554   3.486   3.084  15.026 -0.6336 -1.4218  2.6364
 2365SOL    HW218555   3.510   3.225  14.988  3.4269 -0.3753  0.3823
 2366SOL     OW18556   3.611   2.981   0.437  0.1600 -0.5603  0.8146
 2366SOL    HW118557   3.525   2.988   0.396  0.1878 -1.5296  0.5917
 2366SOL    HW218558   3.583   2.914   0.499 -1.2785 -0.9249 -0.2443
 2367SOL     OW18559   1.342   2.660   8.792 -0.0564  0.8606 -0.4929
 2367SOL    HW118560   1.346   2.565   8.787 -1.4050  0.8122 -0.7217
 2367SOL    HW218561   1.300   2.661   8.706 -1.4327 -0.3736  0.1537
 2368SOL     OW18562   3.077   0.467  13.277 -0.1531  0.2966 -0.5053
 2368SOL    HW118563   2.991   0.437  13.247 -0.6613  0.2018  1.0384
 2368SOL    HW218564   3.090   0.550  13.231 -1.3136  0.7909  0.0615
 2369SOL     OW18565   0.564   4.440   7.187  0.1983 -0.2847 -0.5065
 2369SOL    HW118566   0.644   4.430   7.135 -0.9597 -1.6040 -2.0245
 2369SOL    HW218567   0.572   4.529   7.220  0.2855  0.5374 -2.7456
 2370SOL     OW18568   2.404   4.388  15.599  0.1808  0.0343 -0.5841
 2370SOL    HW118569   2.497   4.369  15.590  0.2254  1.0174 -2.1369
 2370SOL    HW218570   2.405   4.481  15.621 -0.6723  0.2034 -1.2508
 2371SOL     OW18571   3.544   1.187  16.463 -0.2524  0.3562  0.1122
 2371SOL    HW118572   3.476   1.253  16.476  0.5448  1.4743 -1.4450
 2371SOL    HW218573   3.513   1.112  16.514  0.4931  1.2719  1.9077
 2372SOL     OW18574   2.694   1.470   3.785  0.2142  0.1030 -0.0357
 2372SOL    HW118575   2.607   1.507   3.771  1.2555  2.5562  0.0075
 2372SOL    HW218576   2.750   1.544   3.763  1.2992 -1.5278 -2.8130
 2373SOL     OW18577   4.129   1.523   3.073 -0.0184  0.0006  0.2247
 2373SOL    HW118578   4.084   1.605   3.051 -0.2384 -0.7690 -2.2068
 2373SOL    HW218579   4.102   1.474   2.995 -0.4417  1.3834 -0.4971
 2374SOL     OW18580   3.327   2.529   3.196 -0.7051 -0.1292 -0.0372
 2374SOL    HW118581   3.316   2.580   3.277  1.5342  1.2988 -0.6294
 2374SOL    HW218582   3.298   2.594   3.132 -1.4373 -0.3939  0.0272
 2375SOL     OW18583   0.570   2.670  12.610 -0.0030 -0.0981 -0.3938
 2375SOL    HW118584   0.520   2.611  12.666 -0.4265  1.0459  0.4489
 2375SOL    HW218585   0.577   2.753  12.658 -0.9177  0.5977 -1.4566
 2376SOL     OW18586   2.373   3.581  12.912 -0.0959  0.0930 -0.5854
 2376SOL    HW118587   2.450   3.526  12.926 -0.8356 -0.4670  1.2018
 2376SOL    HW218588   2.311   3.548  12.977 -0.1467 -0.2896 -0.8243
 2377SOL     OW18589   1.475   0.836   2.402 -0.1957 -0.0648  0.3230
 2377SOL    HW118590   1.463   0.920   2.356 -1.9677 -0.2834  0.3975
 2377SOL    HW218591   1.410   0.847   2.471 -0.5837 -0.6646  0.0431
 2378SOL     OW18592   3.602   1.299   7.635 -0.6491 -0.2568 -0.1638
 2378SOL    HW118593   3.676   1.341   7.590 -0.4390 -1.1080 -0.6134
 2378SOL    HW218594   3.538   1.368   7.651 -0.8062  0.0543 -2.0424
 2379SOL     OW18595   3.918   1.842   3.379  0.3965 -0.2189 -0.3940
 2379SOL    HW118596   3.969   1.793   3.444  2.1485  0.0401 -1.5826
 2379SOL    HW218597   3.839   1.861   3.430  1.7336 -0.4855  1.8079
 2380SOL     OW18598   0.785   3.587  17.107  0.2806  0.3032  0.1038
 2380SOL    HW118599   0.774   3.627  17.194  0.4999  1.0169 -0.1982
 2380SOL    HW218600   0.710   3.528  17.116  0.8226 -0.1948  1.3162
 2381SOL     OW18601   3.746   2.321  17.030  0.1760  0.1044  0.1393
 2381SOL    HW118602   3.800   2.325  17.108 -0.8259 -0.0002  0.8380
 2381SOL    HW218603   3.657   2.331  17.063  1.7174  2.5103  3.4521
 2382SOL     OW18604   2.781   1.094   2.507 -0.1012  0.2324  0.3925
 2382SOL    HW118605   2.806   1.002   2.497 -1.5889 -0.2064  0.7036
 2382SOL    HW218606   2.852   1.144   2.466  1.5939 -0.5019  2.4225
 2383SOL     OW18607   4.624   4.660  11.999  0.1489  0.2120 -0.4320
 2383SOL    HW118608   4.548   4.633  11.946  0.2045 -1.4905  0.3810
 2383SOL    HW218609   4.590   4.694  12.081  0.2364 -0.2750 -0.1946
 2384SOL     OW18610   0.867   0.879   2.996 -0.5453  0.4390  0.2771
 2384SOL    HW118611   0.784   0.832   2.992  0.7093 -1.8649  0.8231
 2384SOL    HW218612   0.889   0.881   3.089  0.1057  0.5029  0.1205
 2385SOL     OW18613   3.799   1.693   3.689  0.0508  0.7161 -0.0641
 2385SOL    HW118614   3.742   1.753   3.641 -0.7353  0.4002  0.4761
 2385SOL    HW218615   3.825   1.630   3.622 -1.6593 -1.7714  1.6103
 2386SOL     OW18616   2.046   1.053   5.240 -0.6199  0.3676 -1.1861
 2386SOL    HW118617   2.111   1.122   5.226  0.0821  0.1130  0.8073
 2386SOL    HW218618   2.107   0.980   5.254 -1.3984 -0.2571 -1.0691
 2387SOL     OW18619   0.877   3.825   1.996 -0.3451  0.3628  0.3466
 2387SOL    HW118620   0.836   3.746   1.959  1.1359  0.6678 -1.9774
 2387SOL    HW218621   0.862   3.804   2.088  0.1833 -0.0037  0.3453
 2388SOL     OW18622   4.154   2.792   4.445 -0.1264  0.0621  0.0275
 2388SOL    HW118623   4.083   2.734   4.471  0.4089 -0.9138 -0.6782
 2388SOL    HW218624   4.228   2.756   4.494  0.3994 -0.6634 -1.2868
 2389SOL     OW18625   0.311   2.697   9.253 -0.2742 -0.0783 -0.3622
 2389SOL    HW118626   0.379   2.649   9.205  0.0633  0.4963 -0.4545
 2389SOL    HW218627   0.257   2.623   9.282  0.9169  0.1696  2.4588
 2390SOL     OW18628   3.374   0.383   6.946 -0.0491  0.6144  0.0068
 2390SOL    HW118629   3.330   0.430   7.016  0.1112  0.7771 -0.0032
 2390SOL    HW218630   3.308   0.334   6.897 -0.1708  0.8493 -0.0657
 2391SOL     OW18631   2.755   1.236  14.801  0.2618  0.1594  0.0291
 2391SOL    HW118632   2.795   1.268  14.883 -1.2339 -1.5873  1.4272
 2391SOL    HW218633   2.662   1.234  14.822 -0.5800 -0.7529 -3.8157
 2392SOL     OW18634   0.141   2.841  11.426 -0.3551  0.2449 -0.2482
 2392SOL    HW118635   0.138   2.750  11.457 -1.8254  0.7193  0.9972
 2392SOL    HW218636   0.177   2.886  11.503 -2.3210 -1.0359  1.4175
 2393SOL     OW18637   2.053   0.124  13.163 -0.0150  0.1232  0.4415
 2393SOL    HW118638   2.050   0.091  13.253  0.6993 -0.0200  0.4104
 2393SOL    HW218639   2.049   0.219  13.176  0.0520  0.0131  1.2933
 2394SOL     OW18640   2.852   2.825   7.304  0.9660  0.3666 -0.6458
 2394SOL    HW118641   2.910   2.818   7.379  0.3440  4.2235  0.1919
 2394SOL    HW218642   2.824   2.917   7.305  2.7425  0.8882 -0.2359
 2395SOL     OW18643   4.047   0.761   4.861  0.5834 -0.7070  0.5060
 2395SOL    HW118644   4.082   0.837   4.815  0.9829 -2.6035 -2.2933
 2395SOL    HW218645   4.108   0.687   4.862  0.5358 -0.7409  0.9766
 2396SOL     OW18646   3.848   1.859   9.084 -0.5268 -0.4813  0.1358
 2396SOL    HW118647   3.810   1.812   9.158 -2.1828  0.4318 -0.1420
 2396SOL    HW218648   3.788   1.934   9.081 -0.5695 -0.4975  0.6991
 2397SOL     OW18649   4.507   3.622   4.128  0.0842 -0.4586  0.3158
 2397SOL    HW118650   4.540   3.685   4.192 -1.1184  2.3638 -1.8180
 2397SOL    HW218651   4.519   3.535   4.165 -0.8699 -1.0598 -0.7790
 2398SOL     OW18652   2.969   4.132   3.033 -0.4598  0.0146 -0.1564
 2398SOL    HW118653   2.895   4.182   2.997 -0.5717 -0.8677 -1.1641
 2398SOL    HW218654   2.937   4.046   3.007  0.6285 -0.6458  0.7353
 2399SOL     OW18655   3.306   1.769  12.544  0.1738 -0.4779  0.3236
 2399SOL    HW118656   3.346   1.855  12.549 -1.1894  0.3485 -3.2573
 2399SOL    HW218657   3.358   1.718  12.607  0.8724  1.4484  1.3092
 2400SOL     OW18658   2.558   2.531   7.128  0.0952 -0.0948 -0.5775
 2400SOL    HW118659   2.487   2.529   7.063 -0.6173  1.1499  0.1596
 2400SOL    HW218660   2.518   2.462   7.181  1.4687 -0.2588  0.2234
 2401SOL     OW18661   3.951   3.904   9.299 -0.7342  0.3349  0.2779
 2401SOL    HW118662   3.928   3.898   9.206 -1.2507 -0.5052  0.4600
 2401SOL    HW218663   4.045   3.922   9.299 -0.6727  0.0802 -2.1773
 2402SOL     OW18664   2.038   1.586   3.853 -0.1938  0.2462  0.0606
 2402SOL    HW118665   2.050   1.663   3.797  1.1452 -1.3420 -1.8214
 2402SOL    HW218666   2.130   1.563   3.867  0.4266  1.4361 -1.9230
 2403SOL     OW18667   1.777   0.400   3.566 -0.2011 -0.2561  0.1956
 2403SOL    HW118668   1.854   0.352   3.596  0.3159 -0.2720 -1.1601
 2403SOL    HW218669   1.812   0.481   3.528 -0.1911  0.0033  0.7568
 2404SOL     OW18670   3.031   3.037   2.036 -0.5510  0.6425 -0.7663
 2404SOL    HW118671   3.048   2.976   1.965  0.1153  0.8017 -0.7419
 2404SOL    HW218672   2.955   2.996   2.077 -0.9066 -1.2631 -3.3455
 2405SOL     OW18673   0.260   1.602   3.881 -0.1047  0.6564 -0.1157
 2405SOL    HW118674   0.262   1.662   3.955  0.3395  0.1463  0.2921
 2405SOL    HW218675   0.355   1.603   3.868 -0.4152 -1.8815 -2.4449
 2406SOL     OW18676   2.824   0.433   7.904 -0.2287 -0.7057 -0.0980
 2406SOL    HW118677   2.848   0.499   7.970  0.6186  0.9528 -2.0603
 2406SOL    HW218678   2.772   0.478   7.837  1.1404 -0.0841 -0.7349
 2407SOL     OW18679   2.426   2.366   4.997  0.0509  0.7649  0.0553
 2407SOL    HW118680   2.345   2.407   4.967 -0.4764 -0.9448 -0.8810
 2407SOL    HW218681   2.492   2.406   4.941  0.5863 -1.9939 -1.2890
 2408SOL     OW18682   3.626   0.958   2.429  0.2973  0.5430  0.3467
 2408SOL    HW118683   3.631   1.035   2.373  1.7085  1.0382  1.1538
 2408SOL    HW218684   3.680   0.985   2.504  1.9232 -0.4800 -0.4756
 2409SOL     OW18685   2.198   3.118  15.143 -0.1579 -0.0268 -0.2358
 2409SOL    HW118686   2.152   3.175  15.082 -0.4146 -0.4419 -0.4203
 2409SOL    HW218687   2.168   3.149  15.229 -2.4541  2.2439 -1.8822
 2410SOL     OW18688   4.239   0.406  17.653  0.3635  0.1829  0.0225
 2410SOL    HW118689   4.323   0.448  17.673  1.9038 -2.4105 -0.9051
 2410SOL    HW218690   4.206   0.472  17.592  2.1015 -0.2010 -1.3325
 2411SOL     OW18691   0.224   4.543  11.304 -0.1724  0.0818 -0.5135
 2411SOL    HW118692   0.138   4.517  11.271 -0.5817 -1.0191  1.4552
 2411SOL    HW218693   0.211   4.559  11.397  0.3952 -2.3682 -0.0155
 2412SOL     OW18694   0.710   3.397   7.995 -0.1920 -0.2929  0.6518
 2412SOL    HW118695   0.660   3.477   7.982  2.9830  1.4653 -0.8530
 2412SOL    HW218696   0.747   3.421   8.080  0.6210  1.4193 -0.1979
 2413SOL     OW18697   0.555   3.524   4.625 -0.6395 -0.2616  0.3532
 2413SOL    HW118698   0.587   3.440   4.591  1.2925  0.3523  0.6645
 2413SOL    HW218699   0.496   3.549   4.554  2.6760  1.4289 -1.7957
 2414SOL     OW18700   2.889   0.621   5.160  0.1270 -0.4371  0.4695
 2414SOL    HW118701   2.822   0.614   5.092  0.1463 -0.9588  0.5108
 2414SOL    HW218702   2.915   0.713   5.158 -0.0639 -0.4224 -1.9129
 2415SOL     OW18703   4.320   3.586   3.925  0.1802 -0.1439  0.1307
 2415SOL    HW118704   4.382   3.656   3.943  0.4699 -0.2627 -0.4074
 2415SOL    HW218705   4.335   3.576   3.831 -0.4300 -1.6234  0.1924
 2416SOL     OW18706   0.201   0.292   6.240 -0.0269 -0.4795 -0.1300
 2416SOL    HW118707   0.186   0.281   6.146  0.7070 -0.3181 -0.2655
 2416SOL    HW218708   0.210   0.387   6.248  0.9507 -0.4271 -1.8411
 2417SOL     OW18709   1.453   4.421   2.615 -0.0472 -0.2310  0.1057
 2417SOL    HW118710   1.441   4.356   2.547 -0.2841 -0.7888  0.6853
 2417SOL    HW218711   1.481   4.492   2.557 -1.9982  0.0284 -0.5269
 2418SOL     OW18712   2.185   0.548   6.442  0.2579 -0.4199  0.6314
 2418SOL    HW118713   2.212   0.639   6.441 -0.8707 -0.0805  1.0029
 2418SOL    HW218714   2.275   0.516   6.452  0.3876 -0.1598  0.2746
 2419SOL     OW18715   2.019   1.500  11.692 -0.0395 -0.2967 -0.0586
 2419SOL    HW118716   2.016   1.485  11.597 -1.3793  4.6781 -0.8144
 2419SOL    HW218717   2.075   1.577  11.704 -1.2223  0.3622  1.2683
 2420SOL     OW18718   1.902   4.145   3.916 -0.6781  0.0784 -0.0328
 2420SOL    HW118719   1.884   4.176   4.004 -0.4040  3.0487 -1.0257
 2420SOL    HW218720   1.813   4.115   3.895 -1.1276  0.4777  1.3443
 2421SOL     OW18721   4.634   4.417   7.509  0.2055  0.7982 -0.5047
 2421SOL    HW118722   4.680   4.501   7.514 -0.0696  0.9021  0.3912
 2421SOL    HW218723   4.544   4.435   7.479 -0.4522  2.3979  2.3915
 2422SOL     OW18724   4.102   4.166   4.576 -0.2685 -0.2079  0.2317
 2422SOL    HW118725   4.027   4.108   4.588 -1.3687  1.2247  0.1993
 2422SOL    HW218726   4.078   4.247   4.621 -1.6083 -1.1578  1.2414
 2423SOL     OW18727   1.319   3.554   5.748 -0.4612 -0.2635 -0.2214
 2423SOL    HW118728   1.310   3.543   5.843  0.7278  1.0081  0.0378
 2423SOL    HW218729   1.239   3.599   5.719 -0.6174  0.8711  2.0141
 2424SOL     OW18730   3.534   4.720  11.640 -0.2812 -0.1307  0.3647
 2424SOL    HW118731   3.547   4.688  11.729  2.0759 -1.3791 -0.4101
 2424SOL    HW218732   3.506   4.636  11.603 -0.8062  0.3612 -0.3561
 2425SOL     OW18733   0.197   3.322   4.419 -0.2087  0.0523  0.4860
 2425SOL    HW118734   0.275   3.321   4.363 -1.2821  0.9630 -1.0304
 2425SOL    HW218735   0.129   3.297   4.356  0.4034  1.7655 -0.8498
 2426SOL     OW18736   4.213   0.234   8.422 -0.1588 -0.4234 -0.2780
 2426SOL    HW118737   4.303   0.200   8.420 -0.7767 -2.1722  1.2901
 2426SOL    HW218738   4.217   0.279   8.507  0.6424 -0.7386 -0.1445
 2427SOL     OW18739   3.573   0.176   4.799 -0.0612  0.3578  0.0178
 2427SOL    HW118740   3.523   0.254   4.775 -1.1592  0.1357  1.6179
 2427SOL    HW218741   3.621   0.157   4.718 -2.1560  0.5782 -1.2895
 2428SOL     OW18742   3.065   4.513   6.160 -0.1361  0.4108 -0.0483
 2428SOL    HW118743   3.059   4.534   6.067  0.1421  0.9700  0.0588
 2428SOL    HW218744   3.144   4.460   6.158 -0.4918 -0.0397 -2.4906
 2429SOL     OW18745   2.918   2.072  17.073 -0.3858 -0.0634 -0.3695
 2429SOL    HW118746   2.852   2.135  17.045  0.8835  1.3545 -0.2053
 2429SOL    HW218747   2.941   2.118  17.153  0.3648 -0.8885 -0.1128
 2430SOL     OW18748   2.029   2.460   5.123 -0.3193  0.0121  0.0133
 2430SOL    HW118749   2.002   2.552   5.131  0.0368  0.0932  0.2809
 2430SOL    HW218750   2.016   2.430   5.213 -0.9367  1.2689  0.3455
 2431SOL     OW18751   4.664   0.256   3.831  0.3189  0.0204 -0.2838
 2431SOL    HW118752   4.710   0.299   3.759  0.1330  2.0309  0.7988
 2431SOL    HW218753   4.643   0.334   3.882 -1.3556  0.0618 -1.0528
 2432SOL     OW18754   0.733   3.302   7.370 -0.0510 -0.6570 -0.2001
 2432SOL    HW118755   0.804   3.308   7.307  1.2795 -0.3060  1.3371
 2432SOL    HW218756   0.730   3.208   7.390  0.8613 -1.0740 -2.0368
 2433SOL     OW18757   0.959   2.703   4.122 -0.3583 -0.3169 -0.3942
 2433SOL    HW118758   0.939   2.616   4.156 -1.7178 -0.0289 -0.4840
 2433SOL    HW218759   0.967   2.756   4.202  1.9069  0.4531 -1.1362
 2434SOL     OW18760   1.025   3.290   8.854  0.3098  0.3432  0.0924
 2434SOL    HW118761   1.026   3.214   8.912  1.9421  0.8937  0.7838
 2434SOL    HW218762   0.940   3.278   8.811 -0.1002 -2.1594  1.5988
 2435SOL     OW18763   3.912   0.433   5.339 -0.0757 -0.2185 -0.6732
 2435SOL    HW118764   3.921   0.442   5.434  3.7090 -1.3897 -0.8939
 2435SOL    HW218765   3.828   0.388   5.334 -1.4139  2.4200 -2.1403
 2436SOL     OW18766   0.641   3.627  11.494  0.1192 -0.0057 -0.3127
 2436SOL    HW118767   0.708   3.647  11.560 -0.1877 -0.0626  0.0157
 2436SOL    HW218768   0.654   3.534  11.477 -0.8528 -0.1369 -0.3394
 2437SOL     OW18769   2.138   1.423  13.549  0.5774 -0.2779  0.0726
 2437SOL    HW118770   2.111   1.423  13.641  1.5236 -0.1153  0.3534
 2437SOL    HW218771   2.136   1.518  13.537  1.3051 -0.2106  0.5287
 2438SOL     OW18772   4.294   4.150  13.162  0.1963 -0.0327  0.3415
 2438SOL    HW118773   4.347   4.199  13.224  0.5760  0.0980 -0.0863
 2438SOL    HW218774   4.311   4.191  13.077 -1.2114 -0.5817 -0.2194
 2439SOL     OW18775   0.063   1.646  12.953  0.0982  0.3883 -0.5639
 2439SOL    HW118776   0.091   1.671  12.865  0.6772  0.0292 -0.4820
 2439SOL    HW218777   0.019   1.728  12.975  0.2277  0.6729 -1.3959
 2440SOL     OW18778   1.627   0.588  10.677  0.1786 -0.0181 -0.4731
 2440SOL    HW118779   1.686   0.634  10.618 -0.5735 -0.9005 -1.9067
 2440SOL    HW218780   1.589   0.667  10.716 -0.3280 -1.4553  1.9736
 2441SOL     OW18781   2.463   0.522   0.279 -0.3744  0.8189  0.3918
 2441SOL    HW118782   2.447   0.525   0.373 -0.5449  0.3569  0.3766
 2441SOL    HW218783   2.489   0.614   0.280  3.3890 -0.2641 -0.5450
 2442SOL     OW18784   4.149   1.460   2.802  0.0314  0.3029 -0.6461
 2442SOL    HW118785   4.062   1.478   2.765 -1.0205 -1.2104  1.0589
 2442SOL    HW218786   4.203   1.414   2.738  1.1376 -2.2655  2.1293
 2443SOL     OW18787   4.070   3.368  14.374  0.5649  0.6246 -0.2291
 2443SOL    HW118788   4.141   3.329  14.425  1.4816  0.2519 -1.7858
 2443SOL    HW218789   4.115   3.409  14.300 -0.6511 -0.7551 -1.7516
 2444SOL     OW18790   4.036   4.424  16.952  0.2933  0.1946  0.4641
 2444SOL    HW118791   3.988   4.363  16.897  1.1227  0.0566 -0.1156
 2444SOL    HW218792   3.977   4.494  16.980  0.5759  0.9965 -0.8876
 2445SOL     OW18793   3.523   2.775   7.679  0.4687 -0.7382  0.6386
 2445SOL    HW118794   3.489   2.693   7.716 -0.1607  0.0437  1.8045
 2445SOL    HW218795   3.558   2.825   7.752  0.8323 -1.3888  0.9119
 2446SOL     OW18796   3.819   3.439   3.206 -0.1682  0.3959 -0.1132
 2446SOL    HW118797   3.751   3.450   3.140 -1.0739  2.3525  1.1510
 2446SOL    HW218798   3.889   3.500   3.182  0.3467  0.7134  2.1937
 2447SOL     OW18799   0.646   3.760   5.475 -0.2759 -0.3601  0.5371
 2447SOL    HW118800   0.679   3.770   5.386  0.1377 -0.4596  0.6783
 2447SOL    HW218801   0.655   3.848   5.511 -0.0722  0.6791 -2.0763
 2448SOL     OW18802   4.164   1.662   3.484 -0.0480  0.4556  0.3904
 2448SOL    HW118803   4.172   1.579   3.437  2.6692  0.1313  1.4055
 2448SOL    HW218804   4.138   1.645   3.574  2.9853  1.5204  1.4703
 2449SOL     OW18805   4.178   4.621   0.527 -0.4531 -0.1651  0.1823
 2449SOL    HW118806   4.163   4.666   0.610 -0.5636  1.2762 -0.6258
 2449SOL    HW218807   4.251   4.570   0.563 -0.3870 -0.5728 -0.5260
 2450SOL     OW18808   2.119   1.331   5.085  0.0343 -0.4731 -0.3474
 2450SOL    HW118809   2.092   1.326   4.993  0.4029  1.2189 -0.5302
 2450SOL    HW218810   2.177   1.255   5.092  1.3562  0.6313  0.7144
 2451SOL     OW18811   2.002   1.237  10.310 -0.1054  0.2142 -0.2052
 2451SOL    HW118812   1.946   1.163  10.288 -0.0428  0.6117 -1.7264
 2451SOL    HW218813   2.089   1.215  10.276 -0.3972 -0.0808 -0.7495
 2452SOL     OW18814   0.911   3.892  10.794 -0.7879 -0.3872  0.3577
 2452SOL    HW118815   0.937   3.869  10.704 -1.1375  3.2949 -0.6660
 2452SOL    HW218816   0.940   3.818  10.848 -2.0517  0.6239  2.4243
 2453SOL     OW18817   4.428   2.395   4.765 -0.3608  0.0767  0.1712
 2453SOL    HW118818   4.416   2.413   4.672  2.6233  0.3753 -0.1345
 2453SOL    HW218819   4.497   2.331   4.752 -1.7347 -1.5589  0.9115
 2454SOL     OW18820   4.526   0.701   9.696 -0.0981  0.0122  0.3613
 2454SOL    HW118821   4.594   0.743   9.644 -0.7951  1.1843  0.3802
 2454SOL    HW218822   4.586   0.637   9.733  1.5372  2.0418  1.2391
 2455SOL     OW18823   4.303   2.976  11.141  0.2530 -0.1246  0.2334
 2455SOL    HW118824   4.302   2.903  11.080  1.0340  0.8092 -0.9141
 2455SOL    HW218825   4.257   2.933  11.212 -0.4129 -0.6106 -0.4834
 2456SOL     OW18826   2.544   0.276   7.734  0.0390  0.1143 -0.4861
 2456SOL    HW118827   2.596   0.198   7.716 -0.2914 -0.1584 -0.2847
 2456SOL    HW218828   2.484   0.249   7.804 -0.4917  0.6168 -0.7470
 2457SOL     OW18829   4.333   3.466   3.688  0.1247 -0.5014 -0.5329
 2457SOL    HW118830   4.375   3.381   3.679  0.3029 -0.1927 -2.6557
 2457SOL    HW218831   4.328   3.487   3.595  0.2915  1.0503 -0.1903
 2458SOL     OW18832   3.128   1.206   8.528  0.5094 -0.1139 -0.2615
 2458SOL    HW118833   3.122   1.248   8.442  0.9827 -1.6882 -1.0675
 2458SOL    HW218834   3.037   1.198   8.554  0.8214 -0.1957  0.7937
 2459SOL     OW18835   1.465   0.034   8.843  0.4651 -0.1587  0.1977
 2459SOL    HW118836   1.532   0.076   8.896  2.7150 -0.7379 -2.2244
 2459SOL    HW218837   1.384   0.060   8.887 -0.6371 -0.8799 -1.3857
 2460SOL     OW18838   1.430   0.707   4.590  0.7884 -0.5220  0.2978
 2460SOL    HW118839   1.394   0.680   4.674 -0.1770  2.6950  0.9193
 2460SOL    HW218840   1.510   0.656   4.587  1.4290  0.4702  0.6030
 2461SOL     OW18841   0.583   3.484   9.614 -0.8181 -0.1550 -0.1530
 2461SOL    HW118842   0.635   3.405   9.599 -0.4385  0.5306 -2.5114
 2461SOL    HW218843   0.616   3.511   9.700  0.6299  0.2783 -0.8395
 2462SOL     OW18844   2.796   0.223   3.035  0.2978  0.1787  0.1190
 2462SOL    HW118845   2.783   0.288   3.104  0.6996 -0.7482  1.0644
 2462SOL    HW218846   2.872   0.256   2.987  0.0966  0.1922 -0.1912
 2463SOL     OW18847   1.037   2.351   4.933 -0.6471 -0.2755 -0.2712
 2463SOL    HW118848   1.117   2.402   4.942 -0.0261 -1.5491  1.5559
 2463SOL    HW218849   0.963   2.409   4.951  0.6919  1.5515 -0.7315
 2464SOL     OW18850   1.984   4.197   8.531  0.4406  0.5782  0.4344
 2464SOL    HW118851   1.919   4.267   8.532  1.4854  1.5348  1.9570
 2464SOL    HW218852   2.069   4.241   8.537  0.7135  0.0017  0.8130
 2465SOL     OW18853   1.280   0.290   0.801 -0.5426 -0.3694  0.4625
 2465SOL    HW118854   1.223   0.313   0.728 -0.8692 -1.3939  0.3961
 2465SOL    HW218855   1.297   0.375   0.841 -2.7262 -0.8208  2.3469
 2466SOL     OW18856   0.387   3.127  14.646 -0.6564  0.0816  0.0644
 2466SOL    HW118857   0.390   3.188  14.572 -1.3687  0.2364  0.1585
 2466SOL    HW218858   0.304   3.144  14.691 -0.2948  1.6422  0.1113
 2467SOL     OW18859   3.421   4.453  11.598 -0.0513 -0.3449 -0.3237
 2467SOL    HW118860   3.465   4.433  11.681 -2.7738 -1.7459  0.7566
 2467SOL    HW218861   3.340   4.404  11.606 -1.8674  2.8850  1.4583
 2468SOL     OW18862   1.902   2.732  15.130 -0.3286  0.3278  0.1115
 2468SOL    HW118863   1.926   2.694  15.046 -1.7236 -0.7717  0.2188
 2468SOL    HW218864   1.818   2.769  15.102  0.5580  0.5286 -2.2441
 2469SOL     OW18865   0.840   0.301   5.255 -0.2666 -0.6660  0.1257
 2469SOL    HW118866   0.765   0.248   5.227  0.7468 -2.2238  0.3431
 2469SOL    HW218867   0.844   0.262   5.343  3.2192  2.6105  1.4212
 2470SOL     OW18868   1.498   1.796  12.968  0.4416  0.4600 -0.1853
 2470SOL    HW118869   1.565   1.795  12.900 -1.4841 -1.9088 -2.0191
 2470SOL    HW218870   1.444   1.720  12.947  2.5568 -0.5345 -2.0979
 2471SOL     OW18871   1.247   1.059   1.435 -0.8642  0.0648 -0.2511
 2471SOL    HW118872   1.192   1.133   1.409 -2.0372 -0.4409  0.8348
 2471SOL    HW218873   1.310   1.067   1.363  0.2786 -2.9901  0.4026
 2472SOL     OW18874   2.630   3.290   5.287 -0.3724 -0.3100  0.1840
 2472SOL    HW118875   2.715   3.313   5.325 -0.2352 -0.8282  0.1947
 2472SOL    HW218876   2.629   3.199   5.316  0.4295  0.3825  2.3909
 2473SOL     OW18877   2.773   3.958   9.289  0.3291  0.5480 -0.0339
 2473SOL    HW118878   2.857   3.930   9.252 -0.2601 -2.1103  0.6719
 2473SOL    HW218879   2.716   3.881   9.293  0.8817  0.1882  0.9285
 2474SOL     OW18880   3.123   0.309   2.498  0.0923  0.1351 -0.4040
 2474SOL    HW118881   3.201   0.266   2.532  0.1444 -1.0200 -1.9873
 2474SOL    HW218882   3.058   0.271   2.557  1.0513 -0.1565  0.4587
 2475SOL     OW18883   0.694   1.382  11.624  0.1310 -0.1625  0.5606
 2475SOL    HW118884   0.609   1.396  11.584  0.8368 -1.6872 -1.4541
 2475SOL    HW218885   0.666   1.316  11.688 -1.5762 -0.4859 -0.5221
 2476SOL     OW18886   2.779   3.331   0.185 -0.0339 -0.2727 -0.0399
 2476SOL    HW118887   2.794   3.239   0.208  2.3159 -0.4109 -2.1085
 2476SOL    HW218888   2.712   3.314   0.119 -0.8863 -0.6120  0.9176
 2477SOL     OW18889   0.146   0.017  13.135  0.0071 -0.0772 -0.1845
 2477SOL    HW118890   0.146   4.642  13.136 -2.2708 -0.0850 -0.9677
 2477SOL    HW218891   0.215   0.029  13.200 -0.5589  0.5845  0.2802
 2478SOL     OW18892   2.201   4.356   8.669  0.2022  0.4183 -0.3667
 2478SOL    HW118893   2.248   4.413   8.729 -0.9968  0.6234  0.3722
 2478SOL    HW218894   2.267   4.295   8.635 -1.0678 -1.1406 -0.0615
 2479SOL     OW18895   0.460   2.602  17.659  0.5802 -0.4983 -0.7923
 2479SOL    HW118896   0.485   2.666  17.593  0.6523 -0.3056 -0.5772
 2479SOL    HW218897   0.548   2.587   0.006 -0.8307  1.7085  4.0809
 2480SOL     OW18898   0.626   0.163   5.133  0.2031  0.5861  0.5935
 2480SOL    HW118899   0.534   0.138   5.126  0.6444 -1.0200  0.6066
 2480SOL    HW218900   0.642   0.182   5.041  0.9507  0.1844  0.6482
 2481SOL     OW18901   4.433   4.523   2.623 -0.1322  0.2737  0.1933
 2481SOL    HW118902   4.393   4.436   2.617  2.2633 -0.7840 -0.5764
 2481SOL    HW218903   4.445   4.543   2.530 -0.0084 -0.3260  0.0793
 2482SOL     OW18904   2.130   1.449   6.528  0.1117  0.0211  0.2560
 2482SOL    HW118905   2.061   1.411   6.582  1.4864 -1.4974  0.9604
 2482SOL    HW218906   2.203   1.388   6.539  1.4879  1.3062 -1.7197
 2483SOL     OW18907   4.400   3.446   6.043 -0.0539  0.3144 -0.1348
 2483SOL    HW118908   4.413   3.357   6.076  1.5334  1.3862  2.1178
 2483SOL    HW218909   4.336   3.479   6.106  0.3310  1.8469 -0.5445
 2484SOL     OW18910   0.218   2.762   5.365  0.0868 -0.1958 -0.5770
 2484SOL    HW118911   0.133   2.752   5.408  0.6755 -1.2757  0.3394
 2484SOL    HW218912   0.222   2.703   5.289 -0.2471 -1.6444  0.5385
 2485SOL     OW18913   1.115   3.129  12.205  0.0249 -0.1093 -0.6906
 2485SOL    HW118914   1.190   3.124  12.145 -0.2012 -0.9717 -0.9165
 2485SOL    HW218915   1.082   3.039  12.197  1.8413 -0.9013  0.8277
 2486SOL     OW18916   1.392   2.529   4.506  0.0410 -0.2803  0.3831
 2486SOL    HW118917   1.435   2.608   4.474  0.5237 -0.9729 -0.7125
 2486SOL    HW218918   1.421   2.533   4.597 -0.6172  2.5928  0.4742
 2487SOL     OW18919   4.591   1.241  11.989 -0.2290  0.1751 -0.1881
 2487SOL    HW118920   4.533   1.309  12.023  0.9530  0.9866  0.2182
 2487SOL    HW218921   4.603   1.280  11.903  0.3878 -1.2603 -0.7653
 2488SOL     OW18922   3.984   1.376   9.154  0.1506 -0.1578 -0.3383
 2488SOL    HW118923   3.915   1.436   9.183  0.2756 -1.2796  2.3205
 2488SOL    HW218924   3.996   1.317   9.229 -2.6904 -0.1871  0.0785
 2489SOL     OW18925   4.490   4.355   6.810 -0.0161  0.0934  0.0120
 2489SOL    HW118926   4.437   4.276   6.824 -0.3866  0.4270  0.5042
 2489SOL    HW218927   4.543   4.349   6.890 -0.9177 -0.4755  0.5670
 2490SOL     OW18928   4.089   1.751   9.378 -0.2048  0.4401  0.0437
 2490SOL    HW118929   4.051   1.812   9.441  0.5130 -1.0026  1.8851
 2490SOL    HW218930   4.028   1.679   9.395  0.7658 -0.5258 -0.5911
 2491SOL     OW18931   3.659   2.346   6.458 -0.1823 -0.5470 -0.3113
 2491SOL    HW118932   3.710   2.292   6.398 -0.0695 -0.8287  0.0391
 2491SOL    HW218933   3.731   2.395   6.496 -0.4723 -0.4721  0.1431
 2492SOL     OW18934   3.553   1.634   8.972 -0.4280 -0.2586 -0.0821
 2492SOL    HW118935   3.499   1.701   9.014 -0.0980  0.6296 -1.0830
 2492SOL    HW218936   3.506   1.550   8.979 -1.1273  0.3319  2.4733
 2493SOL     OW18937   3.917   2.970   7.563 -0.5274  0.0928 -0.7330
 2493SOL    HW118938   3.970   2.890   7.563 -0.6328  0.0231 -0.6864
 2493SOL    HW218939   3.906   2.978   7.468 -3.4323 -1.3511 -0.5133
 2494SOL     OW18940   4.138   2.366  15.609  0.2181  0.4521 -0.7687
 2494SOL    HW118941   4.066   2.345  15.550 -1.5208 -2.3653  2.3165
 2494SOL    HW218942   4.214   2.368  15.551  0.4317 -1.0627 -0.5280
 2495SOL     OW18943   1.120   1.361   6.538 -0.4478 -0.1309  0.3708
 2495SOL    HW118944   1.130   1.271   6.504 -1.4264 -0.1247  0.0734
 2495SOL    HW218945   1.211   1.389   6.526  0.3351 -2.2125  1.3644
 2496SOL     OW18946   3.901   0.145   3.165  0.1502  0.0790  0.0660
 2496SOL    HW118947   3.893   0.230   3.122 -0.9825 -0.5285 -0.9216
 2496SOL    HW218948   3.982   0.161   3.213 -1.0268  1.5524  1.5589
 2497SOL     OW18949   0.210   0.108   5.551 -0.6342  0.2502 -0.7722
 2497SOL    HW118950   0.165   0.029   5.522 -1.8008  0.3105  0.8513
 2497SOL    HW218951   0.208   0.157   5.469 -0.5620  0.4011 -0.6833
 2498SOL     OW18952   3.084   3.331   7.198  0.1502  0.2204  0.6607
 2498SOL    HW118953   3.155   3.289   7.149 -1.0601 -0.6855 -0.2936
 2498SOL    HW218954   3.079   3.267   7.270  0.8416  1.8284  2.1513
 2499SOL     OW18955   0.360   2.565   1.862 -0.2374  0.3690 -0.0021
 2499SOL    HW118956   0.450   2.576   1.832 -0.2256 -0.6335 -0.3410
 2499SOL    HW218957   0.364   2.477   1.900  0.0018  0.6339  0.5903
 2500SOL     OW18958   2.444   3.745  11.259  0.0678  0.3680 -0.0860
 2500SOL    HW118959   2.472   3.824  11.213  1.6476  0.6401  1.3198
 2500SOL    HW218960   2.506   3.749  11.332  1.7945  0.8715 -1.5983
 2501SOL     OW18961   4.505   4.411   1.630 -0.1783  0.3529  0.5693
 2501SOL    HW118962   4.571   4.346   1.604  0.8138  1.2207  0.9035
 2501SOL    HW218963   4.538   4.421   1.719 -2.0879 -2.6814  1.6063
 2502SOL     OW18964   2.096   1.599   1.929  0.4352 -0.1880 -0.2241
 2502SOL    HW118965   2.121   1.512   1.898 -2.0470 -1.3984  1.1310
 2502SOL    HW218966   2.171   1.631   1.978  1.9543 -1.6819 -1.5781
 2503SOL     OW18967   2.041   3.050  12.614  0.1324  0.2602 -0.0126
 2503SOL    HW118968   2.054   3.022  12.523  1.1843 -2.9828  1.1280
 2503SOL    HW218969   2.024   3.144  12.617 -1.3518 -0.0256  0.7080
 2504SOL     OW18970   2.569   3.014   2.542 -0.0751  0.5252 -0.1064
 2504SOL    HW118971   2.639   3.075   2.566  0.6021  0.6267 -2.3589
 2504SOL    HW218972   2.602   3.011   2.452  0.8755  2.9512  0.1368
 2505SOL     OW18973   2.142   0.276  17.302  0.3737  0.5402  0.3246
 2505SOL    HW118974   2.210   0.216  17.333 -0.3124 -0.6388 -0.4231
 2505SOL    HW218975   2.180   0.362  17.317  0.3600  0.3195  1.5650
 2506SOL     OW18976   3.854   3.467  10.574  0.2251 -0.5682 -0.3528
 2506SOL    HW118977   3.764   3.477  10.606 -0.7618  0.0131 -3.2478
 2506SOL    HW218978   3.842   3.501  10.485 -1.1844  0.3273  0.1737
 2507SOL     OW18979   0.484   0.078   9.765  0.5055  0.5640 -0.2090
 2507SOL    HW118980   0.452   0.143   9.827 -3.1539 -0.9597 -0.5324
 2507SOL    HW218981   0.415   0.073   9.699  0.2945  0.3520  0.0304
 2508SOL     OW18982   0.499   2.774  13.075 -0.1526  0.4606  0.0916
 2508SOL    HW118983   0.514   2.751  13.167  1.7641  2.1082  0.1899
 2508SOL    HW218984   0.407   2.799  13.086 -0.2519  0.4952 -0.7919
 2509SOL     OW18985   2.170   1.981  17.592 -0.0449 -0.6615  0.8454
 2509SOL    HW118986   2.091   1.932  17.570  0.0313  0.0792 -1.0643
 2509SOL    HW218987   2.206   1.995  17.504 -2.1310 -1.2829 -0.1058
 2510SOL     OW18988   1.022   0.036   6.061 -0.2917  0.5625 -0.4171
 2510SOL    HW118989   1.018   4.664   6.038  0.6830  0.5756 -0.6017
 2510SOL    HW218990   1.080   0.035   6.137 -0.4955 -0.2603 -0.2697
 2511SOL     OW18991   2.982   2.918   0.909 -0.2898  0.3624 -0.0670
 2511SOL    HW118992   2.985   2.980   0.836  0.9328  0.9123  0.4511
 2511SOL    HW218993   2.888   2.921   0.924 -0.1882  0.2547  0.6089
 2512SOL     OW18994   4.249   0.401   6.379  0.2619 -0.2165  0.1645
 2512SOL    HW118995   4.301   0.408   6.299 -0.8527  1.4127 -0.4239
 2512SOL    HW218996   4.290   0.321   6.412  1.4985  0.8387  1.1799
 2513SOL     OW18997   4.430   2.433   4.494 -0.0290  0.4697  0.4190
 2513SOL    HW118998   4.347   2.387   4.505  0.3278 -0.5964 -1.4023
 2513SOL    HW218999   4.404   2.525   4.487 -1.3458 -0.0345 -1.3590
 2514SOL     OW19000   0.669   4.394  10.837 -0.4692  0.4213  0.1696
 2514SOL    HW119001   0.716   4.346  10.905  0.1853 -0.1828 -0.7135
 2514SOL    HW219002   0.588   4.429  10.875 -1.1840 -1.6842  0.5791
 2515SOL     OW19003   4.711   1.891   9.248  0.7308  0.1963  0.1071
 2515SOL    HW119004   4.664   1.957   9.298  0.1017  0.8560 -1.3575
 2515SOL    HW219005   4.645   1.822   9.252  0.4432  0.4901  0.3347
 2516SOL     OW19006   3.526   4.499  12.418 -0.1391  0.7850 -0.0860
 2516SOL    HW119007   3.470   4.577  12.414 -2.7867 -1.2321 -2.3415
 2516SOL    HW219008   3.512   4.483  12.511  1.6215  0.6536  0.1683
 2517SOL     OW19009   2.127   0.808   2.685  0.0003  0.0851 -0.6905
 2517SOL    HW119010   2.042   0.837   2.654  0.1962  0.0774 -1.2456
 2517SOL    HW219011   2.171   0.889   2.710 -0.1042 -0.0357 -0.1241
 2518SOL     OW19012   2.915   2.218   8.817  0.3686  0.2614  0.5874
 2518SOL    HW119013   2.883   2.147   8.761 -0.3989 -1.8275  3.7313
 2518SOL    HW219014   2.929   2.174   8.900  2.0436 -1.1454 -0.4395
 2519SOL     OW19015   3.869   0.813   5.518 -0.1544 -0.0297 -0.1241
 2519SOL    HW119016   3.801   0.795   5.582  0.0407  0.9537  0.3488
 2519SOL    HW219017   3.920   0.732   5.527 -1.8144 -0.8910  1.4317
 2520SOL     OW19018   0.932   1.540   2.150 -0.2509  0.5016  0.5620
 2520SOL    HW119019   0.837   1.525   2.152  0.3323 -3.3374 -1.2753
 2520SOL    HW219020   0.942   1.608   2.083  1.8279 -0.1964  0.1774
 2521SOL     OW19021   0.757   4.010   7.258  1.0789 -0.8009 -0.3401
 2521SOL    HW119022   0.738   4.100   7.285  1.2197 -0.7695 -0.3422
 2521SOL    HW219023   0.823   3.988   7.324 -1.0888  0.9015  2.3999
 2522SOL     OW19024   0.957   3.241   8.530 -0.2772 -0.3263 -0.2710
 2522SOL    HW119025   0.959   3.337   8.525  0.9461 -0.3778 -0.8081
 2522SOL    HW219026   0.905   3.226   8.609  0.7061 -1.9840  0.0601
 2523SOL     OW19027   0.095   0.510   7.660 -0.0432  0.4149 -0.1359
 2523SOL    HW119028   0.017   0.519   7.604  2.7170 -0.0282 -4.0209
 2523SOL    HW219029   0.051   0.523   7.744  1.3555 -1.3127  0.8512
 2524SOL     OW19030   2.768   0.117   4.248 -0.3106  0.2399  0.2602
 2524SOL    HW119031   2.781   0.049   4.182  0.0429 -0.6737  1.2633
 2524SOL    HW219032   2.682   0.146   4.218 -0.4935 -0.0832  0.4707
 2525SOL     OW19033   0.165   3.503   0.270 -0.4790  0.4837  0.5851
 2525SOL    HW119034   0.230   3.450   0.316  0.4051  1.3268  0.3131
 2525SOL    HW219035   0.112   3.539   0.341 -3.2702  0.4518 -1.4846
 2526SOL     OW19036   0.145   4.359   4.126 -0.8222  0.7238  0.1553
 2526SOL    HW119037   0.182   4.417   4.191 -0.6480 -0.0526  0.7474
 2526SOL    HW219038   0.154   4.272   4.165  2.8669  0.4110 -1.3845
 2527SOL     OW19039   1.062   1.583  11.794 -0.5023 -0.0285  0.1997
 2527SOL    HW119040   1.148   1.555  11.763 -1.2349 -1.9120 -0.1301
 2527SOL    HW219041   1.052   1.567  11.888 -0.7973 -0.7071  0.0542
 2528SOL     OW19042   2.011   3.459   6.920 -0.1725  0.4088  0.1271
 2528SOL    HW119043   2.063   3.442   6.841 -1.3304 -0.7747 -0.3874
 2528SOL    HW219044   2.034   3.384   6.976  1.2932 -0.2695 -1.3899
 2529SOL     OW19045   3.015   0.270  12.735  0.1480  0.1860 -0.1465
 2529SOL    HW119046   3.015   0.272  12.831 -0.1998 -0.8773 -0.1267
 2529SOL    HW219047   3.090   0.326  12.714  1.3691 -1.4736 -0.1969
 2530SOL     OW19048   4.701   4.425   3.608 -0.2288 -0.2897 -0.0197
 2530SOL    HW119049   0.074   4.420   3.630 -1.4462  0.1526  5.3454
 2530SOL    HW219050   4.713   4.441   3.514  1.6790  0.1578  0.2858
 2531SOL     OW19051   1.495   3.321   7.578  0.2797  0.5376  0.2111
 2531SOL    HW119052   1.480   3.261   7.504  1.4808  0.3079  0.1565
 2531SOL    HW219053   1.403   3.326   7.605 -0.3260 -2.6905 -1.2274
 2532SOL     OW19054   3.526   0.540   8.072  0.2185  0.4600 -0.1368
 2532SOL    HW119055   3.490   0.454   8.049  1.5586  0.1320 -1.0110
 2532SOL    HW219056   3.609   0.510   8.109 -0.3304 -0.6780  0.1896
 2533SOL     OW19057   1.126   3.182   6.115  0.0139  0.0505  0.0933
 2533SOL    HW119058   1.034   3.167   6.092  0.6692 -1.9599 -1.2392
 2533SOL    HW219059   1.153   3.090   6.115 -0.5122 -0.1043  2.3732
 2534SOL     OW19060   2.421   3.483   6.395  0.2188 -0.0854 -0.0171
 2534SOL    HW119061   2.392   3.440   6.475  1.7865  1.2691  1.2916
 2534SOL    HW219062   2.384   3.571   6.400  0.0328 -0.2158  0.8828
 2535SOL     OW19063   4.647   3.672   2.007 -0.1674  0.0180  0.6564
 2535SOL    HW119064   4.680   3.687   2.096 -0.7602  3.4172  0.2799
 2535SOL    HW219065   4.670   3.755   1.965  1.0405 -0.3890  0.5097
 2536SOL     OW19066   4.494   1.345   8.809 -0.4156 -0.6308  0.3137
 2536SOL    HW119067   4.459   1.256   8.806 -1.7871 -0.0861 -0.1803
 2536SOL    HW219068   4.566   1.342   8.747 -1.5730 -1.2445 -1.0131
 2537SOL     OW19069   4.144   4.488   8.690 -0.4872 -0.3749  0.7739
 2537SOL    HW119070   4.151   4.397   8.720 -1.5884 -0.7853 -0.2134
 2537SOL    HW219071   4.139   4.535   8.774  1.0132  2.3231 -0.6415
 2538SOL     OW19072   3.388   2.964   9.330  0.7014 -0.0479  0.1117
 2538SOL    HW119073   3.446   2.928   9.263 -0.9719 -0.9751 -0.8478
 2538SOL    HW219074   3.305   2.921   9.307  0.5379  0.2887  0.0774
 2539SOL     OW19075   3.708   2.969  16.146 -0.2496  0.4382 -0.6320
 2539SOL    HW119076   3.653   2.966  16.224  2.1878 -1.8465  0.9757
 2539SOL    HW219077   3.784   2.917  16.171 -0.0361  0.2174 -1.7638
 2540SOL     OW19078   3.758   1.519   8.582  0.0603 -0.1359 -0.4382
 2540SOL    HW119079   3.844   1.531   8.542 -0.4715  0.8380 -1.3160
 2540SOL    HW219080   3.767   1.587   8.649  3.0673  0.5312 -1.5276
 2541SOL     OW19081   0.374   0.155  11.849 -0.0664 -0.1603 -0.0836
 2541SOL    HW119082   0.402   0.190  11.934  0.4900 -1.7936  0.3952
 2541SOL    HW219083   0.279   0.149  11.862  0.0145  0.7518  1.0004
 2542SOL     OW19084   4.260   2.757  13.089  0.6388 -0.2485  0.3443
 2542SOL    HW119085   4.211   2.754  13.171  0.7827  1.0849  0.4867
 2542SOL    HW219086   4.215   2.817  13.029  0.1862 -1.7220 -0.7718
 2543SOL     OW19087   4.194   1.322   1.939 -0.4085 -0.1473  0.4793
 2543SOL    HW119088   4.178   1.416   1.945  1.2082  0.1166  0.5285
 2543SOL    HW219089   4.277   1.326   1.891 -2.1863  0.1849 -2.5940
 2544SOL     OW19090   4.085   3.135  12.679 -0.6705  0.1713  0.3566
 2544SOL    HW119091   4.148   3.191  12.634 -0.8351  0.6923  0.7797
 2544SOL    HW219092   4.017   3.112  12.615 -0.6481  1.3926 -0.0999
 2545SOL     OW19093   2.979   4.208  10.869  0.2887  0.3574  0.4301
 2545SOL    HW119094   2.935   4.124  10.881  2.8985 -1.1108 -0.3286
 2545SOL    HW219095   3.069   4.173  10.870  0.7067  1.4100 -0.8887
 2546SOL     OW19096   4.010   0.062   2.398 -0.2107 -0.4133  0.4600
 2546SOL    HW119097   3.953   0.044   2.323 -0.7385  0.1134  0.7322
 2546SOL    HW219098   3.943   0.050   2.465 -1.4107  3.0828 -0.1186
 2547SOL     OW19099   0.173   2.356   4.127  0.2515  0.1023 -0.1806
 2547SOL    HW119100   0.188   2.389   4.038 -3.5475  0.1171 -0.7926
 2547SOL    HW219101   0.199   2.435   4.174 -1.8155  1.2137 -0.9316
 2548SOL     OW19102   1.763   0.320   9.058  0.0582 -0.0556 -0.5882
 2548SOL    HW119103   1.752   0.278   8.973  0.8753  0.4020 -0.9204
 2548SOL    HW219104   1.707   0.266   9.113 -1.7427  1.6626 -0.7375
 2549SOL     OW19105   4.099   2.501   4.807  0.1691 -0.2192 -0.0662
 2549SOL    HW119106   4.181   2.513   4.856  1.7879 -1.7358 -2.4605
 2549SOL    HW219107   4.033   2.539   4.866  1.6610  0.4488  1.1931
 2550SOL     OW19108   1.323   4.321  11.779 -0.1311  0.3595 -0.3156
 2550SOL    HW119109   1.311   4.273  11.697 -0.2324 -0.8334  0.3946
 2550SOL    HW219110   1.397   4.274  11.817  0.5080  0.7241 -1.1044
 2551SOL     OW19111   3.066   0.397   8.993  0.3484 -0.4567  0.5428
 2551SOL    HW119112   2.995   0.395   9.056 -2.0178 -0.4448 -2.1317
 2551SOL    HW219113   3.037   0.316   8.951  0.7392 -0.1151 -0.3744
 2552SOL     OW19114   3.073   2.010   4.002  0.4939  0.1205 -0.5919
 2552SOL    HW119115   3.011   2.059   4.055 -0.7934 -0.3056 -1.7025
 2552SOL    HW219116   3.035   1.922   3.998  0.6561  0.1024 -1.7415
 2553SOL     OW19117   0.091   1.599   6.320 -0.0421  0.8260 -0.6401
 2553SOL    HW119118   0.140   1.580   6.400 -1.2519  0.8660  0.1034
 2553SOL    HW219119   0.002   1.601   6.356  0.7035  1.5379  1.2052
 2554SOL     OW19120   2.500   1.980   7.387 -0.4795 -0.0416  0.3705
 2554SOL    HW119121   2.465   1.966   7.475 -2.1547  0.2629 -0.2574
 2554SOL    HW219122   2.416   1.996   7.344 -0.3428 -1.9523 -0.6194
 2555SOL     OW19123   3.868   1.289   9.420  0.1545  0.2968 -0.7363
 2555SOL    HW119124   3.782   1.275   9.460  0.1711  0.8726 -0.5043
 2555SOL    HW219125   3.871   1.227   9.347 -2.1575 -1.3371  0.5393
 2556SOL     OW19126   3.625   1.202  12.111  0.5229  0.5059 -0.1202
 2556SOL    HW119127   3.701   1.222  12.057  1.0245  2.5638  1.3527
 2556SOL    HW219128   3.559   1.177  12.045 -0.4028 -0.6477  1.2440
 2557SOL     OW19129   1.933   3.675   0.682 -0.2478 -0.4232 -0.0190
 2557SOL    HW119130   1.849   3.684   0.637 -0.4843  0.0781  0.5258
 2557SOL    HW219131   1.962   3.766   0.690  0.3370 -0.4274 -1.9954
 2558SOL     OW19132   0.031   2.149   7.508  0.0299 -0.5098  0.3711
 2558SOL    HW119133   4.677   2.164   7.567  0.8920 -2.4355  1.9275
 2558SOL    HW219134   0.108   2.173   7.559  0.4686  2.6603 -1.7839
 2559SOL     OW19135   3.945   3.197  15.749 -0.2101  0.0066 -0.6839
 2559SOL    HW119136   4.023   3.174  15.800  0.8223  1.5891 -1.5198
 2559SOL    HW219137   3.880   3.189  15.818  0.4450 -1.3320 -0.2172
 2560SOL     OW19138   3.074   1.462   4.513 -0.0221  0.1989  0.0400
 2560SOL    HW119139   3.122   1.450   4.595 -0.6898 -1.6652  0.1476
 2560SOL    HW219140   2.995   1.409   4.524  0.1136  0.4376  2.1363
 2561SOL     OW19141   3.752   4.128  11.595  0.0268  0.2062  0.4188
 2561SOL    HW119142   3.724   4.212  11.559 -1.3771 -0.4169  0.0350
 2561SOL    HW219143   3.671   4.083  11.569  1.6822 -2.5211  0.0464
 2562SOL     OW19144   4.572   0.777   0.459  0.1320  0.7576  0.1319
 2562SOL    HW119145   4.512   0.708   0.432  0.3233  0.6501 -0.0244
 2562SOL    HW219146   4.524   0.843   0.509 -0.7011  1.8525 -2.1380
 2563SOL     OW19147   2.848   1.071   9.234  0.2415  0.3204 -0.4293
 2563SOL    HW119148   2.789   0.995   9.234  1.2601 -0.4612  0.3798
 2563SOL    HW219149   2.847   1.094   9.327 -1.1549  0.0013 -0.3550
 2564SOL     OW19150   1.680   4.396   5.749  0.1816 -0.4014  0.5074
 2564SOL    HW119151   1.728   4.461   5.698 -0.2572 -0.5285 -0.0734
 2564SOL    HW219152   1.624   4.452   5.802  0.5879 -0.1096  0.6315
 2565SOL     OW19153   4.210   2.987   6.602 -0.5546 -0.4838  0.3697
 2565SOL    HW119154   4.187   3.054   6.667 -0.7466  0.5694 -0.7733
 2565SOL    HW219155   4.174   2.913   6.651  0.0075 -1.5908 -0.9061
 2566SOL     OW19156   1.531   2.945   6.857 -0.1903 -0.4789 -0.6824
 2566SOL    HW119157   1.436   2.948   6.866 -0.1778  1.6843 -1.4691
 2566SOL    HW219158   1.542   2.854   6.828  0.5008 -0.6843  0.2287
 2567SOL     OW19159   3.204   3.811   7.975  0.1078 -0.2352 -0.2398
 2567SOL    HW119160   3.254   3.776   7.902  0.1329  0.5332 -0.5914
 2567SOL    HW219161   3.263   3.884   7.994  0.3882 -0.6050  0.3051
 2568SOL     OW19162   2.606   3.010   4.935 -0.3149 -0.0449 -0.3365
 2568SOL    HW119163   2.549   3.011   5.012  1.1598 -0.6094  0.7467
 2568SOL    HW219164   2.531   2.986   4.880  0.0581  0.1594 -0.9320
 2569SOL     OW19165   3.324   0.143   5.859 -0.1331  0.3772 -0.4230
 2569SOL    HW119166   3.284   0.218   5.905  2.1980  1.4807 -0.2001
 2569SOL    HW219167   3.243   0.109   5.822 -0.8397  0.8041  0.7079
 2570SOL     OW19168   2.721   2.254   0.995  0.2111  0.0401 -0.6907
 2570SOL    HW119169   2.657   2.237   1.064 -0.9059  0.5320 -1.5860
 2570SOL    HW219170   2.737   2.163   0.968 -0.5334 -0.4313  0.4644
 2571SOL     OW19171   1.733   3.506   3.016 -0.1473 -0.2525 -0.4493
 2571SOL    HW119172   1.822   3.540   3.014 -0.6630  1.0193 -2.0402
 2571SOL    HW219173   1.740   3.427   2.963 -0.3562 -1.4593  1.3150
 2572SOL     OW19174   0.021   4.025   7.416 -0.5887 -0.5774 -0.3012
 2572SOL    HW119175   0.106   3.985   7.397  0.2139  0.7576  0.5009
 2572SOL    HW219176   4.692   3.945   7.396 -1.1928 -0.0899 -0.7210
 2573SOL     OW19177   2.628   2.550   0.902 -0.7412 -0.2361 -0.1632
 2573SOL    HW119178   2.567   2.623   0.914 -1.9759 -0.9657 -2.1326
 2573SOL    HW219179   2.634   2.555   0.807  2.1093 -1.2254 -0.0162
 2574SOL     OW19180   3.629   2.117   9.684 -0.1324  0.4499 -0.2703
 2574SOL    HW119181   3.707   2.066   9.709  0.2638  0.8085 -0.7717
 2574SOL    HW219182   3.657   2.155   9.601  1.5055 -0.0600  0.0509
 2575SOL     OW19183   3.265   2.696   4.898 -0.4444 -0.0965 -0.0559
 2575SOL    HW119184   3.201   2.736   4.840 -0.6289 -2.7599 -1.6801
 2575SOL    HW219185   3.216   2.630   4.946  0.2330 -2.3008 -2.4516
 2576SOL     OW19186   1.321   4.389   8.045 -0.0469 -0.4691  0.1598
 2576SOL    HW119187   1.389   4.363   7.983  0.3357 -2.4780  1.4024
 2576SOL    HW219188   1.370   4.375   8.126  0.7285  2.9852  0.2701
 2577SOL     OW19189   2.671   3.210   0.806  0.2213 -0.1768  0.3380
 2577SOL    HW119190   2.745   3.187   0.749 -0.5665  2.9218 -1.9408
 2577SOL    HW219191   2.613   3.134   0.811  0.4627 -0.5840 -2.8047
 2578SOL     OW19192   4.518   4.615   3.742  0.0337 -0.2288 -0.4035
 2578SOL    HW119193   4.490   4.566   3.820 -0.6310 -0.5361 -0.8364
 2578SOL    HW219194   4.586   4.555   3.711  0.3700  0.4287 -0.9254
 2579SOL     OW19195   0.795   0.557   2.269 -0.5139  0.7822 -0.0480
 2579SOL    HW119196   0.727   0.554   2.337  0.8822  3.9155  1.4708
 2579SOL    HW219197   0.768   0.477   2.224 -1.3298  1.9409 -1.6248
 2580SOL     OW19198   0.603   4.704   3.015  0.0400 -0.0165  0.0327
 2580SOL    HW119199   0.649   0.067   3.021 -0.0484  0.0423 -0.1294
 2580SOL    HW219200   0.520   0.012   2.978 -0.3758 -0.6173  0.5018
 2581SOL     OW19201   2.077   3.722   6.453 -0.4167  0.1425 -0.3278
 2581SOL    HW119202   1.988   3.757   6.456 -0.8807 -1.0454 -0.2713
 2581SOL    HW219203   2.070   3.655   6.385  1.2260 -1.9960  1.6302
 2582SOL     OW19204   0.876   1.952  10.618  0.0178  0.2653  0.4405
 2582SOL    HW119205   0.781   1.958  10.610  0.3370  3.9512 -0.5894
 2582SOL    HW219206   0.905   2.005  10.543  0.6564  0.5173  0.8673
 2583SOL     OW19207   0.290   2.433  13.006  0.4873  0.2831 -0.0311
 2583SOL    HW119208   0.257   2.353  13.047 -1.2685  0.8885 -0.2844
 2583SOL    HW219209   0.202   2.470  13.003  0.3631 -0.0170 -0.0464
 2584SOL     OW19210   2.177   1.399   8.269 -0.2334  0.5157  0.0554
 2584SOL    HW119211   2.181   1.316   8.223 -3.2302  0.0966  0.5481
 2584SOL    HW219212   2.257   1.398   8.322 -0.0261  0.0874 -0.2664
 2585SOL     OW19213   0.194   3.135   6.733 -0.2835 -0.6129 -0.6091
 2585SOL    HW119214   0.261   3.067   6.727 -0.5374 -0.8867 -0.3207
 2585SOL    HW219215   0.220   3.197   6.665  0.6717  0.0568  0.3463
 2586SOL     OW19216   0.284   2.848   7.646 -0.0449  0.0366  0.6425
 2586SOL    HW119217   0.271   2.854   7.552  0.9587  0.8776  0.5585
 2586SOL    HW219218   0.231   2.774   7.674  0.3068 -0.5342 -0.2131
 2587SOL     OW19219   3.357   4.211   5.913  0.0468  0.0151 -0.3912
 2587SOL    HW119220   3.351   4.237   5.821 -0.7034 -1.4265 -0.7574
 2587SOL    HW219221   3.442   4.167   5.918  0.1663  0.4018  0.9863
 2588SOL     OW19222   2.343   3.469   5.500 -0.4279 -0.3203  0.0885
 2588SOL    HW119223   2.302   3.509   5.577  3.0019 -1.6718  2.6125
 2588SOL    HW219224   2.421   3.524   5.495 -0.0829 -0.8695 -0.5399
 2589SOL     OW19225   4.415   2.405   8.143 -0.0329 -0.0561 -0.3111
 2589SOL    HW119226   4.426   2.352   8.063  1.3924 -0.5155  0.1729
 2589SOL    HW219227   4.463   2.360   8.213  2.1545  2.5579 -0.1248
 2590SOL     OW19228   2.530   4.449   2.986 -0.0537 -0.0592 -0.4266
 2590SOL    HW119229   2.588   4.430   3.060 -0.3604  1.9283  0.3288
 2590SOL    HW219230   2.515   4.543   2.993  0.0804  0.0048 -0.9666
 2591SOL     OW19231   4.113   0.956   4.584  0.0110 -0.1720  0.2857
 2591SOL    HW119232   4.162   0.993   4.510 -0.8609 -1.3649 -0.9069
 2591SOL    HW219233   4.023   0.971   4.554  0.6947  1.4072 -0.9287
 2592SOL     OW19234   3.092   3.757  16.961  0.1839 -0.3238 -0.2570
 2592SOL    HW119235   3.128   3.697  16.895 -0.7071  1.3686 -2.2654
 2592SOL    HW219236   3.030   3.701  17.007 -1.0905 -0.6304 -2.3481
 2593SOL     OW19237   3.449   0.481   3.958  0.3308 -0.1322 -0.1207
 2593SOL    HW119238   3.419   0.550   4.018  0.1963  1.5656 -2.1635
 2593SOL    HW219239   3.449   0.407   4.020 -0.7411  0.8734  1.0922
 2594SOL     OW19240   0.806   1.280   3.884  0.6099 -0.1655  0.1058
 2594SOL    HW119241   0.731   1.250   3.833  0.4333 -0.5960  0.6238
 2594SOL    HW219242   0.870   1.212   3.863 -2.9644 -2.6119 -2.8908
 2595SOL     OW19243   1.337   2.050   5.742 -0.2047 -0.4462  0.3252
 2595SOL    HW119244   1.424   2.057   5.703 -0.2023  0.7307  0.5378
 2595SOL    HW219245   1.335   2.126   5.801  2.2124  0.3314 -0.5909
 2596SOL     OW19246   0.440   0.132   1.114  0.5705  0.4331 -0.0464
 2596SOL    HW119247   0.475   0.047   1.088  1.3212  1.0568 -1.0531
 2596SOL    HW219248   0.347   0.120   1.096  0.0991  2.4147  1.0651
 2597SOL     OW19249   1.131   3.104   9.681  0.3326 -0.2892 -0.0389
 2597SOL    HW119250   1.150   3.018   9.720 -0.0618 -0.4256 -0.1522
 2597SOL    HW219251   1.216   3.147   9.674 -0.2797  1.0244  0.6497
 2598SOL     OW19252   3.134   0.879   8.199 -0.1257  0.0856 -0.2621
 2598SOL    HW119253   3.099   0.868   8.288 -1.5055 -0.0304 -0.8139
 2598SOL    HW219254   3.209   0.821   8.186  0.6663  1.1863 -0.5613
 2599SOL     OW19255   1.059   0.151   0.879  0.0829 -0.5914 -0.1183
 2599SOL    HW119256   1.133   0.204   0.849 -0.7667 -0.0144 -1.2000
 2599SOL    HW219257   0.982   0.206   0.891  1.2450  1.1147 -0.5198
 2600SOL     OW19258   1.380   1.776   3.566 -0.2593  0.3300  0.2925
 2600SOL    HW119259   1.297   1.795   3.611  0.6542  4.4782  0.1550
 2600SOL    HW219260   1.449   1.826   3.609 -0.5247  0.2568  0.8092
 2601SOL     OW19261   1.491   3.581   0.636  0.3726  0.2404 -0.0439
 2601SOL    HW119262   1.518   3.553   0.724 -1.7828  0.3503  0.6633
 2601SOL    HW219263   1.557   3.646   0.611  0.2512 -0.2371 -1.5768
 2602SOL     OW19264   1.900   1.191   2.531 -0.2041  0.5571  0.2272
 2602SOL    HW119265   1.988   1.228   2.525  0.5464 -1.0485  1.3209
 2602SOL    HW219266   1.881   1.149   2.447  2.2073 -1.2313  0.5611
 2603SOL     OW19267   3.837   2.689   7.144 -0.3062  0.5538 -0.2088
 2603SOL    HW119268   3.847   2.655   7.232 -1.6408  2.0604  0.5198
 2603SOL    HW219269   3.753   2.650   7.123  1.1381 -1.2874 -2.5400
 2604SOL     OW19270   3.101   2.724   3.291 -0.5228  0.1547 -0.1328
 2604SOL    HW119271   3.060   2.763   3.369 -0.2999 -1.2968  0.7210
 2604SOL    HW219272   3.044   2.647   3.282 -1.0443  0.5378 -0.1238
 2605SOL     OW19273   0.749   2.280   4.461  0.0991  0.0052 -0.1449
 2605SOL    HW119274   0.844   2.275   4.451  0.1341 -0.5643  0.4688
 2605SOL    HW219275   0.724   2.314   4.375  2.1483 -2.3169 -1.6408
 2606SOL     OW19276   2.270   1.836   4.684  0.2181 -0.2878  0.3914
 2606SOL    HW119277   2.322   1.765   4.721  1.6230  0.1651 -0.7177
 2606SOL    HW219278   2.244   1.881   4.764  0.0920  1.6097 -0.7108
 2607SOL     OW19279   4.505   3.923  14.089  0.4819 -0.0586  0.0195
 2607SOL    HW119280   4.572   3.876  14.138 -0.3934 -1.0877  0.2352
 2607SOL    HW219281   4.430   3.876  14.127  0.5849 -1.2276 -1.2244
 2608SOL     OW19282   3.890   3.441  11.852 -0.0352  0.3513 -0.0499
 2608SOL    HW119283   3.809   3.422  11.804  0.1919 -0.8049  0.0391
 2608SOL    HW219284   3.938   3.506  11.800  2.2621 -0.6122  0.8518
 2609SOL     OW19285   3.901   1.735   5.073 -0.3897  0.2701 -0.3387
 2609SOL    HW119286   3.865   1.718   4.986  0.9620  0.6808 -0.9757
 2609SOL    HW219287   3.994   1.730   5.051 -0.1337 -1.3580  1.0843
 2610SOL     OW19288   0.838   1.734   4.361  0.1698  0.4604 -0.3421
 2610SOL    HW119289   0.780   1.771   4.427 -2.8148 -3.2734 -0.9346
 2610SOL    HW219290   0.777   1.671   4.324  1.2600 -1.3964  1.0615
 2611SOL     OW19291   0.308   3.875   8.677  0.1299  0.0265 -0.0876
 2611SOL    HW119292   0.346   3.790   8.656 -1.4383 -0.5423 -0.5950
 2611SOL    HW219293   0.374   3.914   8.735 -2.0323  0.5715  2.0360
 2612SOL     OW19294   2.754   2.859   2.124 -0.0280  0.0763 -0.2883
 2612SOL    HW119295   2.732   2.768   2.142 -0.7404  0.4758  0.8795
 2612SOL    HW219296   2.671   2.895   2.093  0.7683  1.3543 -0.9244
 2613SOL     OW19297   4.711   3.420  14.912 -0.0997  0.0407 -0.4597
 2613SOL    HW119298   0.082   3.429  14.934 -0.3206 -1.8008  1.1816
 2613SOL    HW219299   4.672   3.507  14.918  1.3282  0.8875 -3.4319
 2614SOL     OW19300   4.427   0.776   4.920  0.1600  0.1866  0.5352
 2614SOL    HW119301   4.444   0.823   4.838 -0.3561  0.2929  0.4863
 2614SOL    HW219302   4.354   0.831   4.949  0.8500  0.6579  1.3828
 2615SOL     OW19303   3.935   3.924   4.341  0.5665 -0.6215  0.3659
 2615SOL    HW119304   3.899   4.004   4.301 -1.9292 -1.6559  0.5548
 2615SOL    HW219305   3.984   3.883   4.269  0.8591  0.5167 -0.0898
 2616SOL     OW19306   2.727   0.875   3.502  0.0863  0.0145 -0.0819
 2616SOL    HW119307   2.743   0.963   3.468  0.8401  0.1984  0.7489
 2616SOL    HW219308   2.659   0.886   3.569 -0.3408 -2.5061 -0.1107
 2617SOL     OW19309   4.507   2.233  12.467  0.3410  0.2031 -0.0303
 2617SOL    HW119310   4.601   2.227  12.451  0.4019 -1.2549  0.8653
 2617SOL    HW219311   4.479   2.267  12.382 -1.2119 -0.1345  0.3444
 2618SOL     OW19312   0.969   2.240  11.639 -0.2555 -0.3819  0.1951
 2618SOL    HW119313   0.936   2.265  11.552 -1.8559 -0.3020  0.8250
 2618SOL    HW219314   0.893   2.189  11.667 -0.4585  1.3084  2.6976
 2619SOL     OW19315   0.234   0.002   8.656  0.3288 -0.0085  0.2170
 2619SOL    HW119316   0.325   0.030   8.663  0.3223  0.4021 -1.4796
 2619SOL    HW219317   0.237   4.627   8.653 -0.2387  0.0454 -1.6369
 2620SOL     OW19318   0.750   0.816   9.973 -0.7087 -0.1860  0.2981
 2620SOL    HW119319   0.773   0.747  10.035  0.7005  0.6799  0.7495
 2620SOL    HW219320   0.779   0.781   9.889 -0.1213  1.3170 -0.1165
 2621SOL     OW19321   3.902   0.881  13.717 -0.4405  0.0028 -0.2857
 2621SOL    HW119322   3.883   0.844  13.803 -1.1567 -1.4247 -1.0631
 2621SOL    HW219323   3.886   0.974  13.733 -1.6522 -0.3320  0.4067
 2622SOL     OW19324   4.537   2.087   8.368  0.2530  0.4796 -0.1974
 2622SOL    HW119325   4.611   2.048   8.322  0.7038 -3.3237  3.7052
 2622SOL    HW219326   4.589   2.149   8.419  0.1084  1.0716 -0.7730
 2623SOL     OW19327   0.501   2.661   9.925  0.4498  0.3031 -0.3304
 2623SOL    HW119328   0.560   2.665  10.001  1.3919 -0.1093 -1.0406
 2623SOL    HW219329   0.439   2.593   9.951 -0.9502  1.6877 -0.0671
 2624SOL     OW19330   1.636   2.728  16.345 -0.0518 -0.1574  0.0816
 2624SOL    HW119331   1.726   2.695  16.352  0.1870  0.4751 -0.0061
 2624SOL    HW219332   1.632   2.785  16.422 -0.4231 -1.0011  0.6961
 2625SOL     OW19333   0.319   1.967   3.781  0.6447  0.1432  0.8148
 2625SOL    HW119334   0.380   2.032   3.817  0.0837  1.2825 -0.2807
 2625SOL    HW219335   0.384   1.917   3.732 -1.5977  0.5397 -2.5323
 2626SOL     OW19336   0.839   3.277  12.405 -0.1832  0.7911 -0.0057
 2626SOL    HW119337   0.897   3.340  12.363 -0.9215  2.0522  0.8701
 2626SOL    HW219338   0.864   3.193  12.367 -3.0734 -0.2630  0.4409
 2627SOL     OW19339   1.385   3.806   2.850 -0.0991  0.6897 -0.2901
 2627SOL    HW119340   1.468   3.824   2.894  0.3948 -3.2743  0.3672
 2627SOL    HW219341   1.395   3.827   2.757 -2.5498 -1.4429 -1.0269
 2628SOL     OW19342   0.284   1.087   2.908 -0.4613 -0.4287  0.1175
 2628SOL    HW119343   0.323   1.174   2.897 -0.2636 -0.3782  1.1889
 2628SOL    HW219344   0.350   1.033   2.951 -1.7604 -2.9430 -1.0470
 2629SOL     OW19345   2.892   1.985   3.056 -0.1507 -0.1821  0.1199
 2629SOL    HW119346   2.799   1.973   3.075  0.2807 -2.9388  0.4374
 2629SOL    HW219347   2.902   1.922   2.985 -0.4819 -2.4109  2.0561
 2630SOL     OW19348   1.485   3.147   8.759  0.3559 -0.9652 -0.6451
 2630SOL    HW119349   1.496   3.229   8.808  1.0626 -0.7775 -1.1119
 2630SOL    HW219350   1.423   3.108   8.820  1.6259 -1.8703  0.0699
 2631SOL     OW19351   3.317   2.526   5.764  0.2835  0.6103 -0.6512
 2631SOL    HW119352   3.412   2.526   5.754  0.2569  0.7846 -0.8792
 2631SOL    HW219353   3.309   2.539   5.859 -0.1733  0.8416 -0.7200
 2632SOL     OW19354   1.282   4.649  10.880 -0.0643 -0.3087 -0.9508
 2632SOL    HW119355   1.297   4.683  10.792 -1.9608 -2.1517 -1.9548
 2632SOL    HW219356   1.227   4.721  10.912  1.2860  0.5962 -0.6151
 2633SOL     OW19357   1.890   4.372  15.035  0.4149  0.1335  0.3089
 2633SOL    HW119358   1.940   4.420  14.969 -1.0163 -1.9378 -2.2845
 2633SOL    HW219359   1.960   4.346  15.095  1.0946  1.7314  0.2199
 2634SOL     OW19360   0.665   1.681   7.489 -0.0650 -0.0407 -0.4755
 2634SOL    HW119361   0.601   1.721   7.548  0.3767 -1.8810  1.2619
 2634SOL    HW219362   0.648   1.590   7.512 -0.3479  0.3415  0.8298
 2635SOL     OW19363   2.925   3.302   6.035  0.6408 -0.3997 -0.6734
 2635SOL    HW119364   2.867   3.228   6.049 -0.7402  0.6924 -0.6180
 2635SOL    HW219365   3.006   3.252   6.025  1.5505  1.1458 -1.0852
 2636SOL     OW19366   1.068   4.382   5.759  0.0571  0.1763 -0.0957
 2636SOL    HW119367   1.139   4.438   5.726  0.7294 -0.1243  0.8178
 2636SOL    HW219368   1.118   4.302   5.776 -0.9589 -0.5706 -0.6012
 2637SOL     OW19369   0.611   3.280   7.046 -0.2249 -0.3142 -0.1947
 2637SOL    HW119370   0.694   3.291   7.093 -0.6952 -0.2000  0.6243
 2637SOL    HW219371   0.590   3.373   7.033  1.0184 -0.2254 -1.5753
 2638SOL     OW19372   1.345   2.829  13.992  0.1239  0.5104 -0.2096
 2638SOL    HW119373   1.352   2.923  14.009 -0.4314 -0.0988  3.3600
 2638SOL    HW219374   1.286   2.826  13.916  0.0879 -0.4734 -0.1411
 2639SOL     OW19375   0.008   0.375   7.260  0.0354 -0.0126  0.2241
 2639SOL    HW119376   4.669   0.409   7.194 -0.5463  0.3320  0.9361
 2639SOL    HW219377   4.708   0.430   7.334 -2.6027 -1.2996  0.4519
 2640SOL     OW19378   2.488   2.936   2.057  0.0624 -0.4648 -0.0608
 2640SOL    HW119379   2.400   2.899   2.067  0.6065 -0.5803  4.1847
 2640SOL    HW219380   2.491   2.949   1.962  0.6304  1.2429  0.1961
 2641SOL     OW19381   2.750   1.405   3.344  0.2075  0.3220  0.7028
 2641SOL    HW119382   2.813   1.473   3.367  2.6798 -1.2922 -1.3436
 2641SOL    HW219383   2.664   1.448   3.343  0.1284  0.1605  0.5559
 2642SOL     OW19384   1.625   2.950   7.980  0.2768  0.1664 -0.2846
 2642SOL    HW119385   1.669   2.876   8.022 -2.1055 -0.5635  0.9239
 2642SOL    HW219386   1.557   2.968   8.045  0.6446  1.4501 -0.2553
 2643SOL     OW19387   4.229   3.065  16.616  0.2321  0.8034  0.2059
 2643SOL    HW119388   4.171   3.121  16.669 -0.1934  1.6042 -1.1048
 2643SOL    HW219389   4.252   3.114  16.537 -3.1499 -0.8760 -1.8061
 2644SOL     OW19390   0.490   3.960   8.835  0.6464  0.2789  0.0904
 2644SOL    HW119391   0.519   3.890   8.893 -0.1682 -0.9396 -0.9686
 2644SOL    HW219392   0.576   3.998   8.816  0.3891  1.3678  1.1210
 2645SOL     OW19393   3.684   0.449   8.498  0.0964  0.3087 -0.5139
 2645SOL    HW119394   3.633   0.368   8.499  0.0132  0.3676  2.1624
 2645SOL    HW219395   3.751   0.410   8.556 -0.9654 -0.5426  0.1545
 2646SOL     OW19396   1.376   2.561  14.165 -1.1497  0.2155 -0.8599
 2646SOL    HW119397   1.353   2.533  14.254 -3.1036  1.3992 -0.9844
 2646SOL    HW219398   1.330   2.504  14.104  0.7761 -1.5198 -0.6955
 2647SOL     OW19399   4.210   2.839   5.436  0.2466 -0.0836  0.0996
 2647SOL    HW119400   4.141   2.802   5.491  1.3288 -0.5922  1.1312
 2647SOL    HW219401   4.183   2.817   5.348 -0.4140 -2.8245  0.9966
 2648SOL     OW19402   2.762   4.623   4.435  0.2232 -0.2247 -0.1856
 2648SOL    HW119403   2.699   4.598   4.367  0.0770 -1.7795  0.5389
 2648SOL    HW219404   2.764   4.717   4.415 -1.0068 -0.3000 -0.6440
 2649SOL     OW19405   1.162   1.193   7.012  0.0688  0.1297  0.2680
 2649SOL    HW119406   1.126   1.246   6.941  1.3695  0.9900  0.2560
 2649SOL    HW219407   1.120   1.234   7.088 -3.0335  1.1346 -1.9854
 2650SOL     OW19408   3.718   4.396   7.846 -0.0754 -0.0998 -0.7447
 2650SOL    HW119409   3.702   4.490   7.853 -0.7554 -0.2096 -0.8201
 2650SOL    HW219410   3.766   4.369   7.924 -2.3898 -1.0584  0.3388
 2651SOL     OW19411   1.307   2.440   3.692 -0.2666 -0.0198  0.0684
 2651SOL    HW119412   1.322   2.494   3.770  0.3974  1.9565 -1.4449
 2651SOL    HW219413   1.225   2.476   3.659  0.2833  0.4433 -0.7739
 2652SOL     OW19414   3.680   2.148   2.548  0.6757  0.1808  0.9921
 2652SOL    HW119415   3.715   2.060   2.565  0.1509 -0.3311 -0.6008
 2652SOL    HW219416   3.713   2.171   2.461  1.8152  2.2289  1.9787
 2653SOL     OW19417   4.419   1.815   3.594  0.2144  0.0218 -0.2787
 2653SOL    HW119418   4.366   1.750   3.547 -0.3421 -0.8529  1.5493
 2653SOL    HW219419   4.465   1.869   3.529 -0.0004 -0.0893 -0.5241
 2654SOL     OW19420   0.699   1.722   0.666 -0.0607 -0.5820 -0.0781
 2654SOL    HW119421   0.663   1.725   0.755  1.4691  1.8027  0.4771
 2654SOL    HW219422   0.791   1.709   0.691  0.1562  1.2753  0.1114
 2655SOL     OW19423   2.921   4.426   4.906 -0.4364  0.2921  0.1544
 2655SOL    HW119424   2.895   4.333   4.910  2.0039 -0.4521 -1.6945
 2655SOL    HW219425   2.892   4.461   4.822 -1.2368  0.5814  0.5506
 2656SOL     OW19426   0.272   0.158  12.132  0.0169 -0.2332 -0.4684
 2656SOL    HW119427   0.198   0.179  12.188 -0.3295 -1.1831 -0.5641
 2656SOL    HW219428   0.231   0.137  12.048  0.2213  0.8334 -0.8293
 2657SOL     OW19429   1.860   1.721   3.583 -1.0488 -0.0713 -0.7143
 2657SOL    HW119430   1.881   1.689   3.495 -1.0472 -0.9721 -0.3880
 2657SOL    HW219431   1.892   1.811   3.591  0.2654 -0.6224  0.2074
 2658SOL     OW19432   2.746   1.143   3.411 -0.0949 -0.3921  0.3421
 2658SOL    HW119433   2.762   1.168   3.502 -1.5576  0.9864  0.2272
 2658SOL    HW219434   2.747   1.227   3.364 -2.6599 -0.2890  0.4764
 2659SOL     OW19435   0.394   3.598   5.300  0.0852  0.7090 -0.3685
 2659SOL    HW119436   0.354   3.528   5.247 -1.9630  3.1365 -2.0475
 2659SOL    HW219437   0.414   3.662   5.232  2.1909  1.2992  0.8368
 2660SOL     OW19438   3.347   4.054   8.050  0.5780 -0.3832 -0.4400
 2660SOL    HW119439   3.430   4.074   8.008  0.2125  1.3999 -0.3276
 2660SOL    HW219440   3.283   4.087   7.987 -0.7449 -0.7387  0.6863
 2661SOL     OW19441   0.017   4.441  11.190  0.0017  0.2039 -0.0868
 2661SOL    HW119442   4.649   4.466  11.167 -0.0031  0.7341  0.5202
 2661SOL    HW219443   0.045   4.372  11.128  0.0387 -0.8733  1.1300
 2662SOL     OW19444   3.443   3.540   3.848 -1.1711 -0.3328 -0.1435
 2662SOL    HW119445   3.397   3.620   3.871 -1.0351 -0.5344  0.8192
 2662SOL    HW219446   3.408   3.517   3.762  2.4641  2.2081 -2.2713
 2663SOL     OW19447   3.441   0.166   8.709  0.3500 -0.1784 -0.1040
 2663SOL    HW119448   3.493   0.101   8.757 -1.5834 -0.3011  1.8152
 2663SOL    HW219449   3.496   0.168   8.631 -0.7260  2.1104 -0.7936
 2664SOL     OW19450   1.910   0.257   8.238  0.0731  0.3451  0.0372
 2664SOL    HW119451   1.939   0.345   8.214  1.8326 -0.1159  0.4914
 2664SOL    HW219452   1.834   0.256   8.180 -0.0024  0.1192  0.1417
 2665SOL     OW19453   3.099   1.350   0.818 -0.5459 -0.1554 -0.1352
 2665SOL    HW119454   3.020   1.363   0.870 -0.8406 -1.2083 -0.3238
 2665SOL    HW219455   3.164   1.388   0.878 -2.3618  3.1030 -0.2411
 2666SOL     OW19456   3.458   4.121  11.532  0.7750 -0.0954  0.0698
 2666SOL    HW119457   3.422   4.200  11.572  0.2860 -1.3178  2.0333
 2666SOL    HW219458   3.461   4.157  11.443 -1.7749 -0.4170 -0.1363
 2667SOL     OW19459   2.287   0.354  14.655  0.1031 -0.1264 -0.0178
 2667SOL    HW119460   2.363   0.318  14.609 -1.7180 -3.3375 -0.5352
 2667SOL    HW219461   2.218   0.328  14.594 -0.7305 -0.7043  1.1576
 2668SOL     OW19462   3.204   2.965   7.954  0.6702 -0.4156 -0.2287
 2668SOL    HW119463   3.159   2.881   7.965 -0.1761  0.0980  0.2378
 2668SOL    HW219464   3.295   2.934   7.950  0.6308 -0.3569 -1.3617
 2669SOL     OW19465   1.085   0.815  14.228  0.1167  0.6547  0.4762
 2669SOL    HW119466   1.115   0.889  14.282 -0.3115  1.3461 -0.2343
 2669SOL    HW219467   0.993   0.798  14.246  1.1527  0.8330  5.9699
 2670SOL     OW19468   3.652   1.932   4.124 -0.7287 -0.3858 -0.1727
 2670SOL    HW119469   3.673   1.874   4.198 -0.4414  0.2649  0.2527
 2670SOL    HW219470   3.643   1.863   4.058 -0.5380 -0.6948  0.1233
 2671SOL     OW19471   4.601   2.774   5.966  0.3606 -0.5040  0.3627
 2671SOL    HW119472   4.557   2.854   5.996  1.2311 -1.1418  3.2858
 2671SOL    HW219473   4.627   2.800   5.878  0.8216  2.8016  1.5009
 2672SOL     OW19474   4.270   3.124   3.860  0.0572  0.5687 -0.0614
 2672SOL    HW119475   4.356   3.159   3.884 -1.2900  2.3617  2.1360
 2672SOL    HW219476   4.286   3.077   3.779 -1.5706 -2.8866  1.6221
 2673SOL     OW19477   4.551   0.193  12.801 -0.1058 -0.4524  0.3700
 2673SOL    HW119478   4.590   0.257  12.861 -2.2789  2.2095 -1.0470
 2673SOL    HW219479   4.554   0.109  12.846 -0.3886 -1.8156 -2.1366
 2674SOL     OW19480   1.492   1.388   2.802 -0.4551  0.2030 -0.1098
 2674SOL    HW119481   1.433   1.318   2.774  0.8615 -0.9490  0.0228
 2674SOL    HW219482   1.571   1.361   2.755 -0.7701 -1.3226  0.2565
 2675SOL     OW19483   4.052   3.552   3.834 -0.3419 -0.0048  0.1651
 2675SOL    HW119484   4.050   3.460   3.860 -0.5663  0.4846  1.8884
 2675SOL    HW219485   4.143   3.566   3.860 -0.3378  1.2588 -0.5179
 2676SOL     OW19486   3.630   1.707   0.318  0.8534 -0.8902  0.2772
 2676SOL    HW119487   3.691   1.690   0.390  0.7592  0.6579  0.7003
 2676SOL    HW219488   3.552   1.719   0.372 -0.5134 -2.4188 -1.3309
 2677SOL     OW19489   0.558   4.356   9.286  0.3489  0.5769  0.7143
 2677SOL    HW119490   0.524   4.364   9.375 -1.3888 -0.3352  0.1170
 2677SOL    HW219491   0.568   4.262   9.274  1.4501  0.4430  2.5838
 2678SOL     OW19492   2.963   4.198  15.885 -0.1699 -0.0282 -0.0975
 2678SOL    HW119493   2.924   4.278  15.849 -0.8743 -0.6919 -0.8173
 2678SOL    HW219494   2.883   4.165  15.926 -1.0005 -0.8740 -2.3665
 2679SOL     OW19495   1.132   0.367   2.679  0.3570 -0.1926  0.2689
 2679SOL    HW119496   1.134   0.378   2.774 -0.7474 -0.1488  0.2852
 2679SOL    HW219497   1.216   0.324   2.661  1.1392  0.8492  1.4007
 2680SOL     OW19498   4.290   1.212   3.120 -0.9032 -0.0662 -0.5621
 2680SOL    HW119499   4.357   1.146   3.135 -0.5662 -0.2448 -2.7941
 2680SOL    HW219500   4.276   1.213   3.025  1.9218 -0.8051 -0.9743
 2681SOL     OW19501   2.328   1.398   7.918  0.2216  0.0807 -0.8049
 2681SOL    HW119502   2.349   1.368   7.829 -0.7483  1.0646 -1.3675
 2681SOL    HW219503   2.233   1.387   7.918  0.4067 -1.5814  0.0109
 2682SOL     OW19504   3.415   3.414   4.288 -0.1558  0.4891  0.2001
 2682SOL    HW119505   3.368   3.378   4.212  1.2963 -1.3307  0.1807
 2682SOL    HW219506   3.379   3.502   4.295 -0.4835  0.0451  3.7994
 2683SOL     OW19507   3.663   2.168  14.571  0.4070  0.0876  0.2257
 2683SOL    HW119508   3.591   2.106  14.571  1.7216 -1.4380  0.8448
 2683SOL    HW219509   3.618   2.252  14.566  1.6867  0.8096  0.7930
 2684SOL     OW19510   0.126   0.232   9.585  0.3228  0.0388  0.1458
 2684SOL    HW119511   0.052   0.205   9.639  0.6183  0.6743  0.8797
 2684SOL    HW219512   0.193   0.173   9.621 -2.2464 -1.6866  2.0861
 2685SOL     OW19513   1.906   1.861   8.973 -0.3749  0.5169  0.1926
 2685SOL    HW119514   1.986   1.874   9.025  0.8281 -0.9033 -1.3136
 2685SOL    HW219515   1.851   1.802   9.024 -0.1490 -0.6531 -0.9395
 2686SOL     OW19516   0.655   1.525   2.230 -0.4947 -0.0376 -0.1699
 2686SOL    HW119517   0.582   1.520   2.168 -0.8617 -0.3677  0.2958
 2686SOL    HW219518   0.663   1.440   2.273 -0.4006 -0.9635 -2.0173
 2687SOL     OW19519   4.338   0.736   9.315  0.3516  0.1546  0.6936
 2687SOL    HW119520   4.364   0.647   9.340  0.1476 -0.6159 -1.7723
 2687SOL    HW219521   4.248   0.726   9.284  0.2941 -1.7254  1.4419
 2688SOL     OW19522   0.373   1.272  12.629 -0.0512 -0.2656  0.0130
 2688SOL    HW119523   0.411   1.188  12.604  0.8320 -0.2130  1.2192
 2688SOL    HW219524   0.355   1.313  12.544 -0.7821 -1.8407 -0.5777
 2689SOL     OW19525   1.034   1.745   2.837 -0.4939 -0.1289 -0.0253
 2689SOL    HW119526   1.119   1.785   2.854 -0.6943  1.3921 -2.5517
 2689SOL    HW219527   0.997   1.801   2.768 -1.8145  0.6764  1.3350
 2690SOL     OW19528   0.280   0.323  12.485  0.1803 -0.0550  0.2045
 2690SOL    HW119529   0.322   0.381  12.421 -0.5984 -1.5836 -1.7252
 2690SOL    HW219530   0.280   0.379  12.562 -2.0783  0.7315 -0.3621
 2691SOL     OW19531   2.818   1.498  11.067 -0.2133  0.3265 -0.4976
 2691SOL    HW119532   2.829   1.404  11.084 -0.8189  0.0588 -1.5448
 2691SOL    HW219533   2.725   1.500  11.044 -0.4523  0.3262  0.4830
 2692SOL     OW19534   1.264   2.065  14.384  0.0179  0.4029 -0.3131
 2692SOL    HW119535   1.213   2.146  14.393  0.2022  0.4710  0.0774
 2692SOL    HW219536   1.347   2.112  14.377  1.8249 -2.9686 -1.0451
 2693SOL     OW19537   2.321   1.962  10.896  0.2357 -0.3871  0.4733
 2693SOL    HW119538   2.363   2.006  10.970 -2.5086 -0.3771  2.0299
 2693SOL    HW219539   2.329   1.871  10.923  0.7200  0.0013  1.6409
 2694SOL     OW19540   4.080   4.614   1.263 -0.3788 -0.6318  0.0741
 2694SOL    HW119541   4.048   4.564   1.339  0.1315  1.9406  1.9991
 2694SOL    HW219542   4.042   4.560   1.195 -2.0094 -1.1793  1.4122
 2695SOL     OW19543   3.775   2.920   5.839 -0.2213 -0.0066 -0.0542
 2695SOL    HW119544   3.817   2.836   5.857  0.3627  0.7863  2.2172
 2695SOL    HW219545   3.731   2.925   5.924 -0.4658  0.7525 -0.2253
 2696SOL     OW19546   3.460   4.190   2.210  0.3888  0.1465  0.2657
 2696SOL    HW119547   3.402   4.252   2.254 -0.7962 -1.2041  0.5949
 2696SOL    HW219548   3.444   4.208   2.117 -0.5779  4.5550  1.2833
 2697SOL     OW19549   0.520   1.351   9.243  0.3436  0.3203  0.1261
 2697SOL    HW119550   0.510   1.260   9.216  2.1928 -0.1069  0.8844
 2697SOL    HW219551   0.567   1.341   9.325  1.3606 -0.2152 -0.5170
 2698SOL     OW19552   3.806   0.585  10.608  0.4802 -0.0954 -0.2276
 2698SOL    HW119553   3.762   0.533  10.675 -1.3970  0.1045 -1.2742
 2698SOL    HW219554   3.849   0.510  10.567 -2.0170 -1.4098 -0.4350
 2699SOL     OW19555   3.454   3.467   6.481  0.0803 -0.0936  0.5889
 2699SOL    HW119556   3.381   3.528   6.480  0.4593  0.2929 -2.9850
 2699SOL    HW219557   3.414   3.392   6.437  0.3632 -0.7822  1.5007
 2700SOL     OW19558   3.232   2.894   2.334  0.0574  0.0657  0.4337
 2700SOL    HW119559   3.225   2.868   2.242 -1.3521  3.1304 -0.3516
 2700SOL    HW219560   3.200   2.985   2.329 -1.2217 -0.3374  1.2250
 2701SOL     OW19561   0.368   2.412   5.495 -0.4619  0.2937 -0.1647
 2701SOL    HW119562   0.278   2.409   5.527  0.2630  1.0576  1.9214
 2701SOL    HW219563   0.406   2.484   5.545  3.0916 -1.5835 -0.1793
 2702SOL     OW19564   3.479   0.377   4.646 -0.5912  0.1446 -0.2759
 2702SOL    HW119565   3.505   0.372   4.554  0.2297  1.4406 -0.1088
 2702SOL    HW219566   3.532   0.450   4.677  0.4379 -0.5665 -0.3703
 2703SOL     OW19567   1.717   2.257   7.352 -0.7495 -0.3566 -0.0439
 2703SOL    HW119568   1.727   2.335   7.406 -0.3468  0.5945 -1.4729
 2703SOL    HW219569   1.680   2.305   7.278 -0.8651 -0.8128 -0.2798
 2704SOL     OW19570   4.401   0.526  12.106 -0.5282 -0.2279  0.1063
 2704SOL    HW119571   4.409   0.504  12.199 -4.3686  0.2820  0.5873
 2704SOL    HW219572   4.491   0.528  12.073 -0.6221 -0.0480 -0.1345
 2705SOL     OW19573   2.332   1.609   5.483 -0.2302 -1.1159 -0.4377
 2705SOL    HW119574   2.401   1.582   5.544  0.8800 -0.5350 -1.4319
 2705SOL    HW219575   2.392   1.630   5.412  0.2512 -0.6216  0.1113
 2706SOL     OW19576   2.480   1.304   3.971  0.5244 -0.0180 -0.2362
 2706SOL    HW119577   2.474   1.264   4.058 -2.0002  0.4330 -0.2153
 2706SOL    HW219578   2.556   1.362   3.969 -0.8553  1.7389 -0.5756
 2707SOL     OW19579   2.692   1.280  11.974 -0.2982 -0.2177  0.0031
 2707SOL    HW119580   2.675   1.374  11.966  0.3877 -0.3034 -2.2203
 2707SOL    HW219581   2.730   1.285  12.062 -0.7542  0.2513  0.1676
 2708SOL     OW19582   3.291   3.559   2.932  0.1085 -0.3978  0.3782
 2708SOL    HW119583   3.316   3.632   2.988 -1.7775  0.3409  0.2212
 2708SOL    HW219584   3.352   3.500   2.976 -1.9345 -2.7346  0.0682
 2709SOL     OW19585   1.409   4.456   0.875  0.3461 -0.3640  0.1935
 2709SOL    HW119586   1.362   4.537   0.897  0.2173 -0.2917 -0.3424
 2709SOL    HW219587   1.375   4.432   0.789  0.8652  0.3014 -0.1959
 2710SOL     OW19588   3.096   2.933   9.285 -0.1148  0.5671  0.2987
 2710SOL    HW119589   3.005   2.933   9.257 -0.1544 -0.4604  0.4284
 2710SOL    HW219590   3.127   3.022   9.269  0.3385  0.3131 -0.2501
 2711SOL     OW19591   0.816   2.158  16.463 -0.0893  0.5742  0.0870
 2711SOL    HW119592   0.760   2.086  16.491  0.5020  0.0753 -0.0007
 2711SOL    HW219593   0.885   2.123  16.520  0.8032 -0.5174 -1.6640
 2712SOL     OW19594   2.454   3.145  15.383 -0.4179  0.6093  0.1942
 2712SOL    HW119595   2.413   3.170  15.466  0.8382 -1.3420  1.4006
 2712SOL    HW219596   2.406   3.198  15.319  0.5266  2.0000  0.6437
 2713SOL     OW19597   3.246   2.958  16.741  0.1968  0.1524  0.0677
 2713SOL    HW119598   3.257   3.046  16.707  0.1114  0.1604  0.0633
 2713SOL    HW219599   3.339   2.950  16.765 -0.1085 -1.5588  0.6868
 2714SOL     OW19600   0.395   2.378   4.781  0.3560  0.9228  0.2272
 2714SOL    HW119601   0.432   2.302   4.826  1.7842  0.9792 -0.8434
 2714SOL    HW219602   0.463   2.390   4.714 -0.7166  0.2134 -0.9846
 2715SOL     OW19603   3.633   0.500  14.337 -0.4144  0.5370  0.0135
 2715SOL    HW119604   3.566   0.437  14.363  0.3224  0.3188  1.3593
 2715SOL    HW219605   3.632   0.564  14.408 -0.0662  0.3005  0.2302
 2716SOL     OW19606   3.113   4.524   2.956  0.1815 -0.0666 -0.8413
 2716SOL    HW119607   3.049   4.463   2.920 -0.2740 -0.0466 -0.0655
 2716SOL    HW219608   3.065   4.555   3.033 -0.4597 -2.1413 -0.3956
 2717SOL     OW19609   2.907   4.521   1.757 -0.1148 -0.2234  0.1687
 2717SOL    HW119610   2.820   4.520   1.798 -0.6861  0.3938 -1.0338
 2717SOL    HW219611   2.879   4.481   1.674 -0.0211  1.4360 -0.6467
 2718SOL     OW19612   4.008   2.722   7.805 -0.0981  0.2178 -0.2582
 2718SOL    HW119613   4.042   2.649   7.858 -1.8178 -0.7549 -0.4851
 2718SOL    HW219614   4.072   2.713   7.736 -0.0439 -0.9976 -0.0502
 2719SOL     OW19615   1.713   4.619  17.439  0.1625 -0.8112  0.1360
 2719SOL    HW119616   1.658   4.673  17.381  1.0394  0.8319  0.8215
 2719SOL    HW219617   1.756   4.684  17.495  1.1249 -0.0637 -1.4775
 2720SOL     OW19618   0.094   4.375   5.562 -0.1967  0.2611  0.2476
 2720SOL    HW119619   0.047   4.458   5.563  0.8271  0.8546 -1.7097
 2720SOL    HW219620   0.020   4.324   5.529 -0.0444 -0.4057  0.9424
 2721SOL     OW19621   3.882   0.018   3.405 -0.1517  0.1871 -0.4634
 2721SOL    HW119622   3.874   0.055   3.317 -1.4453 -0.0728 -0.4525
 2721SOL    HW219623   3.859   0.090   3.464  0.4361 -0.9925  1.2250
 2722SOL     OW19624   2.140   3.310   8.513  0.1681  0.4980  0.2284
 2722SOL    HW119625   2.217   3.365   8.527 -0.2273  0.6016  1.9224
 2722SOL    HW219626   2.082   3.368   8.562  1.1592  2.2716 -0.6811
 2723SOL     OW19627   4.559   1.758   8.361  0.5071  0.0148  0.1124
 2723SOL    HW119628   4.528   1.777   8.450  0.2635 -0.1770  0.0690
 2723SOL    HW219629   4.485   1.716   8.318  0.4421  0.0779  0.1616
 2724SOL     OW19630   2.758   2.411   6.612  0.0229 -0.1647 -0.0885
 2724SOL    HW119631   2.667   2.439   6.602  0.1674  0.4788  0.3837
 2724SOL    HW219632   2.774   2.423   6.706 -0.4595 -1.2091  0.1183
 2725SOL     OW19633   2.232   1.937   9.597  0.1640 -1.2295  0.3670
 2725SOL    HW119634   2.245   1.940   9.502  0.4091  0.7230  0.4556
 2725SOL    HW219635   2.252   1.844   9.604 -0.4800 -1.4252 -0.4632
 2726SOL     OW19636   1.423   1.351   1.080  0.0947 -0.2067  0.2037
 2726SOL    HW119637   1.377   1.361   0.997 -0.9634  3.5036  1.2388
 2726SOL    HW219638   1.508   1.388   1.055  0.2643 -0.7374 -0.0172
 2727SOL     OW19639   3.771   0.354   6.701 -0.1890 -0.2775  0.8086
 2727SOL    HW119640   3.845   0.414   6.691  1.3191 -2.1781  0.5766
 2727SOL    HW219641   3.700   0.383   6.643  1.4206 -1.0585 -1.5775
 2728SOL     OW19642   0.313   3.885   2.399  0.2777 -0.4773  0.1454
 2728SOL    HW119643   0.375   3.900   2.327 -0.1951 -0.8283 -0.3317
 2728SOL    HW219644   0.326   3.794   2.424  0.9496 -0.5641 -0.5236
 2729SOL     OW19645   1.226   1.876   8.698 -0.2100 -0.2519  0.0418
 2729SOL    HW119646   1.164   1.948   8.686  0.5565  0.8758  2.8638
 2729SOL    HW219647   1.266   1.891   8.783  1.0038 -0.1466 -0.5499
 2730SOL     OW19648   2.975   0.987  17.578 -0.4029 -0.0759 -0.2576
 2730SOL    HW119649   2.909   0.931  17.620  0.1456 -0.3626  0.2233
 2730SOL    HW219650   2.926   1.068  17.565 -1.0259 -0.8714 -2.8387
 2731SOL     OW19651   3.712   0.758   4.351 -0.1535  0.1636 -0.4872
 2731SOL    HW119652   3.634   0.703   4.346  1.5862 -2.1991 -2.1317
 2731SOL    HW219653   3.673   0.845   4.352  0.4454  0.4247  0.5190
 2732SOL     OW19654   2.028   1.036  13.309  0.3601  0.7220 -0.3798
 2732SOL    HW119655   2.090   0.967  13.334  0.1329 -0.4086 -2.9198
 2732SOL    HW219656   2.095   1.103  13.290  1.3408 -0.2669 -0.3980
 2733SOL     OW19657   4.040   0.849   7.624  0.2986  0.0912  0.0942
 2733SOL    HW119658   4.075   0.779   7.679  1.3095 -0.7242 -1.5826
 2733SOL    HW219659   4.069   0.811   7.541 -0.5762 -0.9729  0.2779
 2734SOL     OW19660   2.255   1.852   2.922  0.1292 -0.8816 -0.6006
 2734SOL    HW119661   2.193   1.788   2.887 -0.8367  0.3484 -1.1426
 2734SOL    HW219662   2.247   1.926   2.861  0.0526  0.3470  0.8955
 2735SOL     OW19663   3.792   1.304  11.504 -0.4059 -0.6825 -0.3849
 2735SOL    HW119664   3.850   1.268  11.572 -0.2886  0.4830  0.1262
 2735SOL    HW219665   3.851   1.366  11.461  0.7960  0.1973  2.4832
 2736SOL     OW19666   4.073   0.454  11.695  0.1179  0.1868  0.2429
 2736SOL    HW119667   4.086   0.545  11.722 -1.8611  0.5569 -0.0517
 2736SOL    HW219668   4.146   0.408  11.736  1.3082  1.3322 -0.5833
 2737SOL     OW19669   3.636   3.182  10.422  0.0477 -0.3520 -0.0402
 2737SOL    HW119670   3.680   3.168  10.506  0.5071 -1.1867 -0.4247
 2737SOL    HW219671   3.710   3.159  10.367 -0.9125 -3.5683 -0.0217
 2738SOL     OW19672   1.596   2.962  14.091 -0.0851  0.2488 -0.0230
 2738SOL    HW119673   1.664   2.907  14.050  0.1250 -1.0680  2.0810
 2738SOL    HW219674   1.638   3.048  14.087  0.5332 -0.0443  0.0704
 2739SOL     OW19675   1.093   3.806   5.227  0.2875 -0.1136 -0.5296
 2739SOL    HW119676   1.035   3.798   5.152 -1.1494  0.3068  0.5408
 2739SOL    HW219677   1.136   3.722   5.244 -0.8478 -0.6490 -0.3426
 2740SOL     OW19678   3.002   4.336  14.907 -0.2202 -0.3996 -0.2371
 2740SOL    HW119679   3.089   4.297  14.898  0.8241  2.0254 -0.8930
 2740SOL    HW219680   2.941   4.263  14.909 -0.6582 -0.0495 -0.7077
 2741SOL     OW19681   2.647   3.362   9.620  0.4209 -0.5801 -0.4671
 2741SOL    HW119682   2.724   3.330   9.667 -0.4549 -3.2162 -0.8344
 2741SOL    HW219683   2.591   3.287   9.640 -2.9040  1.8838 -0.5566
 2742SOL     OW19684   3.063   1.444   4.989 -0.3453 -0.4625  1.1304
 2742SOL    HW119685   3.021   1.449   4.903  0.3087 -1.6690  0.7384
 2742SOL    HW219686   3.153   1.469   4.971 -0.2559  0.1238  2.3795
 2743SOL     OW19687   3.274   4.342   6.954 -0.7186  0.1650 -0.3699
 2743SOL    HW119688   3.354   4.294   6.930 -1.4189 -0.7647 -0.8623
 2743SOL    HW219689   3.323   4.420   6.978 -0.4621 -0.1102  0.0057
 2744SOL     OW19690   1.990   4.368  17.512 -0.1272 -0.0641  0.3243
 2744SOL    HW119691   2.058   4.397  17.573  0.9346 -0.6637 -0.5878
 2744SOL    HW219692   2.027   4.313  17.444 -0.1165 -0.6966  0.8402
 2745SOL     OW19693   3.206   1.082  15.844  0.5231 -0.6924 -0.7625
 2745SOL    HW119694   3.243   1.016  15.903 -0.3827 -0.0930  0.4817
 2745SOL    HW219695   3.177   1.152  15.903 -0.4517 -2.7348  1.1919
 2746SOL     OW19696   1.390   3.228   7.952 -0.2255 -0.0920  0.6502
 2746SOL    HW119697   1.394   3.323   7.956  0.1668 -0.0936  0.2467
 2746SOL    HW219698   1.440   3.221   8.033  1.3144 -0.4461 -0.3243
 2747SOL     OW19699   2.363   4.275   4.838  0.3232 -0.4088  0.2921
 2747SOL    HW119700   2.449   4.308   4.864 -0.8284  2.4644  0.4833
 2747SOL    HW219701   2.321   4.273   4.924 -2.1363 -1.4176 -0.9438
 2748SOL     OW19702   3.930   1.402   5.712 -0.1867  0.1321  0.7364
 2748SOL    HW119703   3.900   1.363   5.794 -1.2033 -0.9111 -0.1176
 2748SOL    HW219704   4.019   1.368   5.698  0.9207  1.7764  3.9898
 2749SOL     OW19705   0.390   3.366   0.381 -0.0574  0.2614  0.2122
 2749SOL    HW119706   0.466   3.309   0.370  0.0890  0.1327  1.9329
 2749SOL    HW219707   0.413   3.441   0.325  0.8511 -0.3109 -0.1853
 2750SOL     OW19708   4.194   0.557  11.023  0.6729  0.0187  0.1615
 2750SOL    HW119709   4.257   0.628  11.016  1.6595 -0.9242 -0.5369
 2750SOL    HW219710   4.142   0.577  11.101  2.6683  0.7126  1.3122
 2751SOL     OW19711   1.040   1.547   9.242 -0.5064 -0.0995  0.1448
 2751SOL    HW119712   1.008   1.503   9.162  1.5252 -3.1008  0.9701
 2751SOL    HW219713   1.129   1.566   9.213 -0.0754 -1.4900  0.5607
 2752SOL     OW19714   3.951   3.435  17.512 -0.1673  0.0891 -0.1316
 2752SOL    HW119715   3.942   3.474  17.600 -1.3464 -2.0522  0.6935
 2752SOL    HW219716   3.948   3.513  17.457 -0.1191  1.6207  1.9925
 2753SOL     OW19717   0.527   0.220   6.093 -0.6758  0.2284 -0.0137
 2753SOL    HW119718   0.582   0.278   6.146  1.5825 -0.7118 -1.3487
 2753SOL    HW219719   0.559   0.139   6.134  3.3104  0.5825 -2.5046
 2754SOL     OW19720   3.102   1.149   6.688 -0.6901 -0.6574  0.9115
 2754SOL    HW119721   3.172   1.212   6.669  0.1446 -1.2447  2.0942
 2754SOL    HW219722   3.132   1.066   6.651 -2.4931 -0.4568 -1.0467
 2755SOL     OW19723   2.917   1.180   3.911 -0.2276 -0.6509  0.1910
 2755SOL    HW119724   2.868   1.161   3.831  0.1423 -1.1097  0.0741
 2755SOL    HW219725   2.987   1.116   3.896 -0.8805 -1.2009 -0.5109
 2756SOL     OW19726   1.238   2.020   6.327  0.0400 -0.0207  0.3668
 2756SOL    HW119727   1.216   2.113   6.331 -0.8295 -0.0927 -2.8117
 2756SOL    HW219728   1.162   1.964   6.344  2.3178 -3.4752 -0.9436
 2757SOL     OW19729   2.648   2.845  10.100  0.0102  0.1745 -0.4864
 2757SOL    HW119730   2.625   2.839  10.007 -2.5704  1.1559  0.0840
 2757SOL    HW219731   2.607   2.763  10.128 -0.0723  0.4084  0.0678
 2758SOL     OW19732   3.039   0.925   5.814 -0.2446 -0.1023 -0.4059
 2758SOL    HW119733   3.018   1.005   5.862 -0.2747 -0.8760  0.8566
 2758SOL    HW219734   2.965   0.926   5.754 -1.1522 -1.5249  0.7027
 2759SOL     OW19735   2.379   1.521  12.646  0.0654  0.1652  0.2280
 2759SOL    HW119736   2.329   1.557  12.718 -3.9953 -1.0785 -1.9824
 2759SOL    HW219737   2.450   1.475  12.691 -1.8146 -2.2384  0.7620
 2760SOL     OW19738   0.103   3.343  10.206  0.2340  0.0727  0.4675
 2760SOL    HW119739   0.192   3.312  10.187  0.1475  0.2481 -0.2120
 2760SOL    HW219740   0.060   3.288  10.271 -0.7592  0.6224  0.2693
 2761SOL     OW19741   0.713   4.035   5.531 -0.3279 -0.4680 -0.5566
 2761SOL    HW119742   0.707   4.095   5.606  0.4193  0.8132 -1.5246
 2761SOL    HW219743   0.802   4.001   5.542 -0.2052 -0.0717 -0.3064
 2762SOL     OW19744   0.947   4.652   5.740  0.7134 -0.4158  0.4863
 2762SOL    HW119745   0.951   4.586   5.672  1.7117 -0.1559  0.2923
 2762SOL    HW219746   1.041   4.660   5.752  0.7501 -0.7272  0.3966
 2763SOL     OW19747   4.312   2.925  10.084  0.0689  0.1359  0.0581
 2763SOL    HW119748   4.263   2.877  10.151 -0.5880 -0.5076 -0.8817
 2763SOL    HW219749   4.288   2.867  10.011  2.0598  1.8379 -1.9525
 2764SOL     OW19750   0.804   3.132  10.973  0.1257  0.1519  0.2745
 2764SOL    HW119751   0.765   3.219  10.973  0.1944  0.1824  0.3867
 2764SOL    HW219752   0.755   3.082  10.908  1.4242  2.3280 -2.3807
 2765SOL     OW19753   4.537   4.427   3.937  0.2508  0.3303 -0.0172
 2765SOL    HW119754   4.520   4.347   3.889  0.0824  0.5082 -0.2525
 2765SOL    HW219755   4.556   4.387   4.022 -1.1437 -1.1283 -0.4067
 2766SOL     OW19756   0.687   3.065   5.819 -0.5873 -0.1885  0.1877
 2766SOL    HW119757   0.624   3.020   5.764 -2.1349  2.1944 -0.0197
 2766SOL    HW219758   0.639   3.137   5.860 -0.4793 -0.4106  0.7076
 2767SOL     OW19759   2.734   4.536   7.863 -0.3792  0.4920 -0.1666
 2767SOL    HW119760   2.687   4.566   7.941  0.3185 -0.3232  0.5694
 2767SOL    HW219761   2.702   4.448   7.843  1.3024 -0.0621 -0.4263
 2768SOL     OW19762   1.771   3.613  11.573 -0.0576 -0.0941  0.6152
 2768SOL    HW119763   1.708   3.585  11.639 -1.4423 -0.8941 -1.0341
 2768SOL    HW219764   1.824   3.533  11.570 -1.8889 -1.3328  1.1578
 2769SOL     OW19765   1.437   4.057  10.879  0.0146 -0.1429  0.8037
 2769SOL    HW119766   1.531   4.044  10.884  0.1787  0.9306  0.5159
 2769SOL    HW219767   1.426   4.110  10.959  1.3655  0.2769  0.7098
 2770SOL     OW19768   3.407   4.688  10.313  0.4317 -0.1621  0.3095
 2770SOL    HW119769   3.378   4.613  10.364 -0.8808 -0.2770 -0.6022
 2770SOL    HW219770   3.358   4.661  10.234  3.0519  0.6314 -1.5847
 2771SOL     OW19771   0.226   2.941  11.185 -0.3931 -0.0217  0.6040
 2771SOL    HW119772   0.168   2.908  11.255 -1.5956 -2.7392 -1.6691
 2771SOL    HW219773   0.300   2.881  11.196  2.5677  3.7375  1.1548
 2772SOL     OW19774   2.076   2.357   2.287 -0.0712  0.1878  0.2658
 2772SOL    HW119775   2.143   2.287   2.286 -0.0215  0.2145  2.3498
 2772SOL    HW219776   2.115   2.416   2.351 -0.2905  0.0427  0.5311
 2773SOL     OW19777   4.025   0.986   3.658  0.4183  0.5596 -0.7151
 2773SOL    HW119778   4.107   0.949   3.624  0.9011  1.5253 -0.5809
 2773SOL    HW219779   4.025   0.929   3.735 -0.2487  0.0588 -1.0840
 2774SOL     OW19780   4.353   0.529   4.041 -0.3423  0.5037 -0.0642
 2774SOL    HW119781   4.401   0.527   4.124  0.8553  1.2624 -0.7411
 2774SOL    HW219782   4.325   0.437   4.039 -2.4596  1.1646  0.1572
 2775SOL     OW19783   0.489   0.365   5.226  0.3694 -0.5707  0.1656
 2775SOL    HW119784   0.510   0.407   5.309  0.1528  0.1299 -0.1334
 2775SOL    HW219785   0.551   0.293   5.217  0.9923 -0.2645  1.9885
 2776SOL     OW19786   1.246   1.237   6.055  0.5722 -0.2105 -0.3897
 2776SOL    HW119787   1.212   1.187   6.130 -2.0867  0.3842 -1.2137
 2776SOL    HW219788   1.255   1.317   6.107  0.0154  0.2082 -0.9408
 2777SOL     OW19789   4.692   3.771  14.263  1.0440 -0.4643  0.2026
 2777SOL    HW119790   4.675   3.677  14.267  0.9212 -0.3925  1.4392
 2777SOL    HW219791   0.051   3.786  14.313  1.8793 -0.0956 -1.2341
 2778SOL     OW19792   2.948   2.123  13.584 -0.4136 -0.0281  0.4034
 2778SOL    HW119793   3.043   2.113  13.595 -0.2940 -0.1542 -0.7037
 2778SOL    HW219794   2.939   2.218  13.586 -1.8725 -0.2204  2.6969
 2779SOL     OW19795   2.501   0.349   7.371 -0.0227 -0.0620 -0.0856
 2779SOL    HW119796   2.483   0.256   7.385  1.2060  0.1930  3.0867
 2779SOL    HW219797   2.412   0.385   7.376 -0.5910 -1.4522 -0.2884
 2780SOL     OW19798   2.273   1.964   2.453  0.2767 -0.3349 -0.7288
 2780SOL    HW119799   2.268   2.010   2.537  2.1645 -2.6133  0.6159
 2780SOL    HW219800   2.299   1.877   2.483  1.2466  0.1382 -0.1998
 2781SOL     OW19801   2.919   3.587   7.724 -0.6400 -0.2136  0.2449
 2781SOL    HW119802   2.926   3.635   7.806 -0.5066  1.0060 -0.4745
 2781SOL    HW219803   3.005   3.546   7.730 -2.0667 -2.7594  2.8110
 2782SOL     OW19804   0.210   2.603   4.729 -0.1819  0.1848 -0.0692
 2782SOL    HW119805   0.261   2.535   4.772  0.7032  2.0261  1.7781
 2782SOL    HW219806   0.124   2.565   4.748 -0.7978  3.2553  3.3724
 2783SOL     OW19807   4.461   3.841   3.331 -0.2916  0.1480 -0.1645
 2783SOL    HW119808   4.482   3.935   3.325  0.5289 -0.2076 -2.6917
 2783SOL    HW219809   4.370   3.830   3.303  0.3019 -3.6958 -0.5549
 2784SOL     OW19810   4.172   0.809   6.554 -0.1282 -0.0213 -0.6495
 2784SOL    HW119811   4.091   0.849   6.522 -0.0166  1.7317  1.2350
 2784SOL    HW219812   4.144   0.747   6.621 -0.2062 -0.1388 -0.7920
 2785SOL     OW19813   4.524   3.302   5.771 -0.2944 -0.6923 -0.1342
 2785SOL    HW119814   4.501   3.395   5.776  0.7378 -0.4027 -0.8511
 2785SOL    HW219815   4.436   3.268   5.791 -1.0690  0.0719 -2.1453
 2786SOL     OW19816   2.939   4.180   8.373  0.1261 -0.0665 -0.1015
 2786SOL    HW119817   2.974   4.100   8.413 -3.1485 -1.4110  0.1642
 2786SOL    HW219818   2.955   4.147   8.285 -0.8337  3.4762 -1.5853
 2787SOL     OW19819   0.975   2.128  16.828  0.4421  0.3739  0.1332
 2787SOL    HW119820   0.993   2.062  16.894  0.5998  0.1334 -0.1524
 2787SOL    HW219821   0.963   2.074  16.749 -0.1208 -0.6670  0.9321
 2788SOL     OW19822   2.619   4.674   8.191 -0.1177 -0.6726 -0.2882
 2788SOL    HW119823   2.714   4.670   8.201 -0.0987  1.3358  0.3431
 2788SOL    HW219824   2.591   4.704   8.278 -0.2097 -3.0190  0.5043
 2789SOL     OW19825   2.049   2.569   6.508 -0.2606 -0.1179 -1.0931
 2789SOL    HW119826   1.957   2.543   6.510  0.1557 -1.5594 -0.2496
 2789SOL    HW219827   2.050   2.656   6.469  0.4878 -0.0992 -1.0359
 2790SOL     OW19828   2.335   0.819   3.292 -0.5637 -0.0098 -0.3924
 2790SOL    HW119829   2.425   0.787   3.287  0.0006  1.5852 -0.1897
 2790SOL    HW219830   2.320   0.870   3.213  0.9628 -0.5979 -1.0650
 2791SOL     OW19831   1.918   4.612   2.493  0.5934  0.0422 -0.7037
 2791SOL    HW119832   2.007   4.579   2.504  0.2325 -1.0112 -0.8522
 2791SOL    HW219833   1.894   4.623   2.586  1.6573 -0.3370 -0.3851
 2792SOL     OW19834   3.127   2.723  11.609  0.5432 -0.3394 -0.0901
 2792SOL    HW119835   3.179   2.717  11.528 -1.6572  1.5732 -1.6145
 2792SOL    HW219836   3.147   2.641  11.655 -1.1175  0.2201  1.6094
 2793SOL     OW19837   1.357   2.449  14.433  0.1519  0.0603 -0.0565
 2793SOL    HW119838   1.395   2.362  14.419  1.7353  1.1717 -2.6700
 2793SOL    HW219839   1.411   2.476  14.507  1.6801 -0.4603 -0.9811
 2794SOL     OW19840   1.603   1.254   0.805  1.0203 -0.0345  0.2963
 2794SOL    HW119841   1.575   1.321   0.742  2.1445 -0.0382 -0.2134
 2794SOL    HW219842   1.573   1.174   0.763 -0.8979  0.4893  0.6571
 2795SOL     OW19843   0.546   3.130  12.810  0.0907  0.4543 -0.2224
 2795SOL    HW119844   0.604   3.177  12.750  1.0426  2.1696  2.0728
 2795SOL    HW219845   0.582   3.042  12.802 -0.7004  0.1339 -0.3235
 2796SOL     OW19846   1.487   4.367   0.437 -0.7009 -0.0101  0.3132
 2796SOL    HW119847   1.538   4.448   0.442  0.2880 -0.5415 -1.4448
 2796SOL    HW219848   1.411   4.391   0.490 -0.2166 -0.9119  1.4394
 2797SOL     OW19849   1.451   4.305  17.266 -0.0098 -0.4205 -0.1364
 2797SOL    HW119850   1.475   4.345  17.349 -1.3663 -0.5398  0.3120
 2797SOL    HW219851   1.450   4.387  17.216  0.6335 -1.4781 -1.8968
 2798SOL     OW19852   2.689   1.159   4.537  0.5278 -0.5860 -0.2180
 2798SOL    HW119853   2.668   1.070   4.510 -0.8408 -0.4616  0.4423
 2798SOL    HW219854   2.602   1.193   4.555  0.9241  0.1001  0.4410
 2799SOL     OW19855   3.846   0.856  17.567  0.0814 -0.0042  0.0396
 2799SOL    HW119856   3.834   0.869  17.661 -2.7689 -3.1991  0.0832
 2799SOL    HW219857   3.824   0.938  17.523 -1.3989 -0.9119 -0.9076
 2800SOL     OW19858   3.770   1.873  12.641  0.0844  0.4849 -0.3523
 2800SOL    HW119859   3.785   1.887  12.735 -2.2584 -1.2556  0.2561
 2800SOL    HW219860   3.760   1.961  12.604  2.0004  0.1499 -1.6886
 2801SOL     OW19861   1.770   3.938   3.618  0.2115 -0.0929  0.4191
 2801SOL    HW119862   1.750   4.032   3.621  1.7653  0.3148 -1.2854
 2801SOL    HW219863   1.779   3.932   3.523 -2.1964  2.3633  0.0512
 2802SOL     OW19864   3.585   0.954   3.077 -0.1923 -0.3680 -0.5429
 2802SOL    HW119865   3.548   1.041   3.068 -2.0169 -1.1493 -0.5829
 2802SOL    HW219866   3.623   0.963   3.165 -0.0392  0.0625 -0.6537
 2803SOL     OW19867   1.156   1.657  16.696 -0.1164 -0.0465  0.1691
 2803SOL    HW119868   1.104   1.605  16.635 -0.6668  0.2840  0.3573
 2803SOL    HW219869   1.207   1.593  16.746 -0.8056 -1.3549 -0.7996
 2804SOL     OW19870   2.634   3.170  14.157 -0.0642 -0.1842 -0.3792
 2804SOL    HW119871   2.708   3.179  14.217  0.3652 -2.0483 -0.6323
 2804SOL    HW219872   2.557   3.168  14.214 -0.4842 -0.0934 -0.9403
 2805SOL     OW19873   3.216   3.758   4.648  0.1596  0.2368  0.1464
 2805SOL    HW119874   3.192   3.784   4.559  0.7765 -0.8237 -0.3372
 2805SOL    HW219875   3.310   3.740   4.637 -0.0573 -0.5825 -0.3827
 2806SOL     OW19876   0.109   2.156  11.477 -0.6124 -0.1622 -0.1050
 2806SOL    HW119877   0.174   2.110  11.423  0.9408 -0.2256  1.8240
 2806SOL    HW219878   0.052   2.202  11.416  3.4514  2.9537 -1.5609
 2807SOL     OW19879   0.739   4.288  16.885 -0.0077  0.3487 -0.3967
 2807SOL    HW119880   0.711   4.197  16.878 -0.2671  0.3700  0.3289
 2807SOL    HW219881   0.745   4.295  16.980  0.4862 -0.0232 -0.4000
 2808SOL     OW19882   1.221   2.643  10.445 -0.0855 -0.2628  0.0555
 2808SOL    HW119883   1.267   2.669  10.365  2.3032 -0.9328  1.2257
 2808SOL    HW219884   1.196   2.730  10.476 -0.4785 -0.0391 -0.8871
 2809SOL     OW19885   1.065   1.388   8.574  0.2650  0.2943 -0.2307
 2809SOL    HW119886   1.046   1.363   8.665  2.9998 -2.5655 -0.3988
 2809SOL    HW219887   1.018   1.469   8.558  0.4607  0.7102  1.2380
 2810SOL     OW19888   3.430   1.986   9.082 -0.7559 -0.7116  0.5205
 2810SOL    HW119889   3.370   1.944   9.143 -2.0604 -1.6154 -1.3971
 2810SOL    HW219890   3.451   2.068   9.127  1.6218 -1.6175  1.0525
 2811SOL     OW19891   0.888   2.168   7.102 -0.0356 -0.0995  0.0567
 2811SOL    HW119892   0.941   2.236   7.143  1.3206 -0.4721 -1.0583
 2811SOL    HW219893   0.933   2.146   7.020 -2.5702 -0.3557 -1.2604
 2812SOL     OW19894   1.890   2.474  10.490 -0.1013 -0.1060 -0.1838
 2812SOL    HW119895   1.915   2.492  10.399 -2.4784 -2.4500 -1.2937
 2812SOL    HW219896   1.800   2.504  10.490  0.6541  2.1925  0.0022
 2813SOL     OW19897   3.956   1.900   8.846 -0.3639  0.1805  0.0159
 2813SOL    HW119898   3.915   1.890   8.932  2.7317 -0.5564  1.4165
 2813SOL    HW219899   3.911   1.831   8.799 -0.1181  0.0508 -0.0262
 2814SOL     OW19900   3.854   0.172   3.948 -0.7762 -0.2819  0.7112
 2814SOL    HW119901   3.927   0.124   3.988 -0.4268 -1.2793 -1.1749
 2814SOL    HW219902   3.905   0.244   3.909 -2.3051  0.1501 -0.4724
 2815SOL     OW19903   3.908   4.230   8.432 -0.1601 -0.3085 -0.1313
 2815SOL    HW119904   3.964   4.276   8.370  2.5346 -0.6716  2.0016
 2815SOL    HW219905   3.962   4.160   8.467 -0.4149 -0.0891  0.7235
 2816SOL     OW19906   2.242   3.665   5.683  0.3083  0.5402 -0.1652
 2816SOL    HW119907   2.288   3.675   5.766  0.8472  3.1801 -0.7491
 2816SOL    HW219908   2.229   3.756   5.654  3.1388  1.0425  0.1572
 2817SOL     OW19909   3.382   4.447   8.938  0.1561 -0.4375  0.6935
 2817SOL    HW119910   3.380   4.352   8.924 -1.6701 -0.0587 -1.6456
 2817SOL    HW219911   3.289   4.471   8.929  1.2872  2.7497 -2.2251
 2818SOL     OW19912   0.949   3.120   5.878 -0.2894  0.0042  0.1630
 2818SOL    HW119913   0.940   3.215   5.888 -1.2310 -0.0974  0.2709
 2818SOL    HW219914   0.857   3.097   5.891 -0.3005 -0.1880 -0.2562
 2819SOL     OW19915   3.983   2.484   4.318  1.5301 -0.0121  0.3365
 2819SOL    HW119916   3.923   2.428   4.367 -1.0313 -0.1909 -2.9913
 2819SOL    HW219917   4.055   2.473   4.381  1.5158 -0.4948  0.2707
 2820SOL     OW19918   3.727   4.212   1.835 -0.0645 -0.3944 -0.0031
 2820SOL    HW119919   3.644   4.165   1.830 -1.4770  2.2407 -1.3011
 2820SOL    HW219920   3.793   4.142   1.835  0.7566  0.3745  1.8945
 2821SOL     OW19921   2.738   1.240   8.941  0.2254  0.1126 -0.0432
 2821SOL    HW119922   2.735   1.280   9.028 -0.2843  0.4707 -0.2284
 2821SOL    HW219923   2.825   1.199   8.935  0.5761  0.6976  0.9901
 2822SOL     OW19924   2.064   3.115  14.813  0.4019  0.1124  0.1702
 2822SOL    HW119925   2.092   3.189  14.868 -0.1013  0.5812 -0.2056
 2822SOL    HW219926   1.974   3.096  14.841  0.9607 -1.8524  0.6570
 2823SOL     OW19927   1.713   4.643   9.240 -0.1669 -0.1682  0.1526
 2823SOL    HW119928   1.729   4.600   9.324 -1.2780 -0.9720 -0.0467
 2823SOL    HW219929   1.756   4.571   9.195  0.1167 -1.1643  2.0055
 2824SOL     OW19930   1.161   4.137   8.747 -0.2795 -0.1862  0.2847
 2824SOL    HW119931   1.101   4.071   8.781  0.7589 -0.6550  1.2356
 2824SOL    HW219932   1.220   4.140   8.823 -0.7026  1.0409  0.5644
 2825SOL     OW19933   0.320   1.029  12.236 -0.0763  0.2616 -0.8281
 2825SOL    HW119934   0.379   1.009  12.309 -0.3740  2.0955 -0.0663
 2825SOL    HW219935   0.292   1.111  12.278 -1.0614 -0.8863  0.7490
 2826SOL     OW19936   1.145   0.838   4.651 -0.4769  0.2166 -0.4984
 2826SOL    HW119937   1.146   0.880   4.565  0.3631 -0.5313 -0.8460
 2826SOL    HW219938   1.214   0.773   4.641  2.7536  3.2890  1.8025
 2827SOL     OW19939   2.615   2.658   5.277  0.1663  0.0019 -0.3614
 2827SOL    HW119940   2.583   2.575   5.242  0.3689 -0.6933  1.0979
 2827SOL    HW219941   2.546   2.684   5.338  1.4798  0.8700  0.7824
 2828SOL     OW19942   1.467   1.347   3.564  0.5905 -0.3500  0.6444
 2828SOL    HW119943   1.559   1.325   3.551  0.4280 -1.1680  0.9023
 2828SOL    HW219944   1.451   1.404   3.488  0.3837 -1.9261 -0.4944
 2829SOL     OW19945   0.150   4.116   5.807 -0.2283  0.6373 -0.5365
 2829SOL    HW119946   0.126   4.165   5.728 -0.8403 -0.1078 -0.8176
 2829SOL    HW219947   0.199   4.179   5.860  1.0194 -1.4049  0.7196
 2830SOL     OW19948   2.662   4.186   3.392  0.2292 -0.2776 -0.4716
 2830SOL    HW119949   2.689   4.096   3.375 -1.3027 -0.1636 -3.4173
 2830SOL    HW219950   2.569   4.173   3.371  0.0142  1.9166 -0.8340
 2831SOL     OW19951   1.155   3.391   5.491  0.0702  0.0916 -0.6643
 2831SOL    HW119952   1.178   3.455   5.559 -2.5653 -0.7817  1.0494
 2831SOL    HW219953   1.059   3.394   5.485  0.0394 -3.2696 -1.6138
 2832SOL     OW19954   0.980   3.868   3.521 -0.0087  0.0976 -0.6540
 2832SOL    HW119955   0.913   3.917   3.473 -0.1402 -1.1152 -1.7112
 2832SOL    HW219956   1.043   3.873   3.449  0.2880  1.4671 -0.2892
 2833SOL     OW19957   3.724   3.519   7.669  0.0187 -0.1544 -0.1872
 2833SOL    HW119958   3.716   3.614   7.661 -1.4136 -0.4293 -2.1231
 2833SOL    HW219959   3.676   3.481   7.596  0.2936 -0.8742  0.0098
 2834SOL     OW19960   3.319   0.251   4.933 -0.4895 -0.1420 -0.5099
 2834SOL    HW119961   3.342   0.193   5.005  0.4399  0.4020 -0.3681
 2834SOL    HW219962   3.331   0.181   4.869  0.7940 -1.3499  1.0534
 2835SOL     OW19963   2.676   1.224   1.163  0.2739  0.5166  0.4766
 2835SOL    HW119964   2.699   1.315   1.183  1.1758  0.7754 -1.7359
 2835SOL    HW219965   2.594   1.220   1.212  0.5572  1.1662  0.9990
 2836SOL     OW19966   0.458   3.522   9.370 -0.5397 -0.2369 -0.4674
 2836SOL    HW119967   0.493   3.438   9.338  1.3387  0.7830 -1.0740
 2836SOL    HW219968   0.488   3.517   9.460 -0.7173  1.7654 -0.3013
 2837SOL     OW19969   4.032   1.468   5.327 -0.0952  0.1964 -0.1576
 2837SOL    HW119970   4.065   1.404   5.389 -0.4885 -0.6021 -0.7763
 2837SOL    HW219971   4.102   1.533   5.319 -0.2159  0.0993 -2.0864
 2838SOL     OW19972   3.368   1.598   8.239 -0.0395  0.6578 -0.5551
 2838SOL    HW119973   3.295   1.656   8.220 -2.3625 -1.8113  0.8794
 2838SOL    HW219974   3.335   1.518   8.199  0.0112  1.5419 -2.3818
 2839SOL     OW19975   3.540   2.939  10.579  0.0437 -0.1235  0.7291
 2839SOL    HW119976   3.572   3.027  10.597 -0.0809  0.5109 -2.0718
 2839SOL    HW219977   3.594   2.913  10.504  0.0839  0.7609  0.4552
 2840SOL     OW19978   0.985   2.295   9.787 -0.0168 -0.3538 -0.6152
 2840SOL    HW119979   0.916   2.266   9.847 -0.1133 -1.4130 -1.2361
 2840SOL    HW219980   0.965   2.259   9.701  2.0170 -2.2204 -0.3265
 2841SOL     OW19981   3.359   1.004   0.615 -0.1319  0.5240 -0.5534
 2841SOL    HW119982   3.382   0.949   0.690  1.7395  1.6575 -0.3186
 2841SOL    HW219983   3.265   0.987   0.618 -0.0714  0.3406  0.2561
 2842SOL     OW19984   4.077   3.306   6.055 -0.0289  0.0233 -0.2075
 2842SOL    HW119985   4.112   3.367   6.119  0.4170 -1.1116  0.6327
 2842SOL    HW219986   3.988   3.280   6.081 -0.6616  1.4962 -0.8859
 2843SOL     OW19987   1.417   1.354   3.060 -0.6666 -0.4170  0.9527
 2843SOL    HW119988   1.323   1.365   3.050 -0.9186 -1.3505  2.2175
 2843SOL    HW219989   1.455   1.391   2.980  2.8089  1.1823  3.2971
 2844SOL     OW19990   1.492   3.451  14.930 -0.3255  0.1694 -0.2775
 2844SOL    HW119991   1.508   3.544  14.916  1.6759 -0.1567 -0.1561
 2844SOL    HW219992   1.426   3.437  14.862 -0.3282 -1.2406  0.0188
 2845SOL     OW19993   4.012   1.020   5.907  0.3236  0.1465  0.0033
 2845SOL    HW119994   4.027   0.925   5.913  3.2520  0.7387  1.9055
 2845SOL    HW219995   3.920   1.026   5.882  0.1625 -0.4691  0.4594
 2846SOL     OW19996   0.842   3.757   7.208 -0.0650  0.0042 -0.5455
 2846SOL    HW119997   0.766   3.712   7.243 -2.1600  3.3447 -0.7644
 2846SOL    HW219998   0.817   3.845   7.235  2.7899  0.7817 -0.4835
 2847SOL     OW19999   2.986   1.465   6.639 -0.1491 -0.2712  0.3404
 2847SOL    HW120000   2.996   1.468   6.734 -2.3328  1.8502  0.4878
 2847SOL    HW220001   2.916   1.529   6.627 -0.0206 -0.8923 -3.6257
 2848SOL     OW20002   0.837   1.336   3.121  0.7994 -0.2054  0.1316
 2848SOL    HW120003   0.902   1.270   3.146 -0.0618 -1.0723  0.1125
 2848SOL    HW220004   0.878   1.420   3.143 -0.2923 -0.1343  1.9460
 2849SOL     OW20005   1.488   2.550  16.982 -0.8798  0.0281 -0.1200
 2849SOL    HW120006   1.452   2.492  17.049  1.2552  0.9588  1.8203
 2849SOL    HW220007   1.451   2.634  17.006 -2.0822 -0.5250 -0.0480
 2850SOL     OW20008   0.297   0.889   4.080  0.0926  0.3553  0.2653
 2850SOL    HW120009   0.255   0.837   4.149 -3.7610  1.4394 -1.2604
 2850SOL    HW220010   0.267   0.978   4.095 -0.1141  0.7473 -2.5031
 2851SOL     OW20011   4.615   3.526   9.804  0.2303 -0.3537  0.3190
 2851SOL    HW120012   4.620   3.431   9.802 -4.3585 -0.6908  3.5812
 2851SOL    HW220013   4.594   3.544   9.896 -0.1797 -0.7815  0.3053
 2852SOL     OW20014   4.147   2.329   6.574 -0.0236 -0.1702  0.3725
 2852SOL    HW120015   4.114   2.262   6.515 -1.8002  1.9403 -0.9960
 2852SOL    HW220016   4.239   2.303   6.585  0.3041  1.6007  1.8652
 2853SOL     OW20017   3.783   3.818   4.585  0.4416 -0.3560 -0.7210
 2853SOL    HW120018   3.859   3.782   4.631 -0.1510  0.6048  1.0019
 2853SOL    HW220019   3.828   3.847   4.505  0.7104  1.3287  0.0337
 2854SOL     OW20020   2.360   1.746  10.229 -0.2671 -0.4173  0.2838
 2854SOL    HW120021   2.413   1.722  10.305  2.1563  0.4735 -1.1249
 2854SOL    HW220022   2.284   1.776  10.279  0.4725 -0.1070  1.2235
 2855SOL     OW20023   3.068   3.743   8.686 -0.0530 -0.2159 -0.1868
 2855SOL    HW120024   3.086   3.651   8.705  0.0595 -0.6935 -2.5782
 2855SOL    HW220025   2.973   3.748   8.696  0.0080  1.5383 -0.4196
 2856SOL     OW20026   4.635   3.813   0.964  0.0145  0.0697 -0.0024
 2856SOL    HW120027   4.606   3.901   0.985 -0.9968 -0.1551 -0.4880
 2856SOL    HW220028   4.660   3.775   1.048 -0.7463  2.6291  1.3574
 2857SOL     OW20029   1.196   3.242   2.047  0.1133  0.4692 -0.0714
 2857SOL    HW120030   1.153   3.286   1.973 -3.1370 -2.8788 -0.1799
 2857SOL    HW220031   1.130   3.177   2.072  0.8929 -0.9524 -1.6559
 2858SOL     OW20032   0.402   0.104   2.171  0.1512 -0.3813 -0.0657
 2858SOL    HW120033   0.415   0.191   2.135  2.2089  0.1895  2.0705
 2858SOL    HW220034   0.486   0.065   2.148  1.4632  0.6810  2.9114
 2859SOL     OW20035   2.947   1.080   1.939 -0.0097  0.6733 -0.1855
 2859SOL    HW120036   3.022   1.111   1.991  0.4123 -2.4095  1.0118
 2859SOL    HW220037   2.981   0.998   1.903  2.9364  1.1888  1.3638
 2860SOL     OW20038   4.018   0.783  17.345  0.5167  0.3018 -0.1462
 2860SOL    HW120039   3.965   0.821  17.275  1.1914  0.4575 -0.5741
 2860SOL    HW220040   3.960   0.804  17.418 -0.7270 -0.6248 -0.8790
 2861SOL     OW20041   2.770   0.167   1.298  0.4789  0.8061 -0.1712
 2861SOL    HW120042   2.728   0.253   1.293  1.4172  1.2691 -0.1079
 2861SOL    HW220043   2.694   0.110   1.284  0.5380  1.0907 -1.6085
 2862SOL     OW20044   4.201   1.475   6.032 -0.4225  0.5509  0.3832
 2862SOL    HW120045   4.134   1.407   6.036  1.0008 -0.9980 -2.0917
 2862SOL    HW220046   4.275   1.425   5.999 -0.9128  0.5498 -0.7332
 2863SOL     OW20047   4.310   0.871   8.323 -0.3349 -0.0741  0.4727
 2863SOL    HW120048   4.355   0.825   8.394 -2.3721  0.6411  2.2629
 2863SOL    HW220049   4.276   0.950   8.366  1.5182 -0.2269  2.2249
 2864SOL     OW20050   3.722   3.092  14.609  0.3441  0.2109  0.2862
 2864SOL    HW120051   3.782   3.163  14.632 -1.4250  2.0774 -0.8169
 2864SOL    HW220052   3.747   3.072  14.519  2.3181 -0.9284  1.0865
 2865SOL     OW20053   0.842   1.550   8.603 -0.9296  0.6704 -0.6501
 2865SOL    HW120054   0.830   1.544   8.697  0.0471 -0.6680 -0.6105
 2865SOL    HW220055   0.755   1.529   8.570  0.5121 -1.6281 -3.0288
 2866SOL     OW20056   0.524   3.023   0.675  0.2352 -0.4038 -0.6397
 2866SOL    HW120057   0.598   3.004   0.616  0.5000 -2.6262  0.3848
 2866SOL    HW220058   0.486   3.106   0.646  0.7665 -0.7096 -2.2582
 2867SOL     OW20059   1.004   3.381  16.841 -0.1580  0.3397  0.2038
 2867SOL    HW120060   1.056   3.439  16.897  1.1917 -1.2224  0.5921
 2867SOL    HW220061   0.970   3.312  16.898  1.4255  1.5054  2.5464
 2868SOL     OW20062   4.476   3.700   9.595  0.0717 -0.3968  0.0938
 2868SOL    HW120063   4.544   3.763   9.574  2.0280 -2.5695 -0.0423
 2868SOL    HW220064   4.519   3.639   9.655 -0.9850 -1.4394 -0.2072
 2869SOL     OW20065   3.353   0.500  14.645  0.6221 -0.3517  0.3655
 2869SOL    HW120066   3.328   0.575  14.591 -2.2661 -0.8567  0.9765
 2869SOL    HW220067   3.385   0.440  14.579 -0.4866  0.2232 -0.6967
 2870SOL     OW20068   0.632   2.390   0.292 -0.0507 -0.1226 -0.2224
 2870SOL    HW120069   0.684   2.338   0.231 -0.1701 -0.9644  0.3982
 2870SOL    HW220070   0.596   2.449   0.225 -1.6438  0.8390  1.5067
 2871SOL     OW20071   0.002   3.888   6.200 -0.8624 -0.2438 -0.2821
 2871SOL    HW120072   4.718   3.936   6.282  0.5663 -0.3080 -0.1572
 2871SOL    HW220073   0.050   3.814   6.237 -0.1979  0.2074 -0.2352
 2872SOL     OW20074   1.012   0.262   3.866 -0.6132 -0.1173 -0.4793
 2872SOL    HW120075   1.093   0.288   3.822  0.9337  1.3103  3.2327
 2872SOL    HW220076   1.043   0.173   3.885  0.8456  0.3197 -0.7965
 2873SOL     OW20077   4.031   1.354  16.652 -0.3840  0.4507  0.3679
 2873SOL    HW120078   4.124   1.343  16.671 -0.9876 -2.0151  1.8321
 2873SOL    HW220079   4.027   1.449  16.642  2.6819  0.1435 -3.8303
 2874SOL     OW20080   2.712   1.530  13.793  0.5968  0.1663 -0.1798
 2874SOL    HW120081   2.728   1.566  13.705 -0.0020 -0.2348 -0.4560
 2874SOL    HW220082   2.668   1.608  13.825  1.5831  0.9543 -0.7305
 2875SOL     OW20083   3.856   4.296   4.357  0.1257 -0.0571  0.6466
 2875SOL    HW120084   3.944   4.258   4.353 -1.9109 -4.7298  1.1039
 2875SOL    HW220085   3.872   4.383   4.320 -1.2313  0.7152  1.8607
 2876SOL     OW20086   0.929   2.596   1.393 -0.1733 -0.1875  0.2423
 2876SOL    HW120087   0.934   2.616   1.487 -0.2934  0.6052  0.0801
 2876SOL    HW220088   0.861   2.529   1.390 -0.5788  0.2288  0.1638
 2877SOL     OW20089   0.687   2.932  17.315  0.1285 -0.0722  0.3207
 2877SOL    HW120090   0.671   2.988  17.390 -3.0193 -1.0535  0.3739
 2877SOL    HW220091   0.768   2.970  17.279 -1.2730  1.4527 -1.1924
 2878SOL     OW20092   4.335   0.324  13.065  0.3087 -0.8789  0.2416
 2878SOL    HW120093   4.290   0.367  12.992 -1.1085 -0.0889  1.5749
 2878SOL    HW220094   4.303   0.235  13.051 -1.3601  0.0667 -1.8920
 2879SOL     OW20095   4.151   4.026   7.863  0.6098  0.5065 -0.2098
 2879SOL    HW120096   4.132   4.082   7.788  0.1399  1.6466  0.7458
 2879SOL    HW220097   4.172   4.092   7.930 -0.8662 -1.5717  2.3235
 2880SOL     OW20098   2.853   0.047   8.077  0.0085 -0.1194 -0.1580
 2880SOL    HW120099   2.787   0.115   8.061 -0.4245 -0.4335  0.3141
 2880SOL    HW220100   2.901   0.045   7.994 -1.8512  0.1176 -1.2360
 2881SOL     OW20101   0.789   0.003   9.501 -0.1885 -0.1247  0.0186
 2881SOL    HW120102   0.777   0.093   9.532 -0.7960 -1.0935  2.5845
 2881SOL    HW220103   0.837   4.685   9.575 -1.0556 -1.8649 -0.3282
 2882SOL     OW20104   4.447   1.079   7.140  0.3379  0.4306  0.3896
 2882SOL    HW120105   4.465   0.985   7.146  0.1964  0.5428  2.3828
 2882SOL    HW220106   4.379   1.075   7.072  2.4091  2.5526 -1.7938
 2883SOL     OW20107   2.931   2.642   6.314 -0.1656 -0.1851  0.0315
 2883SOL    HW120108   3.006   2.598   6.353  0.7478  1.0197 -0.3562
 2883SOL    HW220109   2.903   2.577   6.250  1.1964  0.5902 -1.3359
 2884SOL     OW20110   3.896   4.013   1.743  0.0733  0.2516 -0.2219
 2884SOL    HW120111   3.891   3.957   1.821  1.7314  0.7833  0.2547
 2884SOL    HW220112   3.959   3.974   1.682  2.2209  2.1922  0.7631
 2885SOL     OW20113   3.875   0.180  17.270  0.5300  0.7374  0.3340
 2885SOL    HW120114   3.873   0.213  17.360 -2.6503 -1.0018  0.9038
 2885SOL    HW220115   3.808   0.232  17.226  0.0181  0.4794  0.8040
 2886SOL     OW20116   1.136   2.367  16.793  0.8322 -0.0416  0.3236
 2886SOL    HW120117   1.092   2.284  16.812 -2.2933  1.2033 -1.3237
 2886SOL    HW220118   1.090   2.428  16.851 -0.4979 -0.6445 -0.0842
 2887SOL     OW20119   1.799   2.633   3.365 -0.1953  0.2986  0.1034
 2887SOL    HW120120   1.743   2.577   3.419  1.7598 -2.4865 -0.7092
 2887SOL    HW220121   1.875   2.575   3.360 -0.3336  0.1091  0.1643
 2888SOL     OW20122   1.319   0.270   7.120  0.2568 -0.4878 -0.1779
 2888SOL    HW120123   1.384   0.335   7.095  0.8707 -0.4189  1.5672
 2888SOL    HW220124   1.375   0.196   7.142  1.0431 -0.2820 -1.5493
 2889SOL     OW20125   3.674   1.355   3.708  0.1119  0.5857  0.5093
 2889SOL    HW120126   3.694   1.403   3.628  0.1368 -2.2622 -1.1841
 2889SOL    HW220127   3.737   1.284   3.694 -1.0260 -0.4092  0.4027
 2890SOL     OW20128   3.544   2.278   7.687 -0.0600  0.3638 -0.5189
 2890SOL    HW120129   3.637   2.259   7.698  0.2661  0.6955 -2.7305
 2890SOL    HW220130   3.510   2.194   7.717  1.0488  0.6892  1.6909
 2891SOL     OW20131   0.081   4.161   8.474 -0.2512 -0.2424 -0.1046
 2891SOL    HW120132   0.138   4.196   8.405 -1.0788 -0.4939 -0.9321
 2891SOL    HW220133   0.080   4.229   8.541  2.6098 -0.1703 -0.1552
 2892SOL     OW20134   4.510   0.213  14.593 -0.0718 -0.5369 -0.5489
 2892SOL    HW120135   4.572   0.153  14.636 -0.8329 -2.7108 -2.4897
 2892SOL    HW220136   4.569   0.251  14.528 -1.7050  0.3758 -1.4848
 2893SOL     OW20137   2.700   1.802   5.627  0.3485 -0.5648 -0.0528
 2893SOL    HW120138   2.753   1.824   5.550 -0.2299  0.8198 -0.0575
 2893SOL    HW220139   2.737   1.853   5.700 -0.2770 -1.0550  0.6036
 2894SOL     OW20140   2.804   2.011   8.682 -1.4236  0.0280 -0.5186
 2894SOL    HW120141   2.741   1.939   8.689 -1.2531 -0.0846 -0.1130
 2894SOL    HW220142   2.872   1.994   8.617  1.9260  0.6947  2.7371
 2895SOL     OW20143   2.505   1.793   3.656 -0.4838  0.4859  0.2373
 2895SOL    HW120144   2.511   1.841   3.573 -0.1489 -1.1271 -0.6719
 2895SOL    HW220145   2.478   1.868   3.709 -0.3464  0.0320  0.9465
 2896SOL     OW20146   0.985   2.635   5.129 -0.0767  0.1083 -0.1003
 2896SOL    HW120147   0.933   2.589   5.063 -0.7457  0.3536  0.2568
 2896SOL    HW220148   0.913   2.677   5.176 -1.2350 -0.7247 -1.1242
 2897SOL     OW20149   0.413   3.801  11.515  0.1806  0.9019  0.0225
 2897SOL    HW120150   0.347   3.745  11.473  2.0838 -0.6630 -0.8938
 2897SOL    HW220151   0.498   3.757  11.508 -0.0702  0.4843 -0.4329
 2898SOL     OW20152   1.529   2.423   3.149 -0.1775  0.1006 -0.4242
 2898SOL    HW120153   1.497   2.333   3.160  2.0330 -0.3356  2.5392
 2898SOL    HW220154   1.472   2.472   3.208  0.0604  0.2341 -0.3031
 2899SOL     OW20155   3.497   0.978  16.985 -0.0759  0.0049 -0.3804
 2899SOL    HW120156   3.449   0.993  17.067  0.9230 -0.3717  0.2748
 2899SOL    HW220157   3.434   1.023  16.930  0.9695  0.5788 -1.1149
 2900SOL     OW20158   1.800   0.871  17.324 -0.2814 -0.3564  0.4501
 2900SOL    HW120159   1.881   0.828  17.354 -0.3251  0.1729  1.3052
 2900SOL    HW220160   1.800   0.864  17.228 -0.2495  0.9701  0.3579
 2901SOL     OW20161   2.196   0.974  16.049 -0.2408  0.1995  0.2494
 2901SOL    HW120162   2.184   0.907  16.116 -1.5435  0.6622  0.4657
 2901SOL    HW220163   2.253   1.034  16.097 -0.0784  0.5272 -0.3477
 2902SOL     OW20164   1.979   3.145   2.707  0.0620 -0.1862  0.1417
 2902SOL    HW120165   1.905   3.108   2.756 -0.7661  1.6091  0.2687
 2902SOL    HW220166   2.055   3.099   2.742  0.7754  1.6059  0.9751
 2903SOL     OW20167   2.300   3.805   3.878 -0.0359  0.0841 -0.0346
 2903SOL    HW120168   2.243   3.882   3.882 -0.7490 -0.6541  4.0559
 2903SOL    HW220169   2.338   3.810   3.790 -0.0634  2.3189  0.0887
 2904SOL     OW20170   3.055   4.233   2.311  0.1273  0.3706 -0.5063
 2904SOL    HW120171   3.050   4.170   2.238  2.7496 -1.0079  0.5263
 2904SOL    HW220172   3.007   4.310   2.280  0.8442  0.5851 -1.0951
 2905SOL     OW20173   3.814   3.850   5.060 -0.4314 -0.2658 -0.0516
 2905SOL    HW120174   3.725   3.875   5.036 -0.5733 -0.0680  0.6916
 2905SOL    HW220175   3.821   3.880   5.150  1.1223  1.4748 -0.7506
 2906SOL     OW20176   0.453   0.260   3.137  0.2348 -0.2649 -0.0173
 2906SOL    HW120177   0.402   0.227   3.063  0.1683  0.9751 -0.5294
 2906SOL    HW220178   0.485   0.340   3.095 -1.5193  0.2512 -0.4059
 2907SOL     OW20179   1.408   4.496   9.034 -0.1319  0.0509  0.2283
 2907SOL    HW120180   1.427   4.405   9.057 -1.2270 -0.4658 -0.9297
 2907SOL    HW220181   1.435   4.493   8.943  0.0692 -0.0489  0.2920
 2908SOL     OW20182   4.026   1.561   8.255  0.1937 -0.0034 -0.2010
 2908SOL    HW120183   4.005   1.564   8.348 -1.4946  1.6565 -0.6319
 2908SOL    HW220184   4.034   1.656   8.244  0.0983  0.0092 -0.1593
 2909SOL     OW20185   1.941   0.522   7.657  0.4188  0.2390 -0.4523
 2909SOL    HW120186   1.876   0.591   7.670 -1.3566 -1.3580 -0.8579
 2909SOL    HW220187   2.019   0.564   7.694 -1.5830  0.6869  3.2473
 2910SOL     OW20188   1.168   3.817   8.779 -0.2830 -0.0105 -0.7783
 2910SOL    HW120189   1.075   3.838   8.787 -0.5850 -0.4655 -3.0610
 2910SOL    HW220190   1.156   3.726   8.806 -0.9507  0.1765 -0.4499
 2911SOL     OW20191   1.904   4.304   2.588 -0.7470  1.0802 -0.5831
 2911SOL    HW120192   1.930   4.332   2.501  0.0061  1.4683 -0.2329
 2911SOL    HW220193   1.916   4.388   2.632  2.9300  0.6644 -0.7872
 2912SOL     OW20194   4.064   1.158   9.991  0.4205  0.0337  0.2533
 2912SOL    HW120195   3.982   1.126  10.029  1.5068 -1.0201  1.6709
 2912SOL    HW220196   4.094   1.084   9.939 -0.1107 -0.4628  0.6541
 2913SOL     OW20197   0.646   4.244   1.986  0.0725 -0.8004 -0.4705
 2913SOL    HW120198   0.634   4.300   1.910  0.9495 -0.5619 -0.4291
 2913SOL    HW220199   0.701   4.177   1.946  2.3100  0.0920  1.1324
 2914SOL     OW20200   2.840   2.172   2.403  0.0047 -0.0648 -0.7934
 2914SOL    HW120201   2.793   2.090   2.417  1.7731 -1.1403 -1.0590
 2914SOL    HW220202   2.915   2.159   2.461  1.3446 -1.1003 -2.7015
 2915SOL     OW20203   2.320   3.888   9.822 -0.0990 -0.7136 -0.3941
 2915SOL    HW120204   2.322   3.797   9.852  0.2848 -0.5590  0.0530
 2915SOL    HW220205   2.387   3.875   9.754 -0.7396  1.7097 -1.4949
 2916SOL     OW20206   0.489   3.202   2.642 -0.0369  0.2555  0.0027
 2916SOL    HW120207   0.466   3.231   2.731  0.9417 -1.0609  0.6948
 2916SOL    HW220208   0.543   3.275   2.613  0.3046 -0.9858 -2.4441
 2917SOL     OW20209   4.022   3.195  11.001  0.1104  0.0888 -0.0049
 2917SOL    HW120210   4.009   3.266  10.937 -1.1008  0.6442  0.8390
 2917SOL    HW220211   3.987   3.123  10.950  0.5652  0.8946 -1.4581
 2918SOL     OW20212   2.619   2.373   9.365 -0.3079  0.3193  0.0752
 2918SOL    HW120213   2.525   2.353   9.369 -0.2577 -0.4030 -2.1414
 2918SOL    HW220214   2.629   2.450   9.421  0.2866  0.4633 -0.2367
 2919SOL     OW20215   4.570   1.356  14.206  0.3463  0.4411 -0.4209
 2919SOL    HW120216   4.585   1.289  14.273 -0.0429  0.0664 -0.7129
 2919SOL    HW220217   4.505   1.411  14.251 -1.3177 -1.2921 -0.7241
 2920SOL     OW20218   4.208   4.448   2.286  0.1346 -0.2293 -0.2503
 2920SOL    HW120219   4.277   4.422   2.225 -0.5377 -1.4990 -0.4660
 2920SOL    HW220220   4.257   4.512   2.338  0.2017  0.6793 -1.4312
 2921SOL     OW20221   3.982   2.129   1.049  0.1822 -0.2126 -0.1396
 2921SOL    HW120222   3.937   2.213   1.041  1.0378  0.3023  0.4390
 2921SOL    HW220223   3.932   2.093   1.123  1.6285 -0.2268  0.8437
 2922SOL     OW20224   2.101   3.566  13.040 -0.1635  0.3813  0.3150
 2922SOL    HW120225   2.091   3.661  13.051  1.0212  0.7414 -1.5771
 2922SOL    HW220226   2.146   3.538  13.119 -0.1951 -0.4956  0.0156
 2923SOL     OW20227   1.846   0.149   5.243  0.1166  0.5714 -0.2598
 2923SOL    HW120228   1.759   0.117   5.268 -0.3864 -0.0207 -2.6939
 2923SOL    HW220229   1.897   0.152   5.323 -0.2540  0.6345 -0.0242
 2924SOL     OW20230   3.716   3.379   9.008  0.3226  0.2158  0.3639
 2924SOL    HW120231   3.674   3.353   8.926 -0.6188  0.1008  0.8827
 2924SOL    HW220232   3.779   3.308   9.021 -0.0970 -0.0073  1.2134
 2925SOL     OW20233   2.474   2.547   8.360  0.0612 -0.4472  0.8106
 2925SOL    HW120234   2.548   2.608   8.353  1.3436 -2.1304 -0.2889
 2925SOL    HW220235   2.399   2.606   8.360 -1.2727 -2.1586  0.6615
 2926SOL     OW20236   1.166   3.209   3.756 -0.0871  0.6124  0.2781
 2926SOL    HW120237   1.107   3.271   3.712  0.0915 -0.2261 -1.1685
 2926SOL    HW220238   1.122   3.129   3.726  0.6663 -0.1213  1.1806
 2927SOL     OW20239   4.530   2.051   3.119  0.1918 -0.3176  0.0186
 2927SOL    HW120240   4.571   1.992   3.057  1.5584  1.1231 -0.4421
 2927SOL    HW220241   4.471   1.992   3.167  0.1683  0.5546  1.0700
 2928SOL     OW20242   2.088   0.184   1.697  0.6376  0.7978 -0.1276
 2928SOL    HW120243   2.107   0.260   1.752 -0.7774  0.2952  1.0479
 2928SOL    HW220244   2.062   0.115   1.757 -0.1181  1.9635  0.8941
 2929SOL     OW20245   0.829   0.475   9.476 -0.7361 -0.3766  0.2772
 2929SOL    HW120246   0.769   0.549   9.483 -0.1897  0.2577 -1.7941
 2929SOL    HW220247   0.917   0.510   9.458 -1.0149  0.0723 -0.2117
 2930SOL     OW20248   4.657   3.712   3.452 -0.5353 -0.1168 -0.0772
 2930SOL    HW120249   4.576   3.745   3.414 -0.3296  1.1519  0.5647
 2930SOL    HW220250   4.709   3.778   3.406 -0.1759  0.8348  1.6658
 2931SOL     OW20251   0.216   2.340  10.798  0.5259  0.2738 -0.0929
 2931SOL    HW120252   0.234   2.411  10.860  0.3653  0.4185 -0.2148
 2931SOL    HW220253   0.138   2.302  10.837  0.4855  1.2719  0.7896
 2932SOL     OW20254   1.633   1.617   8.669 -0.3738  0.3438 -0.0670
 2932SOL    HW120255   1.580   1.667   8.732  0.5279  0.9262  0.2213
 2932SOL    HW220256   1.565   1.552   8.651 -0.3106 -0.4120  2.4137
 2933SOL     OW20257   3.105   3.106   4.618  0.2053 -0.5621  0.3907
 2933SOL    HW120258   3.033   3.165   4.599  0.3291 -0.2304  0.9655
 2933SOL    HW220259   3.122   3.134   4.708 -0.0877  0.3528  0.1580
 2934SOL     OW20260   3.733   3.202   9.934  0.2688 -0.3152  0.5806
 2934SOL    HW120261   3.699   3.264   9.999  0.6858  1.1298 -0.5782
 2934SOL    HW220262   3.773   3.256   9.867  0.1731 -1.6631 -0.5596
 2935SOL     OW20263   2.348   2.343   8.984 -0.4847  0.7310  0.5095
 2935SOL    HW120264   2.443   2.356   8.974 -0.2859 -0.5979  0.7027
 2935SOL    HW220265   2.308   2.413   9.036 -1.9334  0.5130 -0.3000
 2936SOL     OW20266   4.068   3.910   6.523 -0.3866 -0.2328  0.0840
 2936SOL    HW120267   4.100   3.824   6.497  2.3401  0.8307 -0.0629
 2936SOL    HW220268   4.140   3.945   6.575 -0.0763  0.3141 -0.7265
 2937SOL     OW20269   3.417   0.850   3.756 -0.4995 -0.2594 -0.4700
 2937SOL    HW120270   3.466   0.797   3.694  0.6741  0.3372 -0.0457
 2937SOL    HW220271   3.329   0.816   3.737 -0.5712 -1.3022  1.7024
 2938SOL     OW20272   1.685   0.892   8.503  0.0941 -0.0574  0.2483
 2938SOL    HW120273   1.751   0.843   8.552 -2.4128 -1.4774  2.1838
 2938SOL    HW220274   1.707   0.984   8.512  0.3598 -0.2049  1.0615
 2939SOL     OW20275   2.699   0.225  10.725 -0.8313  0.2701 -0.5970
 2939SOL    HW120276   2.701   0.290  10.795  1.6785  0.0549 -0.4564
 2939SOL    HW220277   2.747   0.270  10.655  0.8970  1.6116  1.4431
 2940SOL     OW20278   1.498   1.942  12.614 -0.0324 -0.1806 -0.3902
 2940SOL    HW120279   1.584   1.920  12.649  0.1307 -1.0166 -1.3110
 2940SOL    HW220280   1.451   1.860  12.627  3.0505 -1.7988  0.5665
 2941SOL     OW20281   1.308   3.395   8.415  0.5525 -0.3413  0.2591
 2941SOL    HW120282   1.306   3.396   8.511  1.1344 -0.5501  0.2787
 2941SOL    HW220283   1.224   3.358   8.391  0.7198 -0.1376 -0.6309
 2942SOL     OW20284   0.951   1.047  11.147 -0.0895  0.5981  0.4784
 2942SOL    HW120285   0.888   1.092  11.090  1.3105 -1.3957 -2.6367
 2942SOL    HW220286   0.900   1.050  11.228 -0.5312 -0.6837  0.2356
 2943SOL     OW20287   3.799   3.131  15.038 -0.0078  0.4837 -1.0830
 2943SOL    HW120288   3.841   3.090  15.114 -3.1249 -1.9689 -0.6689
 2943SOL    HW220289   3.712   3.146  15.076  1.0185  1.5947  0.8906
 2944SOL     OW20290   1.054   4.168   7.710 -0.0939 -0.1044 -0.3978
 2944SOL    HW120291   1.044   4.244   7.768  0.9031  0.5709 -1.1130
 2944SOL    HW220292   1.124   4.112   7.742  0.2600  0.6701  0.1870
 2945SOL     OW20293   2.716   0.070   7.699 -0.3918 -0.6098  0.0025
 2945SOL    HW120294   2.752   0.044   7.614  1.7570  4.1512 -0.5876
 2945SOL    HW220295   2.676   4.707   7.722 -0.5399 -0.0237  1.8987
 2946SOL     OW20296   2.446   0.761   5.937  0.2061  0.1462  0.7938
 2946SOL    HW120297   2.392   0.725   6.007 -0.9178 -0.6822 -0.4916
 2946SOL    HW220298   2.456   0.851   5.967  0.3654  0.3368  0.1818
 2947SOL     OW20299   3.818   4.479  12.508 -0.0961  0.1339  0.4623
 2947SOL    HW120300   3.795   4.569  12.487 -0.9876 -0.5567 -1.4672
 2947SOL    HW220301   3.730   4.446  12.490  0.4338 -0.1949 -1.5199
 2948SOL     OW20302   1.077   1.862   9.461  0.4147 -0.6046 -0.1673
 2948SOL    HW120303   1.126   1.782   9.438 -0.2629 -0.4351 -2.1296
 2948SOL    HW220304   0.998   1.830   9.505 -0.7647  0.3590 -1.5992
 2949SOL     OW20305   2.621   4.627   3.855 -0.0626  0.2800 -0.0200
 2949SOL    HW120306   2.684   4.684   3.897  1.4451 -2.3869  1.3672
 2949SOL    HW220307   2.548   4.687   3.869  0.6606  0.4853  2.9753
 2950SOL     OW20308   1.572   3.466   0.863 -0.2211  0.4974  0.5912
 2950SOL    HW120309   1.638   3.409   0.823 -0.2573  0.6110  0.3666
 2950SOL    HW220310   1.602   3.474   0.953 -0.0116 -1.3333  0.6913
 2951SOL     OW20311   2.519   1.922   6.855  0.0388  1.1798  0.1228
 2951SOL    HW120312   2.469   1.896   6.933  0.6276  0.7392  0.3550
 2951SOL    HW220313   2.509   2.017   6.857  0.0033  1.1766  0.0900
 2952SOL     OW20314   1.861   3.806   9.060 -0.1682  0.1271 -0.5267
 2952SOL    HW120315   1.926   3.876   9.069 -0.4820 -0.0083  2.6194
 2952SOL    HW220316   1.874   3.748   9.135 -0.1173  2.8660  1.5735
 2953SOL     OW20317   0.623   4.027   7.900 -0.3210 -0.6134 -0.0649
 2953SOL    HW120318   0.641   4.005   7.992 -1.4188  1.0379  0.5498
 2953SOL    HW220319   0.596   4.118   7.914 -0.6939 -0.8220  0.5514
 2954SOL     OW20320   3.550   4.474   4.509  0.3647  0.0999 -0.0650
 2954SOL    HW120321   3.620   4.523   4.466 -0.7635  1.2643 -0.5943
 2954SOL    HW220322   3.505   4.429   4.437  0.5206  1.7489 -1.1980
 2955SOL     OW20323   2.010   4.623   4.705 -0.0642 -0.3288  0.1291
 2955SOL    HW120324   1.958   4.559   4.755  0.3046  1.4078  2.7364
 2955SOL    HW220325   2.093   4.575   4.708 -0.6623 -1.1971  3.0478
 2956SOL     OW20326   3.600   4.174   8.937  0.1028  0.2334  0.1294
 2956SOL    HW120327   3.641   4.251   8.897  0.7462 -1.1351 -1.8298
 2956SOL    HW220328   3.670   4.145   8.995  0.2136 -1.1123 -0.6952
 2957SOL     OW20329   1.342   3.019   2.716  0.3053  0.4369 -0.0608
 2957SOL    HW120330   1.417   3.044   2.662 -0.6187  2.5704 -0.3659
 2957SOL    HW220331   1.291   3.098   2.734 -0.7753  0.0756 -1.5438
 2958SOL     OW20332   4.299   1.260   2.662 -0.9427 -0.5167 -0.1248
 2958SOL    HW120333   4.279   1.196   2.731  0.4054  0.6833  1.3889
 2958SOL    HW220334   4.282   1.202   2.587 -2.3208 -0.3253  0.0475
 2959SOL     OW20335   0.113   3.459   5.095 -0.3554  0.6295  0.4239
 2959SOL    HW120336   0.203   3.426   5.097 -0.0410  1.3485 -1.6424
 2959SOL    HW220337   0.117   3.544   5.051  0.1664  0.2082 -0.3492
 2960SOL     OW20338   4.537   1.921   2.158  0.3953  0.4974 -0.2301
 2960SOL    HW120339   4.503   1.962   2.078  0.4352  0.4280 -0.2836
 2960SOL    HW220340   4.457   1.888   2.198 -0.7011  3.3658 -0.0587
 2961SOL     OW20341   1.922   0.541   6.873  0.5350  0.1159 -0.0705
 2961SOL    HW120342   1.989   0.596   6.915  0.2472  0.1476  0.3446
 2961SOL    HW220343   1.849   0.557   6.932 -0.9049  0.3664 -1.9405
 2962SOL     OW20344   2.554   4.207   6.352  0.0525 -0.3334  0.1542
 2962SOL    HW120345   2.615   4.279   6.343  1.2077 -1.1892  1.0793
 2962SOL    HW220346   2.536   4.217   6.446 -2.7959 -1.6432 -0.2566
 2963SOL     OW20347   2.310   4.474   5.807 -1.3851 -0.0737  0.9568
 2963SOL    HW120348   2.401   4.461   5.834 -0.3982  0.1509 -2.3430
 2963SOL    HW220349   2.319   4.446   5.716  1.6953  0.2680  1.1415
 2964SOL     OW20350   1.062   1.973   1.047 -0.0063 -0.8455 -0.0878
 2964SOL    HW120351   1.133   1.942   1.104  0.7091  0.3181 -0.3497
 2964SOL    HW220352   1.053   2.066   1.069  0.6620 -0.5621 -1.0039
 2965SOL     OW20353   4.422   2.803  12.185 -0.0404 -0.5227  0.3218
 2965SOL    HW120354   4.474   2.881  12.204  1.0062 -0.8478 -1.1978
 2965SOL    HW220355   4.469   2.769  12.108 -1.2170 -3.2312  0.8054
 2966SOL     OW20356   1.566   4.497   7.200 -0.0231  0.5508 -0.1668
 2966SOL    HW120357   1.622   4.482   7.124  0.2556  2.1109 -0.2744
 2966SOL    HW220358   1.577   4.592   7.209  0.5975  0.6398 -1.8946
 2967SOL     OW20359   0.315   3.881   5.419  0.1765  0.3606  0.2799
 2967SOL    HW120360   0.314   3.875   5.515 -2.4350 -1.4523  0.1268
 2967SOL    HW220361   0.349   3.793   5.405  0.3090  0.5866 -0.8653
 2968SOL     OW20362   2.011   3.103   4.905 -0.1086 -0.0430  0.1331
 2968SOL    HW120363   1.922   3.136   4.907 -0.5993 -1.2872 -0.9665
 2968SOL    HW220364   2.035   3.102   4.812 -2.6899 -2.1650 -0.5229
 2969SOL     OW20365   2.231   0.450  15.128 -0.3607 -0.0271  0.7235
 2969SOL    HW120366   2.227   0.539  15.091 -1.5315 -0.1965  0.4385
 2969SOL    HW220367   2.238   0.401  15.046  0.9649  0.4129  0.5641
 2970SOL     OW20368   2.823   2.509   0.093 -0.2439  0.0468 -0.5313
 2970SOL    HW120369   2.751   2.539   0.037 -0.6774 -0.9855 -0.5197
 2970SOL    HW220370   2.838   2.420   0.061 -2.9552 -0.7555  0.4960
 2971SOL     OW20371   0.468   4.271   7.994 -0.1769  0.4253 -0.9307
 2971SOL    HW120372   0.457   4.366   7.997 -0.3454  0.3445  1.5483
 2971SOL    HW220373   0.386   4.244   7.954 -1.4340  0.4745  1.6069
 2972SOL     OW20374   3.883   1.271  14.621 -0.2233 -0.8865  0.1712
 2972SOL    HW120375   3.914   1.358  14.595 -1.5804  0.1300  1.9822
 2972SOL    HW220376   3.956   1.242  14.676  0.2100 -0.7470 -0.3293
 2973SOL     OW20377   1.744   0.226   4.507  0.4568 -0.0816  0.2805
 2973SOL    HW120378   1.823   0.281   4.509 -0.1042  0.7435 -0.4258
 2973SOL    HW220379   1.787   0.141   4.496  0.2947  0.1694 -2.1684
 2974SOL     OW20380   1.562   1.749  16.108  0.1241  0.1738 -0.4955
 2974SOL    HW120381   1.530   1.754  16.199  0.2011  1.3642 -0.5312
 2974SOL    HW220382   1.654   1.771  16.127 -0.2615  0.4470  1.1347
 2975SOL     OW20383   2.624   0.979  15.502 -0.1276  0.3955 -0.2771
 2975SOL    HW120384   2.620   1.030  15.583 -1.7781  0.7250 -0.5665
 2975SOL    HW220385   2.702   1.013  15.458  1.1151  1.4111  2.7254
 2976SOL     OW20386   3.435   3.721  11.105 -0.5185 -0.0668 -0.3109
 2976SOL    HW120387   3.392   3.796  11.148  0.7198  0.5426 -0.1480
 2976SOL    HW220388   3.468   3.672  11.180  2.0954  0.5741 -1.0442
 2977SOL     OW20389   4.578   2.068  16.871  0.0089  0.8491  0.2060
 2977SOL    HW120390   4.600   2.107  16.956  1.2201 -0.8519  0.6912
 2977SOL    HW220391   4.624   1.985  16.885  0.5963  0.8762 -1.6165
 2978SOL     OW20392   2.800   1.066  12.750 -0.3373 -0.1457  0.1227
 2978SOL    HW120393   2.892   1.042  12.738 -0.4032 -0.5332  0.4153
 2978SOL    HW220394   2.815   1.161  12.746  0.6213 -0.2525  1.3843
 2979SOL     OW20395   4.389   1.410   5.486 -0.0679  0.1667 -0.0624
 2979SOL    HW120396   4.387   1.479   5.552  0.0309 -1.7025  1.8656
 2979SOL    HW220397   4.303   1.374   5.507 -0.3580  0.8814  0.0055
 2980SOL     OW20398   3.116   3.583   3.149 -0.4032  0.4637 -1.0601
 2980SOL    HW120399   3.065   3.660   3.122 -2.8355 -0.4039  0.9833
 2980SOL    HW220400   3.146   3.545   3.066  0.8848  0.9273 -0.8077
 2981SOL     OW20401   3.365   2.326   2.273 -0.0815 -0.4455 -0.0675
 2981SOL    HW120402   3.447   2.362   2.239  0.0398 -0.2933  0.3897
 2981SOL    HW220403   3.393   2.314   2.364  2.0593  0.4369 -0.6146
 2982SOL     OW20404   2.817   1.899   5.897 -0.3463  0.0843 -0.8133
 2982SOL    HW120405   2.829   1.824   5.954 -0.2491 -0.0368 -0.9927
 2982SOL    HW220406   2.892   1.955   5.919  1.3562 -2.2378 -0.6844
 2983SOL     OW20407   1.420   3.205   3.346  0.0211 -0.3154 -0.7291
 2983SOL    HW120408   1.458   3.292   3.342  0.5648 -0.5490 -0.7424
 2983SOL    HW220409   1.330   3.216   3.315 -0.1878  1.6466  0.6365
 2984SOL     OW20410   3.795   0.203   8.263 -0.0753 -0.1536  0.0422
 2984SOL    HW120411   3.861   0.171   8.325 -1.0302  0.4089  1.3536
 2984SOL    HW220412   3.741   0.124   8.258 -1.6639  0.8869  0.8416
 2985SOL     OW20413   2.830   4.038   2.503  0.1800 -0.6624 -0.3465
 2985SOL    HW120414   2.903   4.076   2.552 -1.5438  0.5327  1.2818
 2985SOL    HW220415   2.836   4.084   2.419  0.0847  1.6027  0.9134
 2986SOL     OW20416   4.318   0.655  15.310  0.1045  0.3790 -0.3020
 2986SOL    HW120417   4.288   0.567  15.286  0.9421 -0.1732  0.6951
 2986SOL    HW220418   4.347   0.628  15.397  0.6504 -2.9676 -1.5373
 2987SOL     OW20419   2.545   2.765   2.884 -0.8025 -0.5050 -0.0930
 2987SOL    HW120420   2.640   2.775   2.878 -1.0109  0.2981 -2.2556
 2987SOL    HW220421   2.514   2.829   2.947  1.9159  0.6361  0.0658
 2988SOL     OW20422   3.405   4.568   7.028 -0.2517 -0.6082  0.4636
 2988SOL    HW120423   3.409   4.635   7.096  2.5871  1.4149 -1.6982
 2988SOL    HW220424   3.450   4.611   6.955 -0.1206  1.2027  1.6198
 2989SOL     OW20425   0.199   3.302   1.575  0.1222  0.1818 -0.2516
 2989SOL    HW120426   0.218   3.339   1.488  0.0857  1.8419  0.4568
 2989SOL    HW220427   0.135   3.362   1.613  0.0231 -0.1877  0.1554
 2990SOL     OW20428   4.298   3.296   6.878  0.4307 -0.1610 -0.0047
 2990SOL    HW120429   4.273   3.207   6.903 -1.9847  0.4711 -0.1985
 2990SOL    HW220430   4.357   3.319   6.950  1.0358 -2.1680  0.1640
 2991SOL     OW20431   1.039   2.603   7.487  0.2265 -0.2135 -0.6692
 2991SOL    HW120432   1.128   2.566   7.490  1.0669  1.8628 -0.5286
 2991SOL    HW220433   1.062   2.681   7.436  0.5394 -0.5910 -1.1109
 2992SOL     OW20434   3.379   2.566   4.339 -0.0332 -0.4060  0.2736
 2992SOL    HW120435   3.393   2.518   4.258  1.3243  0.9404 -0.2769
 2992SOL    HW220436   3.360   2.657   4.315  0.3167 -0.4852 -0.2933
 2993SOL     OW20437   0.624   0.305   8.225 -0.3594 -0.7179 -0.2789
 2993SOL    HW120438   0.665   0.346   8.149  1.5519  0.7164  1.5204
 2993SOL    HW220439   0.568   0.373   8.261  0.5455  0.9318 -1.9806
 2994SOL     OW20440   2.922   3.754   7.947 -0.0155  0.0972 -0.0375
 2994SOL    HW120441   2.881   3.764   8.033  0.5338  2.0749 -0.0219
 2994SOL    HW220442   3.015   3.759   7.970  0.0607  0.2236 -0.3705
 2995SOL     OW20443   1.229   1.944  13.111  0.0293  0.2121  0.3247
 2995SOL    HW120444   1.258   1.883  13.043  0.2629  3.1560 -2.1955
 2995SOL    HW220445   1.193   2.014  13.056  0.6039  2.0587  2.2900
 2996SOL     OW20446   3.108   0.744   2.239  0.2772  0.3024 -0.0962
 2996SOL    HW120447   3.176   0.774   2.180 -0.4132 -0.4415 -1.2659
 2996SOL    HW220448   3.069   0.830   2.252 -0.4198 -0.1525  0.8720
 2997SOL     OW20449   3.026   2.945   5.070  0.0728 -0.3184  0.0109
 2997SOL    HW120450   2.983   2.861   5.084 -0.1567 -0.5933 -2.2476
 2997SOL    HW220451   3.068   2.945   5.156  1.1623  2.4523 -0.5054
 2998SOL     OW20452   1.087   4.239   2.451 -0.2229  0.4482  0.0536
 2998SOL    HW120453   1.099   4.175   2.521  0.9001  0.0309 -0.5222
 2998SOL    HW220454   1.071   4.184   2.374  2.5126 -1.4227  0.8566
 2999SOL     OW20455   3.719   2.815   0.803  0.4534  0.0030  0.0151
 2999SOL    HW120456   3.738   2.755   0.731 -0.4551  0.3881 -0.5450
 2999SOL    HW220457   3.634   2.775   0.819  0.4765 -0.0864 -0.0826
 3000SOL     OW20458   1.562   0.043  10.811  0.2691  0.1289  0.5999
 3000SOL    HW120459   1.586   0.078  10.896 -2.1550  3.8194 -0.2648
 3000SOL    HW220460   1.609   0.099  10.748 -0.9904  1.0706  0.5090
 3001SOL     OW20461   1.362   0.948   8.530  0.4528  0.1765  0.6891
 3001SOL    HW120462   1.378   0.865   8.484 -0.6376 -0.3960  1.3501
 3001SOL    HW220463   1.428   1.002   8.486 -0.9437  2.3946  1.3569
 3002SOL     OW20464   4.312   2.555  10.606 -0.3097 -0.1097 -0.6958
 3002SOL    HW120465   4.302   2.559  10.510  0.2996 -1.6159 -0.8249
 3002SOL    HW220466   4.406   2.548  10.621 -0.3756  1.6511  0.5247
 3003SOL     OW20467   0.259   1.513   7.780 -0.0969 -0.4155 -0.3348
 3003SOL    HW120468   0.178   1.478   7.743 -0.3757  0.8511 -0.9196
 3003SOL    HW220469   0.236   1.499   7.872  2.7269  2.3310  0.7842
 3004SOL     OW20470   2.641   0.250   6.307  0.0740  0.2265 -0.2549
 3004SOL    HW120471   2.720   0.259   6.360 -0.5254 -0.5465  0.7677
 3004SOL    HW220472   2.599   0.167   6.330  0.1434  0.1729 -0.3197
 3005SOL     OW20473   2.087   2.268   6.014  0.5776 -0.3419  0.6179
 3005SOL    HW120474   2.088   2.297   5.923  3.4037 -2.6963 -0.0834
 3005SOL    HW220475   2.054   2.180   6.000  1.2269 -0.5717  0.5152
 3006SOL     OW20476   1.672   4.314   6.366  0.1793  0.0970 -0.0231
 3006SOL    HW120477   1.677   4.379   6.436  1.4430  0.8822 -0.8537
 3006SOL    HW220478   1.762   4.286   6.347  0.2944  1.2533 -1.1745
 3007SOL     OW20479   0.788   2.189  17.636  0.5212 -0.1791  0.4048
 3007SOL    HW120480   0.755   2.234  17.558 -2.8510 -1.8774  0.8042
 3007SOL    HW220481   0.724   2.117  17.635  1.4163 -0.9570 -0.7636
 3008SOL     OW20482   3.886   4.538   8.382 -0.8810 -0.3225  0.3198
 3008SOL    HW120483   3.934   4.456   8.369  1.0601  1.2930 -2.5834
 3008SOL    HW220484   3.961   4.598   8.378 -0.2984 -1.0756 -0.1107
 3009SOL     OW20485   2.886   2.880   6.931  0.1686 -0.0797 -0.0674
 3009SOL    HW120486   2.812   2.861   6.988  1.6075 -0.2113  1.7592
 3009SOL    HW220487   2.867   2.838   6.847  0.5924 -0.5306  0.0622
 3010SOL     OW20488   2.740   2.640   0.661  0.3856  0.1948  0.3096
 3010SOL    HW120489   2.767   2.672   0.575 -0.5508 -0.0188 -0.0656
 3010SOL    HW220490   2.811   2.582   0.688 -1.1905 -1.5986  0.5783
 3011SOL     OW20491   3.668   4.381   5.615 -0.4214 -0.3858  0.2763
 3011SOL    HW120492   3.681   4.427   5.698  2.1829 -1.0438  0.2049
 3011SOL    HW220493   3.700   4.447   5.552 -1.8318  0.4748  0.4401
 3012SOL     OW20494   3.144   1.927  13.817  0.0897 -0.1501  0.3932
 3012SOL    HW120495   3.054   1.905  13.837 -0.3229  1.3492  0.2424
 3012SOL    HW220496   3.199   1.882  13.881  1.3199 -0.3668 -0.8105
 3013SOL     OW20497   2.960   2.897   6.224 -0.5066 -0.3192 -0.3005
 3013SOL    HW120498   2.972   2.875   6.131 -0.4225 -0.5015 -0.2462
 3013SOL    HW220499   2.923   2.821   6.267  0.7634  0.1214  1.5796
 3014SOL     OW20500   1.924   0.502   5.366  0.3336 -0.4693 -0.6977
 3014SOL    HW120501   2.006   0.491   5.318  0.8047 -2.3498  0.5295
 3014SOL    HW220502   1.948   0.476   5.456 -1.2353  0.7846  0.0741
 3015SOL     OW20503   2.183   0.385  17.049 -0.0347  0.3543 -0.0020
 3015SOL    HW120504   2.140   0.354  17.128  0.3835  0.9069  0.4392
 3015SOL    HW220505   2.108   0.384  16.989 -0.9787  2.6431  1.1396
 3016SOL     OW20506   2.591   1.927   4.021  0.5828  0.2112  0.4493
 3016SOL    HW120507   2.641   2.009   4.015  1.6771 -0.4631  0.2057
 3016SOL    HW220508   2.634   1.876   3.951 -1.9695  0.4070 -1.2760
 3017SOL     OW20509   0.574   1.927  10.518 -0.5587  1.1941  0.3360
 3017SOL    HW120510   0.498   1.921  10.576  0.6586 -0.7941  1.6842
 3017SOL    HW220511   0.595   1.837  10.494  4.1806  3.1500 -2.7041
 3018SOL     OW20512   1.848   3.354  15.763 -0.8824 -0.0586 -0.0127
 3018SOL    HW120513   1.766   3.365  15.716 -1.4346 -0.7450  0.7781
 3018SOL    HW220514   1.831   3.380  15.853  1.5477  0.6660  0.2319
 3019SOL     OW20515   1.909   3.471   8.103 -0.3302  0.3243 -0.3991
 3019SOL    HW120516   2.002   3.452   8.112 -0.0896  1.3192 -0.7500
 3019SOL    HW220517   1.867   3.385   8.095 -0.2693  0.2141  0.4664
 3020SOL     OW20518   2.231   4.617   5.048  0.6506 -0.3098 -0.2543
 3020SOL    HW120519   2.261   4.676   5.117  0.4828 -0.2654 -0.2183
 3020SOL    HW220520   2.167   4.669   5.000 -0.2534 -0.8964  0.3144
 3021SOL     OW20521   1.645   3.671  17.665  0.6389  0.0390  0.5230
 3021SOL    HW120522   1.619   3.591  17.620  2.5263 -0.0046 -0.4645
 3021SOL    HW220523   1.564   3.722  17.667  0.1776 -0.6058 -1.6445
 3022SOL     OW20524   1.870   3.690  14.387 -0.2137 -0.2102 -0.3733
 3022SOL    HW120525   1.857   3.655  14.475 -3.0871  0.2600 -0.6382
 3022SOL    HW220526   1.778   3.688  14.361 -0.3283 -1.6083  0.1171
 3023SOL     OW20527   4.665   2.536  15.398  0.0849  0.2752  0.3239
 3023SOL    HW120528   4.653   2.507  15.488 -2.5730 -0.3393 -0.2401
 3023SOL    HW220529   4.599   2.488  15.349 -1.5998 -0.4209  3.2693
 3024SOL     OW20530   4.686   0.596   1.995 -0.1002  0.6393 -0.6203
 3024SOL    HW120531   4.683   0.689   2.017 -0.0530  0.0393  1.9715
 3024SOL    HW220532   0.047   0.569   2.035 -0.3504 -0.6425 -0.9809
 3025SOL     OW20533   2.481   3.191   9.274 -0.6820  0.2477 -0.3507
 3025SOL    HW120534   2.511   3.189   9.183 -0.6693  1.9503 -0.3817
 3025SOL    HW220535   2.496   3.098   9.291 -0.6663  1.0984  4.3137
 3026SOL     OW20536   2.114   1.333   8.985  1.0454  0.0271 -0.8061
 3026SOL    HW120537   2.157   1.372   8.908  0.5316  1.4617 -0.3636
 3026SOL    HW220538   2.185   1.293   9.034  0.0754 -2.3388 -1.3186
 3027SOL     OW20539   1.120   0.415   5.385  0.1795  0.3480 -0.0757
 3027SOL    HW120540   1.026   0.414   5.400  0.3925 -0.8442  1.2566
 3027SOL    HW220541   1.151   0.325   5.392 -0.3042  0.1631 -0.3286
 3028SOL     OW20542   0.210   1.365   6.750  0.4617 -0.1291  0.4150
 3028SOL    HW120543   0.195   1.357   6.844 -0.0373 -0.0873  0.3379
 3028SOL    HW220544   0.202   1.273   6.725  1.5701 -0.2987  0.6902
 3029SOL     OW20545   2.404   3.203   4.486 -0.2808  0.2677 -0.2419
 3029SOL    HW120546   2.473   3.152   4.443 -2.1706 -3.2118  0.9168
 3029SOL    HW220547   2.389   3.276   4.426  0.2207  0.9868  0.5151
 3030SOL     OW20548   3.975   0.608   8.829  0.5068 -0.0798 -0.1915
 3030SOL    HW120549   3.969   0.515   8.808  5.4654 -0.1613 -1.2312
 3030SOL    HW220550   3.894   0.624   8.877  1.1991  0.7655  0.6993
 3031SOL     OW20551   2.105   2.410  10.742  0.3668  0.6791  0.1917
 3031SOL    HW120552   2.061   2.473  10.799  1.7834  3.9247 -2.2090
 3031SOL    HW220553   2.110   2.452  10.656  0.5113  1.2401  0.4731
 3032SOL     OW20554   1.670   0.592   2.726 -0.2613  0.0752 -0.1764
 3032SOL    HW120555   1.641   0.510   2.687 -1.9466 -0.1531  1.5570
 3032SOL    HW220556   1.762   0.573   2.741 -0.2882 -0.9378 -1.3162
 3033SOL     OW20557   3.592   4.587  13.244  0.0593  0.3259 -0.5984
 3033SOL    HW120558   3.621   4.594  13.335  0.0602  1.8945 -0.7181
 3033SOL    HW220559   3.654   4.517  13.226 -0.1905  0.1193 -0.6677
 3034SOL     OW20560   1.862   1.172  15.067  1.1604  0.3548 -0.3621
 3034SOL    HW120561   1.931   1.173  15.133  0.9455 -0.4030 -0.1233
 3034SOL    HW220562   1.909   1.144  14.988 -1.5624 -1.4281 -1.3495
 3035SOL     OW20563   1.024   2.458   8.512 -0.0846  0.2140 -0.5900
 3035SOL    HW120564   0.981   2.386   8.557  0.3687 -0.3383 -1.0333
 3035SOL    HW220565   1.052   2.404   8.438 -0.6322  0.9434 -1.3269
 3036SOL     OW20566   0.128   1.324   5.727  0.5759 -0.5174 -0.2760
 3036SOL    HW120567   0.037   1.323   5.756  0.4823  2.4556 -0.4486
 3036SOL    HW220568   0.137   1.419   5.720  0.6801 -0.4685  0.5068
 3037SOL     OW20569   1.986   0.039   6.648 -0.2047  0.4358 -0.9651
 3037SOL    HW120570   2.010   0.063   6.559 -0.0125  0.8405 -0.8017
 3037SOL    HW220571   1.993   0.121   6.696  0.2406 -0.5679  0.6996
 3038SOL     OW20572   2.915   3.247   8.291 -0.5243 -0.5942 -0.4454
 3038SOL    HW120573   2.917   3.154   8.315  3.1132 -1.0570 -2.5454
 3038SOL    HW220574   2.913   3.291   8.376  0.6044 -0.1771 -0.6268
 3039SOL     OW20575   1.304   1.349   9.746 -0.2472  0.2521  0.1024
 3039SOL    HW120576   1.341   1.434   9.723  1.1951  0.0585  1.7338
 3039SOL    HW220577   1.245   1.331   9.673 -1.1723  3.3189  0.0717
 3040SOL     OW20578   0.975   3.891   5.758 -0.3081 -0.0636  0.2111
 3040SOL    HW120579   0.939   3.915   5.844  0.3290  2.7484 -0.3378
 3040SOL    HW220580   0.950   3.971   5.713 -2.3842 -0.6197  0.3536
 3041SOL     OW20581   3.595   1.473  10.804 -0.8024 -0.2774  0.2873
 3041SOL    HW120582   3.606   1.392  10.754  0.0533  0.4027 -0.6186
 3041SOL    HW220583   3.627   1.533  10.736 -1.0812  1.4633  1.7038
 3042SOL     OW20584   3.042   1.113   7.239 -0.3462 -0.0725 -0.1693
 3042SOL    HW120585   3.000   1.053   7.300  0.6223 -0.8831 -0.2892
 3042SOL    HW220586   2.971   1.176   7.231  1.6251  2.0119 -1.1666
 3043SOL     OW20587   1.727   0.513   2.022  0.0493  0.4004 -0.7461
 3043SOL    HW120588   1.771   0.504   1.938 -0.3259  0.0443 -0.9032
 3043SOL    HW220589   1.664   0.582   2.002  0.5503 -0.1110 -3.9861
 3044SOL     OW20590   3.364   2.665   1.095 -0.4926 -0.3568  0.6604
 3044SOL    HW120591   3.360   2.581   1.051 -0.0542 -0.6756  1.2262
 3044SOL    HW220592   3.279   2.668   1.138  0.1714 -1.8826  2.0538
 3045SOL     OW20593   1.615   3.813   9.413  0.0146 -0.3169 -0.8442
 3045SOL    HW120594   1.701   3.837   9.446 -1.3802  0.1264  2.4631
 3045SOL    HW220595   1.556   3.824   9.488  0.7021 -2.5095  0.0055
 3046SOL     OW20596   1.695   3.341   2.773 -0.5075  0.0547 -0.0504
 3046SOL    HW120597   1.731   3.304   2.692  4.2314  0.5427  1.8486
 3046SOL    HW220598   1.640   3.416   2.750 -0.8610 -0.1875  0.0048
 3047SOL     OW20599   0.617   2.038  15.851 -0.0066  0.1362  0.1405
 3047SOL    HW120600   0.645   2.129  15.837 -1.4219  0.5951  0.3138
 3047SOL    HW220601   0.582   2.044  15.940 -1.0171  0.7894 -0.3034
 3048SOL     OW20602   4.347   1.365   3.809 -0.0769 -0.4060  0.1333
 3048SOL    HW120603   4.277   1.430   3.819 -0.4575 -0.8166  0.1233
 3048SOL    HW220604   4.347   1.358   3.714 -1.6819  0.1138  0.0951
 3049SOL     OW20605   2.833   0.441   3.184  0.1017  0.0865 -0.2302
 3049SOL    HW120606   2.796   0.528   3.202 -0.3931 -0.4502  1.3820
 3049SOL    HW220607   2.902   0.471   3.125  0.6333  0.0072  0.3524
 3050SOL     OW20608   2.601   4.339   5.413  0.1562 -0.3811 -0.9881
 3050SOL    HW120609   2.656   4.376   5.483 -1.0592  1.0318 -0.7814
 3050SOL    HW220610   2.614   4.245   5.423 -0.3074 -0.3506 -0.0451
 3051SOL     OW20611   0.289   1.228   1.609  0.9679  0.2707 -0.4385
 3051SOL    HW120612   0.224   1.297   1.618 -0.1257 -0.5741 -1.9250
 3051SOL    HW220613   0.362   1.285   1.635  0.3879  0.8002  0.0305
 3052SOL     OW20614   1.502   0.453   7.042  0.1489  0.1321  0.1545
 3052SOL    HW120615   1.502   0.526   7.104 -0.2016  0.1400  0.1447
 3052SOL    HW220616   1.475   0.500   6.964 -2.3196  0.2228  1.0705
 3053SOL     OW20617   1.554   3.717   6.115  0.6569  0.1943 -0.5984
 3053SOL    HW120618   1.464   3.746   6.105  0.8224  1.0599  0.3498
 3053SOL    HW220619   1.573   3.694   6.024  0.6396 -2.4348  0.0642
 3054SOL     OW20620   4.484   3.975   9.148  0.2884  0.2579  0.0932
 3054SOL    HW120621   4.493   3.882   9.169  1.6600  0.3786  0.0105
 3054SOL    HW220622   4.445   3.967   9.061  0.1659 -0.1832  0.1896
 3055SOL     OW20623   1.536   2.878   8.711 -0.5521 -0.0365 -0.1150
 3055SOL    HW120624   1.496   2.964   8.719 -0.8338 -0.0493 -1.4160
 3055SOL    HW220625   1.534   2.842   8.799 -1.8100  2.5715  0.9212
 3056SOL     OW20626   3.057   2.009   5.971  0.4757  0.0624  0.0875
 3056SOL    HW120627   3.098   2.061   6.039  0.1219  1.0401 -0.4502
 3056SOL    HW220628   3.108   1.928   5.977  0.3292  0.1336  2.0675
 3057SOL     OW20629   4.292   0.061   0.751  0.5456  0.3824  0.0579
 3057SOL    HW120630   4.380   0.043   0.719  0.6460 -1.3409  1.3008
 3057SOL    HW220631   4.275   4.692   0.778 -1.3457  0.6577 -0.2409
 3058SOL     OW20632   0.735   0.806   3.546  0.3707  0.2098  0.4863
 3058SOL    HW120633   0.786   0.766   3.616  0.8281  0.7592  0.4631
 3058SOL    HW220634   0.732   0.893   3.585 -2.2583 -0.5187  1.9643
 3059SOL     OW20635   0.948   4.106   0.825  0.3100 -0.3194 -0.5702
 3059SOL    HW120636   1.042   4.088   0.815  0.3695  0.7088 -2.0408
 3059SOL    HW220637   0.950   4.142   0.913  0.6569 -0.9173 -0.3379
 3060SOL     OW20638   3.924   4.393   6.844 -0.2775  0.3210  0.0019
 3060SOL    HW120639   3.847   4.443   6.817 -0.7605 -1.4557 -1.8423
 3060SOL    HW220640   3.903   4.300   6.849  1.7279 -0.0542  1.3712
 3061SOL     OW20641   2.390   4.183   8.613  0.1290 -0.3014 -0.1590
 3061SOL    HW120642   2.387   4.088   8.614  2.0366 -0.3596 -0.1349
 3061SOL    HW220643   2.416   4.205   8.523 -1.0266 -1.7231 -0.8364
 3062SOL     OW20644   0.934   3.233   4.498  0.3686 -0.5473 -0.5480
 3062SOL    HW120645   1.007   3.279   4.539 -0.4072 -1.4518  1.8048
 3062SOL    HW220646   0.920   3.156   4.553  2.8878 -0.9094 -0.4143
 3063SOL     OW20647   2.311   3.844   2.641  0.3469  0.3025  0.0968
 3063SOL    HW120648   2.346   3.783   2.575 -2.3507 -0.9777 -0.1506
 3063SOL    HW220649   2.310   3.924   2.588  0.4413 -1.0407 -1.9581
 3064SOL     OW20650   1.063   4.403   8.696  0.0522  0.3614 -0.5497
 3064SOL    HW120651   1.046   4.430   8.786  0.0876  2.0563 -1.0430
 3064SOL    HW220652   1.096   4.314   8.707  2.6064  1.3936  0.3110
 3065SOL     OW20653   1.722   0.151   2.872 -0.0386  0.2745  0.0829
 3065SOL    HW120654   1.717   0.173   2.965 -1.9171 -0.5798  0.1965
 3065SOL    HW220655   1.808   0.188   2.857  0.9721 -1.7288  0.9549
 3066SOL     OW20656   3.497   4.362   2.738 -0.1911 -0.7827  0.6965
 3066SOL    HW120657   3.566   4.367   2.671 -0.4960 -0.2060  0.4294
 3066SOL    HW220658   3.520   4.278   2.777 -1.6200 -0.1854  2.7987
 3067SOL     OW20659   4.000   4.691   6.244  0.1673  0.4058 -0.8161
 3067SOL    HW120660   4.062   4.620   6.227 -2.0275 -2.0031  1.4147
 3067SOL    HW220661   4.030   0.040   6.186  1.7789 -0.3333 -0.8981
 3068SOL     OW20662   3.896   0.500  17.466 -0.1509  0.4870 -0.1037
 3068SOL    HW120663   3.966   0.551  17.424  0.9777 -1.0312 -0.0861
 3068SOL    HW220664   3.914   0.407  17.456 -3.9585 -0.0324 -2.1619
 3069SOL     OW20665   4.107   4.130   8.599 -0.6483 -0.5676 -0.0926
 3069SOL    HW120666   4.074   4.076   8.671 -0.3481  0.8484  1.0976
 3069SOL    HW220667   4.167   4.186   8.647 -0.5809 -0.6760 -0.0505
 3070SOL     OW20668   1.954   0.221   4.230 -0.6409  0.1972 -0.2430
 3070SOL    HW120669   1.859   0.210   4.225 -0.6586 -0.3204  1.2678
 3070SOL    HW220670   1.969   0.283   4.302  0.2603 -0.7653  0.3798
 3071SOL     OW20671   4.648   1.586   2.180 -0.3722  0.2135 -0.7407
 3071SOL    HW120672   4.638   1.584   2.085 -0.5885 -1.9263 -0.6639
 3071SOL    HW220673   4.595   1.666   2.190  0.8732  1.1008 -1.2547
 3072SOL     OW20674   3.238   1.482   9.276 -0.2507 -0.1942 -0.0478
 3072SOL    HW120675   3.237   1.424   9.352 -1.3583  2.1558  1.7343
 3072SOL    HW220676   3.310   1.543   9.291  0.1866 -0.1179 -2.5682
 3073SOL     OW20677   4.313   1.506   4.923  0.2584 -0.9014 -0.1015
 3073SOL    HW120678   4.365   1.483   4.846  1.8871  1.5609  0.2623
 3073SOL    HW220679   4.382   1.497   4.988  1.2411  0.9970 -0.8847
 3074SOL     OW20680   3.585   3.546   7.260  0.1202  0.0864 -0.1091
 3074SOL    HW120681   3.630   3.485   7.318  1.2794  0.8052 -0.2520
 3074SOL    HW220682   3.492   3.534   7.281  0.2539 -1.1977 -0.2593
 3075SOL     OW20683   4.505   3.237  16.489 -0.5782 -0.5524  0.4519
 3075SOL    HW120684   4.520   3.332  16.490 -0.0576 -0.6406  0.8572
 3075SOL    HW220685   4.426   3.223  16.436 -1.6624  3.9337  0.8525
 3076SOL     OW20686   0.675   1.136   4.573 -0.0825 -0.3129 -0.3374
 3076SOL    HW120687   0.732   1.068   4.538 -0.5662  0.0903 -1.8762
 3076SOL    HW220688   0.673   1.204   4.507 -1.8335 -0.8832 -0.8585
 3077SOL     OW20689   2.647   3.571   0.568 -0.3793  0.1269  0.3420
 3077SOL    HW120690   2.699   3.642   0.604 -0.5002 -0.3615  1.4725
 3077SOL    HW220691   2.577   3.544   0.628 -0.9048 -1.7747 -1.0894
 3078SOL     OW20692   0.933   2.881   7.042 -0.1084  0.5604 -0.2904
 3078SOL    HW120693   0.926   2.948   7.111 -1.5679  0.9343 -0.7955
 3078SOL    HW220694   0.964   2.802   7.086 -2.5992 -0.1090  0.2902
 3079SOL     OW20695   2.793   3.908   5.854 -0.1359  0.5224 -0.2871
 3079SOL    HW120696   2.809   3.892   5.947 -0.7259 -1.3299 -0.5056
 3079SOL    HW220697   2.877   3.944   5.827 -0.0382  0.6623  0.1990
 3080SOL     OW20698   4.058   0.371  16.072  0.5986  0.4395  0.4130
 3080SOL    HW120699   4.143   0.374  16.115 -0.4490  1.0862  2.4433
 3080SOL    HW220700   4.074   0.339  15.983 -0.6291 -1.3791  0.8500
 3081SOL     OW20701   3.083   2.644  11.137  0.2774 -0.0562  0.2933
 3081SOL    HW120702   3.094   2.550  11.126  1.3103  0.3178 -1.9569
 3081SOL    HW220703   3.005   2.660  11.085 -0.3766  1.6740  1.8003
 3082SOL     OW20704   3.957   1.923  16.550  0.4984 -0.4568 -0.3732
 3082SOL    HW120705   3.940   1.917  16.644 -3.3070 -0.6235 -1.0538
 3082SOL    HW220706   3.892   1.988  16.522  0.0341 -0.4036  0.8257
 3083SOL     OW20707   4.603   4.642  12.917  0.3138  0.2278  0.1921
 3083SOL    HW120708   4.577   4.556  12.886 -0.1898  0.5879 -0.3846
 3083SOL    HW220709   4.697   4.638  12.896  0.5154 -1.0338  1.3402
 3084SOL     OW20710   4.200   4.336   6.904  0.2760 -0.2280 -0.0118
 3084SOL    HW120711   4.135   4.318   6.972  0.5166 -0.9143  0.0362
 3084SOL    HW220712   4.231   4.422   6.933  0.8991 -0.2712 -0.5614
 3085SOL     OW20713   0.553   3.676   1.577  0.3644 -0.2680 -0.4456
 3085SOL    HW120714   0.531   3.602   1.634 -1.8700  1.4430  0.9011
 3085SOL    HW220715   0.574   3.740   1.645 -2.9025 -0.0791  0.3743
 3086SOL     OW20716   0.619   1.297   8.503  0.0563 -0.5607  0.0674
 3086SOL    HW120717   0.707   1.271   8.476 -0.3607 -1.7148 -0.1901
 3086SOL    HW220718   0.567   1.218   8.490 -0.7694  0.4138 -2.6506
 3087SOL     OW20719   0.234   1.060   3.631 -0.3023 -0.5776 -0.6831
 3087SOL    HW120720   0.211   1.122   3.701  1.6067 -0.3472 -0.2439
 3087SOL    HW220721   0.318   1.027   3.664  0.1721  1.8865  0.5666
 3088SOL     OW20722   3.945   2.733  14.910 -0.3809  0.2781  0.1120
 3088SOL    HW120723   3.900   2.817  14.904 -1.1896 -0.1688  0.0267
 3088SOL    HW220724   3.955   2.715  14.816  1.9902 -2.0153  0.7932
 3089SOL     OW20725   4.135   2.872   9.770 -0.0846  0.3374  0.5157
 3089SOL    HW120726   4.170   2.961   9.765 -2.1021  1.1938  1.5552
 3089SOL    HW220727   4.057   2.886   9.823 -0.6379 -2.8036  0.5379
 3090SOL     OW20728   4.355   4.074   4.194 -0.1915  0.5262 -0.1171
 3090SOL    HW120729   4.378   4.115   4.111  0.2200 -0.3878 -0.4542
 3090SOL    HW220730   4.434   4.019   4.203 -0.8947 -0.6283 -0.9684
 3091SOL     OW20731   3.226   2.628   8.928  0.3028  0.0466  0.3792
 3091SOL    HW120732   3.182   2.695   8.876  0.3875  0.1566  0.4490
 3091SOL    HW220733   3.156   2.573   8.964  0.5379 -0.9141 -0.6214
 3092SOL     OW20734   2.004   2.133  11.602  0.1507  0.4684  0.2094
 3092SOL    HW120735   1.929   2.100  11.554 -0.9478  1.5493  1.1901
 3092SOL    HW220736   1.979   2.224  11.586  0.7652  0.5733 -0.1655
 3093SOL     OW20737   1.492   2.933  12.128 -0.1203  0.1538 -0.3029
 3093SOL    HW120738   1.567   2.882  12.097  0.0886  0.7977 -0.8668
 3093SOL    HW220739   1.469   2.887  12.209  0.7525 -0.4098 -0.3768
 3094SOL     OW20740   2.174   1.797   5.627 -0.4775  0.0924  0.1645
 3094SOL    HW120741   2.229   1.853   5.682 -1.5452 -0.0096  1.3340
 3094SOL    HW220742   2.232   1.722   5.614  0.3486  0.8718 -0.6359
 3095SOL     OW20743   2.110   0.433   2.062  0.5817 -0.0358  0.4239
 3095SOL    HW120744   2.106   0.529   2.066  1.1205 -0.1043  2.9801
 3095SOL    HW220745   2.035   0.411   2.117  1.5133  1.0705  2.1731
 3096SOL     OW20746   4.574   0.920   5.517 -0.3738  0.1915 -0.1478
 3096SOL    HW120747   4.621   0.844   5.482  0.0250  0.8050 -0.9438
 3096SOL    HW220748   4.556   0.969   5.437 -1.9048  0.4091  0.3363
 3097SOL     OW20749   0.642   0.508   9.927  0.0207 -0.1109 -0.3469
 3097SOL    HW120750   0.668   0.576   9.989 -2.3428  0.2941  0.2179
 3097SOL    HW220751   0.722   0.462   9.902  0.4902 -1.0945  3.0460
 3098SOL     OW20752   4.292   1.788   8.485 -0.3493  0.0321  0.3430
 3098SOL    HW120753   4.295   1.839   8.566  0.1585  0.5663 -0.0126
 3098SOL    HW220754   4.310   1.702   8.524 -0.4408 -0.2543 -0.2552
 3099SOL     OW20755   4.513   3.541   6.796  0.1461 -0.2387 -0.4035
 3099SOL    HW120756   4.476   3.561   6.882  1.7523  0.0173  0.2208
 3099SOL    HW220757   4.607   3.558   6.802 -0.4103  2.5168  0.6147
 3100SOL     OW20758   1.181   4.618   7.442 -0.3271 -0.2138 -0.2831
 3100SOL    HW120759   1.209   4.530   7.415  1.4621 -0.0707  1.1086
 3100SOL    HW220760   1.248   4.649   7.503 -1.0714  1.0648 -0.1274
 3101SOL     OW20761   1.279   4.074   9.382  0.3650  0.6024 -0.0492
 3101SOL    HW120762   1.221   3.999   9.370  0.0168  1.0908 -1.3928
 3101SOL    HW220763   1.216   4.125   9.431  1.4101  1.6662  0.1938
 3102SOL     OW20764   0.176   3.236   8.889 -0.7772  0.0694  0.0276
 3102SOL    HW120765   0.199   3.184   8.812  0.7709 -1.4175  1.4852
 3102SOL    HW220766   0.081   3.237   8.882 -0.6510  0.6388 -1.5649
 3103SOL     OW20767   0.388   0.350  11.634 -0.0474 -0.2311  0.3516
 3103SOL    HW120768   0.444   0.282  11.673  0.5148  0.5737  0.9520
 3103SOL    HW220769   0.315   0.344  11.696 -0.4258 -0.7080 -0.1425
 3104SOL     OW20770   1.937   2.284   0.593 -0.1889  0.3129 -0.3036
 3104SOL    HW120771   1.932   2.285   0.689 -2.3764  3.0755 -0.4655
 3104SOL    HW220772   1.865   2.224   0.574 -1.0145  1.8928 -2.0848
 3105SOL     OW20773   2.795   0.444   2.582 -0.0465  0.2228 -0.0819
 3105SOL    HW120774   2.831   0.356   2.573 -1.3467 -0.3135  0.0086
 3105SOL    HW220775   2.874   0.499   2.580  1.1034 -1.2964  4.9183
 3106SOL     OW20776   2.433   3.079   3.957  0.0077  0.0637 -0.2228
 3106SOL    HW120777   2.358   3.024   3.935 -1.3294  1.3982  0.9860
 3106SOL    HW220778   2.505   3.024   3.927  1.3858  1.5542  0.3293
 3107SOL     OW20779   0.432   2.479   3.395  0.1025  0.0757  0.7788
 3107SOL    HW120780   0.461   2.549   3.336  0.0437 -1.1919 -0.7635
 3107SOL    HW220781   0.367   2.431   3.343 -1.2401  0.1818  2.3721
 3108SOL     OW20782   3.543   1.729   3.892 -0.2166 -0.0004 -0.3519
 3108SOL    HW120783   3.595   1.675   3.951 -1.0003  0.3094  0.6263
 3108SOL    HW220784   3.463   1.731   3.944  0.8621 -0.5537  1.3100
 3109SOL     OW20785   3.233   1.663  15.647 -0.0341  0.2532  0.3365
 3109SOL    HW120786   3.138   1.666  15.661 -0.2716 -2.0175 -0.6613
 3109SOL    HW220787   3.237   1.567  15.643 -1.3248  0.2974 -2.2944
 3110SOL     OW20788   2.938   0.736   3.119  0.2416  0.1235  0.0565
 3110SOL    HW120789   2.962   0.728   3.027 -0.7551 -1.1008 -0.0908
 3110SOL    HW220790   2.946   0.831   3.132 -1.0584  0.2471 -0.0390
 3111SOL     OW20791   2.003   2.776   7.394  0.0089 -0.5503 -0.1923
 3111SOL    HW120792   2.006   2.865   7.427  0.7334 -1.1370  1.3327
 3111SOL    HW220793   2.097   2.759   7.388  0.6216  3.8578 -2.9991
 3112SOL     OW20794   2.083   1.457   2.193  0.9653  0.6057 -0.1044
 3112SOL    HW120795   2.058   1.380   2.141  4.8644 -0.8649  0.2247
 3112SOL    HW220796   2.065   1.531   2.136  0.8637  0.8473  0.2407
 3113SOL     OW20797   0.952   1.150   5.134 -0.3958 -0.1742 -0.5368
 3113SOL    HW120798   0.883   1.085   5.144 -1.3807  0.8580 -0.5720
 3113SOL    HW220799   0.915   1.218   5.191  0.9787  0.0922  0.0458
 3114SOL     OW20800   0.855   2.154   8.304 -0.1049  0.4482 -0.1917
 3114SOL    HW120801   0.872   2.244   8.277  0.6570  0.1613 -0.6508
 3114SOL    HW220802   0.913   2.154   8.380 -2.9361 -1.0535  1.9967
 3115SOL     OW20803   2.556   2.414   7.469 -0.5550 -0.0169 -0.0123
 3115SOL    HW120804   2.648   2.439   7.460 -0.7341  0.4175 -0.6593
 3115SOL    HW220805   2.546   2.425   7.564  0.0651 -0.7669  0.1313
 3116SOL     OW20806   2.584   1.475   6.736 -0.3984  0.1896  0.1005
 3116SOL    HW120807   2.538   1.557   6.716 -1.8873 -0.2931  1.5928
 3116SOL    HW220808   2.679   1.490   6.731 -0.1870 -1.1503  0.1117
 3117SOL     OW20809   1.537   3.719  14.932 -0.0460  0.2336 -0.1871
 3117SOL    HW120810   1.626   3.735  14.960  0.3300  1.6352 -2.1519
 3117SOL    HW220811   1.495   3.806  14.931 -0.5607 -0.0163 -0.6682
 3118SOL     OW20812   3.581   0.112   9.152  0.1241 -0.2140  0.6458
 3118SOL    HW120813   3.623   0.032   9.121  0.8450  0.9898 -1.4406
 3118SOL    HW220814   3.490   0.082   9.153 -0.1653  0.5647 -1.5668
 3119SOL     OW20815   0.002   2.887   0.557  0.1768 -0.7564 -0.5750
 3119SOL    HW120816   4.707   2.904   0.464  1.2798 -0.1994 -0.6587
 3119SOL    HW220817   0.095   2.869   0.550  0.5408  0.3847  1.4136
 3120SOL     OW20818   4.045   3.991   8.825  0.2839 -0.0196 -0.2188
 3120SOL    HW120819   4.086   3.978   8.911 -1.3425 -1.9842  0.2534
 3120SOL    HW220820   4.007   3.908   8.796 -2.1903  1.8845 -2.3896
 3121SOL     OW20821   2.254   2.399   6.533  0.7612  0.1480  0.3698
 3121SOL    HW120822   2.311   2.410   6.457 -0.6979  1.1690 -0.5645
 3121SOL    HW220823   2.179   2.457   6.519 -0.8990 -1.8689  0.8773
 3122SOL     OW20824   3.923   3.483  15.735  0.2896 -0.1315  0.0556
 3122SOL    HW120825   3.845   3.453  15.782  0.8048 -1.5272 -0.0060
 3122SOL    HW220826   3.982   3.409  15.748  0.1820 -0.3416 -0.7080
 3123SOL     OW20827   2.898   0.833   2.509  0.1917  0.4261 -0.2811
 3123SOL    HW120828   2.950   0.879   2.574 -1.5512  1.4474  0.3996
 3123SOL    HW220829   2.957   0.765   2.478 -0.1616  0.3712 -0.8378
 3124SOL     OW20830   3.599   2.104  10.020 -0.4727  0.5931  0.3031
 3124SOL    HW120831   3.602   2.171  10.088  0.7739 -0.2454  1.0632
 3124SOL    HW220832   3.681   2.115   9.971  0.0001  1.2000  1.2216
 3125SOL     OW20833   4.440   2.596  12.370  0.0806  0.6072  0.1177
 3125SOL    HW120834   4.389   2.525  12.331  1.6877  0.3900 -1.5624
 3125SOL    HW220835   4.436   2.657  12.296  1.1828 -0.5072 -0.8525
 3126SOL     OW20836   3.438   3.630   2.338 -0.1139 -0.8486 -0.2440
 3126SOL    HW120837   3.472   3.572   2.405 -0.4628 -2.5323 -1.5378
 3126SOL    HW220838   3.517   3.648   2.287 -0.3743 -0.7203 -0.6054
 3127SOL     OW20839   1.364   1.557  12.860  0.3417 -0.0066  0.3380
 3127SOL    HW120840   1.287   1.515  12.822 -0.8966  1.9602  0.7246
 3127SOL    HW220841   1.413   1.480  12.892  0.2593  0.2355  1.0476
 3128SOL     OW20842   2.117   4.366   6.600 -0.1787 -0.6689 -0.0024
 3128SOL    HW120843   2.202   4.409   6.589 -0.9068  0.4687 -1.2886
 3128SOL    HW220844   2.147   4.291   6.650  2.4662  0.7387  0.5541
 3129SOL     OW20845   3.548   1.049  12.327  0.4181  0.0251 -0.1996
 3129SOL    HW120846   3.622   0.992  12.307  0.2403  0.0604 -0.9510
 3129SOL    HW220847   3.563   1.122  12.267  2.4445  0.5688  0.9451
 3130SOL     OW20848   2.928   1.766  11.229  0.0502  0.1867 -0.1923
 3130SOL    HW120849   2.957   1.681  11.263 -0.3716 -0.6566 -1.9644
 3130SOL    HW220850   2.957   1.814  11.306 -2.6456  0.2081  0.8357
 3131SOL     OW20851   0.817   2.909   9.059 -0.9659  0.7181  0.1491
 3131SOL    HW120852   0.774   2.939   9.139  0.3566  1.2727  0.6568
 3131SOL    HW220853   0.843   2.821   9.085 -3.0065  0.0387 -0.0943
 3132SOL     OW20854   0.473   1.440   6.036 -0.6089  0.2608  0.4717
 3132SOL    HW120855   0.568   1.431   6.031 -0.6966 -0.0900 -0.6653
 3132SOL    HW220856   0.448   1.521   5.991 -0.8318 -1.2913 -2.2143
 3133SOL     OW20857   1.562   0.215   8.563  0.0050  0.1362  0.0911
 3133SOL    HW120858   1.467   0.221   8.563 -0.0151 -0.1632  1.5968
 3133SOL    HW220859   1.581   0.139   8.508  0.7871  0.7080 -0.4335
 3134SOL     OW20860   0.129   0.270   3.120  0.1281  0.3740 -0.5798
 3134SOL    HW120861   0.129   0.365   3.108 -0.7912  0.5852  1.0100
 3134SOL    HW220862   0.102   0.248   3.031  0.3721  1.2507 -0.8672
 3135SOL     OW20863   1.359   3.595  16.351  0.2292  0.2661 -0.6268
 3135SOL    HW120864   1.369   3.658  16.280  0.9200  0.4836 -0.3352
 3135SOL    HW220865   1.295   3.534  16.314 -0.3641  1.0692 -0.8998
 3136SOL     OW20866   3.142   3.910   5.045 -0.1673  0.6012  0.3214
 3136SOL    HW120867   3.205   3.852   5.001  0.3414  1.0151  0.5122
 3136SOL    HW220868   3.156   3.894   5.138  0.4604  2.5296  0.5422
 3137SOL     OW20869   0.998   3.003   0.976  0.7112 -0.4629 -0.2576
 3137SOL    HW120870   0.962   3.049   0.900 -0.7162 -1.6166 -0.2946
 3137SOL    HW220871   0.918   2.971   1.018  0.3456 -0.7925 -1.2073
 3138SOL     OW20872   2.014   1.804   4.463 -0.4766  0.5730 -0.0062
 3138SOL    HW120873   2.009   1.891   4.424 -2.8206 -0.1090 -1.3016
 3138SOL    HW220874   2.079   1.830   4.528 -0.0792 -0.9762  0.2277
 3139SOL     OW20875   3.373   3.750   7.752 -0.0137  1.0829 -0.5991
 3139SOL    HW120876   3.454   3.766   7.705  0.2793 -0.5586 -0.6592
 3139SOL    HW220877   3.320   3.727   7.675 -1.4383  1.7030  0.1945
 3140SOL     OW20878   1.062   0.284   2.999 -0.3254  0.1202  0.1140
 3140SOL    HW120879   0.997   0.352   2.986 -0.2456  0.3512  0.9043
 3140SOL    HW220880   1.052   0.265   3.093 -0.6305 -0.0337  0.0506
 3141SOL     OW20881   4.310   1.855   6.820  0.0452  0.0682  0.4419
 3141SOL    HW120882   4.222   1.867   6.784  1.1283  2.6939 -1.3005
 3141SOL    HW220883   4.311   1.924   6.886 -0.8226  0.4503  0.0546
 3142SOL     OW20884   1.324   4.003  15.514 -0.5142 -0.1629  0.0197
 3142SOL    HW120885   1.252   4.057  15.546 -0.1448 -0.3385  1.1555
 3142SOL    HW220886   1.391   4.016  15.581 -0.3135 -0.7569 -0.0658
 3143SOL     OW20887   2.333   3.261   6.308 -0.1312 -0.2641  0.1423
 3143SOL    HW120888   2.364   3.350   6.324  0.5035 -0.6691  1.1400
 3143SOL    HW220889   2.237   3.264   6.310 -0.1241  0.6366 -0.6893
 3144SOL     OW20890   1.038   0.872   3.952  0.1322 -0.4092  0.1362
 3144SOL    HW120891   1.132   0.884   3.938 -0.0996 -0.0685 -1.1296
 3144SOL    HW220892   1.016   0.819   3.876  1.0532 -1.4518  0.5837
 3145SOL     OW20893   0.353   3.163  11.139  0.0959 -0.4281  0.1199
 3145SOL    HW120894   0.295   3.088  11.157  1.6537 -1.7511 -0.3760
 3145SOL    HW220895   0.338   3.222  11.212  1.9683 -1.0376  0.9870
 3146SOL     OW20896   1.153   4.648  15.745  0.3520 -0.2761  0.0205
 3146SOL    HW120897   1.120   0.016  15.732 -1.6551 -1.2851 -1.7776
 3146SOL    HW220898   1.241   4.650  15.708  0.1403 -2.2068 -0.6145
 3147SOL     OW20899   4.574   1.084  14.978 -0.1004  0.7385  0.2433
 3147SOL    HW120900   4.560   1.019  15.048  0.1909 -0.2972 -0.6544
 3147SOL    HW220901   4.503   1.042  14.929 -0.9817 -0.6239  2.6333
 3148SOL     OW20902   2.818   1.683   7.651  0.6290 -0.3529  0.2775
 3148SOL    HW120903   2.910   1.693   7.676  0.3314  0.9126  0.8873
 3148SOL    HW220904   2.795   1.757   7.595 -0.1317 -1.0074 -0.2641
 3149SOL     OW20905   4.389   2.233   7.646  0.2665 -0.0582  0.0465
 3149SOL    HW120906   4.409   2.217   7.738 -0.5750 -1.1581  0.0371
 3149SOL    HW220907   4.337   2.154   7.633 -1.1655  1.0373 -0.8208
 3150SOL     OW20908   0.583   0.551   4.016 -0.0096  0.5052 -0.2123
 3150SOL    HW120909   0.540   0.467   4.033 -0.3876  0.8658  0.6431
 3150SOL    HW220910   0.674   0.522   4.010  0.4045  1.6001  0.8084
 3151SOL     OW20911   0.110   1.602   5.160  0.2572  0.3310  0.1669
 3151SOL    HW120912   0.100   1.590   5.255 -0.7110 -0.7963 -0.0772
 3151SOL    HW220913   0.191   1.653   5.157  1.1446 -1.0241  1.2112
 3152SOL     OW20914   0.826   0.586   3.341  0.6494  0.3834 -0.5271
 3152SOL    HW120915   0.783   0.661   3.383 -0.0189  0.8288 -2.0088
 3152SOL    HW220916   0.851   0.536   3.419 -1.0564 -0.9705 -0.8522
 3153SOL     OW20917   2.220   3.603  16.962 -0.4798  0.0296 -0.7289
 3153SOL    HW120918   2.155   3.579  17.027 -0.9823  0.4183 -1.0868
 3153SOL    HW220919   2.164   3.648  16.898 -1.9534 -0.8365 -0.0562
 3154SOL     OW20920   0.515   0.044  15.800 -0.0156  0.2228  0.3901
 3154SOL    HW120921   0.606   0.050  15.830 -0.1929  0.7012  0.8519
 3154SOL    HW220922   0.521   0.086  15.715  0.6408 -0.7016 -0.0201
 3155SOL     OW20923   0.379   2.339   1.998  0.1350 -0.2329 -0.6802
 3155SOL    HW120924   0.454   2.364   2.051 -0.2608 -2.3011  0.8590
 3155SOL    HW220925   0.348   2.264   2.050  1.5307 -0.6659 -0.4581
 3156SOL     OW20926   1.945   0.100   3.044  0.5820 -0.3031  0.1173
 3156SOL    HW120927   1.974   0.107   3.135 -0.9767 -0.8399  0.6416
 3156SOL    HW220928   1.920   0.008   3.036  0.2579 -0.2571  0.5703
 3157SOL     OW20929   3.337   3.787  10.080  0.2371  0.2911  0.3368
 3157SOL    HW120930   3.278   3.860  10.097  1.2846  0.7928  1.9237
 3157SOL    HW220931   3.348   3.756  10.170 -2.2117 -0.4919  0.3451
 3158SOL     OW20932   1.746   1.569   1.798  0.4192 -0.3772 -0.5210
 3158SOL    HW120933   1.738   1.605   1.710 -2.1817  2.9645  1.0880
 3158SOL    HW220934   1.667   1.604   1.840  0.7951 -0.6500  0.4284
 3159SOL     OW20935   1.910   2.547   7.237  0.1048  0.2514 -0.1587
 3159SOL    HW120936   1.934   2.633   7.269 -0.7290  0.7238 -0.8033
 3159SOL    HW220937   1.868   2.509   7.315  0.1117  2.2165  0.8051
 3160SOL     OW20938   1.080   4.324   1.512 -0.4356  0.0878  0.3273
 3160SOL    HW120939   0.997   4.372   1.510 -0.1577  0.6814  2.3191
 3160SOL    HW220940   1.132   4.399   1.484 -0.0869  0.1969  1.2502
 3161SOL     OW20941   0.458   4.548   4.652 -0.0402  0.0740 -0.2057
 3161SOL    HW120942   0.467   4.463   4.610  1.8232 -0.2316  0.7976
 3161SOL    HW220943   0.366   4.548   4.679  0.4389 -0.4968  1.3977
 3162SOL     OW20944   0.174   2.099   7.081 -0.5003 -0.3466  0.0413
 3162SOL    HW120945   0.218   2.014   7.090  0.3051  0.0060 -0.5530
 3162SOL    HW220946   0.201   2.137   7.165  0.3777 -1.3046  0.2034
 3163SOL     OW20947   0.055   0.080   0.298 -0.3103 -0.0884  0.1595
 3163SOL    HW120948   0.118   0.021   0.257  0.0042  0.6886 -0.4834
 3163SOL    HW220949   0.073   0.164   0.255 -0.2406 -0.9277 -1.4315
 3164SOL     OW20950   0.393   0.376   4.539  0.3195  0.4837  0.4516
 3164SOL    HW120951   0.385   0.282   4.526  0.7734  0.5839 -0.5413
 3164SOL    HW220952   0.391   0.408   4.449  0.7030  1.0797  0.6517
 3165SOL     OW20953   1.146   0.134  11.000  0.0448  0.2087  0.0864
 3165SOL    HW120954   1.183   0.219  11.022  1.1701 -1.1803  3.7188
 3165SOL    HW220955   1.089   0.129  11.077 -1.1213 -0.9738 -0.8565
 3166SOL     OW20956   0.974   3.735  16.845  0.2211 -0.2116 -0.7466
 3166SOL    HW120957   0.961   3.727  16.940 -0.3098  2.7056 -0.5982
 3166SOL    HW220958   0.883   3.719  16.819  0.1631  0.7971 -1.1332
 3167SOL     OW20959   1.899   2.822   0.299  0.3023  0.4303  0.0263
 3167SOL    HW120960   1.943   2.738   0.309  0.1775  0.3533 -0.0721
 3167SOL    HW220961   1.975   2.873   0.270  0.5153 -0.6010 -1.2114
 3168SOL     OW20962   1.838   2.854   5.666 -0.3436 -0.4025  0.1182
 3168SOL    HW120963   1.795   2.874   5.749 -2.9629 -0.9543 -1.1123
 3168SOL    HW220964   1.839   2.943   5.630 -0.5073 -0.2525  0.4838
 3169SOL     OW20965   0.508   2.538  17.246 -0.6473  0.1042  0.1964
 3169SOL    HW120966   0.458   2.484  17.308 -1.9544 -0.2329 -1.1587
 3169SOL    HW220967   0.487   2.486  17.168 -0.3653  0.2795  0.0059
 3170SOL     OW20968   1.841   2.623   4.107 -0.6163  0.5554  0.0463
 3170SOL    HW120969   1.897   2.701   4.101 -2.8505  2.1535  0.1232
 3170SOL    HW220970   1.859   2.594   4.196 -1.2868  1.9369  0.6306
 3171SOL     OW20971   1.328   0.077  17.088  0.0448 -0.0918  0.7011
 3171SOL    HW120972   1.295   0.167  17.097  1.7978  0.6292 -0.0447
 3171SOL    HW220973   1.274   0.058  17.011  1.2946  2.1355 -0.7484
 3172SOL     OW20974   1.595   1.701  10.388  0.1653 -0.4114 -0.2779
 3172SOL    HW120975   1.573   1.793  10.399  3.1940  0.3048 -0.1753
 3172SOL    HW220976   1.601   1.696  10.292 -1.0113 -1.6437 -0.2912
 3173SOL     OW20977   0.162   3.347   9.861 -0.0444 -0.5738  0.1554
 3173SOL    HW120978   0.070   3.322   9.846 -0.3636 -0.6179  2.0787
 3173SOL    HW220979   0.172   3.314   9.951  0.2146 -0.4963  0.1547
 3174SOL     OW20980   0.026   1.526  11.226 -0.5952 -0.1207 -0.6048
 3174SOL    HW120981   0.074   1.540  11.307  0.6623 -1.8328 -1.0571
 3174SOL    HW220982   4.686   1.598  11.239 -3.3642 -2.3056 -1.3135
 3175SOL     OW20983   3.003   0.871   5.200 -0.2250 -0.2077 -0.1663
 3175SOL    HW120984   3.078   0.823   5.165 -1.3917 -1.4366 -0.9654
 3175SOL    HW220985   3.040   0.922   5.273  0.6787 -1.2672  0.1073
 3176SOL     OW20986   1.307   1.485   2.250  0.0208  0.3622 -0.5571
 3176SOL    HW120987   1.227   1.433   2.254  0.9841 -0.9258  2.1436
 3176SOL    HW220988   1.280   1.577   2.250  2.3140  1.0436 -0.3936
 3177SOL     OW20989   2.018   4.606   6.910  0.0086 -0.0730 -0.2544
 3177SOL    HW120990   2.015   4.623   6.816 -0.8507  0.3052 -0.1576
 3177SOL    HW220991   2.016   4.697   6.939 -0.6213 -0.3952  0.7392
 3178SOL     OW20992   1.997   2.870   0.807 -0.0240 -0.1445 -0.0514
 3178SOL    HW120993   1.990   2.937   0.739  0.4604  0.5896  0.6403
 3178SOL    HW220994   1.966   2.794   0.757  0.9001  1.3270 -2.8829
 3179SOL     OW20995   2.575   0.844   8.511  0.0883 -0.2076  0.5539
 3179SOL    HW120996   2.567   0.818   8.603  1.4416  1.3048  1.0923
 3179SOL    HW220997   2.648   0.790   8.479 -0.1739 -0.8771  1.1039
 3180SOL     OW20998   2.037   1.948   7.461  0.0293  0.0063 -0.0704
 3180SOL    HW120999   2.006   1.946   7.551 -0.5559 -1.0573 -0.2994
 3180SOL    HW221000   2.117   1.896   7.462  0.7518  1.1316  0.5064
 3181SOL     OW21001   1.185   0.224   8.053  0.3673  1.0060 -0.3279
 3181SOL    HW121002   1.246   0.159   8.087 -0.8664 -0.3579 -0.7249
 3181SOL    HW221003   1.202   0.228   7.958 -1.4150 -3.2315 -0.8102
 3182SOL     OW21004   2.203   4.229  15.711 -0.2123  0.0701  0.3702
 3182SOL    HW121005   2.282   4.270  15.675  0.7980 -1.2008  1.1278
 3182SOL    HW221006   2.142   4.297  15.684 -0.6290 -2.0029 -3.9467
 3183SOL     OW21007   1.254   0.118   5.187 -0.3784  0.3054  0.3376
 3183SOL    HW121008   1.301   0.127   5.104  0.7824 -0.5600  0.9065
 3183SOL    HW221009   1.244   0.211   5.210  0.9741  0.5084  0.0799
 3184SOL     OW21010   2.854   0.225   8.493  0.5722  0.0111  0.2451
 3184SOL    HW121011   2.943   0.194   8.479  0.9172  0.7598  0.8112
 3184SOL    HW221012   2.805   0.160   8.544  0.0688  0.5846  0.4955
 3185SOL     OW21013   2.019   1.191   6.578 -0.3371 -0.2993 -0.2072
 3185SOL    HW121014   2.015   1.133   6.654 -2.0083 -0.7655 -0.6444
 3185SOL    HW221015   1.956   1.155   6.516 -0.4585 -0.5489  0.0627
 3186SOL     OW21016   3.522   2.428   2.902 -0.5491 -0.2212  0.3162
 3186SOL    HW121017   3.503   2.522   2.893  1.8241  0.3382  1.0978
 3186SOL    HW221018   3.587   2.407   2.835 -3.0572  1.5904 -2.7571
 3187SOL     OW21019   1.239   3.680   0.687  0.3150 -0.5035 -0.0713
 3187SOL    HW121020   1.305   3.614   0.666  0.9697 -0.0525  0.5589
 3187SOL    HW221021   1.291   3.760   0.696  0.9878 -1.0763  1.0984
 3188SOL     OW21022   0.263   3.950   8.415  0.5046 -0.5229  0.2674
 3188SOL    HW121023   0.254   3.908   8.501  0.9984  0.2653  0.7082
 3188SOL    HW221024   0.181   3.998   8.418  1.9786  2.0320 -0.1198
 3189SOL     OW21025   0.112   0.339   2.839 -0.4829  0.2833 -0.3846
 3189SOL    HW121026   0.097   0.271   2.773  0.4164 -0.3592  0.0696
 3189SOL    HW221027   0.166   0.393   2.780 -1.6249  1.1950 -0.6081
 3190SOL     OW21028   2.931   2.504  17.245 -0.2957  0.0167  0.0376
 3190SOL    HW121029   2.843   2.520  17.277 -0.4788  0.4160 -0.6510
 3190SOL    HW221030   2.967   2.593  17.252 -0.3916 -0.0937  1.7687
 3191SOL     OW21031   2.514   2.040   8.138 -0.2658  0.4871  0.4591
 3191SOL    HW121032   2.423   2.017   8.123  0.0671 -1.2420  1.0091
 3191SOL    HW221033   2.523   2.037   8.234 -0.0398 -1.7521  0.3886
 3192SOL     OW21034   3.627   3.813  11.740 -0.2638  0.3317 -0.1643
 3192SOL    HW121035   3.703   3.768  11.704 -0.9858 -0.1629 -1.0895
 3192SOL    HW221036   3.569   3.815  11.663 -0.7676 -2.7016  0.1307
 3193SOL     OW21037   2.990   2.303   3.001  0.1108 -0.2718 -0.2254
 3193SOL    HW121038   2.986   2.223   2.949  0.0018 -0.9919  0.8839
 3193SOL    HW221039   2.947   2.363   2.940  0.8974  1.8071  1.2629
 3194SOL     OW21040   4.469   3.283   4.558 -0.0115  0.0419 -0.1299
 3194SOL    HW121041   4.441   3.276   4.649 -1.8499 -2.0105 -0.8384
 3194SOL    HW221042   4.513   3.198   4.566 -0.1630 -0.1023 -0.8504
 3195SOL     OW21043   3.476   1.642   7.865  0.8870  0.1153  0.2464
 3195SOL    HW121044   3.441   1.730   7.878 -2.1784 -0.7969 -1.9823
 3195SOL    HW221045   3.555   1.651   7.812  1.5769  2.5124  1.6655
 3196SOL     OW21046   2.382   1.056   3.447  0.2875  0.0199 -0.1933
 3196SOL    HW121047   2.326   1.049   3.524 -0.2310  0.7438 -0.5046
 3196SOL    HW221048   2.363   0.975   3.399  0.5086 -1.2616  1.9289
 3197SOL     OW21049   3.013   3.168   1.271 -0.7946 -0.2930  0.2695
 3197SOL    HW121050   3.092   3.131   1.232 -1.3482 -0.8656 -0.3137
 3197SOL    HW221051   3.037   3.260   1.277  1.1320 -0.6706 -1.7186
 3198SOL     OW21052   3.100   3.388   6.356  0.2742 -0.2920  0.0788
 3198SOL    HW121053   3.182   3.355   6.320 -0.3036 -0.3834 -1.1554
 3198SOL    HW221054   3.051   3.306   6.360 -0.3107  0.1037  1.1629
 3199SOL     OW21055   4.033   2.648   5.591 -0.5008 -0.0861 -0.3922
 3199SOL    HW121056   3.973   2.674   5.521 -0.4991 -0.7798 -0.6530
 3199SOL    HW221057   3.998   2.561   5.605 -1.1005  0.5293  1.8649
 3200SOL     OW21058   1.710   2.572   6.922  0.1523 -0.4244 -0.0683
 3200SOL    HW121059   1.660   2.616   6.853  1.7336 -0.6104 -1.3358
 3200SOL    HW221060   1.759   2.510   6.868 -0.0933 -1.3270  0.7465
 3201SOL     OW21061   1.605   0.064  17.240  0.3557 -0.1561 -0.0087
 3201SOL    HW121062   1.644   0.145  17.208  1.1226  0.5277  2.7337
 3201SOL    HW221063   1.521   0.058  17.193  0.4832 -0.3260 -0.2124
 3202SOL     OW21064   1.452   3.162   8.463 -0.6670  0.1400  0.6244
 3202SOL    HW121065   1.412   3.243   8.430 -1.9069 -1.6191 -2.2072
 3202SOL    HW221066   1.463   3.178   8.556  0.9719  0.9164  0.3052
 3203SOL     OW21067   4.571   4.186   2.629  0.6598  0.5594 -0.3783
 3203SOL    HW121068   4.544   4.096   2.650  0.7876  0.6412  0.1311
 3203SOL    HW221069   4.487   4.232   2.623  1.3521  1.7909 -0.4922
 3204SOL     OW21070   3.524   3.350   0.632  0.1998  0.3594  0.3003
 3204SOL    HW121071   3.559   3.429   0.672 -1.4106  1.6031 -0.7300
 3204SOL    HW221072   3.451   3.327   0.690  0.3698  0.8274  0.6973
 3205SOL     OW21073   0.539   2.850   8.378  0.5350 -0.0200 -0.0825
 3205SOL    HW121074   0.518   2.907   8.452  0.3417 -2.4086  1.7131
 3205SOL    HW221075   0.620   2.813   8.415  0.9201 -1.8509 -2.7700
 3206SOL     OW21076   1.780   0.107  16.849 -0.3082 -0.4107 -0.5659
 3206SOL    HW121077   1.695   0.086  16.812 -0.7204 -0.6954  0.5298
 3206SOL    HW221078   1.817   0.018  16.852  2.1138  0.5324 -2.3979
 3207SOL     OW21079   3.136   4.550   8.909  0.2089  0.2230 -0.1035
 3207SOL    HW121080   3.102   4.564   8.997  1.2322  1.6492  0.0653
 3207SOL    HW221081   3.168   4.638   8.889  1.5608 -0.5683 -1.5386
 3208SOL     OW21082   1.838   1.801   9.261 -0.0501 -0.3607 -1.1957
 3208SOL    HW121083   1.797   1.853   9.330  2.4832  1.7293 -1.2774
 3208SOL    HW221084   1.891   1.871   9.224 -2.5098  1.8105 -0.5860
 3209SOL     OW21085   4.567   1.604   7.193 -0.1360  0.8312  0.2093
 3209SOL    HW121086   4.551   1.655   7.272 -0.6247 -0.7342  1.1198
 3209SOL    HW221087   4.479   1.585   7.161 -0.6724  1.3418  1.3978
 3210SOL     OW21088   4.131   1.753  17.474  0.0775  0.6450  0.0101
 3210SOL    HW121089   4.138   1.769  17.568  3.4388 -0.2088 -0.1250
 3210SOL    HW221090   4.172   1.832  17.439 -2.3639  0.7063 -2.7313
 3211SOL     OW21091   2.475   0.704   2.654 -0.3462 -0.1910  0.5482
 3211SOL    HW121092   2.499   0.712   2.747  0.4769  0.0664  0.3143
 3211SOL    HW221093   2.470   0.794   2.622  0.0055 -0.8574 -1.3565
 3212SOL     OW21094   0.576   1.770   2.659 -0.2734 -0.1573  0.2496
 3212SOL    HW121095   0.608   1.849   2.702 -1.1890 -0.0976  0.8196
 3212SOL    HW221096   0.641   1.744   2.594 -0.0362 -0.5743  0.6463
 3213SOL     OW21097   0.480   1.890  13.145 -0.1102 -0.2545 -0.6975
 3213SOL    HW121098   0.433   1.865  13.065  2.4466 -0.8881 -1.9905
 3213SOL    HW221099   0.569   1.873  13.115 -0.2160 -0.8673 -0.6664
 3214SOL     OW21100   0.602   1.617   4.335  0.3136  0.5108  0.7623
 3214SOL    HW121101   0.561   1.693   4.294 -0.9871 -0.7349 -0.2104
 3214SOL    HW221102   0.531   1.570   4.379 -0.7222  1.7555  0.4067
 3215SOL     OW21103   4.530   0.529   4.226 -0.2576 -0.2605  0.3448
 3215SOL    HW121104   4.582   0.483   4.293  0.4517 -0.8799 -0.6337
 3215SOL    HW221105   4.565   0.618   4.228  0.2735 -0.3915 -3.5513
 3216SOL     OW21106   0.649   2.158   5.805 -0.2496 -0.0571  0.8491
 3216SOL    HW121107   0.703   2.080   5.813  0.4420  0.3712  0.4198
 3216SOL    HW221108   0.568   2.140   5.757 -0.0392 -1.2853  0.9570
 3217SOL     OW21109   3.117   3.455   4.639 -0.4497  0.6117  0.6082
 3217SOL    HW121110   3.136   3.524   4.575  0.1784  1.1592  1.3920
 3217SOL    HW221111   3.183   3.477   4.705  0.3683 -0.8146  0.2708
 3218SOL     OW21112   3.385   2.289   2.538  0.0793  0.0260 -0.0625
 3218SOL    HW121113   3.391   2.198   2.567 -0.6074 -0.0162 -0.0333
 3218SOL    HW221114   3.415   2.333   2.617 -1.9009 -0.1642  0.8020
 3219SOL     OW21115   4.137   2.768  10.862 -0.0687  0.0529  0.1698
 3219SOL    HW121116   4.111   2.710  10.934  0.6913 -1.7537 -1.0092
 3219SOL    HW221117   4.218   2.806  10.894  0.0086  1.3076 -1.5393
 3220SOL     OW21118   2.096   3.167   3.347 -0.5241  0.3263  0.2872
 3220SOL    HW121119   2.081   3.143   3.255 -1.3500 -0.4735  0.6348
 3220SOL    HW221120   2.009   3.181   3.382 -0.3284  1.6741  0.2512
 3221SOL     OW21121   1.133   1.135   8.467 -0.3493 -0.8290  0.2906
 3221SOL    HW121122   1.108   1.202   8.531 -1.3984  0.8393 -1.8376
 3221SOL    HW221123   1.183   1.075   8.522 -0.3198 -0.2957  0.8375
 3222SOL     OW21124   2.264   0.510  17.313 -0.8190  0.6605 -0.3657
 3222SOL    HW121125   2.335   0.548  17.364  1.2553 -0.4641 -2.4557
 3222SOL    HW221126   2.207   0.580  17.281 -1.0302 -0.0837 -1.6060
 3223SOL     OW21127   0.377   3.002   8.810 -0.0449  0.3286 -0.1510
 3223SOL    HW121128   0.289   3.003   8.770 -0.1567 -0.9389  0.0395
 3223SOL    HW221129   0.439   2.979   8.741 -0.5278 -0.7690 -0.2249
 3224SOL     OW21130   0.069   2.511  16.616  0.0900 -0.0457  0.3821
 3224SOL    HW121131   0.093   2.525  16.524  0.7334 -0.6210  0.4674
 3224SOL    HW221132   4.695   2.519  16.604  0.5883  3.8034 -1.2585
 3225SOL     OW21133   3.215   0.468  16.536  0.3700  0.0875  0.0834
 3225SOL    HW121134   3.125   0.442  16.554 -0.3445  0.9242 -2.2360
 3225SOL    HW221135   3.249   0.455  16.624  1.4351  0.0803 -0.3279
 3226SOL     OW21136   1.951   1.155   8.295 -1.2944 -0.5870 -0.4344
 3226SOL    HW121137   1.889   1.221   8.264 -1.3119 -0.7303 -0.7097
 3226SOL    HW221138   1.971   1.193   8.380  2.2422  0.0803 -1.5652
 3227SOL     OW21139   4.340   1.513   0.032 -0.3991 -0.4023  0.1063
 3227SOL    HW121140   4.262   1.557   0.065  0.0492  0.8556 -0.5174
 3227SOL    HW221141   4.375   1.471   0.111  1.5945  0.9519 -0.0633
 3228SOL     OW21142   3.871   0.848   9.105 -0.1424  0.2169  0.0651
 3228SOL    HW121143   3.792   0.885   9.144  0.3832  1.3638  0.0442
 3228SOL    HW221144   3.838   0.787   9.039  2.4902 -0.0212 -1.0229
 3229SOL     OW21145   2.637   0.396  16.265  0.0251 -0.3339  0.4982
 3229SOL    HW121146   2.655   0.404  16.359  0.9532 -0.7567  0.3509
 3229SOL    HW221147   2.712   0.339  16.252 -0.7406 -1.7608  2.2935
 3230SOL     OW21148   3.744   2.916   5.578 -0.3594  0.2717 -0.0254
 3230SOL    HW121149   3.810   2.984   5.565 -0.9440  1.0107  0.8371
 3230SOL    HW221150   3.742   2.908   5.673 -0.7647  2.6542  0.1747
 3231SOL     OW21151   0.943   2.697  11.456  0.1601  0.9623 -0.1647
 3231SOL    HW121152   0.901   2.624  11.501  1.3050 -0.2132 -1.0078
 3231SOL    HW221153   0.867   2.754  11.458 -1.5002 -1.2227 -1.3401
 3232SOL     OW21154   3.367   4.372   4.315 -0.2172  0.0997 -0.0340
 3232SOL    HW121155   3.296   4.365   4.380  0.7208 -0.6707  0.9055
 3232SOL    HW221156   3.356   4.287   4.273 -0.8927 -1.4207  3.1779
 3233SOL     OW21157   0.950   3.474  12.179 -0.0721 -0.2514  0.2552
 3233SOL    HW121158   0.893   3.551  12.180 -0.8288 -0.8033 -0.9412
 3233SOL    HW221159   0.906   3.413  12.120  1.5036  2.2848 -3.5296
 3234SOL     OW21160   2.347   1.581   6.091 -0.6731  0.0812  0.1141
 3234SOL    HW121161   2.367   1.514   6.156 -0.8687 -1.7689 -1.7297
 3234SOL    HW221162   2.334   1.651   6.155  2.7644  2.5696 -1.9064
 3235SOL     OW21163   0.886   3.465   5.517 -0.1961  0.4287  0.0227
 3235SOL    HW121164   0.832   3.463   5.438 -0.3462 -0.2016  0.1358
 3235SOL    HW221165   0.827   3.513   5.575  1.8045 -0.3496  2.7195
 3236SOL     OW21166   3.747   2.498   4.725 -0.1282  0.0457  0.6023
 3236SOL    HW121167   3.757   2.579   4.775  2.7927 -0.3664  0.7144
 3236SOL    HW221168   3.742   2.429   4.791 -2.9010  0.5852  0.9473
 3237SOL     OW21169   1.245   1.604   9.472 -0.7149  0.0097  0.0398
 3237SOL    HW121170   1.311   1.557   9.522 -1.5086 -0.8607  0.2695
 3237SOL    HW221171   1.175   1.544   9.446  2.7041 -3.5617 -0.9498
 3238SOL     OW21172   2.966   0.753   6.688 -0.6297  0.3866  0.3686
 3238SOL    HW121173   2.986   0.725   6.599 -0.5596  2.1423 -0.1645
 3238SOL    HW221174   2.874   0.776   6.679 -0.2841  0.6530 -2.3509
 3239SOL     OW21175   3.545   3.582  15.233  0.2615  0.1415 -0.1505
 3239SOL    HW121176   3.471   3.642  15.227  0.0508  0.0257  1.2497
 3239SOL    HW221177   3.502   3.498  15.221  1.9475 -0.4648 -2.0015
 3240SOL     OW21178   1.459   0.646   5.547 -0.6730  0.9390 -0.2153
 3240SOL    HW121179   1.502   0.699   5.479 -1.3724 -2.0033 -2.9526
 3240SOL    HW221180   1.448   0.559   5.508  0.6627 -0.7150  3.1125
 3241SOL     OW21181   3.453   1.363   9.010 -0.0681  0.3247  0.5944
 3241SOL    HW121182   3.533   1.319   9.039  0.1489 -0.4805 -1.2108
 3241SOL    HW221183   3.460   1.359   8.914  1.3311  2.0932  0.6252
 3242SOL     OW21184   2.992   0.270   4.226 -0.4432  0.5065  0.3813
 3242SOL    HW121185   2.983   0.294   4.134 -1.1451  1.0250  0.5872
 3242SOL    HW221186   2.915   0.221   4.254 -0.2800  0.7700  1.3026
 3243SOL     OW21187   0.038   0.347   8.477  0.5931 -0.6045 -0.4981
 3243SOL    HW121188   0.090   0.418   8.514  1.2236 -1.7340  0.7601
 3243SOL    HW221189   0.102   0.323   8.410 -0.3436 -0.1904 -1.5425
 3244SOL     OW21190   3.042   3.928   5.543  0.3671  0.2980  0.4146
 3244SOL    HW121191   3.001   3.922   5.457  1.8320 -0.2376 -0.2458
 3244SOL    HW221192   3.122   3.977   5.525 -0.1001  0.4864 -1.1198
 3245SOL     OW21193   4.219   1.123   7.596 -0.3633 -0.2550  0.0607
 3245SOL    HW121194   4.182   1.069   7.666  0.8951  2.3358  2.7315
 3245SOL    HW221195   4.202   1.070   7.518  0.8195 -1.8462  0.8918
 3246SOL     OW21196   4.233   2.790   1.068 -0.2133  0.1160 -0.2434
 3246SOL    HW121197   4.250   2.745   1.151  2.0031 -0.8034 -1.1935
 3246SOL    HW221198   4.274   2.874   1.088 -1.7128  1.1315 -1.4015
 3247SOL     OW21199   4.714   2.932   2.307 -0.3041 -0.1120 -0.1426
 3247SOL    HW121200   4.705   2.839   2.328  1.4180 -0.4491 -0.8968
 3247SOL    HW221201   4.685   2.971   2.389  1.3595  0.6020  0.1145
 3248SOL     OW21202   1.722   0.487   0.750  0.4191  0.0643 -0.1676
 3248SOL    HW121203   1.817   0.498   0.744  0.6911 -1.9859  0.2343
 3248SOL    HW221204   1.718   0.397   0.783 -1.2139  0.5368  0.9237
 3249SOL     OW21205   1.307   2.594  11.288 -0.6872 -0.5143 -0.2028
 3249SOL    HW121206   1.316   2.659  11.218  1.1918 -1.2317 -0.6320
 3249SOL    HW221207   1.264   2.518  11.249 -0.0203  0.0716 -2.0519
 3250SOL     OW21208   0.096   3.366   0.056 -0.0064  0.5805  0.0313
 3250SOL    HW121209   0.122   3.432   0.120  0.6250  0.0401  0.3444
 3250SOL    HW221210   0.172   3.377  17.685 -1.0531 -0.3912 -1.5271
 3251SOL     OW21211   3.390   2.492   3.569  0.1009  1.1137  0.8842
 3251SOL    HW121212   3.381   2.407   3.526 -0.5597  1.3907  0.4784
 3251SOL    HW221213   3.299   2.514   3.588  0.0571  1.9550 -0.3233
 3252SOL     OW21214   1.699   3.742  13.596  0.4295 -0.2437  0.3755
 3252SOL    HW121215   1.789   3.724  13.569 -0.1641 -1.6940 -0.6308
 3252SOL    HW221216   1.683   3.806  13.527  2.5543  0.1239  0.2337
 3253SOL     OW21217   3.133   4.462   9.646 -0.1482 -0.3896 -0.2935
 3253SOL    HW121218   3.200   4.520   9.680 -2.0673  0.5235  1.9481
 3253SOL    HW221219   3.186   4.383   9.637  0.5166  0.0683 -0.3492
 3254SOL     OW21220   3.321   0.344   9.076  0.4500  0.2366  0.0565
 3254SOL    HW121221   3.230   0.363   9.053 -0.1494 -0.0864  2.1709
 3254SOL    HW221222   3.323   0.249   9.082  0.5874  0.0732 -2.2413
 3255SOL     OW21223   0.114   0.335   4.120 -0.7163  0.2542 -0.2551
 3255SOL    HW121224   0.040   0.373   4.074 -0.3041  1.7872  0.3333
 3255SOL    HW221225   0.159   0.419   4.129 -1.1775  0.2232  2.2697
 3256SOL     OW21226   0.467   3.816   7.540  0.1862 -0.4792 -0.4889
 3256SOL    HW121227   0.455   3.779   7.627 -1.8003 -2.2788 -1.5393
 3256SOL    HW221228   0.550   3.860   7.561  0.3168 -0.0813 -1.8704
 3257SOL     OW21229   2.350   1.079  11.283  0.2294 -0.4021  0.0527
 3257SOL    HW121230   2.266   1.040  11.304 -0.5849  1.5478  0.3761
 3257SOL    HW221231   2.367   1.137  11.357  0.5824  1.9492 -1.8385
 3258SOL     OW21232   2.682   0.624   9.206 -0.7803  0.3523  0.6160
 3258SOL    HW121233   2.721   0.543   9.174 -0.1799 -0.0281  2.3017
 3258SOL    HW221234   2.677   0.670   9.122 -0.1533  1.4865  1.2025
 3259SOL     OW21235   2.122   3.611  14.241 -0.4690 -0.1413  0.4468
 3259SOL    HW121236   2.176   3.678  14.200  0.2960 -0.6173  0.6792
 3259SOL    HW221237   2.093   3.660  14.318 -1.8637  1.3152 -1.0148
 3260SOL     OW21238   4.643   3.033   2.040  0.0423  0.0977 -0.3084
 3260SOL    HW121239   4.548   3.022   2.031  0.0393 -0.5144  0.5290
 3260SOL    HW221240   4.655   3.014   2.133  0.5274 -2.1754 -0.8392
 3261SOL     OW21241   2.062   2.798   7.825  0.0053  0.2355 -0.0745
 3261SOL    HW121242   2.033   2.722   7.875  3.0310  1.0356  2.9238
 3261SOL    HW221243   2.106   2.759   7.750 -3.7057 -0.3874 -1.9540
 3262SOL     OW21244   4.715   4.419   5.851  0.0179  0.1700  0.3013
 3262SOL    HW121245   0.058   4.488   5.838 -0.0583  0.0294 -0.7920
 3262SOL    HW221246   4.629   4.461   5.846 -1.3123 -2.6097  0.0191
 3263SOL     OW21247   3.797   1.014   8.337  0.2528 -0.4341  0.1848
 3263SOL    HW121248   3.717   0.988   8.383 -0.2726 -0.7262 -0.9165
 3263SOL    HW221249   3.832   1.088   8.388  0.9069 -0.2994 -0.4583
 3264SOL     OW21250   4.678   1.194  14.398 -0.0748 -0.3778 -0.2967
 3264SOL    HW121251   0.030   1.204  14.459 -1.1123  1.1294  0.7021
 3264SOL    HW221252   4.606   1.200  14.461  0.2427  0.0567  0.0231
 3265SOL     OW21253   2.753   3.149   7.040  0.3947  0.4635 -0.3829
 3265SOL    HW121254   2.687   3.088   7.008  1.0964 -1.6982  2.3451
 3265SOL    HW221255   2.831   3.100   7.013  0.1688  0.3236 -0.7867
 3266SOL     OW21256   3.137   1.452   2.578  0.0850  0.0931  0.2763
 3266SOL    HW121257   3.183   1.376   2.614  0.9567  0.3120 -0.3725
 3266SOL    HW221258   3.169   1.519   2.638 -0.7101 -1.1566  2.1070
 3267SOL     OW21259   0.030   1.291   7.864  0.0990 -0.5828  0.2425
 3267SOL    HW121260   4.711   1.304   7.950  1.3801 -1.6588  0.9913
 3267SOL    HW221261   4.711   1.357   7.807  1.7671  2.5979  2.7859
 3268SOL     OW21262   2.595   1.124   0.614 -0.4298  0.1061  0.1024
 3268SOL    HW121263   2.642   1.162   0.688 -0.9033  2.1548 -0.6471
 3268SOL    HW221264   2.548   1.048   0.647 -0.5974 -0.7250 -2.0414
 3269SOL     OW21265   1.916   1.358  16.807 -0.3450  0.2096 -0.0249
 3269SOL    HW121266   1.966   1.286  16.845 -0.5650  1.3724  2.4673
 3269SOL    HW221267   1.830   1.318  16.795 -0.9894  1.7011 -0.3233
 3270SOL     OW21268   1.590   2.553   8.275  0.0426 -0.0220  0.3839
 3270SOL    HW121269   1.612   2.633   8.323  1.2716  0.3511 -0.8103
 3270SOL    HW221270   1.495   2.556   8.265  0.0064  1.3414  1.2032
 3271SOL     OW21271   3.988   4.294   6.093  0.0475  0.0380 -0.4778
 3271SOL    HW121272   3.928   4.224   6.067  3.2734 -2.3508 -1.6382
 3271SOL    HW221273   4.072   4.248   6.090  0.0869  0.0916 -0.1658
 3272SOL     OW21274   2.175   2.455   4.653  0.0949 -0.1256 -0.1640
 3272SOL    HW121275   2.134   2.534   4.617  1.5996  1.0538  0.7344
 3272SOL    HW221276   2.177   2.484   4.745 -2.5164 -0.6313  0.0615
 3273SOL     OW21277   3.105   3.105  15.190 -0.4391 -0.4130  0.1653
 3273SOL    HW121278   3.097   3.121  15.096 -1.0865 -0.9050  0.1329
 3273SOL    HW221279   3.158   3.179  15.218  0.0942 -0.4994 -0.6078
 3274SOL     OW21280   1.415   2.311   5.182 -0.6280  0.2605  0.2633
 3274SOL    HW121281   1.407   2.404   5.165  1.2671  0.5538  0.9850
 3274SOL    HW221282   1.345   2.297   5.246 -1.8323 -1.3244 -1.3663
 3275SOL     OW21283   4.428   3.231   0.561  0.4880 -0.7127  0.1428
 3275SOL    HW121284   4.411   3.140   0.586 -1.7216  0.0178  1.2985
 3275SOL    HW221285   4.349   3.252   0.511  0.7399  0.3231  0.1812
 3276SOL     OW21286   1.528   4.479   6.048 -0.0953  0.0978 -0.6338
 3276SOL    HW121287   1.602   4.419   6.041  0.0306  0.1565  0.2413
 3276SOL    HW221288   1.556   4.559   6.004 -2.7286  0.1184 -2.3114
 3277SOL     OW21289   0.343   2.249   6.740 -0.1412  0.0092 -0.1531
 3277SOL    HW121290   0.413   2.272   6.802  1.5143 -0.7898 -1.7054
 3277SOL    HW221291   0.299   2.333   6.730  1.9430  1.3416  1.7284
 3278SOL     OW21292   1.251   0.320  15.019 -0.1005 -0.2002 -0.0963
 3278SOL    HW121293   1.256   0.415  15.012  1.4160 -0.3364 -1.0520
 3278SOL    HW221294   1.262   0.304  14.925  1.0826 -1.9279  0.3313
 3279SOL     OW21295   3.207   1.097   4.380 -0.5423 -0.4530  0.0825
 3279SOL    HW121296   3.140   1.029   4.376  0.4590 -1.4181 -0.1270
 3279SOL    HW221297   3.273   1.054   4.434  0.9484  0.3701 -1.1089
 3280SOL     OW21298   3.426   1.978   2.108  0.4702  0.0302  0.6562
 3280SOL    HW121299   3.367   2.050   2.129 -0.6326 -1.1212  1.5543
 3280SOL    HW221300   3.427   1.937   2.195 -1.4044  0.0907  0.7015
 3281SOL     OW21301   4.297   4.215   2.974 -0.1394 -0.4404 -0.4576
 3281SOL    HW121302   4.287   4.260   3.058  1.4794  1.1527 -1.1344
 3281SOL    HW221303   4.392   4.223   2.963 -0.2200 -0.3995 -1.1255
 3282SOL     OW21304   1.406   1.113   1.218 -0.8632  0.4141 -0.1653
 3282SOL    HW121305   1.406   1.205   1.189 -0.6980  0.1175 -1.0965
 3282SOL    HW221306   1.491   1.084   1.185 -0.8681 -0.7467  0.8515
 3283SOL     OW21307   1.031   3.117  13.705 -0.1536 -0.1662 -0.1486
 3283SOL    HW121308   0.967   3.163  13.759  0.7104 -0.3585  1.0280
 3283SOL    HW221309   0.977   3.093  13.629 -1.9026 -1.1436  1.4118
 3284SOL     OW21310   4.359   1.279   2.205  0.1573  0.4216 -0.5107
 3284SOL    HW121311   4.301   1.286   2.130  0.2801  2.2011 -0.4406
 3284SOL    HW221312   4.307   1.340   2.258  0.5753  1.4943 -1.3418
 3285SOL     OW21313   0.018   1.512   3.371 -0.1653  0.1129  0.9221
 3285SOL    HW121314   0.087   1.578   3.371  0.3034 -0.3532 -1.7150
 3285SOL    HW221315   0.061   1.440   3.418 -1.0249 -1.7850 -1.2215
 3286SOL     OW21316   2.471   1.115   8.441  0.3758  0.3262  0.4226
 3286SOL    HW121317   2.403   1.175   8.469  0.6169  0.5293  0.5763
 3286SOL    HW221318   2.471   1.051   8.512 -0.7167  2.1692  2.0668
 3287SOL     OW21319   4.140   1.709  12.795  0.3619  0.3527  0.0636
 3287SOL    HW121320   4.204   1.739  12.860  0.1959 -0.0902  0.4346
 3287SOL    HW221321   4.152   1.760  12.716 -0.0746 -0.3881 -0.4875
 3288SOL     OW21322   2.669   0.764   9.582 -0.4811  0.0754 -0.3261
 3288SOL    HW121323   2.739   0.776   9.518  1.5022 -1.1672  1.6147
 3288SOL    HW221324   2.602   0.733   9.521  0.5760 -1.9365 -0.4801
 3289SOL     OW21325   3.885   0.465   9.198  0.4855 -0.3771 -0.4114
 3289SOL    HW121326   3.921   0.383   9.232  0.2959  0.4671  1.8508
 3289SOL    HW221327   3.821   0.431   9.137 -0.7381  1.7186 -0.3011
 3290SOL     OW21328   1.650   0.288   7.192 -0.1531  0.3980 -0.4674
 3290SOL    HW121329   1.731   0.298   7.141  0.1169  0.4689 -0.0288
 3290SOL    HW221330   1.597   0.345   7.136  0.3270 -0.0745 -1.4132
 3291SOL     OW21331   1.434   0.754  12.281  0.2577 -0.2726 -0.4675
 3291SOL    HW121332   1.471   0.680  12.234 -0.8858 -1.4731  0.5162
 3291SOL    HW221333   1.478   0.822  12.230  0.9685  0.7459  1.4598
 3292SOL     OW21334   3.172   2.962   1.451 -0.2796 -0.9066  0.6888
 3292SOL    HW121335   3.193   3.045   1.493 -0.3226  1.3309 -3.6276
 3292SOL    HW221336   3.226   2.959   1.372 -1.4375  3.1538 -0.2678
 3293SOL     OW21337   4.231   3.117   8.816  0.2388  0.1103  0.4384
 3293SOL    HW121338   4.176   3.064   8.874  0.9509 -1.1153  0.0003
 3293SOL    HW221339   4.298   3.060   8.777 -1.1491 -1.8475  0.9154
 3294SOL     OW21340   0.354   3.131  15.107 -0.6132  0.3359 -0.4678
 3294SOL    HW121341   0.401   3.144  15.024  0.2074 -1.7546 -0.3326
 3294SOL    HW221342   0.280   3.088  15.064  0.2792 -1.1544 -0.5395
 3295SOL     OW21343   0.173   2.997   5.083 -0.3067  0.0782  0.2294
 3295SOL    HW121344   0.146   2.956   5.000 -2.1399  1.0578  0.3569
 3295SOL    HW221345   0.135   3.083   5.065  1.5499  0.4220 -2.1534
 3296SOL     OW21346   2.062   1.412   7.857  0.7600 -0.1597 -0.1609
 3296SOL    HW121347   2.019   1.388   7.774  0.0020 -0.2449  0.2578
 3296SOL    HW221348   1.980   1.402   7.905  0.3483 -0.7227 -0.9689
 3297SOL     OW21349   3.814   2.238  16.778  0.4805 -0.2871 -0.0496
 3297SOL    HW121350   3.773   2.266  16.860 -1.9090 -0.6892 -1.1072
 3297SOL    HW221351   3.800   2.317  16.727 -0.1205 -0.2390  0.1925
 3298SOL     OW21352   2.194   3.776   3.079  0.4980  0.6544 -0.1401
 3298SOL    HW121353   2.284   3.743   3.089  0.0414 -1.4466 -2.7779
 3298SOL    HW221354   2.202   3.796   2.985 -0.2416  2.4450  0.1788
 3299SOL     OW21355   0.842   0.431   9.065  0.6304  0.0210 -0.1169
 3299SOL    HW121356   0.805   0.502   9.117 -2.6605 -1.5865 -0.2636
 3299SOL    HW221357   0.769   0.371   9.055  1.1773 -0.6636 -0.0366
 3300SOL     OW21358   1.954   0.936   9.755  0.2147 -0.3469  0.0956
 3300SOL    HW121359   1.956   0.849   9.796 -2.4611 -0.2567  0.4571
 3300SOL    HW221360   1.957   0.987   9.836 -2.5111 -0.5372  0.3418
 3301SOL     OW21361   2.714   3.654   4.419 -0.0447 -0.0593  0.3528
 3301SOL    HW121362   2.721   3.560   4.401  1.8918  0.2970 -0.7740
 3301SOL    HW221363   2.626   3.665   4.385  0.2735  0.1368 -0.4069
 3302SOL     OW21364   3.803   4.648   7.607  0.2633 -0.8536  0.0996
 3302SOL    HW121365   3.860   4.580   7.642  0.4713 -1.3501 -1.2122
 3302SOL    HW221366   3.749   4.667   7.684  1.0633 -2.2586  0.9989
 3303SOL     OW21367   1.796   3.942  14.896 -0.3444  0.3033 -0.4814
 3303SOL    HW121368   1.768   4.033  14.890  1.4181  0.9203  0.8589
 3303SOL    HW221369   1.768   3.909  14.811 -0.3017  0.9728 -0.7528
 3304SOL     OW21370   0.709   1.812  10.232  0.0313 -0.3642 -0.0984
 3304SOL    HW121371   0.803   1.830  10.227 -0.3508  1.5893 -0.3604
 3304SOL    HW221372   0.673   1.901  10.233 -0.2927 -0.4861 -0.7322
 3305SOL     OW21373   0.680   2.413   3.487 -0.2975  0.4787 -0.2529
 3305SOL    HW121374   0.598   2.449   3.453  0.8683  2.0691 -1.3741
 3305SOL    HW221375   0.726   2.491   3.518  1.3176 -1.0984  1.3297
 3306SOL     OW21376   2.208   1.888   8.407  0.7682 -0.0613  0.3062
 3306SOL    HW121377   2.140   1.822   8.414  0.4244  0.1570 -0.9845
 3306SOL    HW221378   2.211   1.923   8.496 -0.3283  0.7078  0.0464
 3307SOL     OW21379   0.264   4.472   9.600 -0.4992  0.0082  0.0387
 3307SOL    HW121380   0.183   4.443   9.642 -0.5983  0.0438 -0.1288
 3307SOL    HW221381   0.245   4.459   9.507 -1.4751 -0.7526  0.3397
 3308SOL     OW21382   1.764   2.363   6.248  0.2014  0.2257  0.0002
 3308SOL    HW121383   1.855   2.351   6.273  0.0506 -0.6784  0.0853
 3308SOL    HW221384   1.764   2.458   6.237  2.1545  0.4875  2.2228
 3309SOL     OW21385   3.942   1.844  12.924  0.0459 -0.5045  0.2208
 3309SOL    HW121386   3.995   1.779  12.878  1.1617  0.3417  0.3071
 3309SOL    HW221387   3.893   1.779  12.975 -0.5796 -0.0468  0.2030
 3310SOL     OW21388   0.379   4.301   5.218 -0.1193  0.0799  0.0507
 3310SOL    HW121389   0.337   4.317   5.302  3.1394  4.7702  0.7417
 3310SOL    HW221390   0.424   4.217   5.226  1.2279  0.7720 -0.2971
 3311SOL     OW21391   4.688   3.215   4.269  0.6491  0.5177 -0.0111
 3311SOL    HW121392   4.620   3.164   4.224  1.5254 -0.1310 -0.5987
 3311SOL    HW221393   4.675   3.187   4.360 -0.1064  1.6863  0.2319
 3312SOL     OW21394   2.636   4.007   6.806 -0.3155  0.6587 -0.3060
 3312SOL    HW121395   2.679   3.969   6.883 -2.0029 -1.3404 -0.3213
 3312SOL    HW221396   2.563   3.946   6.791 -0.4673  1.2109 -1.7941
 3313SOL     OW21397   1.853   3.541   9.526  0.0275 -0.3159 -0.2240
 3313SOL    HW121398   1.827   3.606   9.591  0.4828  0.6700 -1.0203
 3313SOL    HW221399   1.808   3.460   9.551 -0.9848  0.0671 -0.8002
 3314SOL     OW21400   1.939   0.826   8.647  0.2739  0.6101 -0.1783
 3314SOL    HW121401   1.981   0.805   8.730 -2.1702  0.5078  1.0324
 3314SOL    HW221402   2.017   0.820   8.592 -0.1627 -3.0070 -0.4234
 3315SOL     OW21403   2.247   2.604   2.005 -0.4972 -0.1801  0.0714
 3315SOL    HW121404   2.161   2.574   2.034 -0.4753  0.2242  0.5577
 3315SOL    HW221405   2.305   2.536   2.038  0.8275  0.4607 -0.9202
 3316SOL     OW21406   3.389   4.558   8.277  0.1338  0.1376  0.4586
 3316SOL    HW121407   3.308   4.537   8.324 -0.0380 -0.2171  0.0078
 3316SOL    HW221408   3.378   4.501   8.200 -1.4145  1.2889 -0.1901
 3317SOL     OW21409   1.030   3.651   1.720  0.0553 -0.0313  0.4629
 3317SOL    HW121410   0.970   3.703   1.667  0.4464 -1.7541 -1.6888
 3317SOL    HW221411   0.977   3.617   1.792 -2.2607  1.2680 -0.6306
 3318SOL     OW21412   0.955   4.548   5.177  0.0296  0.2488  0.1758
 3318SOL    HW121413   0.892   4.615   5.151  1.0505  0.4604 -1.7149
 3318SOL    HW221414   0.969   4.506   5.093  2.6471  1.2283  0.1083
 3319SOL     OW21415   3.094   4.548   9.177 -0.4855  0.4844 -0.0811
 3319SOL    HW121416   3.016   4.540   9.233  0.8565 -1.2770  1.5640
 3319SOL    HW221417   3.151   4.503   9.240 -1.4187  0.3506  0.6746
 3320SOL     OW21418   3.848   3.233   6.189  0.6962 -0.3488  0.1324
 3320SOL    HW121419   3.800   3.160   6.228  0.3656 -0.7498 -1.0281
 3320SOL    HW221420   3.850   3.296   6.260  0.4669 -0.0147 -0.1591
 3321SOL     OW21421   2.837   3.164   5.054 -0.3479 -0.3036  0.1385
 3321SOL    HW121422   2.792   3.117   4.984  0.8394 -1.5397  0.2084
 3321SOL    HW221423   2.855   3.098   5.121 -0.8862 -0.9137 -0.3202
 3322SOL     OW21424   3.321   1.391  16.447  0.0171  0.0358  0.3931
 3322SOL    HW121425   3.271   1.460  16.404  1.3148  1.0385  0.4894
 3322SOL    HW221426   3.343   1.432  16.531  1.4952  0.8001 -0.3668
 3323SOL     OW21427   0.701   2.450  12.890  0.3153  0.0173 -0.3240
 3323SOL    HW121428   0.668   2.462  12.979  0.4075 -1.4574 -0.0866
 3323SOL    HW221429   0.623   2.473  12.841  0.4371  1.6127  0.2201
 3324SOL     OW21430   1.970   1.838   2.658 -0.0791  0.7037  0.0358
 3324SOL    HW121431   2.021   1.904   2.611  0.0525  0.2629 -0.4362
 3324SOL    HW221432   1.924   1.787   2.592  0.8514 -1.6468  1.2214
 3325SOL     OW21433   4.119   0.163   1.423 -0.2000 -0.3472  0.5048
 3325SOL    HW121434   4.055   0.226   1.389  1.8805  1.9028  0.7191
 3325SOL    HW221435   4.110   0.093   1.358  1.9390 -0.0973 -0.0715
 3326SOL     OW21436   2.809   2.043   5.500  0.0934  0.8323 -0.1739
 3326SOL    HW121437   2.859   2.067   5.578 -0.5778 -1.6509  1.0383
 3326SOL    HW221438   2.742   2.111   5.505 -1.8270 -1.0608 -0.0593
 3327SOL     OW21439   2.814   0.125   0.182  0.1680  0.3196  0.6421
 3327SOL    HW121440   2.780   0.202   0.228  0.8954  2.5050 -2.4529
 3327SOL    HW221441   2.902   0.158   0.164  0.4513 -0.5101  0.5106
 3328SOL     OW21442   2.687   3.292  14.435 -0.0460 -0.6325 -0.2820
 3328SOL    HW121443   2.783   3.299  14.436  0.1632 -3.9037  1.4725
 3328SOL    HW221444   2.677   3.211  14.484 -0.5484 -0.9691 -0.9310
 3329SOL     OW21445   4.656   3.192   7.563  0.1916  0.5686  0.0847
 3329SOL    HW121446   4.593   3.182   7.491 -1.4875  3.9647  1.0756
 3329SOL    HW221447   0.015   3.195   7.511 -0.4029  2.7087 -0.7188
 3330SOL     OW21448   4.431   1.639   1.237  0.2961 -0.4516 -0.1110
 3330SOL    HW121449   4.448   1.614   1.327  3.3201 -2.3388 -1.2073
 3330SOL    HW221450   4.369   1.572   1.207 -2.2142  1.4830  0.8168
 3331SOL     OW21451   1.131   3.327  13.937 -0.1129 -0.1679 -0.4731
 3331SOL    HW121452   1.070   3.397  13.962  0.4366  0.7039 -1.5441
 3331SOL    HW221453   1.194   3.361  14.000 -0.4780 -0.0983 -0.1453
 3332SOL     OW21454   1.152   2.964  17.259 -0.3680  0.0358 -0.5000
 3332SOL    HW121455   1.184   2.942  17.347  2.5537 -0.2075 -1.6372
 3332SOL    HW221456   1.227   3.011  17.223  0.3433 -1.4282 -0.9362
 3333SOL     OW21457   4.529   0.259   5.233 -0.4510  0.0705  0.2839
 3333SOL    HW121458   4.599   0.245   5.169 -0.8696 -0.3280 -0.0895
 3333SOL    HW221459   4.538   0.352   5.255  0.9013 -0.4699  1.9537
 3334SOL     OW21460   1.197   0.616   5.249  0.1056  0.3964 -0.4054
 3334SOL    HW121461   1.192   0.701   5.292  1.0621  0.4857 -0.4828
 3334SOL    HW221462   1.160   0.548   5.305  0.4946 -0.4713 -1.2083
 3335SOL     OW21463   4.588   1.811   5.694  0.4963 -0.3719  0.0600
 3335SOL    HW121464   4.607   1.824   5.601  1.2348  0.3184  0.3113
 3335SOL    HW221465   4.654   1.872   5.726 -2.0395  2.3043  0.2026
 3336SOL     OW21466   0.969   3.701  11.010  0.2750  0.2990  0.0697
 3336SOL    HW121467   0.914   3.696  11.088 -0.4576  0.9351 -0.4089
 3336SOL    HW221468   1.037   3.762  11.037 -3.7770  3.2992  3.5232
 3337SOL     OW21469   4.269   1.602   1.765 -0.4502  0.3242 -0.3243
 3337SOL    HW121470   4.316   1.519   1.773 -1.3922 -0.3410 -1.7794
 3337SOL    HW221471   4.243   1.613   1.674 -1.2010  2.9153  0.1787
 3338SOL     OW21472   1.588   2.027   6.314 -0.3038  0.4816  0.3547
 3338SOL    HW121473   1.586   2.011   6.408  1.8336  2.2802  0.7113
 3338SOL    HW221474   1.494   2.026   6.297 -0.2652  0.3730  0.1439
 3339SOL     OW21475   2.782   3.078   7.957 -0.1530  0.4496 -0.3011
 3339SOL    HW121476   2.842   3.063   7.884  0.8211 -1.4835  0.8865
 3339SOL    HW221477   2.713   3.114   7.901 -0.4237 -0.6293 -0.6573
 3340SOL     OW21478   4.629   3.759   7.454  0.3717  0.4152  0.2893
 3340SOL    HW121479   4.719   3.730   7.439  0.6574  0.5386  1.7520
 3340SOL    HW221480   4.596   3.700   7.521  1.6479 -1.6201 -0.8815
 3341SOL     OW21481   1.252   3.568   6.484  0.3518 -0.0592  0.5185
 3341SOL    HW121482   1.211   3.654   6.476  0.8423 -0.0004 -1.3064
 3341SOL    HW221483   1.255   3.548   6.390  0.1621  1.7629  0.1388
 3342SOL     OW21484   4.168   2.234  10.466  0.2281  0.0300  0.3404
 3342SOL    HW121485   4.239   2.212  10.526 -0.1998 -3.1626 -0.3261
 3342SOL    HW221486   4.099   2.191  10.517  0.8810  2.1413  3.0213
 3343SOL     OW21487   1.105   4.297   5.357  0.0902 -0.4643 -0.0003
 3343SOL    HW121488   1.039   4.256   5.301 -0.1591 -1.1389  0.7789
 3343SOL    HW221489   1.162   4.222   5.374 -0.9409 -0.5917  2.8255
 3344SOL     OW21490   0.013   3.553   0.470  0.5444  0.2480  0.2213
 3344SOL    HW121491   0.066   3.489   0.518 -0.4010  1.3840  2.7585
 3344SOL    HW221492   0.019   3.624   0.534 -0.0338 -0.5250  1.1362
 3345SOL     OW21493   1.261   3.829   6.093  0.3524 -0.6304  0.1580
 3345SOL    HW121494   1.220   3.911   6.121 -0.6000 -1.1871  0.3750
 3345SOL    HW221495   1.275   3.844   6.000 -0.7811 -0.6890 -0.0226
 3346SOL     OW21496   1.487   4.213  11.104 -0.0968 -0.4919  0.0419
 3346SOL    HW121497   1.482   4.303  11.072 -2.4228  0.1203  2.1489
 3346SOL    HW221498   1.526   4.226  11.191 -1.8101 -1.2300  0.9156
 3347SOL     OW21499   2.616   2.652  11.701  0.2045 -0.5218  0.1734
 3347SOL    HW121500   2.543   2.703  11.735 -0.3096 -1.3921  0.3670
 3347SOL    HW221501   2.565   2.595  11.643 -0.6343 -0.5860  0.9814
 3348SOL     OW21502   0.265   0.570   4.139 -0.0254  0.2479  0.1550
 3348SOL    HW121503   0.258   0.604   4.050  1.9829 -1.9343 -0.8219
 3348SOL    HW221504   0.248   0.639   4.203  3.1395  0.0285  1.2106
 3349SOL     OW21505   0.269   2.997   1.344 -0.4134 -0.0269 -0.1079
 3349SOL    HW121506   0.221   3.058   1.287  3.2442  1.4924 -1.5363
 3349SOL    HW221507   0.191   2.967   1.391  1.1471 -2.2492  1.0590
 3350SOL     OW21508   3.828   1.174  16.582  0.0134 -0.0185 -0.2546
 3350SOL    HW121509   3.903   1.223  16.616 -0.3338 -0.4924  1.2001
 3350SOL    HW221510   3.796   1.149  16.669  1.7058  1.6097  0.8478
 3351SOL     OW21511   0.307   4.444   8.595 -0.1133 -0.2149  0.4627
 3351SOL    HW121512   0.334   4.367   8.645 -1.6323 -1.4228 -0.6005
 3351SOL    HW221513   0.394   4.463   8.560  0.0310  0.4542  1.1960
 3352SOL     OW21514   0.321   1.683   4.580 -0.1663  0.2322  0.5619
 3352SOL    HW121515   0.317   1.753   4.646  0.2539  0.9690 -0.1980
 3352SOL    HW221516   0.278   1.727   4.506 -0.3680  2.5304  2.0176
 3353SOL     OW21517   0.346   0.373   0.967 -0.0407 -0.1400 -0.2732
 3353SOL    HW121518   0.431   0.367   0.924 -0.6101  0.9381 -1.5311
 3353SOL    HW221519   0.345   0.282   0.998  0.5682  0.0806  0.3862
 3354SOL     OW21520   1.283   1.559   2.810  0.1621  0.1175  0.0806
 3354SOL    HW121521   1.305   1.635   2.863 -0.4758 -0.2105  0.8110
 3354SOL    HW221522   1.357   1.499   2.816  1.1106  0.8031 -4.2106
 3355SOL     OW21523   1.028   0.554   0.896  1.0927 -0.3314  0.3335
 3355SOL    HW121524   0.991   0.617   0.958  3.2665  1.1519  0.1268
 3355SOL    HW221525   1.065   0.493   0.959 -0.1670  0.5845  1.9811
 3356SOL     OW21526   2.602   0.818  10.148  0.0685 -0.5606  0.2623
 3356SOL    HW121527   2.674   0.862  10.102  0.3101  0.7390  1.8860
 3356SOL    HW221528   2.569   0.758  10.081 -2.3118 -0.9953  1.8109
 3357SOL     OW21529   2.715   0.778   6.577 -0.1184  0.1118 -0.3026
 3357SOL    HW121530   2.657   0.851   6.600 -0.8314 -0.2001 -1.1110
 3357SOL    HW221531   2.708   0.794   6.483  0.9809  1.7040 -0.1123
 3358SOL     OW21532   2.798   2.653  13.225 -0.1905 -0.2230  0.4851
 3358SOL    HW121533   2.792   2.559  13.245  0.4868  0.1483  2.4345
 3358SOL    HW221534   2.757   2.696  13.300  0.1895 -1.7532  1.5826
 3359SOL     OW21535   2.916   1.708   6.105 -0.3005  0.1315  0.1010
 3359SOL    HW121536   2.938   1.744   6.191  0.3335  1.9760 -0.8338
 3359SOL    HW221537   2.821   1.713   6.115 -0.3302  0.3846 -0.3321
 3360SOL     OW21538   2.426   2.422   6.304  0.3814 -0.3957 -0.0458
 3360SOL    HW121539   2.478   2.502   6.302 -1.2815  0.7220  2.1728
 3360SOL    HW221540   2.494   2.356   6.285  0.9112  0.8957 -2.5827
 3361SOL     OW21541   1.688   3.045  17.500  0.4500 -0.0401 -0.1317
 3361SOL    HW121542   1.742   3.009  17.570 -0.8157  0.2559  1.0051
 3361SOL    HW221543   1.757   3.096  17.458  0.0922 -0.5561 -1.3278
 3362SOL     OW21544   0.403   1.577   5.499  0.2550  0.5403  0.1100
 3362SOL    HW121545   0.429   1.668   5.513 -0.1233  0.6994 -0.2385
 3362SOL    HW221546   0.319   1.596   5.458 -0.4189 -0.9392  0.7927
 3363SOL     OW21547   0.250   3.968   9.393 -0.3992 -0.6125  0.2670
 3363SOL    HW121548   0.170   3.933   9.352  0.3076 -1.7811 -0.1175
 3363SOL    HW221549   0.263   3.933   9.481  2.2075  1.1406  0.5760
 3364SOL     OW21550   2.394   0.695  17.005  0.3628  0.2467 -0.5158
 3364SOL    HW121551   2.408   0.607  16.971  1.8235  0.8333 -1.4052
 3364SOL    HW221552   2.462   0.694  17.072  1.2726  1.0603 -1.4251
 3365SOL     OW21553   1.581   0.790   4.923  0.0790  0.0601  0.0687
 3365SOL    HW121554   1.625   0.713   4.887 -3.4014 -0.9434 -2.0182
 3365SOL    HW221555   1.624   0.868   4.889  0.4102  0.0928  0.5523
 3366SOL     OW21556   3.814   2.924   7.803  0.6387  0.3440 -0.3125
 3366SOL    HW121557   3.841   2.939   7.713  0.6761  0.1111 -0.3390
 3366SOL    HW221558   3.879   2.857   7.824 -0.0068 -0.8307 -2.1793
 3367SOL     OW21559   0.728   2.754   5.745  0.1429 -0.5841 -0.3452
 3367SOL    HW121560   0.649   2.795   5.780  0.3550 -0.6362  0.1976
 3367SOL    HW221561   0.745   2.695   5.819 -2.0708 -4.2033 -2.6931
 3368SOL     OW21562   0.631   3.554   3.671  0.4560  0.3843 -0.5416
 3368SOL    HW121563   0.696   3.576   3.738  0.6669  1.7118 -1.1762
 3368SOL    HW221564   0.695   3.545   3.600  0.0606 -2.6811 -0.5219
 3369SOL     OW21565   4.028   1.057   7.095  0.2991  0.5231  0.3257
 3369SOL    HW121566   3.933   1.058   7.105  0.1784 -0.8444 -0.7636
 3369SOL    HW221567   4.036   1.008   7.013  1.0504  1.3909 -0.1275
 3370SOL     OW21568   0.899   1.231   2.447  0.0621 -0.1802  0.9057
 3370SOL    HW121569   0.886   1.248   2.541 -3.5882  1.7802  0.0408
 3370SOL    HW221570   0.815   1.259   2.412  2.0384  0.5014 -3.2448
 3371SOL     OW21571   0.897   1.124   6.499 -0.3518  0.0855 -0.0228
 3371SOL    HW121572   0.900   1.094   6.590 -0.4251  0.6071  0.1557
 3371SOL    HW221573   0.904   1.044   6.448  0.9483 -0.3638  0.8632
 3372SOL     OW21574   0.360   2.677   4.495  0.6584  0.3940  0.3194
 3372SOL    HW121575   0.296   2.656   4.563 -0.2883  1.4785 -0.2385
 3372SOL    HW221576   0.439   2.700   4.545  2.2767 -3.8718 -0.2799
 3373SOL     OW21577   4.274   0.248   4.050 -0.3473 -0.1562  0.0548
 3373SOL    HW121578   4.315   0.165   4.025  0.1471 -0.4459  1.8520
 3373SOL    HW221579   4.194   0.249   3.998  0.1607  2.1289 -0.6970
 3374SOL     OW21580   4.196   3.902   3.847  0.6805  0.1850 -0.1143
 3374SOL    HW121581   4.217   3.852   3.768 -2.1480 -1.0921 -0.0818
 3374SOL    HW221582   4.179   3.986   3.804  0.8129 -0.5367 -1.5857
 3375SOL     OW21583   4.698   4.196   1.591  0.0406 -0.5248  0.5319
 3375SOL    HW121584   4.675   4.162   1.678 -0.7112  0.3300  0.6657
 3375SOL    HW221585   0.063   4.229   1.615 -0.0735 -1.0582  1.6915
 3376SOL     OW21586   2.378   2.649   2.545  0.6986  0.3853  0.3800
 3376SOL    HW121587   2.364   2.734   2.588 -0.2806  0.2714  0.2991
 3376SOL    HW221588   2.449   2.606   2.593  1.0466  1.4193  0.7915
 3377SOL     OW21589   4.528   4.036   1.077  0.4399  0.0111  0.3827
 3377SOL    HW121590   4.518   3.989   1.160 -0.8739 -0.9880 -0.3343
 3377SOL    HW221591   4.534   4.130   1.091  0.5792  0.0505  0.0343
 3378SOL     OW21592   3.186   4.583   7.660  0.0348  0.2913 -0.0903
 3378SOL    HW121593   3.234   4.505   7.688 -0.0288  1.6458  3.8200
 3378SOL    HW221594   3.138   4.558   7.582 -2.2372  0.4787  1.2569
 3379SOL     OW21595   4.262   3.093   9.786  0.0322  0.7359 -0.7729
 3379SOL    HW121596   4.339   3.086   9.729  0.8444  1.4721  0.2325
 3379SOL    HW221597   4.300   3.144   9.858 -0.2853  0.4362 -0.3954
 3380SOL     OW21598   3.214   4.677   1.446 -0.0007 -0.1886 -0.1021
 3380SOL    HW121599   3.214   4.677   1.541  0.0827  1.2360 -0.0958
 3380SOL    HW221600   3.153   0.029   1.433  1.5739  1.1618 -0.0203
 3381SOL     OW21601   4.671   2.746   4.232 -0.3896 -0.4405  0.2428
 3381SOL    HW121602   4.622   2.822   4.200 -1.2024 -1.9063 -2.0284
 3381SOL    HW221603   4.629   2.681   4.175 -3.0502  0.7464  0.8409
 3382SOL     OW21604   1.721   1.608   0.782  0.0729  0.1522 -0.0813
 3382SOL    HW121605   1.668   1.681   0.749 -0.1343  1.6499  3.6317
 3382SOL    HW221606   1.806   1.648   0.796  0.2649 -0.3864  0.2758
 3383SOL     OW21607   1.260   2.199   4.087  0.1900 -0.2543 -0.3425
 3383SOL    HW121608   1.319   2.244   4.147  0.4596 -1.1809  0.0899
 3383SOL    HW221609   1.310   2.209   4.006 -0.8038  1.4292 -0.7370
 3384SOL     OW21610   3.784   2.814   5.131 -0.1101  0.0569  0.7349
 3384SOL    HW121611   3.697   2.798   5.169 -0.9134 -1.1629 -1.5705
 3384SOL    HW221612   3.771   2.887   5.069  2.7470 -0.1494 -0.0864
 3385SOL     OW21613   0.023   4.051   6.453 -0.3190 -0.2918 -0.5441
 3385SOL    HW121614   4.717   4.115   6.388  1.4369  3.6506  2.6193
 3385SOL    HW221615   0.005   4.098   6.535  0.3969  0.5567 -0.8803
 3386SOL     OW21616   1.089   0.608   0.006  0.0303  0.9539 -0.0856
 3386SOL    HW121617   1.019   0.618   0.071  1.6609  0.9403  1.6919
 3386SOL    HW221618   1.044   0.563  17.622 -0.4193 -1.8995  2.0126
 3387SOL     OW21619   3.240   3.752   2.487 -0.0548 -0.4059 -0.4696
 3387SOL    HW121620   3.312   3.708   2.441 -1.5158 -2.7283 -0.5446
 3387SOL    HW221621   3.263   3.841   2.463 -1.9770  0.6947  1.7787
 3388SOL     OW21622   2.932   1.518   5.312 -0.1881 -0.0020  0.3964
 3388SOL    HW121623   2.951   1.573   5.236  1.7407 -0.1455  0.7826
 3388SOL    HW221624   2.848   1.474   5.293  0.1711 -0.5753  0.1329
 3389SOL     OW21625   2.130   3.166   3.796  0.1824  0.2337  0.6230
 3389SOL    HW121626   2.201   3.211   3.751 -2.0567  1.6727 -1.4717
 3389SOL    HW221627   2.067   3.238   3.798 -1.8655 -1.5899  1.7709
 3390SOL     OW21628   3.583   4.151   0.452 -0.2602  0.0985  0.3543
 3390SOL    HW121629   3.644   4.104   0.395 -1.0611  1.3376 -1.5333
 3390SOL    HW221630   3.623   4.147   0.539  1.5106  0.0878 -0.4584
 3391SOL     OW21631   2.920   3.050   5.300 -0.1222 -0.1666  0.4318
 3391SOL    HW121632   2.826   3.040   5.318 -0.5562  1.9097 -0.6786
 3391SOL    HW221633   2.922   3.143   5.322  1.6430  0.1532 -1.0908
 3392SOL     OW21634   4.456   0.865   2.629  0.0780 -0.6713  0.6409
 3392SOL    HW121635   4.444   0.951   2.669 -0.1465  0.2882 -1.5434
 3392SOL    HW221636   4.497   0.899   2.550 -1.4070  1.5310  0.8071
 3393SOL     OW21637   4.156   3.640  10.778 -0.3769 -0.2981  0.0906
 3393SOL    HW121638   4.236   3.594  10.802 -0.2750  0.3557  1.0014
 3393SOL    HW221639   4.164   3.702  10.850  0.3192  1.9250 -1.9112
 3394SOL     OW21640   0.926   3.760   4.986 -0.1205 -0.3497  0.0881
 3394SOL    HW121641   1.011   3.746   4.943 -0.7961  0.1814 -1.3979
 3394SOL    HW221642   0.860   3.724   4.927 -0.1188 -1.2754  0.6397
 3395SOL     OW21643   2.361   1.849   7.066  0.3031 -0.1717  0.6879
 3395SOL    HW121644   2.285   1.809   7.022  1.0882 -1.3982  0.4673
 3395SOL    HW221645   2.313   1.918   7.113 -1.1411 -0.3477 -0.5229
 3396SOL     OW21646   3.168   0.620   8.787  0.6044  0.1398 -0.3915
 3396SOL    HW121647   3.088   0.569   8.803  1.1115 -1.1799 -2.0713
 3396SOL    HW221648   3.223   0.574   8.850 -2.1562 -1.6652  0.7042
 3397SOL     OW21649   0.837   4.425   7.104  0.0476 -0.2642  0.2250
 3397SOL    HW121650   0.882   4.388   7.028  1.5871  1.9867  0.0615
 3397SOL    HW221651   0.897   4.419   7.179 -0.5339  0.2250  0.7325
 3398SOL     OW21652   3.842   2.967  15.267  0.4775 -0.0161  0.7627
 3398SOL    HW121653   3.755   2.929  15.257  0.6480 -0.2234  0.0288
 3398SOL    HW221654   3.863   2.968  15.360  3.2266  1.8799  0.1253
 3399SOL     OW21655   2.786   1.838   5.336 -0.4480 -0.1628  0.0044
 3399SOL    HW121656   2.833   1.906   5.386 -0.4989 -0.1304  0.0088
 3399SOL    HW221657   2.771   1.883   5.253 -1.4649  0.3503  0.4607
 3400SOL     OW21658   4.719   2.763   5.034  0.7147  0.3957  0.3122
 3400SOL    HW121659   0.015   2.714   5.114  1.2112  0.2933  0.1407
 3400SOL    HW221660   0.073   2.736   4.982  0.2887 -0.5427  0.1896
 3401SOL     OW21661   4.334   1.437   3.251 -0.2168 -0.0121  0.3674
 3401SOL    HW121662   4.268   1.487   3.203 -0.1064 -0.1700  0.0517
 3401SOL    HW221663   4.346   1.362   3.194 -1.2303 -0.5661  0.8890
 3402SOL     OW21664   1.358   1.744   6.202  0.2741  0.4422  0.5866
 3402SOL    HW121665   1.396   1.794   6.130  1.1437 -0.3984  0.4759
 3402SOL    HW221666   1.314   1.817   6.247 -1.2976 -0.5312  0.6453
 3403SOL     OW21667   1.188   1.987   2.142  0.4543 -0.1140  0.1191
 3403SOL    HW121668   1.261   2.002   2.201  0.1047 -1.7273  0.9429
 3403SOL    HW221669   1.203   2.049   2.070  0.2800  2.5368  2.3331
 3404SOL     OW21670   1.475   4.160   1.728  1.0922 -0.2315 -0.0646
 3404SOL    HW121671   1.547   4.097   1.722  1.8771  0.8323 -1.8092
 3404SOL    HW221672   1.475   4.203   1.642 -1.7168  1.1053  0.5740
 3405SOL     OW21673   2.765   2.015   7.055 -0.7922  0.1983 -0.0967
 3405SOL    HW121674   2.774   2.065   6.974  1.5591  1.4132  0.9209
 3405SOL    HW221675   2.768   2.089   7.116 -0.8467 -1.1300  1.5262
 3406SOL     OW21676   0.061   1.729  14.976 -0.2518  0.3184 -0.2320
 3406SOL    HW121677   0.031   1.694  14.893 -2.0287  1.3199 -0.0199
 3406SOL    HW221678   0.118   1.804  14.956 -0.3856  0.6462  0.5923
 3407SOL     OW21679   2.111   3.381  11.884 -0.1396 -0.0874  0.5079
 3407SOL    HW121680   2.017   3.388  11.903 -0.3446 -0.8556 -0.2169
 3407SOL    HW221681   2.140   3.414  11.969  0.4437 -0.8048  0.5916
 3408SOL     OW21682   2.436   3.139   9.624  0.1371 -0.2170  0.2737
 3408SOL    HW121683   2.374   3.083   9.577  1.8926 -2.8792  1.1646
 3408SOL    HW221684   2.380   3.193   9.680  0.7697  0.0995  0.5978
 3409SOL     OW21685   3.023   1.517   8.676 -0.7547 -0.4386  0.2461
 3409SOL    HW121686   3.039   1.426   8.699 -0.4670 -0.0353  1.6024
 3409SOL    HW221687   2.929   1.529   8.690 -0.8673 -2.8504  1.4716
 3410SOL     OW21688   1.535   3.894   5.778  0.0814  0.6201  0.1535
 3410SOL    HW121689   1.441   3.875   5.771  0.2810  0.7055 -2.7011
 3410SOL    HW221690   1.544   3.989   5.778  0.4232  0.5904 -2.1633
 3411SOL     OW21691   2.756   0.916  10.667 -0.6130 -0.6360  0.2799
 3411SOL    HW121692   2.832   0.880  10.712 -0.4403 -0.0180  0.4916
 3411SOL    HW221693   2.777   0.916  10.574 -1.3043 -1.8408  0.1295
 3412SOL     OW21694   2.088   4.389  12.535  0.1884 -0.6118 -0.3696
 3412SOL    HW121695   2.074   4.472  12.491 -1.8495 -0.2490  0.9369
 3412SOL    HW221696   2.100   4.411  12.628  1.8471  0.7727 -0.9283
 3413SOL     OW21697   1.655   4.711   0.832 -0.4129 -1.0476  0.0249
 3413SOL    HW121698   1.565   0.013   0.854 -0.6204 -0.1994 -1.7618
 3413SOL    HW221699   1.691   4.685   0.917  1.7153  0.2881 -0.4687
 3414SOL     OW21700   0.164   3.580  10.345  0.7225  0.0237 -0.2395
 3414SOL    HW121701   0.099   3.569  10.414 -1.8020  1.3923 -2.4263
 3414SOL    HW221702   0.137   3.505  10.292  0.9925 -1.9222  2.3600
 3415SOL     OW21703   1.462   3.649  14.615 -0.2630  0.1862 -0.2651
 3415SOL    HW121704   1.429   3.561  14.629 -0.6586  0.2324 -0.8990
 3415SOL    HW221705   1.554   3.626  14.627  0.1272  2.0550  0.3702
 3416SOL     OW21706   4.145   0.579   3.745  0.2285 -0.5703  0.3766
 3416SOL    HW121707   4.230   0.593   3.704 -0.4682  1.7714 -0.2660
 3416SOL    HW221708   4.136   0.650   3.809 -0.9348  0.6861 -1.1896
 3417SOL     OW21709   0.061   1.915   0.947 -0.4314  0.0210  0.1534
 3417SOL    HW121710   4.707   1.907   0.887  0.1067  0.4400 -0.5723
 3417SOL    HW221711   0.026   1.981   1.007  1.9865  0.5414  0.9604
 3418SOL     OW21712   2.920   2.388   7.542 -0.0847  0.0539  0.5157
 3418SOL    HW121713   3.007   2.416   7.514 -0.3972 -0.1222 -0.6435
 3418SOL    HW221714   2.871   2.471   7.541 -0.5029 -0.1828  1.3931
 3419SOL     OW21715   3.528   0.946   3.481 -0.1160  0.0925 -0.5232
 3419SOL    HW121716   3.583   0.909   3.550 -1.5475  1.5742  1.3842
 3419SOL    HW221717   3.587   0.940   3.406 -0.7146 -0.9909 -0.9118
 3420SOL     OW21718   1.993   1.998   6.285 -0.4423 -0.3550  0.2454
 3420SOL    HW121719   1.966   2.081   6.246  0.1451 -0.3165 -0.0732
 3420SOL    HW221720   1.918   1.945   6.258  1.7624 -3.3316  0.0426
 3421SOL     OW21721   2.169   2.497   8.617  0.7503 -0.1222  0.8674
 3421SOL    HW121722   2.087   2.514   8.663 -1.0932 -2.6572 -1.5026
 3421SOL    HW221723   2.137   2.421   8.568 -0.0394  0.5677  0.3164
 3422SOL     OW21724   3.929   4.519   3.200  0.4890  0.2181  0.2263
 3422SOL    HW121725   3.834   4.533   3.202  0.3903 -0.6839  3.0346
 3422SOL    HW221726   3.966   4.605   3.219  0.6254 -0.0545  1.1926
 3423SOL     OW21727   0.103   3.774  11.378 -0.0096  0.0345  0.2958
 3423SOL    HW121728   0.125   3.689  11.340  0.0140  0.3948 -0.4958
 3423SOL    HW221729   0.161   3.832  11.329  0.1507  0.1826  0.6604
 3424SOL     OW21730   3.682   3.890   6.187  0.0767  0.1412 -0.0030
 3424SOL    HW121731   3.770   3.863   6.215  0.9560 -1.1752 -4.0000
 3424SOL    HW221732   3.658   3.816   6.132 -0.2248 -0.0430  0.3764
 3425SOL     OW21733   2.515   1.061   7.986 -0.0198 -0.1213  0.0157
 3425SOL    HW121734   2.547   1.029   8.070  1.3970 -1.2145 -0.9322
 3425SOL    HW221735   2.601   1.078   7.948 -1.0506  2.8690 -0.9611
 3426SOL     OW21736   2.805   4.141   7.406  0.1446 -0.0108 -0.3281
 3426SOL    HW121737   2.824   4.159   7.314  1.2010  0.6713  0.0233
 3426SOL    HW221738   2.829   4.048   7.402 -0.4655 -0.1695 -0.3285
 3427SOL     OW21739   0.902   3.451   2.098 -0.4592  0.4166 -0.3337
 3427SOL    HW121740   0.886   3.374   2.153  0.8791 -0.9061 -1.8097
 3427SOL    HW221741   0.889   3.416   2.010  1.4800  0.9729 -0.8327
 3428SOL     OW21742   0.300   3.883   8.150  0.0016 -0.1000 -0.2099
 3428SOL    HW121743   0.300   3.860   8.243  2.3490 -0.1395 -0.2015
 3428SOL    HW221744   0.348   3.966   8.154 -0.4307 -0.0227  3.7647
 3429SOL     OW21745   2.381   1.475   1.514  0.0578 -0.0438 -0.5529
 3429SOL    HW121746   2.421   1.530   1.582 -0.2980 -0.3470 -0.0948
 3429SOL    HW221747   2.343   1.414   1.577  1.5366 -0.7872 -0.3835
 3430SOL     OW21748   4.137   3.579   6.868 -0.3423 -0.4543  0.0892
 3430SOL    HW121749   4.220   3.627   6.875 -1.0708  0.6364  1.2521
 3430SOL    HW221750   4.170   3.489   6.869 -1.0272 -0.6945  2.8530
 3431SOL     OW21751   0.548   2.985   8.603  0.3366  0.1051  0.2947
 3431SOL    HW121752   0.526   3.077   8.587  0.0731  0.1447  0.8875
 3431SOL    HW221753   0.631   2.992   8.650 -0.2744  0.8366  1.2712
 3432SOL     OW21754   1.820   0.183   3.767 -0.0098  0.5988  0.2445
 3432SOL    HW121755   1.726   0.192   3.781 -0.2131 -1.0579 -0.0993
 3432SOL    HW221756   1.837   0.276   3.785 -0.4499  0.5660  0.8657
 3433SOL     OW21757   0.769   4.068   6.944 -0.2672 -0.9049 -0.3056
 3433SOL    HW121758   0.675   4.059   6.933 -0.5077  1.1248  0.0501
 3433SOL    HW221759   0.791   3.984   6.985  1.6332 -0.2522  0.0424
 3434SOL     OW21760   0.130   3.714   4.997 -0.4447  0.3945 -0.9550
 3434SOL    HW121761   0.038   3.722   4.970  0.5647  0.8438 -4.2375
 3434SOL    HW221762   0.160   3.691   4.909  2.1841  0.1379  0.0321
 3435SOL     OW21763   4.182   1.852   5.641 -0.3161  0.3031 -0.2090
 3435SOL    HW121764   4.193   1.880   5.732  1.0055  0.2540 -0.3491
 3435SOL    HW221765   4.111   1.789   5.652 -1.2488  1.2254 -0.8311
 3436SOL     OW21766   3.141   4.438   0.703  0.3918 -0.2162 -0.1093
 3436SOL    HW121767   3.133   4.531   0.723 -0.0516 -0.3731  0.4540
 3436SOL    HW221768   3.151   4.443   0.608 -0.1253  1.9500 -0.0453
 3437SOL     OW21769   4.536   1.960   7.999  0.1147  0.1902  0.3212
 3437SOL    HW121770   4.519   1.871   7.968  2.3222  1.0026 -3.2466
 3437SOL    HW221771   4.601   1.944   8.068  0.7720 -0.6676 -0.4850
 3438SOL     OW21772   2.743   0.431   4.112  0.5305  0.5059 -0.1078
 3438SOL    HW121773   2.828   0.419   4.069  1.1588 -1.8390  1.7726
 3438SOL    HW221774   2.697   0.500   4.064 -1.0549  0.6482  1.5942
 3439SOL     OW21775   3.704   4.681   7.855  0.1299 -0.1872 -0.2255
 3439SOL    HW121776   3.776   0.009   7.895 -1.9433  0.5740  2.5700
 3439SOL    HW221777   3.636   4.715   7.913  1.8033 -0.0739  1.6769
 3440SOL     OW21778   0.483   1.353   5.125 -0.0612  0.1231 -0.0371
 3440SOL    HW121779   0.412   1.303   5.165 -0.2288  0.4565  0.0825
 3440SOL    HW221780   0.482   1.319   5.036 -1.4987 -1.4448  0.5714
 3441SOL     OW21781   1.633   4.109  13.974  0.0689 -0.1481  0.3737
 3441SOL    HW121782   1.663   4.138  13.888 -0.8367 -1.2950 -0.3273
 3441SOL    HW221783   1.619   4.017  13.950  0.0278 -0.0844  0.1473
 3442SOL     OW21784   0.934   1.824   6.905  0.3462 -0.6980  0.7290
 3442SOL    HW121785   0.971   1.866   6.828  0.3921 -0.1868  1.0284
 3442SOL    HW221786   0.842   1.826   6.879  0.2041  1.6869  1.3713
 3443SOL     OW21787   0.466   4.103   8.232 -0.7551 -0.0557  0.0093
 3443SOL    HW121788   0.454   4.157   8.154  0.2460  1.2338  0.7482
 3443SOL    HW221789   0.512   4.160   8.294 -0.1698  1.8222 -2.1525
 3444SOL     OW21790   1.234   2.893   6.877 -0.4663 -0.2259  0.6705
 3444SOL    HW121791   1.184   2.819   6.843  1.8463 -1.2222 -0.5480
 3444SOL    HW221792   1.226   2.961   6.810  0.3498  0.2490  1.0674
 3445SOL     OW21793   1.700   1.841   9.770  0.4504 -0.3696  0.3194
 3445SOL    HW121794   1.750   1.889   9.704  1.3167 -0.6712  0.7485
 3445SOL    HW221795   1.609   1.851   9.744  0.9188  0.9367 -0.8174
 3446SOL     OW21796   0.399   3.798   5.087  0.6228 -0.2376  0.3413
 3446SOL    HW121797   0.478   3.768   5.042  0.5034 -2.9212  1.9452
 3446SOL    HW221798   0.325   3.784   5.027  0.5741  2.1253 -0.1378
 3447SOL     OW21799   0.471   1.905   9.171  0.7014 -0.6054  0.5920
 3447SOL    HW121800   0.402   1.925   9.234 -0.6070  1.6352 -1.5574
 3447SOL    HW221801   0.415   1.856   9.111  0.3426 -1.4043  1.5769
 3448SOL     OW21802   3.148   2.394   7.098 -0.8989 -0.2652 -0.4221
 3448SOL    HW121803   3.096   2.377   7.177  0.8942  0.8360  0.9942
 3448SOL    HW221804   3.177   2.480   7.129  0.2454 -1.3268  1.5107
 3449SOL     OW21805   0.302   0.249   5.947 -0.5863 -0.5554 -0.2776
 3449SOL    HW121806   0.302   0.163   5.905  4.2772 -0.8657  0.3081
 3449SOL    HW221807   0.365   0.231   6.016 -1.6730 -0.7787  0.6606
 3450SOL     OW21808   3.857   1.172   2.351 -0.3800 -0.0227  0.1668
 3450SOL    HW121809   3.908   1.200   2.275  1.1592  1.5617  1.8153
 3450SOL    HW221810   3.769   1.193   2.318 -0.4491 -2.5655 -1.3400
 3451SOL     OW21811   1.582   1.378   6.143 -0.1255 -0.0734 -0.7384
 3451SOL    HW121812   1.489   1.394   6.155  0.4057 -0.2663  3.6694
 3451SOL    HW221813   1.606   1.314   6.211  1.4028 -1.8571 -2.9250
 3452SOL     OW21814   0.326   4.385   2.409  1.2437  0.1426  0.5398
 3452SOL    HW121815   0.317   4.295   2.441  1.1981  0.6788  2.0151
 3452SOL    HW221816   0.418   4.406   2.423  0.6286  3.2881 -0.2242
 3453SOL     OW21817   3.240   3.250   8.390 -0.2085  0.6671 -0.0253
 3453SOL    HW121818   3.286   3.201   8.322  2.2169  3.3442 -0.3200
 3453SOL    HW221819   3.220   3.177   8.449 -0.0196 -0.1296 -0.9426
 3454SOL     OW21820   0.569   3.689   0.367 -0.1626 -0.1302  0.0467
 3454SOL    HW121821   0.573   3.601   0.328 -0.8358  0.4029 -1.2400
 3454SOL    HW221822   0.502   3.730   0.313  0.4080 -1.1371 -1.4315
 3455SOL     OW21823   3.079   3.913   6.753  0.4391 -0.0531 -0.0531
 3455SOL    HW121824   3.079   3.868   6.838 -0.1980  2.2694  1.1712
 3455SOL    HW221825   3.170   3.897   6.729  0.1233  0.8125 -1.7858
 3456SOL     OW21826   4.553   2.828   1.240 -0.3894  0.5819  0.2199
 3456SOL    HW121827   4.515   2.740   1.239  0.4148  0.2472 -0.2812
 3456SOL    HW221828   4.492   2.878   1.295  1.3993  0.1089  2.6203
 3457SOL     OW21829   3.516   1.561   2.870 -0.6315 -0.0260  0.1559
 3457SOL    HW121830   3.593   1.520   2.830 -0.5736 -0.0587  0.3007
 3457SOL    HW221831   3.555   1.640   2.908 -1.9618  0.3900  0.6646
 3458SOL     OW21832   1.325   3.644   4.535  0.0053  0.4593  0.3685
 3458SOL    HW121833   1.371   3.639   4.451 -2.0440  1.9144 -0.8382
 3458SOL    HW221834   1.273   3.722   4.519 -1.4951 -0.4203  1.0116
 3459SOL     OW21835   3.259   0.369   2.809 -0.1898 -0.1196 -0.1057
 3459SOL    HW121836   3.316   0.343   2.736 -0.7767  2.0670 -1.3360
 3459SOL    HW221837   3.282   0.461   2.819  0.1365  0.0239 -2.1105
 3460SOL     OW21838   0.198   1.533  11.008  1.1224  0.0077  1.0855
 3460SOL    HW121839   0.123   1.552  11.065  0.9514 -0.3237  0.9723
 3460SOL    HW221840   0.170   1.555  10.919  0.5047 -0.0254  1.2660
 3461SOL     OW21841   2.562   0.960   2.942 -0.0962  0.6209  0.2221
 3461SOL    HW121842   2.610   0.964   3.025 -0.4683 -0.9323  0.4984
 3461SOL    HW221843   2.534   0.869   2.950  3.7315 -0.4584  1.0983
 3462SOL     OW21844   3.561   1.532   5.428  0.0809  0.2576 -0.0980
 3462SOL    HW121845   3.585   1.439   5.433 -0.3308  0.2233  1.2492
 3462SOL    HW221846   3.640   1.577   5.397  1.4988 -2.1351  0.0324
 3463SOL     OW21847   1.018   1.996  16.567 -0.0563 -0.4257  0.1961
 3463SOL    HW121848   1.097   1.952  16.597  3.0221  4.9283  0.0516
 3463SOL    HW221849   0.973   1.921  16.530 -1.0023  0.8459 -1.2591
 3464SOL     OW21850   1.239   4.571   5.144 -0.5814  0.2749 -0.2486
 3464SOL    HW121851   1.229   4.662   5.114 -1.0471  0.1377 -0.5112
 3464SOL    HW221852   1.149   4.561   5.177 -0.7791  0.7710 -0.6401
 3465SOL     OW21853   0.951   2.333  10.613 -0.3830  0.6938 -0.0124
 3465SOL    HW121854   0.870   2.342  10.663 -1.0036 -2.3905 -0.4382
 3465SOL    HW221855   0.934   2.377  10.530  2.0172 -0.1328 -0.9636
 3466SOL     OW21856   4.183   4.227   2.718  0.8171 -0.1966  0.6751
 3466SOL    HW121857   4.225   4.221   2.804  0.1251  0.1042  1.0410
 3466SOL    HW221858   4.100   4.266   2.747 -1.0834 -3.4296 -0.4064
 3467SOL     OW21859   1.835   2.951   0.011  0.4297 -0.5557  0.5027
 3467SOL    HW121860   1.863   2.895   0.083  0.1282  1.2872  2.0606
 3467SOL    HW221861   1.863   2.892  17.627 -0.3201 -1.0222  0.6028
 3468SOL     OW21862   2.971   0.092   9.614  0.2662  0.0919  0.0467
 3468SOL    HW121863   3.047   0.105   9.556  0.4285 -2.3127 -0.2878
 3468SOL    HW221864   2.898   0.115   9.557 -0.2945 -0.1575  0.6705
 3469SOL     OW21865   2.496   1.781   6.375 -0.0160 -0.3270 -0.0815
 3469SOL    HW121866   2.484   1.792   6.469  1.9061 -2.5306  0.4006
 3469SOL    HW221867   2.403   1.782   6.352  0.2268  1.1198 -0.9913
 3470SOL     OW21868   4.258   0.844   5.774 -0.8071 -0.2669  0.5729
 3470SOL    HW121869   4.236   0.847   5.681  0.7945 -3.8951  0.0925
 3470SOL    HW221870   4.184   0.787   5.795 -1.2140 -0.5691 -1.6857
 3471SOL     OW21871   0.272   3.096   0.359  0.2462  0.0759  0.2794
 3471SOL    HW121872   0.303   3.187   0.365  0.6057 -0.0498  0.3304
 3471SOL    HW221873   0.179   3.115   0.346  0.5572  1.3981  0.0149
 3472SOL     OW21874   3.757   2.664   6.099 -1.0063 -0.4863  0.6388
 3472SOL    HW121875   3.823   2.597   6.117 -0.4547 -0.8201 -2.6659
 3472SOL    HW221876   3.724   2.642   6.012  1.8990  0.7532 -0.7670
 3473SOL     OW21877   2.079   3.196  15.393 -0.0389 -0.5828  0.5175
 3473SOL    HW121878   2.126   3.230  15.469  1.3606  0.2638 -0.7149
 3473SOL    HW221879   1.993   3.234  15.412 -0.8048 -1.8040 -0.4734
 3474SOL     OW21880   3.985   1.125   2.872  0.1130  0.1122  0.1742
 3474SOL    HW121881   3.992   1.167   2.787  0.6633 -0.0639  0.1371
 3474SOL    HW221882   3.942   1.181   2.937  0.7974 -0.9003  1.5083
 3475SOL     OW21883   3.623   4.085   6.557 -0.5226 -0.0793  0.6968
 3475SOL    HW121884   3.579   4.023   6.498 -1.6723  0.7108  0.7279
 3475SOL    HW221885   3.695   4.036   6.598  1.0202  0.5291 -1.2294
 3476SOL     OW21886   2.946   0.870  15.807 -0.2008 -0.2711  0.5345
 3476SOL    HW121887   2.923   0.957  15.841  0.3656  0.4131 -0.8074
 3476SOL    HW221888   3.002   0.892  15.732  0.6766 -0.2255  1.1987
 3477SOL     OW21889   0.065   3.241   2.135 -0.5531  0.2720 -0.4004
 3477SOL    HW121890   0.009   3.175   2.094  0.3504 -1.3328  0.9049
 3477SOL    HW221891   0.144   3.189   2.152  1.6100  2.6503 -3.1946
 3478SOL     OW21892   4.263   0.252   6.761 -0.0841  0.0073 -0.0625
 3478SOL    HW121893   4.217   0.169   6.773 -0.1287 -0.3543 -2.8112
 3478SOL    HW221894   4.294   0.247   6.671 -1.0411 -0.1028 -0.3789
 3479SOL     OW21895   0.579   2.001   7.657  0.1174 -0.4264 -0.4243
 3479SOL    HW121896   0.619   2.081   7.690 -0.0890 -1.1651  1.6794
 3479SOL    HW221897   0.533   2.041   7.584 -0.5127  1.6854  1.1151
 3480SOL     OW21898   1.419   3.035   9.774  0.4048  0.2715 -0.1278
 3480SOL    HW121899   1.401   3.106   9.712 -1.2687 -0.0326  0.0199
 3480SOL    HW221900   1.371   2.963   9.733  0.6589 -1.0541  1.8856
 3481SOL     OW21901   0.528   3.768   9.074 -0.3823 -0.3025  0.0395
 3481SOL    HW121902   0.506   3.760   9.166  0.6948 -4.0374 -0.0448
 3481SOL    HW221903   0.616   3.731   9.064 -0.5707 -0.7076 -0.0904
 3482SOL     OW21904   0.224   4.340   1.174 -0.0765 -0.4257 -0.0607
 3482SOL    HW121905   0.292   4.338   1.107  0.7392  2.9049  0.6445
 3482SOL    HW221906   0.272   4.295   1.244  1.5924  0.5044 -0.6032
 3483SOL     OW21907   4.255   0.213  12.205  0.6098  0.0788  0.0231
 3483SOL    HW121908   4.228   0.200  12.295  0.5151  2.5235  0.3646
 3483SOL    HW221909   4.342   0.173  12.213  1.2996  1.2446 -1.5047
 3484SOL     OW21910   0.890   3.226  13.222  0.4304  0.3301  0.2867
 3484SOL    HW121911   0.855   3.202  13.136 -2.3049  1.4482  1.0995
 3484SOL    HW221912   0.854   3.315  13.232  1.5840  0.5832  2.1779
 3485SOL     OW21913   3.914   1.266   3.611  0.1960  0.1926 -0.6282
 3485SOL    HW121914   3.955   1.186   3.642  0.6867  1.3322  1.7313
 3485SOL    HW221915   3.971   1.285   3.536  1.0423  0.8011  0.1562
 3486SOL     OW21916   0.200   1.588  14.338 -0.2721 -0.2453  0.3546
 3486SOL    HW121917   0.154   1.541  14.268 -1.2547  1.7491 -0.3269
 3486SOL    HW221918   0.294   1.573  14.326 -0.3674  0.0096 -0.7154
 3487SOL     OW21919   3.241   0.911   4.788  0.2409  0.0083 -0.1761
 3487SOL    HW121920   3.220   0.818   4.787  1.3087 -0.2259 -0.2470
 3487SOL    HW221921   3.263   0.930   4.879  1.4794  0.0735 -0.4976
 3488SOL     OW21922   0.305   0.847   5.016  0.3742  0.0533  0.3765
 3488SOL    HW121923   0.380   0.881   5.066  0.7523 -0.3302  0.0682
 3488SOL    HW221924   0.332   0.755   5.013  2.0176  0.4594  2.3164
 3489SOL     OW21925   3.847   2.929   6.476  1.0787 -0.1694 -0.2473
 3489SOL    HW121926   3.879   2.990   6.543  0.6969  1.2376 -1.3664
 3489SOL    HW221927   3.767   2.910   6.525  1.9386 -1.0138  0.8616
 3490SOL     OW21928   0.684   1.539   8.807 -0.0801 -0.0118  0.2803
 3490SOL    HW121929   0.659   1.629   8.786 -3.1302 -0.8448  0.3096
 3490SOL    HW221930   0.604   1.505   8.847  0.2192  0.8644  1.6350
 3491SOL     OW21931   0.901   3.977   2.460  0.3652 -0.2471  0.1861
 3491SOL    HW121932   0.939   3.977   2.373  0.2703 -1.7851  0.1489
 3491SOL    HW221933   0.971   3.933   2.508  0.0815 -3.3433 -2.2664
 3492SOL     OW21934   0.097   2.525   6.912  0.1480  0.0517  0.3267
 3492SOL    HW121935   0.005   2.511   6.935 -0.1196  0.5505 -0.4444
 3492SOL    HW221936   0.100   2.485   6.825 -1.7284  1.5828 -0.4590
 3493SOL     OW21937   4.272   4.200   3.945 -0.0196 -0.3923  0.3487
 3493SOL    HW121938   4.261   4.294   3.927 -2.1486 -0.4991  1.0608
 3493SOL    HW221939   4.261   4.165   3.857  1.3227  3.2893 -1.3088
 3494SOL     OW21940   1.447   3.901   6.945  0.9149 -1.0119  0.0545
 3494SOL    HW121941   1.525   3.859   6.980  1.0309 -1.2153 -0.4557
 3494SOL    HW221942   1.487   3.982   6.914 -2.0155  0.4238 -0.0499
 3495SOL     OW21943   4.457   1.540   1.485  0.3841  0.1338  0.3368
 3495SOL    HW121944   4.416   1.455   1.469 -0.5520  0.7268 -0.4335
 3495SOL    HW221945   4.490   1.527   1.574 -2.9118 -1.0137  1.3914
 3496SOL     OW21946   0.265   1.393   7.294 -0.1556 -0.4956 -0.2566
 3496SOL    HW121947   0.311   1.392   7.378 -1.7887 -0.3474  0.6403
 3496SOL    HW221948   0.180   1.403   7.335 -0.1422 -1.1463 -0.0775
 3497SOL     OW21949   0.727   4.262  11.076 -0.7412 -0.5586 -0.1466
 3497SOL    HW121950   0.722   4.230  11.167 -1.0758  1.9234  0.7096
 3497SOL    HW221951   0.636   4.251  11.048 -0.6283 -1.4519 -0.1516
 3498SOL     OW21952   1.265   1.326   3.918 -0.1861 -0.2681 -0.8463
 3498SOL    HW121953   1.224   1.358   3.998  0.1238 -1.3802 -0.2518
 3498SOL    HW221954   1.346   1.376   3.928 -0.9808  0.6779  0.8174
 3499SOL     OW21955   1.846   2.383   6.765 -0.5558 -0.0320  0.5244
 3499SOL    HW121956   1.938   2.358   6.757 -0.1229  2.5641 -2.6645
 3499SOL    HW221957   1.823   2.359   6.675  0.8042  1.6404 -0.2781
 3500SOL     OW21958   1.172   1.864   4.934  0.2492  0.1398  0.5110
 3500SOL    HW121959   1.136   1.940   4.979  0.3794  0.5234 -0.0380
 3500SOL    HW221960   1.133   1.875   4.848  2.3214  0.9526 -0.3209
 3501SOL     OW21961   1.930   3.183   8.364 -0.4163  0.0269  0.1878
 3501SOL    HW121962   1.883   3.213   8.442  2.1692  0.6684  1.4950
 3501SOL    HW221963   2.008   3.231   8.392  1.3470 -0.4930 -3.7064
 3502SOL     OW21964   3.339   3.986   9.031  0.0348  0.3615 -0.1266
 3502SOL    HW121965   3.388   4.055   8.987  1.5589 -0.2788  0.5758
 3502SOL    HW221966   3.292   3.944   8.958  0.4346 -0.6537  0.1958
 3503SOL     OW21967   0.932   1.867  15.789  0.4286  0.0928  0.5081
 3503SOL    HW121968   0.978   1.791  15.823  0.9538  0.6364  1.0198
 3503SOL    HW221969   0.963   1.941  15.842  1.4341 -0.6297  0.9139
 3504SOL     OW21970   0.064   3.627   6.275 -0.0821  0.2475  0.1241
 3504SOL    HW121971   0.007   3.554   6.298 -0.1895 -0.5060 -2.5586
 3504SOL    HW221972   0.147   3.583   6.290  0.0071  0.8957  1.5647
 3505SOL     OW21973   3.279   2.814   1.682 -0.1215  0.2460 -0.3673
 3505SOL    HW121974   3.227   2.789   1.606 -1.0318 -3.5896  1.5112
 3505SOL    HW221975   3.370   2.812   1.651 -0.0875  1.6208 -0.3507
 3506SOL     OW21976   1.027   3.769   0.995  0.3215 -0.6200  0.0113
 3506SOL    HW121977   0.954   3.822   1.026  0.2317 -1.3423  1.0307
 3506SOL    HW221978   1.096   3.835   0.986  0.1135 -0.2622  1.0028
 3507SOL     OW21979   3.234   3.604  16.439 -0.0083  0.0910  0.2722
 3507SOL    HW121980   3.203   3.691  16.412 -0.3125 -0.0064  0.3071
 3507SOL    HW221981   3.164   3.545  16.411  0.4733 -0.1148 -0.4967
 3508SOL     OW21982   0.782   3.543  16.663 -0.4121  0.1339  0.1305
 3508SOL    HW121983   0.821   3.540  16.576 -3.2581 -0.6992 -1.1312
 3508SOL    HW221984   0.848   3.507  16.722 -0.6110 -0.5695 -0.0786
 3509SOL     OW21985   1.403   1.405   0.041 -0.1301 -1.3249 -0.9575
 3509SOL    HW121986   1.447   1.336   0.090  0.0240  0.9303  2.0358
 3509SOL    HW221987   1.449   1.484   0.069 -0.7932 -0.8679 -1.1590
 3510SOL     OW21988   2.406   1.650   9.978  0.3725  0.1327 -0.4722
 3510SOL    HW121989   2.406   1.699  10.060  0.8608  1.2075 -1.1141
 3510SOL    HW221990   2.343   1.697   9.924  0.4320 -0.0562 -0.7068
 3511SOL     OW21991   2.090   1.395   9.970  0.3703 -0.1740 -0.6179
 3511SOL    HW121992   2.167   1.368  10.021 -2.0465 -2.4822  1.7871
 3511SOL    HW221993   2.130   1.421   9.887 -0.3103 -0.1380 -0.9265
 3512SOL     OW21994   1.401   0.280  11.875 -0.2593 -0.4688  0.1588
 3512SOL    HW121995   1.314   0.255  11.843 -1.7021 -0.3051  4.0083
 3512SOL    HW221996   1.439   0.204  11.918 -1.7125 -0.6942  1.0581
 3513SOL     OW21997   1.620   4.242  15.162 -0.2247 -0.2426 -0.6580
 3513SOL    HW121998   1.572   4.280  15.089 -0.6501  1.0116  0.2761
 3513SOL    HW221999   1.646   4.323  15.205  2.5985 -1.2204 -0.4710
 3514SOL     OW22000   2.850   2.062   3.345 -0.0558 -0.6368 -0.1478
 3514SOL    HW122001   2.866   2.137   3.403 -0.2336 -0.1912 -0.6682
 3514SOL    HW222002   2.857   2.097   3.256  0.6821 -1.7665 -0.5382
 3515SOL     OW22003   1.558   0.156   6.259  0.1679 -0.1930  0.6829
 3515SOL    HW122004   1.594   0.163   6.171 -1.6588 -0.7220 -0.1093
 3515SOL    HW222005   1.631   0.187   6.313  1.5363 -1.3721 -0.4734
 3516SOL     OW22006   2.105   0.741   3.443  0.3462  0.2158  0.0288
 3516SOL    HW122007   2.182   0.766   3.392 -0.4928  0.1211 -1.2740
 3516SOL    HW222008   2.049   0.818   3.442  3.0887  2.2043 -0.8747
 3517SOL     OW22009   2.670   1.979   1.018  0.3195  0.4076 -0.0336
 3517SOL    HW122010   2.703   1.982   0.928 -0.8187 -1.2979 -0.5085
 3517SOL    HW222011   2.577   1.960   1.010  0.0888  1.8089 -0.6403
 3518SOL     OW22012   0.751   2.776   7.399  0.1562  0.5941  0.8873
 3518SOL    HW122013   0.721   2.737   7.317  1.3608 -0.8662  1.1509
 3518SOL    HW222014   0.772   2.698   7.451  2.4320  0.5483 -0.0995
 3519SOL     OW22015   4.419   1.628   6.709  0.8784 -0.1555  0.4884
 3519SOL    HW122016   4.502   1.600   6.747  1.3939  0.2232 -0.3569
 3519SOL    HW222017   4.416   1.721   6.729  3.5866 -0.5706  2.8485
 3520SOL     OW22018   1.942   0.807   6.942 -1.2400 -0.4647 -0.2354
 3520SOL    HW122019   1.858   0.772   6.913 -0.7142 -0.9747 -1.1411
 3520SOL    HW222020   1.920   0.826   7.033  0.4495 -1.1428  0.3215
 3521SOL     OW22021   2.851   0.498   9.569 -0.1720  0.0030 -0.0083
 3521SOL    HW122022   2.915   0.553   9.614 -0.0764  0.1620 -0.3360
 3521SOL    HW222023   2.802   0.472   9.647 -0.5963 -1.8449 -0.8794
 3522SOL     OW22024   0.087   2.650  10.601  0.0974 -0.3396  0.4451
 3522SOL    HW122025   0.122   2.709  10.534  0.7579  0.4090  1.4472
 3522SOL    HW222026   0.122   2.691  10.679  0.1291 -1.4524  1.0204
 3523SOL     OW22027   2.013   1.229   7.233 -0.0131  0.7511 -0.1046
 3523SOL    HW122028   2.003   1.198   7.323  2.5441 -0.3872 -0.2022
 3523SOL    HW222029   2.011   1.324   7.232  0.6038  0.7600 -0.8637
 3524SOL     OW22030   2.527   2.480   3.454  0.3240  0.1978 -0.5288
 3524SOL    HW122031   2.510   2.556   3.399  2.3795  0.3368 -0.9899
 3524SOL    HW222032   2.489   2.518   3.533  0.8951  1.3321 -0.7948
 3525SOL     OW22033   3.812   1.848   2.201 -0.2395  0.0465  0.4626
 3525SOL    HW122034   3.765   1.931   2.209 -1.5959 -0.8862  2.5110
 3525SOL    HW222035   3.811   1.823   2.109  1.0526 -0.0529  0.4768
 3526SOL     OW22036   4.679   1.660   9.774 -0.1658 -0.3044  0.1289
 3526SOL    HW122037   4.688   1.623   9.687  1.7980 -0.1030  0.2384
 3526SOL    HW222038   4.670   1.576   9.820  0.7229 -0.5776 -0.1989
 3527SOL     OW22039   3.926   4.102   3.817 -0.1122 -0.2107 -0.6874
 3527SOL    HW122040   4.001   4.128   3.764 -0.3671  1.4310 -0.2707
 3527SOL    HW222041   3.943   4.125   3.909  2.2173  0.2571 -1.2342
 3528SOL     OW22042   4.185   3.650   6.494 -0.3697 -0.9445  0.0495
 3528SOL    HW122043   4.264   3.704   6.494 -0.2964 -1.0440 -0.4228
 3528SOL    HW222044   4.224   3.572   6.533 -0.7612 -1.8062 -1.2657
 3529SOL     OW22045   0.219   1.718   1.750 -0.1120  0.5977 -0.2310
 3529SOL    HW122046   0.217   1.687   1.841 -0.2429 -1.2553 -0.8662
 3529SOL    HW222047   0.131   1.734   1.718 -0.7082 -2.5565 -0.1555
 3530SOL     OW22048   2.215   0.563   3.602 -0.5824  0.0951  0.1581
 3530SOL    HW122049   2.180   0.617   3.531  0.2365  0.8898  0.3558
 3530SOL    HW222050   2.306   0.578   3.578 -0.3169  0.4578  1.3547
 3531SOL     OW22051   0.392   3.119   3.983 -0.1087  0.3724 -0.6266
 3531SOL    HW122052   0.401   3.050   4.047 -0.5112 -1.0274 -2.0735
 3531SOL    HW222053   0.313   3.163   4.015 -0.1432 -0.0820 -0.1026
 3532SOL     OW22054   3.523   4.608   2.109 -0.4704 -0.0571  0.3371
 3532SOL    HW122055   3.554   4.575   2.025 -0.6948 -0.2070  0.3127
 3532SOL    HW222056   3.444   4.553   2.111 -0.9918  0.6533 -0.8221
 3533SOL     OW22057   3.186   2.916  10.931 -0.0234  0.2700 -0.5082
 3533SOL    HW122058   3.173   2.974  10.857  1.1901  0.7120 -0.3765
 3533SOL    HW222059   3.101   2.926  10.972  0.1124 -0.9447  0.0739
 3534SOL     OW22060   2.370   3.826   5.048 -0.2183 -0.3154 -0.2561
 3534SOL    HW122061   2.408   3.741   5.028  3.0746  1.0781  0.0865
 3534SOL    HW222062   2.303   3.833   4.980 -0.1404 -1.7298 -0.4729
 3535SOL     OW22063   1.096   0.475   4.643 -0.6520 -0.1294 -0.6209
 3535SOL    HW122064   1.115   0.394   4.690 -0.1967  0.0042 -0.5739
 3535SOL    HW222065   1.002   0.469   4.623 -1.0536  0.7336  1.0324
 3536SOL     OW22066   2.871   3.689   8.207  0.1043 -0.2573  0.1744
 3536SOL    HW122067   2.884   3.594   8.195  1.0328 -0.4395  2.7016
 3536SOL    HW222068   2.828   3.693   8.292 -3.3651  0.4419 -1.6319
 3537SOL     OW22069   0.419   0.293   5.566  0.0060  0.5636  0.1929
 3537SOL    HW122070   0.462   0.212   5.539  0.7354  1.1103 -0.3230
 3537SOL    HW222071   0.331   0.270   5.594  0.4835 -2.4336 -0.8005
 3538SOL     OW22072   1.378   4.466  12.026 -0.9081 -0.3731  0.3023
 3538SOL    HW122073   1.435   4.514  11.966 -0.8708 -1.5636 -0.6285
 3538SOL    HW222074   1.316   4.424  11.966 -0.4883 -0.4138 -0.0997
 3539SOL     OW22075   4.642   0.362  13.017  0.3038 -0.1807  0.0649
 3539SOL    HW122076   4.560   0.400  13.048  1.9269  2.1845  1.4873
 3539SOL    HW222077   4.691   0.429  13.065 -0.9109  0.0168  1.0188
 3540SOL     OW22078   3.961   2.704  11.211 -0.3010 -0.0093 -0.4593
 3540SOL    HW122079   4.038   2.675  11.162 -0.8330  1.1747 -1.9899
 3540SOL    HW222080   3.954   2.643  11.285  1.5698  0.6658  0.2425
 3541SOL     OW22081   0.866   3.110  10.076 -0.2311  0.4533  0.1664
 3541SOL    HW122082   0.821   3.027  10.062  0.3773  0.3908 -1.3764
 3541SOL    HW222083   0.833   3.151   9.996  2.1383 -0.4978 -1.3171
 3542SOL     OW22084   1.279   2.264   4.526 -0.5237  0.2737 -0.2214
 3542SOL    HW122085   1.308   2.355   4.514 -1.5355  0.5118 -0.8651
 3542SOL    HW222086   1.333   2.246   4.603  0.0505  2.5700 -0.0737
 3543SOL     OW22087   3.599   2.180  11.745  0.0693  0.2342 -0.4219
 3543SOL    HW122088   3.694   2.192  11.734  0.3134  0.1334  1.6747
 3543SOL    HW222089   3.567   2.221  11.664 -1.6528  2.1032  1.2111
 3544SOL     OW22090   1.512   1.884  15.247  0.4221  0.2328  0.5450
 3544SOL    HW122091   1.507   1.806  15.191  0.0614 -0.3584  1.4030
 3544SOL    HW222092   1.430   1.873  15.296  0.5381  1.6998  1.0659
 3545SOL     OW22093   0.441   1.657   7.344  0.3284  0.4724 -0.5121
 3545SOL    HW122094   0.410   1.629   7.431 -0.8701  0.8303 -0.8199
 3545SOL    HW222095   0.535   1.662   7.360  0.1752 -1.2236  0.9626
 3546SOL     OW22096   0.558   2.531   9.689  0.2548  0.5512  0.0044
 3546SOL    HW122097   0.540   2.579   9.770  0.1449 -1.5303  1.2262
 3546SOL    HW222098   0.576   2.600   9.625  0.4693 -0.0911 -0.6225
 3547SOL     OW22099   2.557   1.166  12.675 -1.1765 -0.1566 -0.3711
 3547SOL    HW122100   2.538   1.206  12.760 -3.1415 -0.4849 -0.6592
 3547SOL    HW222101   2.642   1.126  12.691 -0.9496  0.4322 -0.0840
 3548SOL     OW22102   3.426   3.021   4.728  0.8821  0.0969  0.3761
 3548SOL    HW122103   3.428   3.096   4.788  1.0246 -0.4917  1.1073
 3548SOL    HW222104   3.354   3.050   4.672  0.5787 -1.3886  0.0220
 3549SOL     OW22105   1.570   1.390  15.984  0.0438 -0.4504 -0.6686
 3549SOL    HW122106   1.617   1.386  16.068 -1.6196 -2.0628  0.1974
 3549SOL    HW222107   1.619   1.322  15.937 -2.1794 -2.0627 -0.6546
 3550SOL     OW22108   2.571   1.474   8.026  0.0719 -0.1247 -0.0291
 3550SOL    HW122109   2.575   1.551   7.970  0.2283 -1.5160 -1.9381
 3550SOL    HW222110   2.493   1.441   7.980 -0.4785 -0.7938  1.4076
 3551SOL     OW22111   3.010   3.138  14.934  0.6350  0.0594  0.4684
 3551SOL    HW122112   2.986   3.229  14.952  1.3857  0.3236  0.1159
 3551SOL    HW222113   2.932   3.113  14.883 -0.0045  0.2740  1.3422
 3552SOL     OW22114   3.021   4.357   6.846 -0.0315  0.3069 -0.8896
 3552SOL    HW122115   3.111   4.338   6.871 -0.4378  0.7822  0.9431
 3552SOL    HW222116   2.971   4.383   6.924  2.0698 -3.1135  1.6277
 3553SOL     OW22117   1.824   3.504   2.183 -0.1223 -0.6346 -1.0193
 3553SOL    HW122118   1.898   3.518   2.124  0.5829  0.9509  0.2339
 3553SOL    HW222119   1.831   3.410   2.203  0.2047  0.1336  2.6037
 3554SOL     OW22120   1.265   3.169   5.142  0.3694  0.2834 -0.4819
 3554SOL    HW122121   1.344   3.206   5.103  1.3261  0.3013  1.4955
 3554SOL    HW222122   1.307   3.097   5.189 -0.6606  0.3522  0.5354
 3555SOL     OW22123   4.642   3.052   3.386 -1.1899  0.1598 -0.4401
 3555SOL    HW122124   4.574   3.119   3.390 -1.4873 -0.3331  2.3416
 3555SOL    HW222125   4.605   2.980   3.437  1.1052 -0.1586  0.7930
 3556SOL     OW22126   1.501   2.074  12.921  0.3173 -0.5674 -0.1585
 3556SOL    HW122127   1.490   1.988  12.963 -2.3238 -0.9130 -1.5348
 3556SOL    HW222128   1.492   2.121  13.004 -2.2711  3.9301 -3.0028
 3557SOL     OW22129   3.337   2.295   9.837  0.7802  0.3405 -0.1783
 3557SOL    HW122130   3.268   2.338   9.787 -1.1067 -1.3794  0.9593
 3557SOL    HW222131   3.354   2.214   9.789 -2.0356 -0.2319 -0.2175
 3558SOL     OW22132   0.210   1.580   1.408 -0.6801  0.5362  0.0720
 3558SOL    HW122133   0.154   1.626   1.345 -0.2941 -0.3762 -0.9293
 3558SOL    HW222134   0.228   1.494   1.370  0.6402  1.4322 -1.3457
 3559SOL     OW22135   3.816   0.996   1.389  0.3970  0.0662  0.5937
 3559SOL    HW122136   3.823   1.003   1.294  1.2982  0.5375  0.7035
 3559SOL    HW222137   3.733   0.949   1.382  0.9771 -0.6727 -1.3360
 3560SOL     OW22138   1.123   2.809   8.225 -0.4356 -0.0102 -0.6235
 3560SOL    HW122139   1.107   2.842   8.314 -1.3659  1.6182 -1.3865
 3560SOL    HW222140   1.041   2.836   8.183 -0.1455  2.1617  0.1980
 3561SOL     OW22141   0.004   1.638   8.633 -0.3024 -0.1138 -0.2328
 3561SOL    HW122142   4.630   1.624   8.631 -0.6722  2.4214 -1.2128
 3561SOL    HW222143   0.026   1.569   8.696 -2.6973 -0.2884  0.4406
 3562SOL     OW22144   2.917   0.581   0.269  0.5475  0.3620  0.6091
 3562SOL    HW122145   2.858   0.603   0.341  0.2217  0.9734  0.1623
 3562SOL    HW222146   2.993   0.553   0.320  0.1225 -0.6280  0.6866
 3563SOL     OW22147   1.130   1.261   0.576  0.1314 -0.3124  0.1139
 3563SOL    HW122148   1.045   1.235   0.539 -1.0320  0.6654  2.1269
 3563SOL    HW222149   1.170   1.178   0.602 -0.0047  0.0618  1.4860
 3564SOL     OW22150   1.873   0.467   1.780 -0.4817 -0.1613 -0.0580
 3564SOL    HW122151   1.940   0.454   1.713 -1.0843 -0.1293 -0.6712
 3564SOL    HW222152   1.797   0.445   1.725 -1.2533  1.7301  0.2537
 3565SOL     OW22153   3.492   4.717   3.540 -0.5546  0.0600  0.9153
 3565SOL    HW122154   3.429   4.656   3.502 -0.8577  2.2945 -2.1410
 3565SOL    HW222155   3.524   0.046   3.465 -0.3610  0.4409  1.2483
 3566SOL     OW22156   0.200   2.205  13.161 -0.1414  0.0583  0.1748
 3566SOL    HW122157   0.191   2.116  13.128 -0.5437  0.1883 -0.0763
 3566SOL    HW222158   0.107   2.228  13.171 -0.0598  0.5600 -0.2541
 3567SOL     OW22159   2.892   0.045   5.596  0.2316 -0.5220  0.0827
 3567SOL    HW122160   2.844   0.089   5.526  0.4284 -0.8145 -0.2425
 3567SOL    HW222161   2.856   4.677   5.594  0.5216 -0.6542  0.7973
 3568SOL     OW22162   4.627   2.538   7.256 -0.7259  0.2194  0.4574
 3568SOL    HW122163   4.622   2.587   7.174 -1.5321  1.0797  1.0253
 3568SOL    HW222164   4.537   2.508   7.268 -0.8061  0.3761  0.2419
 3569SOL     OW22165   2.838   1.541  17.154 -0.9447 -0.0723 -0.4181
 3569SOL    HW122166   2.845   1.496  17.070  1.2851 -0.1186 -0.1849
 3569SOL    HW222167   2.768   1.491  17.198 -0.8236 -0.1729 -0.3405
 3570SOL     OW22168   3.197   3.051   2.757  0.1662 -0.4513 -0.4858
 3570SOL    HW122169   3.251   3.066   2.680  1.3387  1.2734  0.6815
 3570SOL    HW222170   3.268   3.054   2.821 -0.8677 -1.1183  0.6898
 3571SOL     OW22171   2.044   1.202   0.541 -0.3740  0.0412 -0.0014
 3571SOL    HW122172   2.129   1.220   0.583 -0.5167 -0.6057  0.5536
 3571SOL    HW222173   1.987   1.232   0.611 -2.6471  0.4363 -2.0424
 3572SOL     OW22174   4.364   3.593   0.625  0.1536 -0.4237  0.1129
 3572SOL    HW122175   4.336   3.652   0.556 -1.0006 -0.3674  0.6355
 3572SOL    HW222176   4.417   3.542   0.564  1.3653  0.2307  0.6052
 3573SOL     OW22177   3.752   0.531  15.126  0.0029 -0.0728  0.0505
 3573SOL    HW122178   3.657   0.534  15.122 -0.1126 -1.8396  1.6015
 3573SOL    HW222179   3.763   0.466  15.195  0.6915 -0.7899 -0.7456
 3574SOL     OW22180   2.553   1.768   8.642 -0.0487  0.6754  0.4604
 3574SOL    HW122181   2.612   1.695   8.660 -1.4043 -0.3934  0.5478
 3574SOL    HW222182   2.543   1.753   8.548 -0.8030 -0.3545  0.7125
 3575SOL     OW22183   3.002   2.550   9.500  0.1451  0.0361  0.1393
 3575SOL    HW122184   3.075   2.585   9.449 -0.7728 -0.1472 -1.2915
 3575SOL    HW222185   2.934   2.550   9.434 -0.3934 -0.0534  0.6965
 3576SOL     OW22186   1.734   2.384   5.923 -0.4268  0.2519  0.3055
 3576SOL    HW122187   1.829   2.392   5.918 -0.5029  0.1615 -1.2250
 3576SOL    HW222188   1.717   2.301   5.966  1.2101 -0.8786 -1.2159
 3577SOL     OW22189   2.416   2.400   5.257 -0.2992 -0.0057  0.0966
 3577SOL    HW122190   2.430   2.409   5.163  0.0595  2.1009  0.3497
 3577SOL    HW222191   2.366   2.319   5.266 -1.9667  0.8678 -1.4297
 3578SOL     OW22192   0.049   2.989   1.519  0.3778  0.4866  0.7859
 3578SOL    HW122193   4.692   3.039   1.496  0.6731  1.0963  1.1198
 3578SOL    HW222194   0.040   2.987   1.614 -2.1447  2.1135  0.5885
 3579SOL     OW22195   2.909   0.651   8.202  0.3269  0.5645  0.4430
 3579SOL    HW122196   2.860   0.581   8.245  0.3299  0.2769 -0.0240
 3579SOL    HW222197   2.995   0.652   8.244  0.5398 -0.0055  0.0149
 3580SOL     OW22198   3.431   1.146   3.782 -0.1175 -0.1366 -0.2009
 3580SOL    HW122199   3.499   1.151   3.850  0.4894  1.8276 -0.9604
 3580SOL    HW222200   3.442   1.056   3.753 -0.8047  0.4094 -2.1238
 3581SOL     OW22201   0.488   2.155   3.155  0.1192 -0.6164 -0.0561
 3581SOL    HW122202   0.465   2.234   3.205  0.3551  1.0233 -2.5077
 3581SOL    HW222203   0.463   2.178   3.065  0.1254  0.0388  0.1082
 3582SOL     OW22204   1.350   4.271   3.051 -0.1106 -0.3570  0.1897
 3582SOL    HW122205   1.309   4.355   3.029 -0.6133 -0.6830 -0.0992
 3582SOL    HW222206   1.410   4.272   2.976  1.7066 -1.7079  1.6304
 3583SOL     OW22207   3.420   2.243   8.080  0.3274  0.2853 -0.0476
 3583SOL    HW122208   3.372   2.205   8.154  0.2112 -0.1799 -0.3591
 3583SOL    HW222209   3.465   2.316   8.122  0.2422  0.6409 -0.5684
 3584SOL     OW22210   3.602   3.790   3.676 -0.0082 -0.0119  0.0654
 3584SOL    HW122211   3.563   3.846   3.609  0.1948 -1.0084 -0.8885
 3584SOL    HW222212   3.618   3.710   3.626  0.5364  0.7853 -1.0342
 3585SOL     OW22213   2.645   1.773  15.765 -0.5446 -0.8031 -0.1930
 3585SOL    HW122214   2.569   1.826  15.740  0.4534  0.3818 -0.6871
 3585SOL    HW222215   2.706   1.836  15.727  1.2529 -1.1281  2.1850
 3586SOL     OW22216   2.291   2.931   0.605 -0.4094  0.2849  0.6193
 3586SOL    HW122217   2.263   2.859   0.549 -1.8270  0.3640  1.2426
 3586SOL    HW222218   2.367   2.889   0.646 -0.5209  1.1979  1.7588
 3587SOL     OW22219   2.175   4.168  11.137  0.6129 -0.6255  0.3589
 3587SOL    HW122220   2.197   4.078  11.161  2.2259 -1.2244 -3.3025
 3587SOL    HW222221   2.214   4.175  11.050  3.8536 -1.5507  1.7343
 3588SOL     OW22222   2.460   3.854   3.347  0.7452 -0.3025 -0.2276
 3588SOL    HW122223   2.532   3.877   3.288  2.0959 -1.2089  1.0811
 3588SOL    HW222224   2.393   3.919   3.329  0.2180 -1.1028 -1.1720
 3589SOL     OW22225   1.366   0.396   2.821 -0.1933 -0.7306 -0.6143
 3589SOL    HW122226   1.411   0.475   2.849  1.6345 -0.8505 -3.2464
 3589SOL    HW222227   1.434   0.352   2.770  0.0138 -0.8535 -0.2392
 3590SOL     OW22228   4.718   2.280   8.800  0.1945 -0.1283  0.0487
 3590SOL    HW122229   0.074   2.285   8.857  0.4147  1.5357 -0.4229
 3590SOL    HW222230   4.670   2.358   8.827 -1.8396 -1.4106  0.1323
 3591SOL     OW22231   1.145   0.304  14.337  0.0958  0.6485  0.4258
 3591SOL    HW122232   1.187   0.318  14.252  1.7833 -0.4574  1.0727
 3591SOL    HW222233   1.073   0.363  14.318 -0.3527  0.2952  1.0228
 3592SOL     OW22234   1.866   0.192  12.951  0.1829 -0.5053  0.3806
 3592SOL    HW122235   1.816   0.272  12.968  1.1215  0.4223 -1.1119
 3592SOL    HW222236   1.920   0.171  13.027  2.6132  2.4105 -0.5435
 3593SOL     OW22237   3.447   2.156   8.430 -0.1998 -0.3867  0.1289
 3593SOL    HW122238   3.358   2.156   8.394 -0.6875  2.1998  1.3141
 3593SOL    HW222239   3.425   2.175   8.522  0.3629  1.1253 -0.0636
 3594SOL     OW22240   2.555   4.693   5.434  0.6320 -0.1551  0.0387
 3594SOL    HW122241   2.516   0.049   5.474 -0.6514 -1.2271  0.8507
 3594SOL    HW222242   2.604   0.016   5.365  1.3010  0.0498  0.6501
 3595SOL     OW22243   4.705   0.782   5.962 -0.0766  0.4893 -0.0739
 3595SOL    HW122244   4.688   0.810   6.052  2.6951  3.3624 -0.4758
 3595SOL    HW222245   4.635   0.810   5.903  0.4869  0.3420 -0.8092
 3596SOL     OW22246   2.048   1.889   2.220  0.9718  0.1784 -0.4070
 3596SOL    HW122247   2.094   1.917   2.299 -0.5240  1.3675  0.0628
 3596SOL    HW222248   2.125   1.857   2.174  0.4750 -0.3138 -0.9044
 3597SOL     OW22249   2.887   4.373  16.711 -0.1854 -0.4126  0.4148
 3597SOL    HW122250   2.822   4.397  16.777 -0.0172  2.0009 -0.2900
 3597SOL    HW222251   2.826   4.356  16.639 -1.3243 -0.7052  1.4508
 3598SOL     OW22252   1.134   1.477  12.733  0.5098 -0.4068 -0.1999
 3598SOL    HW122253   1.081   1.550  12.701 -1.0763 -1.1790  0.6825
 3598SOL    HW222254   1.064   1.415  12.754 -0.3993 -0.1884 -2.6585
 3599SOL     OW22255   1.270   3.982   7.421 -0.1933  0.4625  0.1359
 3599SOL    HW122256   1.274   3.894   7.384 -0.2555  0.5122  0.0129
 3599SOL    HW222257   1.215   4.024   7.355  2.1885  1.2266 -1.3899
 3600SOL     OW22258   0.863   0.356   9.872  0.1643  0.2866  0.0417
 3600SOL    HW122259   0.933   0.405   9.828  0.9143  0.4121  1.3609
 3600SOL    HW222260   0.880   0.369   9.966  1.6963 -0.8090 -0.0751
 3601SOL     OW22261   3.584   4.588   2.905  0.1470  0.3205  0.2051
 3601SOL    HW122262   3.558   4.496   2.898  0.7073  0.1326  0.5527
 3601SOL    HW222263   3.571   4.624   2.817  2.4607 -0.4482 -0.4736
 3602SOL     OW22264   0.282   4.166   7.534 -0.2856  0.4562  0.1901
 3602SOL    HW122265   0.369   4.204   7.544 -0.9005  1.3426  2.1880
 3602SOL    HW222266   0.251   4.190   7.446  0.3917 -0.8573 -0.4061
 3603SOL     OW22267   1.392   2.263   4.772 -0.3134 -0.0714 -0.5790
 3603SOL    HW122268   1.400   2.206   4.848  0.0909 -0.6158 -1.0332
 3603SOL    HW222269   1.348   2.338   4.813  2.5459  2.9504 -3.0210
 3604SOL     OW22270   3.882   3.549   6.302  0.3468 -0.3361 -0.4930
 3604SOL    HW122271   3.908   3.466   6.341 -1.9070 -0.6081  0.4041
 3604SOL    HW222272   3.829   3.592   6.369 -0.3640  0.2243 -1.4069
 3605SOL     OW22273   2.722   0.932   6.097  0.4923 -0.2043 -0.0624
 3605SOL    HW122274   2.634   0.963   6.116  1.2033  1.8050 -0.0938
 3605SOL    HW222275   2.761   1.016   6.074 -1.5556  1.2128  1.8029
 3606SOL     OW22276   2.261   4.405   5.541  0.2984  0.3372  0.1459
 3606SOL    HW122277   2.317   4.329   5.557  0.9794  0.5252 -1.3956
 3606SOL    HW222278   2.176   4.370   5.517 -1.2927  2.8739  2.0821
 3607SOL     OW22279   0.095   1.312  16.606  0.1479  0.0250 -0.0920
 3607SOL    HW122280   0.085   1.388  16.549 -0.1530 -1.5618 -2.1598
 3607SOL    HW222281   0.025   1.332  16.669 -0.2830 -0.7129 -0.3324
 3608SOL     OW22282   3.114   2.301   1.752 -0.3524 -0.1263  0.4246
 3608SOL    HW122283   3.080   2.356   1.822 -0.3569  0.1723  0.1877
 3608SOL    HW222284   3.130   2.223   1.806  0.7540 -0.1767  0.0394
 3609SOL     OW22285   3.762   1.171  16.224  0.7773  0.1116 -0.1464
 3609SOL    HW122286   3.710   1.168  16.144 -0.2427  0.2082  0.5197
 3609SOL    HW222287   3.849   1.195  16.192  0.2130 -0.4521 -2.1111
 3610SOL     OW22288   3.206   2.979   0.511 -0.4796  0.0307  0.5460
 3610SOL    HW122289   3.173   2.961   0.599 -0.0756 -3.2149  0.0683
 3610SOL    HW222290   3.285   2.927   0.521 -0.6670 -0.2234  0.7148
 3611SOL     OW22291   1.528   4.168   5.776 -0.3893 -0.3921  0.3402
 3611SOL    HW122292   1.564   4.224   5.707  1.8963 -0.3502  1.6027
 3611SOL    HW222293   1.600   4.182   5.837 -0.6907  2.3241  0.0475
 3612SOL     OW22294   1.441   3.885   0.713 -0.4618 -0.1964 -0.2986
 3612SOL    HW122295   1.467   3.866   0.803 -0.2018 -1.2675 -0.6026
 3612SOL    HW222296   1.517   3.939   0.690 -0.8230  0.7688  0.7779
 3613SOL     OW22297   3.292   3.499   7.299  0.4693  0.5900  0.0973
 3613SOL    HW122298   3.226   3.430   7.291  1.3167 -0.3300  1.2295
 3613SOL    HW222299   3.298   3.534   7.210 -2.4491 -0.6126 -0.5885
 3614SOL     OW22300   1.936   0.452   8.666  0.2989  0.3091  0.0888
 3614SOL    HW122301   1.870   0.404   8.616 -0.9555  3.0249 -0.8970
 3614SOL    HW222302   1.882   0.501   8.728  0.3378 -0.3539  0.6419
 3615SOL     OW22303   3.728   3.332   5.079  0.1484 -0.1241  0.0863
 3615SOL    HW122304   3.794   3.398   5.102 -1.4959  1.6548 -0.2448
 3615SOL    HW222305   3.659   3.387   5.042 -1.0264 -1.6799 -0.0369
 3616SOL     OW22306   3.267   2.170  11.670  0.4971 -0.5162  0.1671
 3616SOL    HW122307   3.293   2.262  11.668  2.3569 -1.0928 -1.3029
 3616SOL    HW222308   3.342   2.130  11.627  0.4348 -3.1735  2.5477
 3617SOL     OW22309   1.051   0.501  17.447 -0.0664  0.5489 -0.2965
 3617SOL    HW122310   1.039   0.434  17.379  0.5764 -1.3256  1.4248
 3617SOL    HW222311   1.082   0.568  17.386  2.8552  0.0171  0.5679
 3618SOL     OW22312   0.484   3.624   1.087 -0.5391 -0.3885  0.0851
 3618SOL    HW122313   0.552   3.619   1.019  1.2996 -1.3700  1.9572
 3618SOL    HW222314   0.427   3.551   1.063 -0.0086 -1.0039  0.6915
 3619SOL     OW22315   3.150   1.281   4.762  0.3429  0.7525  0.4331
 3619SOL    HW122316   3.074   1.236   4.727  0.7525 -1.4825  2.3920
 3619SOL    HW222317   3.156   1.239   4.848  1.2120 -0.8589 -0.3949
 3620SOL     OW22318   2.637   1.830   4.515  0.0787  0.1450  0.1977
 3620SOL    HW122319   2.604   1.798   4.431  0.5446 -1.9850  0.8273
 3620SOL    HW222320   2.563   1.888   4.531 -2.3816 -2.4125 -2.0043
 3621SOL     OW22321   2.598   1.064  13.244  0.0757  0.7669 -0.4707
 3621SOL    HW122322   2.656   1.049  13.169  0.2115  0.6498 -0.3423
 3621SOL    HW222323   2.529   1.001  13.226 -1.0932  1.5588  1.3213
 3622SOL     OW22324   0.240   4.143   3.540  0.5199  0.0191  0.0696
 3622SOL    HW122325   0.214   4.235   3.548 -0.3462 -0.3693  1.7606
 3622SOL    HW222326   0.335   4.153   3.539  0.6166 -0.9612  0.2642
 3623SOL     OW22327   0.480   2.857   5.774 -0.1761  0.9466 -0.8827
 3623SOL    HW122328   0.403   2.913   5.780 -0.4915  0.5061 -0.8285
 3623SOL    HW222329   0.450   2.783   5.721 -0.8768  1.3511 -1.0436
 3624SOL     OW22330   0.473   3.080   6.288 -0.4478  0.1860  0.1314
 3624SOL    HW122331   0.478   3.130   6.207  0.5060 -0.9672 -0.5289
 3624SOL    HW222332   0.380   3.080   6.308 -1.0141  0.7061 -2.5099
 3625SOL     OW22333   3.680   3.781   2.283  0.0621  0.2026  0.2005
 3625SOL    HW122334   3.666   3.874   2.268 -0.1441  0.1510  0.0670
 3625SOL    HW222335   3.739   3.777   2.358  1.4072  1.0980 -0.8007
 3626SOL     OW22336   2.802   0.670   8.480  0.1775  0.1072 -0.2628
 3626SOL    HW122337   2.813   0.591   8.428  0.0957  0.4435 -0.7865
 3626SOL    HW222338   2.896   0.683   8.493 -0.2163  2.7347  0.0878
 3627SOL     OW22339   4.615   2.034   9.944 -0.3143 -0.2331  0.0034
 3627SOL    HW122340   4.535   2.000   9.983 -0.5037 -1.6062 -1.5660
 3627SOL    HW222341   4.595   2.051   9.852  2.6906  2.2015 -0.2106
 3628SOL     OW22342   3.757   2.062   9.292  0.1765  0.0386 -0.5956
 3628SOL    HW122343   3.832   2.110   9.326  0.1534 -1.3097  1.3578
 3628SOL    HW222344   3.691   2.112   9.341 -0.8449  0.2929 -2.2463
 3629SOL     OW22345   3.362   0.817  12.144  0.1386 -0.3464  0.5415
 3629SOL    HW122346   3.327   0.728  12.152  2.4939 -1.1512  1.6939
 3629SOL    HW222347   3.448   0.815  12.185  0.1804  0.5119  0.4959
 3630SOL     OW22348   1.893   3.728   3.747 -0.0822  0.4899  0.4681
 3630SOL    HW122349   1.864   3.809   3.705 -0.4064  0.5174  0.7474
 3630SOL    HW222350   1.979   3.698   3.717 -0.5476  1.7221 -2.1223
 3631SOL     OW22351   4.063   0.361   3.894 -0.0750 -0.3062  1.4089
 3631SOL    HW122352   4.014   0.408   3.961  0.3897  1.7716  0.2950
 3631SOL    HW222353   4.089   0.431   3.834  0.9509 -1.7664  0.1251
 3632SOL     OW22354   0.133   1.055  16.595  0.0512 -0.4902  0.9757
 3632SOL    HW122355   0.130   1.052  16.499  1.5468 -0.1929  0.9278
 3632SOL    HW222356   0.131   1.150  16.598  1.5298 -0.4183 -0.0164
 3633SOL     OW22357   2.227   1.159  10.159 -0.1474  0.5934 -0.4374
 3633SOL    HW122358   2.289   1.087  10.146  0.3051  0.4777  2.3223
 3633SOL    HW222359   2.282   1.231  10.129  0.3630  0.0154 -0.8939
 3634SOL     OW22360   3.998   4.375   3.604  0.1895  0.4667 -0.7390
 3634SOL    HW122361   4.014   4.468   3.593 -1.0007  0.9726  1.8105
 3634SOL    HW222362   3.923   4.370   3.545 -0.2788 -0.0738 -0.0918
 3635SOL     OW22363   0.688   0.939   5.664 -0.0578 -0.1075 -0.5274
 3635SOL    HW122364   0.633   0.913   5.738  0.0814  1.9671  0.2989
 3635SOL    HW222365   0.622   0.959   5.598  0.6613  0.8399 -0.9681
 3636SOL     OW22366   2.112   3.621   8.923 -0.2139 -0.1142  0.1440
 3636SOL    HW122367   2.082   3.631   9.013 -1.9501  0.6653 -0.5021
 3636SOL    HW222368   2.200   3.590   8.943  0.0680 -0.0133 -0.9399
 3637SOL     OW22369   0.770   4.032   6.308  0.3127 -0.3690  0.0388
 3637SOL    HW122370   0.807   3.946   6.328  1.5791  0.3126  0.5753
 3637SOL    HW222371   0.704   4.038   6.377 -1.0486  1.8765 -1.4656
 3638SOL     OW22372   0.751   3.199  15.396  0.7587 -0.2697 -0.2917
 3638SOL    HW122373   0.808   3.262  15.441 -1.9371  0.6440  1.7909
 3638SOL    HW222374   0.806   3.200  15.317  1.2525  0.3924  0.0580
 3639SOL     OW22375   1.290   2.394   8.869 -0.2059 -0.3452  0.2050
 3639SOL    HW122376   1.206   2.351   8.855 -0.0467 -1.9862  4.2502
 3639SOL    HW222377   1.293   2.436   8.955 -1.2914 -2.7856  1.4327
 3640SOL     OW22378   3.814   2.655   8.765 -0.8290 -0.2037  0.3770
 3640SOL    HW122379   3.845   2.566   8.749 -2.0886 -0.7701  0.9824
 3640SOL    HW222380   3.720   2.649   8.746 -0.5645 -2.7870 -0.0289
 3641SOL     OW22381   4.558   4.146  12.091 -0.3602 -0.6198  0.6680
 3641SOL    HW122382   4.515   4.214  12.143  1.2248  0.1654  0.9577
 3641SOL    HW222383   4.483   4.116  12.040  0.4366  0.6170 -1.2270
 3642SOL     OW22384   4.163   1.229   0.423 -0.0174  0.1488  0.0347
 3642SOL    HW122385   4.189   1.276   0.502  1.6066  0.0802 -0.4604
 3642SOL    HW222386   4.200   1.142   0.440 -1.0277 -0.0860  1.0597
 3643SOL     OW22387   3.384   0.672   4.148  0.1837  0.0140 -0.1988
 3643SOL    HW122388   3.393   0.765   4.127  0.6897  0.4832  2.0477
 3643SOL    HW222389   3.296   0.658   4.113  0.4474  1.9044 -1.6151
 3644SOL     OW22390   0.241   3.485   1.020 -0.1609  0.2549  0.1976
 3644SOL    HW122391   0.244   3.545   0.946  0.9931  1.0808  0.8993
 3644SOL    HW222392   0.156   3.444   1.005  0.7050 -1.0186 -1.2212
 3645SOL     OW22393   2.898   2.246  10.708  0.2496  0.4944  0.3330
 3645SOL    HW122394   2.902   2.248  10.612  0.2887 -1.1070  0.2969
 3645SOL    HW222395   2.814   2.289  10.719  1.2868  1.9876  2.3932
 3646SOL     OW22396   4.196   1.703   5.338 -0.6825  0.2454  0.8232
 3646SOL    HW122397   4.216   1.730   5.428 -0.5126 -1.1376  1.2121
 3646SOL    HW222398   4.123   1.764   5.326  0.4877  0.9434 -2.4633
 3647SOL     OW22399   3.158   0.521  14.999 -0.0933  0.1758 -0.9471
 3647SOL    HW122400   3.113   0.520  15.083  1.5353  3.2062 -0.0418
 3647SOL    HW222401   3.138   0.608  14.966  1.6489  0.0245 -2.4525
 3648SOL     OW22402   1.102   0.042   7.181 -0.0399  0.6926  0.2726
 3648SOL    HW122403   1.136   0.012   7.265  0.7534  1.2874  0.1611
 3648SOL    HW222404   1.108   0.137   7.187  0.6236  0.7038 -0.5899
 3649SOL     OW22405   2.291   4.166   5.907 -0.1471  0.0696 -0.0225
 3649SOL    HW122406   2.359   4.149   5.972  0.6747 -1.2825 -1.2311
 3649SOL    HW222407   2.313   4.254   5.877  1.7298 -0.6036 -0.5992
 3650SOL     OW22408   4.592   3.645  14.910 -0.0342 -0.3058 -0.7852
 3650SOL    HW122409   4.670   3.695  14.886  0.4914 -2.0373 -2.6702
 3650SOL    HW222410   4.522   3.687  14.861 -0.2407 -1.0066 -1.0847
 3651SOL     OW22411   3.756   2.657  17.626  0.2044  0.4765 -0.6187
 3651SOL    HW122412   3.737   2.662   0.033 -1.3547 -1.7282 -0.8093
 3651SOL    HW222413   3.731   2.743  17.593 -0.1476  1.0307  1.1160
 3652SOL     OW22414   2.319   4.606  11.883 -0.7582 -0.5991  0.0902
 3652SOL    HW122415   2.271   4.648  11.811  1.6285 -0.4667 -1.4225
 3652SOL    HW222416   2.328   4.515  11.856  2.3434  0.2223 -1.6377
 3653SOL     OW22417   1.954   2.973   6.699  0.4907  0.4607 -0.3271
 3653SOL    HW122418   1.884   2.921   6.738 -0.1961  1.5515 -0.1175
 3653SOL    HW222419   2.028   2.970   6.760 -0.0866  1.5344  0.4236
 3654SOL     OW22420   1.620   3.749   2.972 -0.1011  0.0843 -0.1500
 3654SOL    HW122421   1.685   3.684   3.000  0.1646  1.1749  1.7207
 3654SOL    HW222422   1.653   3.777   2.886  0.6736 -1.6553 -0.4209
 3655SOL     OW22423   2.506   4.264  17.586 -0.2824 -0.2573 -0.0387
 3655SOL    HW122424   2.598   4.290  17.596 -0.3401  0.1835 -0.6814
 3655SOL    HW222425   2.482   4.295  17.499  0.8440  0.6043 -0.0391
 3656SOL     OW22426   0.845   0.874  15.410  0.1763  0.3617  0.1574
 3656SOL    HW122427   0.831   0.935  15.483 -2.5145 -0.4325  0.2820
 3656SOL    HW222428   0.791   0.915  15.343  0.6009  1.0018  0.2059
 3657SOL     OW22429   3.926   4.671  17.156  0.2458  0.0702  0.2301
 3657SOL    HW122430   3.925   0.041  17.187 -3.0826  0.1263 -0.0701
 3657SOL    HW222431   3.904   4.682  17.064  3.0290 -0.2212 -0.4743
 3658SOL     OW22432   2.991   3.553   7.062 -0.1178 -0.4634  0.4481
 3658SOL    HW122433   3.086   3.558   7.065 -0.1652  0.2592  0.7301
 3658SOL    HW222434   2.984   3.485   7.130 -0.9041 -1.2814 -0.4543
 3659SOL     OW22435   0.361   3.003   3.549  0.0775 -0.3948 -0.2657
 3659SOL    HW122436   0.427   3.024   3.615  0.3634  0.3845 -0.7999
 3659SOL    HW222437   0.337   2.915   3.580  0.1180 -0.1588  0.4251
 3660SOL     OW22438   3.129   3.411  16.841 -0.0821  0.1001  0.0375
 3660SOL    HW122439   3.042   3.427  16.878  0.4799 -0.3196  1.5039
 3660SOL    HW222440   3.180   3.392  16.919 -0.2859  0.0828  0.1666
 3661SOL     OW22441   4.423   1.589   8.672  0.0191  0.9032  0.1023
 3661SOL    HW122442   4.395   1.664   8.724 -2.5821 -0.3631  0.5422
 3661SOL    HW222443   4.437   1.523   8.739 -2.2564  0.5356  0.2301
 3662SOL     OW22444   2.905   1.339   7.538  0.2712  0.1722  0.6832
 3662SOL    HW122445   2.862   1.329   7.623  1.7455 -1.7453  1.2035
 3662SOL    HW222446   2.944   1.425   7.555  2.3849 -0.4650 -0.8801
 3663SOL     OW22447   4.254   2.391   6.132  0.2980  0.2093  0.3566
 3663SOL    HW122448   4.223   2.479   6.155  1.0292  1.3723 -2.9433
 3663SOL    HW222449   4.211   2.349   6.206  1.2513 -0.3500  0.5949
 3664SOL     OW22450   1.811   2.278  10.146 -0.5613 -0.0691  0.1248
 3664SOL    HW122451   1.875   2.208  10.161 -0.7191 -0.0549  0.8356
 3664SOL    HW222452   1.847   2.359  10.180 -1.7233 -0.0346  1.2682
 3665SOL     OW22453   3.943   3.842   7.599  0.0128 -0.1941  0.3864
 3665SOL    HW122454   3.952   3.892   7.517 -0.7648  1.0571  1.0691
 3665SOL    HW222455   3.929   3.752   7.569  2.2210 -0.8774  1.4387
 3666SOL     OW22456   2.217   3.890  11.176 -0.1980  0.4391  0.4257
 3666SOL    HW122457   2.268   3.851  11.247  1.2275 -0.3205 -1.0203
 3666SOL    HW222458   2.189   3.807  11.136 -0.5875 -1.1848  4.0709
 3667SOL     OW22459   4.287   1.003   9.027 -0.0380  0.1559 -0.9236
 3667SOL    HW122460   4.257   1.023   9.116  0.5050  1.6212 -1.0628
 3667SOL    HW222461   4.295   0.908   9.021 -1.4302  0.1352 -2.3804
 3668SOL     OW22462   2.791   4.140   4.981  0.2813  0.5443  0.0436
 3668SOL    HW122463   2.816   4.048   4.970 -1.4235 -0.0152  0.8217
 3668SOL    HW222464   2.706   4.125   5.023 -0.2780  1.1527 -0.8889
 3669SOL     OW22465   2.478   2.252   7.275 -0.4285  0.1450 -0.5244
 3669SOL    HW122466   2.537   2.180   7.297  1.9346  2.3510  0.3643
 3669SOL    HW222467   2.492   2.308   7.352  0.1072 -2.2137  1.1015
 3670SOL     OW22468   0.788   0.335   3.216 -0.3322 -0.4552  0.0320
 3670SOL    HW122469   0.790   0.430   3.224 -0.3391 -0.5186  0.7655
 3670SOL    HW222470   0.871   0.310   3.256 -0.6208 -0.2207  0.7699
 3671SOL     OW22471   3.900   1.043   4.200 -0.1639 -0.0276  0.5098
 3671SOL    HW122472   3.832   1.024   4.134  0.1903 -1.1834  0.4846
 3671SOL    HW222473   3.987   1.040   4.160 -1.5641 -2.2547 -2.4234
 3672SOL     OW22474   0.999   1.904   4.719 -0.2720 -0.0955  0.1173
 3672SOL    HW122475   0.905   1.914   4.734 -0.5678 -1.7055 -0.6457
 3672SOL    HW222476   1.023   1.995   4.702 -0.8971 -0.2929 -1.7993
 3673SOL     OW22477   1.375   1.696  11.695  0.2843  0.0711 -0.1736
 3673SOL    HW122478   1.343   1.606  11.687  0.5598 -0.0812  0.3858
 3673SOL    HW222479   1.367   1.704  11.790  0.3521 -0.2837 -0.1387
 3674SOL     OW22480   3.577   3.065   7.133 -0.6777 -0.0932 -0.3365
 3674SOL    HW122481   3.656   3.080   7.185 -1.4776 -0.4705  0.9862
 3674SOL    HW222482   3.555   3.151   7.099 -3.0130  0.0542  1.5949
 3675SOL     OW22483   2.865   4.187   9.397 -0.3197 -0.1567  0.4276
 3675SOL    HW122484   2.842   4.186   9.490  0.6187 -1.5194  0.6489
 3675SOL    HW222485   2.841   4.103   9.357 -0.9285  0.1389  0.1754
 3676SOL     OW22486   0.713   1.352   7.934 -0.1415  0.2616 -0.3654
 3676SOL    HW122487   0.716   1.271   7.985 -2.1764  0.6341  0.3231
 3676SOL    HW222488   0.693   1.426   7.991  3.2036  0.6336  0.3487
 3677SOL     OW22489   4.136   3.570   2.898 -0.1377  0.2205 -0.4997
 3677SOL    HW122490   4.226   3.538   2.885  0.2891  0.7431  1.1433
 3677SOL    HW222491   4.117   3.641   2.836  0.9989  0.8812 -0.1046
 3678SOL     OW22492   3.070   4.310   5.439 -0.4297 -0.3471 -0.0023
 3678SOL    HW122493   3.096   4.395   5.404  0.5628 -1.3516 -1.7158
 3678SOL    HW222494   3.032   4.279   5.357 -3.5982  0.2285  1.2458
 3679SOL     OW22495   3.058   2.632   6.636  0.1278 -0.3131  0.3462
 3679SOL    HW122496   3.090   2.710   6.682  0.8443 -0.0364 -0.6257
 3679SOL    HW222497   2.965   2.653   6.626  0.5133  0.9677 -0.6154
 3680SOL     OW22498   2.510   0.196   6.948  0.0058  0.4506 -0.4043
 3680SOL    HW122499   2.562   0.271   6.977 -1.2267  0.8835  0.6928
 3680SOL    HW222500   2.558   0.127   6.993 -0.3197  0.8627  0.5732
 3681SOL     OW22501   2.810   0.641  13.407 -0.1508 -0.1951 -0.3320
 3681SOL    HW122502   2.845   0.702  13.341 -0.3314  0.4392  0.1580
 3681SOL    HW222503   2.803   0.565  13.349 -0.0623 -1.3613  1.1842
 3682SOL     OW22504   2.428   4.622  10.668 -0.4124 -0.2704 -1.0821
 3682SOL    HW122505   2.405   4.565  10.594 -1.2230 -0.3351 -0.7796
 3682SOL    HW222506   2.522   4.608  10.660 -0.2139  0.5120 -0.0442
 3683SOL     OW22507   2.922   1.639  15.318 -0.1195 -0.1105 -0.2592
 3683SOL    HW122508   2.959   1.724  15.340  0.0335 -0.3566  0.4379
 3683SOL    HW222509   2.849   1.670  15.264 -1.1425  0.5860  1.5048
 3684SOL     OW22510   4.215   0.474   7.141 -0.0402 -0.0733 -0.2418
 3684SOL    HW122511   4.151   0.421   7.189 -1.0860  1.3979 -0.0081
 3684SOL    HW222512   4.193   0.447   7.052  2.7108  0.3921 -1.0506
 3685SOL     OW22513   3.357   3.234   7.770 -0.3270 -0.3364 -0.1803
 3685SOL    HW122514   3.438   3.184   7.785 -0.0056 -0.5136 -2.4998
 3685SOL    HW222515   3.296   3.161   7.760 -0.2249 -0.7020  1.7572
 3686SOL     OW22516   4.433   3.436   1.089 -0.5282 -0.6887  0.1734
 3686SOL    HW122517   4.436   3.520   1.043  0.4506  0.0670  1.6093
 3686SOL    HW222518   4.388   3.383   1.023  2.2285 -0.1677 -2.1433
 3687SOL     OW22519   0.026   1.375  12.959 -0.3073 -0.5356 -0.7803
 3687SOL    HW122520   0.114   1.349  12.931  0.0487  1.4424 -1.4916
 3687SOL    HW222521   0.034   1.470  12.949  0.8284 -0.4961  0.5703
 3688SOL     OW22522   2.102   2.619   7.611 -0.1272 -0.6201 -0.9593
 3688SOL    HW122523   2.053   2.625   7.529 -0.8185 -0.0513 -0.4996
 3688SOL    HW222524   2.107   2.524   7.621 -0.9620 -0.7130 -1.4054
 3689SOL     OW22525   0.822   1.420   0.369 -0.1335 -0.1786  0.5997
 3689SOL    HW122526   0.804   1.509   0.399 -1.0444 -0.1043 -0.1744
 3689SOL    HW222527   0.893   1.431   0.307 -0.6858  2.2690  0.4332
 3690SOL     OW22528   0.396   3.820  10.247  0.2692  0.3949 -0.2697
 3690SOL    HW122529   0.351   3.904  10.236 -2.2604 -0.7516  1.2157
 3690SOL    HW222530   0.419   3.796  10.158 -2.5425  0.5993 -1.0635
 3691SOL     OW22531   0.955   2.681  13.410  0.2931 -0.6612  0.8352
 3691SOL    HW122532   0.899   2.653  13.483  1.6764  2.6093  3.1514
 3691SOL    HW222533   0.905   2.759  13.386 -1.0522 -1.3624  1.3379
 3692SOL     OW22534   3.409   1.216   1.813  0.6820  0.6910  0.7958
 3692SOL    HW122535   3.393   1.136   1.765  0.1762  2.8552 -2.6549
 3692SOL    HW222536   3.364   1.207   1.897  0.4121 -0.5127  0.5086
 3693SOL     OW22537   2.046   2.080   4.114  0.5686 -0.3228 -0.2728
 3693SOL    HW122538   2.135   2.044   4.113 -0.0816 -1.8491 -3.6211
 3693SOL    HW222539   1.991   2.008   4.085 -0.2019  0.3861 -0.5403
 3694SOL     OW22540   1.521   4.166   7.066 -0.4024 -0.0130 -0.5952
 3694SOL    HW122541   1.493   4.153   7.157 -1.6333  1.0811 -0.8129
 3694SOL    HW222542   1.454   4.227   7.034  0.3013  1.1818  0.2634
 3695SOL     OW22543   0.665   0.403   6.277  0.4480  0.1588  0.0342
 3695SOL    HW122544   0.685   0.327   6.331  1.4790 -0.3149 -0.9853
 3695SOL    HW222545   0.738   0.406   6.214 -0.1460  2.8755 -0.5310
 3696SOL     OW22546   1.506   3.713   2.237 -0.3354 -0.4980  0.6276
 3696SOL    HW122547   1.410   3.709   2.235 -0.3397 -0.5883  0.9618
 3696SOL    HW222548   1.525   3.646   2.303 -0.3499 -2.1582 -1.0669
 3697SOL     OW22549   1.840   4.096   1.862  0.0223 -0.1044 -0.2063
 3697SOL    HW122550   1.778   4.030   1.830  1.0498 -0.8158 -0.7650
 3697SOL    HW222551   1.805   4.147   1.934 -1.1247 -1.1991  0.0047
 3698SOL     OW22552   0.672   2.819   7.816  0.1002  0.9627  0.4470
 3698SOL    HW122553   0.607   2.750   7.817 -0.9747  1.9043 -3.8400
 3698SOL    HW222554   0.753   2.767   7.816 -0.2052  0.5004 -2.3546
 3699SOL     OW22555   1.118   1.936   5.599 -0.0802 -0.0527 -0.3593
 3699SOL    HW122556   1.203   1.937   5.641  0.7450  1.1799 -2.0486
 3699SOL    HW222557   1.103   1.842   5.603  0.8396 -0.1372  0.9411
 3700SOL     OW22558   2.863   1.331  15.042 -0.3110  0.0241 -0.2642
 3700SOL    HW122559   2.939   1.323  15.100  1.1434  3.0317 -1.7485
 3700SOL    HW222560   2.791   1.347  15.102  0.8968 -2.8028  1.9095
 3701SOL     OW22561   4.302   0.948   0.375 -0.0034  0.1905 -0.0635
 3701SOL    HW122562   4.291   0.861   0.415  2.5192 -0.7312 -1.3491
 3701SOL    HW222563   4.383   0.930   0.328  0.5282 -0.4348  1.0827
 3702SOL     OW22564   2.312   0.978   4.322  0.3048 -0.2300  0.1073
 3702SOL    HW122565   2.260   0.900   4.303  1.1288 -0.8371  0.3404
 3702SOL    HW222566   2.253   1.031   4.376  0.5183 -0.8493  0.9516
 3703SOL     OW22567   4.099   0.319   7.896 -0.3420  0.3061  0.0515
 3703SOL    HW122568   4.069   0.405   7.867  0.0383 -0.0209 -1.3163
 3703SOL    HW222569   4.056   0.314   7.981  1.3327 -0.4202  0.8723
 3704SOL     OW22570   0.225   2.133   2.641  0.6896  0.5188 -0.3161
 3704SOL    HW122571   0.218   2.038   2.635 -0.2233  0.4226  2.6085
 3704SOL    HW222572   0.198   2.168   2.556 -0.0331  1.2678  0.2257
 3705SOL     OW22573   3.493   1.016   6.492 -0.0418  0.0719 -0.2738
 3705SOL    HW122574   3.572   0.962   6.502  0.3544  1.1730  2.4420
 3705SOL    HW222575   3.545   1.095   6.476  0.6367 -0.1988  0.5799
 3706SOL     OW22576   2.278   0.407   5.453  0.5235 -0.0832  0.1611
 3706SOL    HW122577   2.307   0.324   5.492 -0.3330 -0.7782 -0.7092
 3706SOL    HW222578   2.281   0.371   5.365  0.5152  0.7489 -0.1777
 3707SOL     OW22579   1.581   3.977  15.340 -0.2116  0.3271  0.0332
 3707SOL    HW122580   1.559   4.048  15.280 -1.1695  0.9577  1.1147
 3707SOL    HW222581   1.495   3.951  15.374  0.2643  0.8101  1.6210
 3708SOL     OW22582   1.682   4.437   2.264 -0.4443  0.1698  0.1351
 3708SOL    HW122583   1.669   4.498   2.336 -1.6442 -0.0546  0.1104
 3708SOL    HW222584   1.602   4.384   2.266 -0.5908  0.3938  0.1736
 3709SOL     OW22585   0.805   3.552  10.577  0.1897  0.1749  0.3485
 3709SOL    HW122586   0.860   3.487  10.621  0.5852 -0.3993 -1.0114
 3709SOL    HW222587   0.862   3.625  10.555 -0.2302  0.7098  1.0136
 3710SOL     OW22588   3.246   0.700  11.863  0.2622 -0.2355 -0.3565
 3710SOL    HW122589   3.313   0.660  11.807  0.8323  1.5547 -0.9569
 3710SOL    HW222590   3.220   0.617  11.902 -0.6588 -0.4180 -1.3580
 3711SOL     OW22591   4.330   1.118   2.423 -0.3506  0.4126 -0.0469
 3711SOL    HW122592   4.340   1.186   2.357  0.2245  0.1389 -0.2430
 3711SOL    HW222593   4.402   1.068   2.384  2.3685  1.5804  3.4610
 3712SOL     OW22594   1.520   3.825  15.771  0.0173  0.0546  0.0232
 3712SOL    HW122595   1.536   3.819  15.865  0.8871 -2.0719 -0.2594
 3712SOL    HW222596   1.605   3.802  15.735 -0.7461 -1.1751 -1.0092
 3713SOL     OW22597   4.342   1.430  16.380 -0.0284 -0.6656  0.0156
 3713SOL    HW122598   4.312   1.486  16.452  1.3632 -0.1696  0.2070
 3713SOL    HW222599   4.280   1.358  16.391 -1.4094  0.7575  1.6655
 3714SOL     OW22600   4.012   0.565   8.221 -0.1846  0.0614  0.0403
 3714SOL    HW122601   3.926   0.526   8.234 -0.0455 -0.0353  0.6854
 3714SOL    HW222602   3.989   0.632   8.157 -0.3028 -0.0113  0.0076
 3715SOL     OW22603   2.834   1.064  15.337 -0.6884  0.4795 -0.1602
 3715SOL    HW122604   2.928   1.056  15.321 -0.5936 -3.4762  2.3161
 3715SOL    HW222605   2.801   1.012  15.263  3.7483 -1.1380 -1.0125
 3716SOL     OW22606   0.312   0.052  15.996  0.2440  0.5485 -0.0652
 3716SOL    HW122607   0.373   0.041  16.069 -1.6120  1.3941  1.6089
 3716SOL    HW222608   0.367   0.046  15.918 -2.4815 -0.6884 -1.8928
 3717SOL     OW22609   4.134   1.596   2.528  0.1475 -0.2734 -0.0875
 3717SOL    HW122610   4.066   1.545   2.573 -1.2605 -0.1798 -2.1129
 3717SOL    HW222611   4.087   1.679   2.526  1.5648  0.4852 -1.9215
 3718SOL     OW22612   0.680   3.939   7.637 -0.3128  0.2691  0.2086
 3718SOL    HW122613   0.644   3.979   7.716  1.1171 -0.6753  1.3495
 3718SOL    HW222614   0.767   3.940   7.678  0.0827 -0.2178 -0.6132
 3719SOL     OW22615   1.708   2.112   3.528  0.2260  0.0972 -0.1836
 3719SOL    HW122616   1.658   2.096   3.448  0.6827 -1.0338 -0.2339
 3719SOL    HW222617   1.679   2.051   3.595 -0.1257 -0.2906 -0.6900
 3720SOL     OW22618   3.942   1.173  11.707  0.6857  0.0582 -0.2890
 3720SOL    HW122619   3.920   1.079  11.707 -0.8008  0.4277  2.4006
 3720SOL    HW222620   4.035   1.166  11.689  0.6621  0.9484 -0.7211
 3721SOL     OW22621   4.378   2.213  17.638 -0.3412 -0.4874  0.3544
 3721SOL    HW122622   4.283   2.213  17.648 -0.3100 -1.6606  0.6112
 3721SOL    HW222623   4.410   2.288   0.000 -1.2352  1.3180 -1.8467
 3722SOL     OW22624   0.826   0.566  12.624 -0.0304  0.6965 -0.4356
 3722SOL    HW122625   0.921   0.568  12.635  0.1198  1.9061 -1.7835
 3722SOL    HW222626   0.813   0.473  12.604 -1.8217  0.8320  0.1891
 3723SOL     OW22627   2.129   3.855  13.062  0.1068  0.2476  0.5309
 3723SOL    HW122628   2.223   3.871  13.059  0.3060 -0.8661  0.7993
 3723SOL    HW222629   2.100   3.946  13.065  1.5280  0.6787  1.2820
 3724SOL     OW22630   2.644   4.158   8.362  0.0821 -0.5059  0.4740
 3724SOL    HW122631   2.737   4.147   8.379  0.2545  1.1190  0.5872
 3724SOL    HW222632   2.621   4.097   8.291  0.8299 -0.1459 -0.0766
 3725SOL     OW22633   1.537   3.215   8.199 -0.4862  0.2920  0.0320
 3725SOL    HW122634   1.575   3.300   8.223  0.6047 -0.4023  0.8309
 3725SOL    HW222635   1.542   3.181   8.289  0.3609  0.0498 -0.1039
 3726SOL     OW22636   1.770   1.468   4.931 -0.6544 -0.2348  0.6251
 3726SOL    HW122637   1.804   1.387   4.894  0.6312  0.5441  0.0642
 3726SOL    HW222638   1.824   1.522   4.872  3.1046 -1.4628  2.9061
 3727SOL     OW22639   0.472   0.273   1.329  0.6296  0.0065 -0.1147
 3727SOL    HW122640   0.481   0.219   1.251 -0.0871  0.0908 -0.2630
 3727SOL    HW222641   0.431   0.355   1.302 -1.8336 -0.8504  0.9738
 3728SOL     OW22642   0.554   1.960   8.431 -0.3889 -0.5333 -0.0012
 3728SOL    HW122643   0.550   1.986   8.339  2.2255  0.7291  0.2126
 3728SOL    HW222644   0.646   1.934   8.437 -0.0706  0.6395  0.3083
 3729SOL     OW22645   3.125   3.053   8.579 -0.2003 -0.0106  0.2759
 3729SOL    HW122646   3.173   2.970   8.573  0.1277  0.1693  0.4350
 3729SOL    HW222647   3.079   3.028   8.660 -1.0045  0.3526 -0.0729
 3730SOL     OW22648   0.135   0.276   8.180 -0.1744  0.1967 -0.0210
 3730SOL    HW122649   0.215   0.253   8.226  0.0573  2.3804  0.6553
 3730SOL    HW222650   0.107   0.194   8.140 -0.1436 -1.2266  2.8305
 3731SOL     OW22651   0.274   0.546   4.701 -0.4021 -0.1611  0.3589
 3731SOL    HW122652   0.297   0.460   4.666  2.8007  1.4631 -1.4922
 3731SOL    HW222653   0.332   0.552   4.777 -0.7537 -3.5653  0.9016
 3732SOL     OW22654   1.731   2.808   7.449 -0.1417  0.1692 -0.3860
 3732SOL    HW122655   1.824   2.785   7.448  0.0686  1.1041 -1.5359
 3732SOL    HW222656   1.714   2.902   7.452  1.2111  0.3923  0.1051
 3733SOL     OW22657   0.659   3.950   8.173 -0.6068 -0.1409 -0.7182
 3733SOL    HW122658   0.590   4.016   8.178 -0.5600 -0.0171 -1.5754
 3733SOL    HW222659   0.655   3.911   8.260 -5.6308  2.4404  0.2294
 3734SOL     OW22660   2.941   3.134   0.713  0.0403 -0.1457 -0.0570
 3734SOL    HW122661   2.900   3.090   0.638 -2.6708  2.0575  0.1305
 3734SOL    HW222662   2.977   3.216   0.679  1.8624 -0.6092  0.7524
 3735SOL     OW22663   3.709   3.240   0.049 -0.0587 -0.0999  0.3860
 3735SOL    HW122664   3.710   3.330   0.018 -2.0580 -0.5274 -0.9173
 3735SOL    HW222665   3.666   3.190  17.666  0.2665 -1.8068  1.3945
 3736SOL     OW22666   2.046   3.494  17.126  0.1081  0.5284 -0.4273
 3736SOL    HW122667   2.065   3.401  17.137  1.7976  0.9726  0.5064
 3736SOL    HW222668   1.969   3.515  17.179  0.5311 -0.5269  0.6043
 3737SOL     OW22669   4.301   1.620   7.107  0.0271  0.2048  0.1968
 3737SOL    HW122670   4.269   1.708   7.087  0.9878  0.4468 -0.3047
 3737SOL    HW222671   4.292   1.581   7.020 -2.7927 -2.2275  1.5919
 3738SOL     OW22672   0.112   1.655   2.800  0.2840 -0.0499  0.1050
 3738SOL    HW122673   0.180   1.609   2.751 -2.5734 -1.9113 -2.1642
 3738SOL    HW222674   0.041   1.657   2.736  0.6896 -2.0240 -0.4191
 3739SOL     OW22675   2.783   3.170   4.133  0.5171 -0.0268 -0.0980
 3739SOL    HW122676   2.842   3.240   4.105 -0.5146  0.4520 -1.0517
 3739SOL    HW222677   2.824   3.095   4.090  1.6076  0.5451 -0.0740
 3740SOL     OW22678   1.691   4.184   8.218  0.2634  0.1277  0.5282
 3740SOL    HW122679   1.763   4.207   8.158  1.0101  0.3408  1.5031
 3740SOL    HW222680   1.734   4.144   8.293  0.5374  2.2660  1.5038
 3741SOL     OW22681   3.610   4.308   3.156 -0.0162  0.5073  0.8184
 3741SOL    HW122682   3.515   4.296   3.158  0.4089 -2.7494  0.7851
 3741SOL    HW222683   3.618   4.403   3.161 -1.7682  0.7500 -0.9043
 3742SOL     OW22684   4.191   1.573  10.378 -0.3459 -0.0408  0.6474
 3742SOL    HW122685   4.139   1.535  10.448  2.0373 -1.7698  1.5058
 3742SOL    HW222686   4.265   1.602  10.433  1.6847 -2.2859 -0.8984
 3743SOL     OW22687   0.423   0.978  12.490  0.0072  0.5388 -0.4134
 3743SOL    HW122688   0.353   0.952  12.550  0.5793  0.6173  0.3001
 3743SOL    HW222689   0.496   0.925  12.522 -1.2646 -0.9841 -0.0367
 3744SOL     OW22690   1.228   0.568   0.277 -0.5319 -0.7195  0.1798
 3744SOL    HW122691   1.215   0.634   0.345  1.1185  1.2675 -1.4407
 3744SOL    HW222692   1.236   0.637   0.211 -2.3383 -1.7503 -1.1139
 3745SOL     OW22693   0.151   2.415   9.396  0.1641 -0.4480  0.1323
 3745SOL    HW122694   0.182   2.441   9.483 -1.1012 -0.5164  0.6148
 3745SOL    HW222695   0.099   2.336   9.414 -2.0875  0.3871 -2.8350
 3746SOL     OW22696   1.774   3.261   7.355 -0.2426  0.0489 -0.0277
 3746SOL    HW122697   1.747   3.349   7.381  0.6158  0.8020 -1.6854
 3746SOL    HW222698   1.752   3.213   7.435  0.8535  2.0587  1.4562
 3747SOL     OW22699   4.105   2.644   9.427 -0.2950 -0.3349  0.0591
 3747SOL    HW122700   4.015   2.677   9.432 -0.6898 -1.2888 -0.6832
 3747SOL    HW222701   4.094   2.552   9.401  1.8719 -0.2834 -0.9949
 3748SOL     OW22702   0.790   3.187   8.745  0.6899 -0.2154  0.4099
 3748SOL    HW122703   0.701   3.224   8.744  0.5607 -0.5030  2.1385
 3748SOL    HW222704   0.785   3.098   8.779 -1.5882 -1.1372 -2.3230
 3749SOL     OW22705   3.940   3.643   6.681 -0.1467  0.4278 -0.3557
 3749SOL    HW122706   4.012   3.645   6.617 -1.5007 -0.1023 -1.8862
 3749SOL    HW222707   3.992   3.616   6.757  0.6344 -1.4949 -1.5675
 3750SOL     OW22708   0.505   1.336   0.585  0.3813 -0.1414 -0.7104
 3750SOL    HW122709   0.529   1.244   0.577 -1.1592 -0.4832 -1.4284
 3750SOL    HW222710   0.525   1.354   0.493  4.4443 -0.0437  0.1876
 3751SOL     OW22711   1.930   1.648  10.010  0.3699  0.2224 -0.1284
 3751SOL    HW122712   2.007   1.594   9.992  1.0265  1.0901  0.1034
 3751SOL    HW222713   1.872   1.575  10.034 -0.3558  1.1077  0.7955
 3752SOL     OW22714   2.994   1.635   8.423  0.0825 -0.8735 -0.1473
 3752SOL    HW122715   3.071   1.607   8.374  0.5628 -0.0312  0.1253
 3752SOL    HW222716   3.010   1.603   8.512 -2.1481 -0.7900  0.2846
 3753SOL     OW22717   1.105   2.332   6.121 -0.6709 -0.2459  0.2549
 3753SOL    HW122718   1.134   2.320   6.031 -0.2452 -3.0177  0.7694
 3753SOL    HW222719   1.064   2.247   6.138 -0.7573 -0.5129 -1.3612
 3754SOL     OW22720   0.206   1.237  12.826 -0.3900 -0.3685  0.2038
 3754SOL    HW122721   0.261   1.219  12.749  0.2471  2.1495  0.0819
 3754SOL    HW222722   0.123   1.228  12.780  0.3851 -1.3460 -1.0012
 3755SOL     OW22723   2.564   4.163   4.506 -0.4784 -0.3662  0.5069
 3755SOL    HW122724   2.602   4.075   4.504  0.7644  0.2064 -1.1245
 3755SOL    HW222725   2.595   4.204   4.587  1.7930  3.3422 -2.2427
 3756SOL     OW22726   0.427   1.320   8.268  0.7024  0.5944  0.3930
 3756SOL    HW122727   0.479   1.360   8.338  0.0292 -0.3079  1.4051
 3756SOL    HW222728   0.450   1.228   8.282 -2.0520 -0.0413  0.7185
 3757SOL     OW22729   0.749   3.164   5.414 -0.2141 -0.3786  0.2828
 3757SOL    HW122730   0.728   3.124   5.330  0.0935 -0.5492  0.2883
 3757SOL    HW222731   0.840   3.137   5.425 -0.0063  0.1544 -0.1493
 3758SOL     OW22732   0.499   3.745   6.352  0.2001  0.3488  0.3551
 3758SOL    HW122733   0.535   3.823   6.394  1.1723  1.1162 -1.9097
 3758SOL    HW222734   0.470   3.768   6.264 -0.1424  1.4462  0.7595
 3759SOL     OW22735   4.052   4.537  11.203 -0.8133 -0.0568 -0.1309
 3759SOL    HW122736   4.058   4.532  11.299  3.1957  1.5137 -0.2738
 3759SOL    HW222737   3.965   4.502  11.188 -1.9393  1.4992  2.7143
 3760SOL     OW22738   2.186   3.883   8.331  0.4164 -0.7055  0.1989
 3760SOL    HW122739   2.109   3.832   8.307 -0.6350  0.8125  0.3685
 3760SOL    HW222740   2.184   3.953   8.266 -1.0301 -1.0757 -0.1459
 3761SOL     OW22741   0.585   2.075  16.161 -0.4015 -0.2346 -0.9109
 3761SOL    HW122742   0.627   2.006  16.211 -2.0484 -2.6508 -2.8458
 3761SOL    HW222743   0.655   2.135  16.138 -1.1885  0.4358 -1.6002
 3762SOL     OW22744   0.551   3.448   1.745 -0.0808 -0.2517 -0.1970
 3762SOL    HW122745   0.480   3.399   1.786 -0.6690  0.4277 -0.4051
 3762SOL    HW222746   0.623   3.402   1.788  0.7917 -0.4000 -1.8152
 3763SOL     OW22747   4.716   1.110   4.828 -0.2571 -0.0449 -0.2471
 3763SOL    HW122748   0.084   1.143   4.826  0.1497 -1.0920  0.3358
 3763SOL    HW222749   0.010   1.016   4.817 -0.2665  0.1347 -1.7398
 3764SOL     OW22750   3.701   0.415  15.528  0.1149  0.5569  0.3694
 3764SOL    HW122751   3.746   0.331  15.538  1.3120  1.2049  0.4385
 3764SOL    HW222752   3.698   0.456  15.614  1.0083  1.7800 -0.1771
 3765SOL     OW22753   1.348   0.052  10.653  0.4467 -0.4313 -0.0475
 3765SOL    HW122754   1.429   0.052  10.704  0.7748  2.0615 -0.5506
 3765SOL    HW222755   1.384   0.028  10.568  0.1530 -0.6109 -0.1200
 3766SOL     OW22756   0.326   3.523   8.600  0.1730  0.1135  0.0788
 3766SOL    HW122757   0.292   3.543   8.687 -2.8234 -0.2252 -1.0346
 3766SOL    HW222758   0.252   3.518   8.541 -0.1799 -0.8037  0.5995
 3767SOL     OW22759   4.588   1.711  13.257 -0.0808 -0.4514 -0.1652
 3767SOL    HW122760   4.629   1.624  13.252  1.3842 -0.0621  4.9991
 3767SOL    HW222761   4.633   1.735  13.338 -1.3083  1.7365 -0.1331
 3768SOL     OW22762   1.326   0.519  14.759  0.7294  0.5713 -0.3122
 3768SOL    HW122763   1.263   0.484  14.696  1.5493  0.6370 -1.1676
 3768SOL    HW222764   1.345   0.600  14.712 -0.3584  1.3619  0.6277
 3769SOL     OW22765   3.051   2.387   9.149 -0.1904 -0.0514  0.5950
 3769SOL    HW122766   2.969   2.398   9.197 -0.0833 -0.7009  0.9114
 3769SOL    HW222767   3.071   2.481   9.151 -2.2579  0.3730  1.1233
 3770SOL     OW22768   4.033   2.766  15.175  0.2456  0.3147  0.4528
 3770SOL    HW122769   3.979   2.835  15.214 -0.4133 -0.1044  0.2789
 3770SOL    HW222770   4.028   2.778  15.080  1.1678 -2.1105  0.0932
 3771SOL     OW22771   1.868   3.246  17.333 -0.0154 -0.9538  0.7089
 3771SOL    HW122772   1.876   3.339  17.353 -1.6087 -0.6336 -0.1124
 3771SOL    HW222773   1.941   3.243  17.272 -0.2875 -2.5348  0.4523
 3772SOL     OW22774   4.297   0.224   2.538 -0.3329 -0.2314  0.4569
 3772SOL    HW122775   4.271   0.303   2.491  0.7618 -0.6214 -0.7855
 3772SOL    HW222776   4.282   0.255   2.628  1.9668 -0.3836  0.9017
 3773SOL     OW22777   0.540   3.337  11.551 -0.1077  0.0437  0.1518
 3773SOL    HW122778   0.481   3.282  11.602  1.1497  0.8346  2.4866
 3773SOL    HW222779   0.626   3.333  11.593  0.1820 -1.9350 -0.5951
 3774SOL     OW22780   0.646   0.237   8.743  0.5459 -0.0846  0.6737
 3774SOL    HW122781   0.735   0.272   8.753 -0.6413  2.9227  0.7277
 3774SOL    HW222782   0.624   0.231   8.835 -2.2273 -0.7048 -0.0525
 3775SOL     OW22783   4.412   1.807   3.870 -0.5458  0.1885  0.1087
 3775SOL    HW122784   4.462   1.873   3.919 -1.2584  1.0586 -0.3328
 3775SOL    HW222785   4.421   1.826   3.777  0.4720  0.4699  0.2665
 3776SOL     OW22786   1.015   2.018   3.167  0.3191  0.2334  0.7158
 3776SOL    HW122787   1.030   2.107   3.134 -0.3244 -0.4759 -1.4665
 3776SOL    HW222788   0.933   1.996   3.123  1.9368  2.5420 -3.4008
 3777SOL     OW22789   3.814   3.512   2.674 -0.3141  0.3758  0.2297
 3777SOL    HW122790   3.855   3.584   2.627 -0.3332  0.9811  1.1368
 3777SOL    HW222791   3.888   3.452   2.668 -0.4538  0.3394 -1.1275
 3778SOL     OW22792   2.267   0.264   6.813 -0.1193 -0.3514  0.5113
 3778SOL    HW122793   2.326   0.303   6.749 -1.7440  1.4749  0.1184
 3778SOL    HW222794   2.332   0.201   6.844 -0.4126 -1.2974 -0.7997
 3779SOL     OW22795   2.751   0.009   5.885  0.9790 -0.7450 -0.0104
 3779SOL    HW122796   2.665   4.720   5.927  1.5304 -2.9484  0.5866
 3779SOL    HW222797   2.797   0.076   5.937  1.0338 -1.6364  1.0912
 3780SOL     OW22798   3.393   2.930   1.942 -0.4308  0.1161  0.0952
 3780SOL    HW122799   3.355   2.885   2.017  2.7471  0.0130  1.6479
 3780SOL    HW222800   3.353   2.882   1.870 -2.1366 -1.6780  2.2311
 3781SOL     OW22801   3.780   3.997   3.248 -0.9043  0.5128  0.0790
 3781SOL    HW122802   3.708   4.022   3.191 -3.2927  0.7261  3.1719
 3781SOL    HW222803   3.743   3.970   3.332  0.7509  0.1509  0.6816
 3782SOL     OW22804   3.277   1.544   5.378  0.2091  0.3586 -0.1562
 3782SOL    HW122805   3.371   1.547   5.399  0.2241 -1.2475  0.0483
 3782SOL    HW222806   3.240   1.497   5.453  0.8396  0.0957 -0.0104
 3783SOL     OW22807   1.387   2.550   6.900 -0.6587 -0.2274  0.7262
 3783SOL    HW122808   1.429   2.464   6.896 -0.8414 -0.2118 -2.0729
 3783SOL    HW222809   1.313   2.529   6.957  0.4782  0.8409  2.5807
 3784SOL     OW22810   0.016   1.089   3.195  0.4091 -0.1333 -0.7399
 3784SOL    HW122811   4.711   1.169   3.151 -0.0026 -0.7601 -1.6324
 3784SOL    HW222812   0.073   1.130   3.260  1.4500 -1.5639 -0.7343
 3785SOL     OW22813   0.356   4.021  14.703 -0.0972  0.0465 -0.4448
 3785SOL    HW122814   0.370   3.990  14.613 -2.6279 -0.9210 -0.4770
 3785SOL    HW222815   0.413   3.953  14.739  2.5913  1.4089 -2.0585
 3786SOL     OW22816   3.635   3.780   7.636  0.4124  0.3497 -0.0528
 3786SOL    HW122817   3.681   3.855   7.673  0.0776 -0.5756  2.2120
 3786SOL    HW222818   3.612   3.813   7.549  1.3860  1.1956  0.0189
 3787SOL     OW22819   1.540   3.786   7.751  0.2771  0.4927  0.1815
 3787SOL    HW122820   1.565   3.762   7.840 -1.5883 -1.7158  0.1240
 3787SOL    HW222821   1.530   3.699   7.712  1.5608 -0.8775  2.9574
 3788SOL     OW22822   4.104   2.042   1.352 -0.1298 -0.0872  0.5154
 3788SOL    HW122823   4.059   1.969   1.396 -1.1008  0.2137 -0.0007
 3788SOL    HW222824   4.133   2.097   1.425 -0.8198 -0.3372  0.9856
 3789SOL     OW22825   2.680   3.491   9.948  0.0481 -0.5720 -0.0365
 3789SOL    HW122826   2.743   3.435   9.902  0.3337  0.3259 -0.7473
 3789SOL    HW222827   2.668   3.549   9.873  1.1327  0.2142  0.4041
 3790SOL     OW22828   2.302   1.238   6.515 -0.0049 -0.3889  0.2236
 3790SOL    HW122829   2.214   1.203   6.501 -0.8292  1.1006  1.6265
 3790SOL    HW222830   2.323   1.221   6.607 -0.8244  1.4196  0.7453
 3791SOL     OW22831   3.311   1.286   2.703 -0.3937  0.0492  0.1640
 3791SOL    HW122832   3.400   1.291   2.670 -1.1730  2.7323 -1.5886
 3791SOL    HW222833   3.311   1.191   2.713  0.9323  0.2347  1.7726
 3792SOL     OW22834   3.216   0.296   1.140 -0.0178  0.3146 -0.0769
 3792SOL    HW122835   3.287   0.303   1.076  0.1275 -1.6542 -0.1023
 3792SOL    HW222836   3.255   0.307   1.227  0.5966  0.3571 -0.3554
 3793SOL     OW22837   0.944   4.560  12.731  0.0961  0.0219 -0.6967
 3793SOL    HW122838   1.012   4.504  12.769 -0.4831 -0.8705 -0.9734
 3793SOL    HW222839   0.987   4.644  12.713  0.9146 -0.6777 -1.9899
 3794SOL     OW22840   4.098   2.198   2.881  0.7752 -0.2770 -0.4263
 3794SOL    HW122841   4.010   2.217   2.912  0.3532 -1.8431 -0.6601
 3794SOL    HW222842   4.147   2.235   2.954 -1.1600 -0.6636  1.0650
 3795SOL     OW22843   2.757   1.880  11.566 -0.0777  0.4596 -0.4634
 3795SOL    HW122844   2.675   1.902  11.611  1.1423  0.4701  1.7832
 3795SOL    HW222845   2.734   1.916  11.481 -1.8544 -1.7215 -0.9310
 3796SOL     OW22846   4.603   2.790   4.523 -0.6849 -0.2665 -0.0608
 3796SOL    HW122847   4.679   2.735   4.538 -0.2009  0.0538 -1.3687
 3796SOL    HW222848   4.564   2.749   4.446  0.3261  0.2463 -0.8487
 3797SOL     OW22849   3.640   2.819   3.284  0.3079 -0.2274  0.0927
 3797SOL    HW122850   3.709   2.886   3.277  0.7823 -0.5526  1.8411
 3797SOL    HW222851   3.683   2.737   3.261 -0.2691 -0.9927  1.8053
 3798SOL     OW22852   2.818   0.360   4.563 -0.1692  0.0060 -0.0945
 3798SOL    HW122853   2.883   0.392   4.625 -2.5075  2.5460  1.0154
 3798SOL    HW222854   2.857   0.364   4.475  3.4229 -0.1621  1.5000
 3799SOL     OW22855   4.051   2.252  15.835 -0.0577  0.3788 -0.1850
 3799SOL    HW122856   4.101   2.279  15.758  1.7107 -0.6188  0.6054
 3799SOL    HW222857   4.052   2.331  15.889  0.5248  0.0491  0.2825
 3800SOL     OW22858   2.134   0.582   5.578  0.4191 -0.1619 -0.9215
 3800SOL    HW122859   2.189   0.630   5.640  2.4337 -1.7733 -1.4634
 3800SOL    HW222860   2.190   0.514   5.541 -0.4213 -0.8937 -0.8538
 3801SOL     OW22861   2.636   3.335   5.689  0.3541  0.1207 -0.0622
 3801SOL    HW122862   2.669   3.418   5.655  2.0690  0.2966  2.0265
 3801SOL    HW222863   2.712   3.298   5.735  0.4388 -1.8755 -1.7793
 3802SOL     OW22864   1.170   4.284   6.318 -0.4463 -0.2692  0.2393
 3802SOL    HW122865   1.264   4.303   6.322 -0.2972 -1.0231  0.3566
 3802SOL    HW222866   1.136   4.373   6.326  1.2438  0.4699 -0.7328
 3803SOL     OW22867   2.503   3.523   7.762  0.5249 -0.6355  0.2033
 3803SOL    HW122868   2.419   3.560   7.791  1.1573 -0.2049  1.4625
 3803SOL    HW222869   2.484   3.429   7.757 -3.7279  0.1731  0.6791
 3804SOL     OW22870   1.867   4.276  15.734  0.2525  0.3822  0.1515
 3804SOL    HW122871   1.942   4.335  15.732  0.7177 -0.1492  1.5898
 3804SOL    HW222872   1.826   4.315  15.657  0.1364  0.3524  0.1977
 3805SOL     OW22873   0.083   2.721  12.161  0.1443 -0.2976  0.1440
 3805SOL    HW122874   0.006   2.711  12.106 -0.3585  1.1614  0.5855
 3805SOL    HW222875   0.066   2.638  12.207 -1.3220 -0.1407 -0.1256
 3806SOL     OW22876   2.938   4.534   3.193 -0.6341 -0.1349 -0.0873
 3806SOL    HW122877   2.854   4.489   3.199  0.8597 -2.5306  2.7627
 3806SOL    HW222878   2.908   4.625   3.194 -0.0302  0.0822 -1.5380
 3807SOL     OW22879   0.678   2.504   3.026  0.3816 -0.2040  0.2868
 3807SOL    HW122880   0.731   2.451   3.085  1.4959 -1.3458 -1.7130
 3807SOL    HW222881   0.639   2.563   3.090  1.7153  0.8027  0.1755
 3808SOL     OW22882   4.132   2.818  16.929 -0.5457 -0.0142 -0.5667
 3808SOL    HW122883   4.190   2.804  16.854 -0.6747 -1.1805 -0.4433
 3808SOL    HW222884   4.198   2.837  16.996 -2.3990  3.6128  0.2627
 3809SOL     OW22885   1.212   2.885   1.861 -0.4893 -0.4526 -0.1239
 3809SOL    HW122886   1.262   2.804   1.864  1.4958  0.7338 -0.9921
 3809SOL    HW222887   1.281   2.943   1.895 -0.1888  0.0099 -1.4939
 3810SOL     OW22888   4.031   4.509  12.673 -0.3227  0.4039 -0.1183
 3810SOL    HW122889   4.008   4.599  12.653 -0.7068  0.3167 -0.0621
 3810SOL    HW222890   3.972   4.458  12.618 -1.4173  1.1123  0.3932
 3811SOL     OW22891   1.854   1.137   4.484  0.4949 -0.3232 -0.4492
 3811SOL    HW122892   1.769   1.180   4.477  0.8948  0.4307 -0.6095
 3811SOL    HW222893   1.863   1.098   4.397  0.0783 -1.8342  0.1878
 3812SOL     OW22894   3.549   2.843   1.149 -0.5588  0.0983 -0.2270
 3812SOL    HW122895   3.576   2.826   1.239 -0.5501 -2.1406 -0.6592
 3812SOL    HW222896   3.487   2.774   1.126  1.0301 -1.5170  0.3673
 3813SOL     OW22897   0.049   3.164  10.424 -0.0311  0.1079 -0.1796
 3813SOL    HW122898   0.123   3.154  10.484 -1.0366 -0.9127  0.8856
 3813SOL    HW222899   0.023   3.072  10.420  2.8465 -0.6733 -1.3385
 3814SOL     OW22900   4.711   2.268   7.272  0.7506 -0.4775  0.1191
 3814SOL    HW122901   4.712   2.364   7.268 -0.4263 -0.4184  1.2771
 3814SOL    HW222902   0.012   2.248   7.363 -0.3365  0.7824  0.6600
 3815SOL     OW22903   2.959   2.313   3.508  0.0886  0.2299 -0.6192
 3815SOL    HW122904   2.978   2.306   3.602 -3.1212  0.8524  0.0767
 3815SOL    HW222905   2.911   2.396   3.496 -0.7619 -0.3247 -1.0112
 3816SOL     OW22906   1.752   3.664   5.330  0.4503 -0.3982 -0.2021
 3816SOL    HW122907   1.730   3.738   5.386 -1.8233 -0.9857 -0.3228
 3816SOL    HW222908   1.847   3.677   5.321  0.2961 -0.1623 -1.4961
 3817SOL     OW22909   2.665   3.302   9.027 -0.0763  0.2531  0.2528
 3817SOL    HW122910   2.628   3.295   8.938  3.5406 -2.3993 -1.0201
 3817SOL    HW222911   2.659   3.394   9.053 -0.9972  0.3574 -0.3126
 3818SOL     OW22912   3.303   1.424   2.940 -0.1298 -0.4905 -0.1319
 3818SOL    HW122913   3.314   1.367   2.863 -1.5740 -0.3279 -0.4447
 3818SOL    HW222914   3.383   1.477   2.939 -0.4577  0.0043  0.4139
 3819SOL     OW22915   2.593   3.410  16.386  0.1235  0.6251  0.0193
 3819SOL    HW122916   2.668   3.445  16.434 -0.4153  0.8534  0.6811
 3819SOL    HW222917   2.525   3.475  16.403  0.1786  0.2188  1.7222
 3820SOL     OW22918   3.556   3.453   2.590 -0.4991  0.7632 -0.6207
 3820SOL    HW122919   3.650   3.472   2.596 -0.3521 -0.2034  0.2596
 3820SOL    HW222920   3.544   3.399   2.669  0.4880  2.6397  0.8117
 3821SOL     OW22921   4.235   2.440   7.732 -0.7636  0.0201 -0.6780
 3821SOL    HW122922   4.287   2.520   7.719 -1.4200  0.0339 -3.3043
 3821SOL    HW222923   4.289   2.370   7.696  1.7461  1.0050  1.2336
 3822SOL     OW22924   1.479   2.209  13.147 -0.5198  0.4220 -0.2762
 3822SOL    HW122925   1.575   2.214  13.145 -0.4354 -0.5771  1.5946
 3822SOL    HW222926   1.452   2.297  13.172  0.5163  0.6612 -0.0025
 3823SOL     OW22927   4.162   1.816  16.354 -0.5739 -0.5209  0.6155
 3823SOL    HW122928   4.116   1.882  16.406  1.0384  2.0065 -1.1600
 3823SOL    HW222929   4.184   1.862  16.273  1.2028 -0.0185  1.3775
 3824SOL     OW22930   0.986   3.353  16.385 -1.0186  0.1742  0.8909
 3824SOL    HW122931   0.925   3.357  16.311  0.7150 -0.3018 -0.5592
 3824SOL    HW222932   1.060   3.395  16.342 -1.1942 -1.1753 -0.7105
 3825SOL     OW22933   3.803   0.963  11.743 -0.3407  0.0558 -0.7719
 3825SOL    HW122934   3.825   0.894  11.806 -1.7904  0.9671  0.7185
 3825SOL    HW222935   3.750   0.902  11.693 -2.6495 -1.0465  3.0647
 3826SOL     OW22936   2.458   4.433   3.794 -0.1373 -0.3939 -0.3382
 3826SOL    HW122937   2.505   4.515   3.810 -0.5064 -0.3374  0.4338
 3826SOL    HW222938   2.461   4.392   3.880  0.6547  1.5876  0.5611
 3827SOL     OW22939   3.031   3.882   9.239  0.1532  0.4337 -0.2994
 3827SOL    HW122940   3.063   3.800   9.275 -1.1564  0.3875  0.7172
 3827SOL    HW222941   3.103   3.944   9.255  0.4519 -0.2303  0.9039
 3828SOL     OW22942   2.485   2.490   6.646  0.2067  0.3729  0.0970
 3828SOL    HW122943   2.481   2.586   6.654  3.0853  0.4172  0.8092
 3828SOL    HW222944   2.413   2.465   6.588  0.0315  1.0967 -0.0066
 3829SOL     OW22945   1.280   2.765   0.939 -0.0807  0.1030  0.1159
 3829SOL    HW122946   1.375   2.751   0.928  0.1962  1.5403  0.7298
 3829SOL    HW222947   1.256   2.716   0.861  0.6535  1.8099 -1.1823
 3830SOL     OW22948   2.001   2.959   9.295 -0.1259  0.4170  0.2013
 3830SOL    HW122949   1.948   2.902   9.239  0.3426 -0.1771  0.3579
 3830SOL    HW222950   2.018   3.024   9.227  0.5770 -1.6514 -1.6053
 3831SOL     OW22951   1.525   4.526   1.240  0.3151  0.0101  0.4141
 3831SOL    HW122952   1.433   4.552   1.234  0.0815 -0.6157  1.3765
 3831SOL    HW222953   1.502   4.436   1.217 -0.2650  0.2449  0.0811
 3832SOL     OW22954   0.739   0.991   5.194 -0.0338  0.1388 -0.2371
 3832SOL    HW122955   0.649   0.962   5.201 -0.4390  0.8546 -2.4965
 3832SOL    HW222956   0.791   0.912   5.206 -3.1413 -1.7789  0.3421
 3833SOL     OW22957   4.197   4.509  12.904 -0.4811 -0.3391  0.1745
 3833SOL    HW122958   4.248   4.429  12.895  0.6102  0.4037 -0.2079
 3833SOL    HW222959   4.131   4.503  12.835 -1.3449 -0.8587  1.0332
 3834SOL     OW22960   1.828   3.221   8.127  0.2288 -0.0568  0.3720
 3834SOL    HW122961   1.850   3.198   8.217  2.3767  1.1835  0.1516
 3834SOL    HW222962   1.746   3.172   8.119  0.8822 -1.0912  0.0121
 3835SOL     OW22963   1.312   4.696   4.477 -0.1782  0.0014 -0.1325
 3835SOL    HW122964   1.340   0.067   4.473 -0.6830  0.1253 -0.8254
 3835SOL    HW222965   1.271   4.676   4.393 -0.0113 -0.7107 -0.0421
 3836SOL     OW22966   2.365   4.385   4.077  0.0876  0.1101 -0.2871
 3836SOL    HW122967   2.343   4.359   4.166  1.0733  1.7779  0.4371
 3836SOL    HW222968   2.288   4.440   4.064 -0.1431 -0.0548  0.3849
 3837SOL     OW22969   0.687   2.836  11.507  0.4700 -0.1895 -0.0210
 3837SOL    HW122970   0.700   2.809  11.598 -0.6259 -1.4176 -0.2246
 3837SOL    HW222971   0.591   2.837  11.515  0.6166 -0.8522  1.8596
 3838SOL     OW22972   1.168   3.912   1.533  0.0494  0.5434  0.0056
 3838SOL    HW122973   1.164   3.978   1.464 -0.9400 -0.5412 -1.0033
 3838SOL    HW222974   1.077   3.884   1.524  1.1393 -3.2085  0.6898
 3839SOL     OW22975   1.948   0.656   4.318  0.4977 -0.3596 -0.1644
 3839SOL    HW122976   1.939   0.674   4.224  1.4229  1.6083  0.1275
 3839SOL    HW222977   2.007   0.731   4.333  0.3542 -0.3275  0.2380
 3840SOL     OW22978   1.229   3.693   9.727 -0.3613  0.1194  0.3446
 3840SOL    HW122979   1.224   3.655   9.815  0.1064 -1.7732 -0.4511
 3840SOL    HW222980   1.135   3.709   9.717 -0.7501 -1.5225  1.4087
 3841SOL     OW22981   3.085   2.857  15.288  0.5063 -0.1973  0.5516
 3841SOL    HW122982   3.085   2.945  15.252 -0.5523  0.9593  3.3464
 3841SOL    HW222983   3.007   2.850  15.343  1.0498  0.5263  1.4161
 3842SOL     OW22984   2.952   1.677   4.342  0.7003 -0.0279  0.2878
 3842SOL    HW122985   2.915   1.646   4.260  0.9878 -2.0291  0.9183
 3842SOL    HW222986   3.024   1.615   4.351 -0.3315 -1.2833 -0.2382
 3843SOL     OW22987   2.998   4.068   5.784  0.3451  0.1429  0.1422
 3843SOL    HW122988   3.014   4.160   5.766  3.5827 -0.3969  0.2828
 3843SOL    HW222989   3.023   4.036   5.697  2.9118  0.6418  0.6867
 3844SOL     OW22990   0.380   3.095   7.610  0.4363 -0.1295  0.3961
 3844SOL    HW122991   0.358   3.004   7.631  2.0812 -0.5119  0.4809
 3844SOL    HW222992   0.448   3.106   7.676  0.4952 -1.4562  0.5593
 3845SOL     OW22993   1.197   3.982   0.907  0.3603 -0.2824  0.7041
 3845SOL    HW122994   1.240   3.990   0.992 -0.2622  0.0402  0.9939
 3845SOL    HW222995   1.267   4.014   0.851 -0.8998  2.5614  0.7107
 3846SOL     OW22996   1.529   1.451  14.648  0.4947 -0.0412 -0.1406
 3846SOL    HW122997   1.433   1.446  14.653  0.5443 -0.7751  0.0671
 3846SOL    HW222998   1.557   1.392  14.577 -0.3245  0.8621 -1.2154
 3847SOL     OW22999   3.677   3.484  10.360  0.6299 -0.4212  0.2893
 3847SOL    HW123000   3.685   3.403  10.410 -1.8675 -0.5087  0.5355
 3847SOL    HW223001   3.644   3.461  10.273  0.0301 -0.7395  0.6037
 3848SOL     OW23002   3.802   0.050   2.909  0.1501 -0.0606 -0.5284
 3848SOL    HW123003   3.856   0.072   2.985 -0.4073 -2.8140  0.6569
 3848SOL    HW223004   3.775   4.682   2.932  0.5362 -0.1253 -0.3208
 3849SOL     OW23005   4.623   1.940   4.523 -0.0498  0.3218 -0.3930
 3849SOL    HW123006   4.668   1.870   4.571 -1.6237 -0.8571 -0.6447
 3849SOL    HW223007   4.624   1.914   4.431  1.3685  0.0226 -0.3015
 3850SOL     OW23008   2.727   3.360   7.894  0.1255 -0.1417  0.2021
 3850SOL    HW123009   2.732   3.450   7.861  1.4280 -0.1717  0.3003
 3850SOL    HW223010   2.651   3.321   7.852  0.7088 -2.0004  0.8838
 3851SOL     OW23011   3.664   0.332   3.347 -0.2859 -0.4420  0.3481
 3851SOL    HW123012   3.733   0.387   3.384 -0.8342 -0.4148  1.3185
 3851SOL    HW223013   3.680   0.350   3.254 -0.2779 -1.2449  0.1938
 3852SOL     OW23014   0.554   1.238   4.872  0.5139  0.1287  0.4863
 3852SOL    HW123015   0.575   1.147   4.892 -1.8259 -0.6928 -0.8231
 3852SOL    HW223016   0.624   1.269   4.814  1.4729  0.6396  1.9066
 3853SOL     OW23017   4.433   1.853   4.972  0.1758 -0.2263  0.3899
 3853SOL    HW123018   4.492   1.928   4.964  1.2757 -1.1183  0.0868
 3853SOL    HW223019   4.489   1.776   4.964  0.0871 -0.2630  0.0892
 3854SOL     OW23020   0.136   1.934   5.263  0.2486  0.4715  0.1111
 3854SOL    HW123021   0.201   1.864   5.256  0.0682  0.1784  1.3230
 3854SOL    HW223022   0.114   1.944   5.170 -0.9670 -2.3548  0.1016
 3855SOL     OW23023   2.945   3.756   6.583  0.4677  0.2693 -0.0893
 3855SOL    HW123024   2.988   3.672   6.602 -2.8406 -1.3222  0.4044
 3855SOL    HW223025   2.986   3.815   6.645  1.2345 -0.0723 -0.2735
 3856SOL     OW23026   0.726   1.443  10.572 -0.1582 -0.5599 -0.2580
 3856SOL    HW123027   0.815   1.478  10.565  0.3163 -2.0407 -1.6208
 3856SOL    HW223028   0.674   1.511  10.616 -0.5939 -1.2010  0.2221
 3857SOL     OW23029   3.576   1.510   9.517  0.3672  0.3055  0.1244
 3857SOL    HW123030   3.570   1.415   9.505 -0.7185  0.8070 -3.4102
 3857SOL    HW223031   3.625   1.524   9.598  1.2227  1.2998 -0.5554
 3858SOL     OW23032   4.043   2.695   3.074 -0.0995  0.0235  0.2961
 3858SOL    HW123033   4.064   2.622   3.132 -0.5082  0.6198  1.1931
 3858SOL    HW223034   4.079   2.767   3.125  0.5761 -0.1947  0.1267
 3859SOL     OW23035   3.365   3.337   6.238 -0.1169  0.2970 -0.2240
 3859SOL    HW123036   3.368   3.289   6.155  1.3925  0.5179 -0.3089
 3859SOL    HW223037   3.442   3.393   6.227  1.1108 -1.5382 -0.8993
 3860SOL     OW23038   2.361   4.714   7.652  0.1302 -0.6446 -0.0621
 3860SOL    HW123039   2.388   4.702   7.742 -0.7440  0.6166  0.3761
 3860SOL    HW223040   2.321   4.633   7.620  0.3225  0.1755 -2.4130
 3861SOL     OW23041   3.949   1.317   8.125  0.4864 -0.6996  0.7578
 3861SOL    HW123042   3.984   1.406   8.133  0.3341 -0.6699  1.0768
 3861SOL    HW223043   3.914   1.329   8.037  1.5700 -0.2037  0.3939
 3862SOL     OW23044   1.832   0.655  17.053  0.1597  0.2708 -0.2990
 3862SOL    HW123045   1.810   0.656  16.960  0.3160  0.6070 -0.3308
 3862SOL    HW223046   1.763   0.599  17.090  0.6217  0.7603  1.3304
 3863SOL     OW23047   3.618   3.111   7.559 -0.5193  0.3813 -0.0017
 3863SOL    HW123048   3.712   3.102   7.574 -0.1391  2.8390 -0.9693
 3863SOL    HW223049   3.583   3.098   7.648  0.1045 -0.1607  0.1682
 3864SOL     OW23050   3.726   0.430   5.921 -0.0905  0.0348 -0.1373
 3864SOL    HW123051   3.657   0.496   5.928  0.0649  0.3823 -1.9183
 3864SOL    HW223052   3.676   0.351   5.902 -0.0116  0.0782 -0.5232
 3865SOL     OW23053   3.202   0.596  13.489 -0.6526  0.5921 -0.0026
 3865SOL    HW123054   3.273   0.571  13.548 -1.2109  0.0798  0.4392
 3865SOL    HW223055   3.221   0.539  13.414  2.4377 -0.0892  1.2789
 3866SOL     OW23056   3.190   0.395   5.917 -0.2339  0.8895 -0.1321
 3866SOL    HW123057   3.100   0.376   5.891 -0.5227  1.9221  0.0945
 3866SOL    HW223058   3.203   0.480   5.874  0.6664 -0.6627 -2.9358
 3867SOL     OW23059   0.889   0.743   7.361 -0.6586 -0.1388  0.2042
 3867SOL    HW123060   0.941   0.807   7.410 -0.5730 -0.4734  0.5579
 3867SOL    HW223061   0.803   0.781   7.380  0.2385  1.4532  1.1874
 3868SOL     OW23062   3.340   0.039   4.380 -0.3357 -0.3814  1.1513
 3868SOL    HW123063   3.366   4.698   4.312  0.8423  1.5570 -0.1949
 3868SOL    HW223064   3.245   0.043   4.373 -0.1142  0.5519 -1.3838
 3869SOL     OW23065   3.844   4.238  16.835  0.1573 -0.1078  0.3331
 3869SOL    HW123066   3.758   4.220  16.872  0.5465 -0.6331  0.9746
 3869SOL    HW223067   3.858   4.151  16.798 -1.9194 -1.2743  2.2481
 3870SOL     OW23068   4.238   0.741   0.887  0.1948 -0.1023  0.1884
 3870SOL    HW123069   4.302   0.680   0.850 -0.5600 -0.6086 -0.2884
 3870SOL    HW223070   4.168   0.680   0.912  0.1863 -0.3100 -0.3384
 3871SOL     OW23071   2.402   3.726   3.618  0.2373 -0.0692  0.0145
 3871SOL    HW123072   2.340   3.687   3.556 -2.2269  0.9267  1.8383
 3871SOL    HW223073   2.435   3.794   3.559 -2.5404  0.3133 -1.0818
 3872SOL     OW23074   4.138   2.369   5.803  0.0788  0.0410 -0.8222
 3872SOL    HW123075   4.160   2.353   5.711  2.0675  1.2436 -0.5652
 3872SOL    HW223076   4.209   2.326   5.851 -2.0134  0.0651  2.2908
 3873SOL     OW23077   0.156   3.687  12.650  0.6747 -0.1098  0.0766
 3873SOL    HW123078   0.078   3.695  12.705  1.3782  1.9915  0.7778
 3873SOL    HW223079   0.133   3.733  12.569  3.7615  1.1302 -0.0831
 3874SOL     OW23080   0.031   2.159   6.295  0.0292  0.4108  0.2300
 3874SOL    HW123081   0.100   2.093   6.301 -1.2970 -0.8152  1.9481
 3874SOL    HW223082   0.018   2.165   6.200 -2.0225 -0.2910  0.4617
 3875SOL     OW23083   3.109   1.726   5.911 -0.5854 -0.4873 -0.0206
 3875SOL    HW123084   3.023   1.713   5.952 -0.4878  1.4737  0.7736
 3875SOL    HW223085   3.167   1.742   5.985 -1.0649  2.8971 -0.3940
 3876SOL     OW23086   0.664   1.620   9.117  0.0273  0.6617  0.0939
 3876SOL    HW123087   0.578   1.584   9.095  1.2858 -3.3347  1.6071
 3876SOL    HW223088   0.654   1.702   9.070 -0.0619  0.9833  0.6699
 3877SOL     OW23089   1.709   0.005   6.067 -0.2319 -0.2722  0.1418
 3877SOL    HW123090   1.782   4.676   6.104 -1.1739 -1.8015 -0.0751
 3877SOL    HW223091   1.755   0.088   6.055  0.1664 -0.3180  1.3615
 3878SOL     OW23092   1.146   3.740   4.835  0.1122 -0.1665  0.5235
 3878SOL    HW123093   1.110   3.703   4.755  0.2202 -1.5300  1.1044
 3878SOL    HW223094   1.136   3.832   4.811  0.7735 -0.1826  0.1769
 3879SOL     OW23095   4.307   0.022   3.206  0.3099  0.1811 -0.0714
 3879SOL    HW123096   4.261   0.101   3.234  0.1009  0.2688 -0.6598
 3879SOL    HW223097   4.332   4.705   3.290  1.4077  1.6185  0.2571
 3880SOL     OW23098   2.190   2.197   2.933  0.0572 -0.3181  0.3053
 3880SOL    HW123099   2.237   2.201   3.017 -0.8759 -2.8353  0.9474
 3880SOL    HW223100   2.117   2.145   2.966 -0.6464 -0.1103 -0.9348
 3881SOL     OW23101   2.359   3.528   7.395 -0.0142  0.0082  0.0652
 3881SOL    HW123102   2.309   3.511   7.475 -1.9218  1.0604 -0.9216
 3881SOL    HW223103   2.437   3.581   7.413 -0.8161  1.0135  0.5673
 3882SOL     OW23104   3.720   4.577   6.121 -0.4808  0.3678  0.2381
 3882SOL    HW123105   3.656   4.646   6.102 -0.1533  0.2160 -1.4285
 3882SOL    HW223106   3.787   4.633   6.162  0.8258  0.3805 -1.8915
 3883SOL     OW23107   3.627   0.065   3.867  0.0803 -0.2468 -0.0844
 3883SOL    HW123108   3.688   0.128   3.907  0.0821 -0.1252 -0.2821
 3883SOL    HW223109   3.696   0.004   3.842 -0.0451 -1.0277  1.4809
 3884SOL     OW23110   3.333   4.693   3.102  0.2570 -0.4383  0.0858
 3884SOL    HW123111   3.309   4.624   3.040  1.1247 -0.5142 -0.1694
 3884SOL    HW223112   3.292   0.053   3.071  0.2046 -1.0192 -1.3857
 3885SOL     OW23113   1.499   3.962   9.215  0.0293 -0.0977 -0.2389
 3885SOL    HW123114   1.425   3.969   9.275 -0.3698  3.0240 -1.1187
 3885SOL    HW223115   1.558   3.909   9.269 -0.7309  1.0512  1.7179
 3886SOL     OW23116   4.690   3.755   6.990  0.2847 -0.2120 -0.0908
 3886SOL    HW123117   4.686   3.684   7.054 -0.4948 -0.2625 -0.1949
 3886SOL    HW223118   0.048   3.806   7.011 -0.0755  0.0253  0.6933
 3887SOL     OW23119   0.832   0.476   4.589 -0.7346 -0.0225  0.0135
 3887SOL    HW123120   0.771   0.546   4.612  0.8111  0.9219  1.2330
 3887SOL    HW223121   0.806   0.449   4.501 -0.3033  0.9094 -0.3963
 3888SOL     OW23122   2.715   2.789   5.847  0.1102  0.3383 -0.2208
 3888SOL    HW123123   2.644   2.810   5.907  0.3525 -0.1021  0.2108
 3888SOL    HW223124   2.685   2.705   5.813 -0.7230  1.0041 -1.1419
 3889SOL     OW23125   3.006   4.424   7.538  0.4341 -0.4010 -0.0750
 3889SOL    HW123126   3.036   4.372   7.463 -0.7464 -2.7969  1.1033
 3889SOL    HW223127   3.001   4.345   7.592 -0.7657 -0.2601  0.0144
 3890SOL     OW23128   3.810   0.337   8.773  0.2084  1.0395 -0.4147
 3890SOL    HW123129   3.837   0.249   8.748 -1.7156  0.5103 -0.6985
 3890SOL    HW223130   3.829   0.328   8.866  1.9346 -2.0454 -1.0730
 3891SOL     OW23131   1.630   3.626   5.858 -0.0915 -0.0498 -0.0052
 3891SOL    HW123132   1.721   3.649   5.842 -0.0859 -0.7419 -0.9490
 3891SOL    HW223133   1.588   3.703   5.820  1.4524  0.1472 -1.3062
 3892SOL     OW23134   3.432   1.792   0.809 -0.4613 -0.4367 -0.6557
 3892SOL    HW123135   3.453   1.832   0.725  0.6826 -0.4677 -0.3936
 3892SOL    HW223136   3.370   1.727   0.777 -0.5975 -0.3532 -0.5592
 3893SOL     OW23137   3.396   2.158  14.211 -0.2527  0.2067 -0.0160
 3893SOL    HW123138   3.465   2.224  14.221  0.4246 -0.5013 -0.0296
 3893SOL    HW223139   3.391   2.134  14.303 -3.0415  1.0851  0.0486
 3894SOL     OW23140   1.112   2.671   6.769  0.4671 -0.2915 -0.7861
 3894SOL    HW123141   1.147   2.588   6.736 -0.0542 -0.2708 -1.3806
 3894SOL    HW223142   1.043   2.698   6.708  0.9493  0.1656 -1.1282
 3895SOL     OW23143   0.357   4.714   7.029 -0.0589  0.5761  0.4667
 3895SOL    HW123144   0.394   0.018   6.945  1.2999 -1.3470  0.5037
 3895SOL    HW223145   0.426   0.019   7.089  1.2021 -2.0924  0.1591
 3896SOL     OW23146   4.115   2.939   3.968 -0.3505  0.6084 -0.1265
 3896SOL    HW123147   4.169   2.932   4.047 -0.7949 -2.4085 -0.0753
 3896SOL    HW223148   4.162   3.012   3.927 -1.0671  0.0593 -1.8994
 3897SOL     OW23149   3.270   3.488  16.100  0.5727  0.0624 -0.3757
 3897SOL    HW123150   3.203   3.441  16.150  1.0312 -0.7222 -0.4904
 3897SOL    HW223151   3.219   3.550  16.049  0.5338 -0.8874 -1.4911
 3898SOL     OW23152   3.325   1.300   9.466 -0.1887 -0.0084  0.7057
 3898SOL    HW123153   3.290   1.307   9.555 -1.8670 -0.3212  0.0638
 3898SOL    HW223154   3.351   1.208   9.458  1.6446  0.6069 -0.4217
 3899SOL     OW23155   3.206   0.658   5.825 -0.3812  0.6047  0.2666
 3899SOL    HW123156   3.149   0.702   5.763 -0.7767 -0.2189  0.0500
 3899SOL    HW223157   3.262   0.731   5.851  3.3119 -2.8568  2.1003
 3900SOL     OW23158   2.967   4.535   2.469  0.3951 -0.6278  0.8630
 3900SOL    HW123159   2.875   4.550   2.447  1.0454  1.5448 -0.3711
 3900SOL    HW223160   2.968   4.450   2.513  0.1236 -1.0554  0.0477
 3901SOL     OW23161   4.251   1.740  13.107 -0.7310 -0.0443  0.2798
 3901SOL    HW123162   4.227   1.648  13.095 -1.1162  0.1221 -0.2211
 3901SOL    HW223163   4.166   1.784  13.104 -0.3744  0.6541  0.2820
 3902SOL     OW23164   3.177   0.456   5.065 -0.4110 -0.5824  0.4096
 3902SOL    HW123165   3.220   0.522   5.011 -2.2000 -1.1506 -1.7199
 3902SOL    HW223166   3.217   0.379   5.025  1.8062  1.8077 -1.9949
 3903SOL     OW23167   1.946   1.385   1.716 -0.0463 -0.3487  0.4057
 3903SOL    HW123168   1.868   1.422   1.758  0.6256  0.2040  1.1816
 3903SOL    HW223169   2.011   1.379   1.786  0.6528 -1.3159 -0.3301
 3904SOL     OW23170   2.833   4.122   7.135  0.6868 -0.0911 -0.5035
 3904SOL    HW123171   2.801   4.049   7.083  0.6813 -0.4935  0.0632
 3904SOL    HW223172   2.804   4.202   7.091 -1.7317 -1.3050 -1.0915
 3905SOL     OW23173   2.246   2.051   7.687  0.2347 -0.1902  0.5606
 3905SOL    HW123174   2.272   1.963   7.659 -1.5739 -0.8170  0.8848
 3905SOL    HW223175   2.309   2.070   7.756 -0.2060  1.2373  0.5620
 3906SOL     OW23176   4.384   2.644   1.563 -0.3687 -0.6495 -0.0349
 3906SOL    HW123177   4.398   2.625   1.470  1.4305 -4.1825  0.9564
 3906SOL    HW223178   4.315   2.577   1.567 -0.0436 -0.9572  0.4382
 3907SOL     OW23179   2.694   2.825   8.887 -0.1257  0.2898 -0.1234
 3907SOL    HW123180   2.701   2.906   8.936 -1.1294  0.8116 -0.8466
 3907SOL    HW223181   2.599   2.812   8.887 -0.0947  0.1336  1.8428
 3908SOL     OW23182   2.425   4.679   2.756  0.0579 -0.0548 -0.5440
 3908SOL    HW123183   2.451   0.019   2.688  0.3014  2.0433  1.4261
 3908SOL    HW223184   2.502   4.622   2.757 -0.5481 -0.8866  0.0392
 3909SOL     OW23185   4.584   3.948   4.208  0.6322  0.2202  0.6519
 3909SOL    HW123186   4.645   3.900   4.153 -0.2976 -0.2489  0.0276
 3909SOL    HW223187   4.650   4.013   4.232  2.5108 -1.6573  0.5637
 3910SOL     OW23188   0.042   4.709   5.854 -0.1290  0.4911 -0.5660
 3910SOL    HW123189   0.138   4.710   5.847 -0.0172  0.6264  1.1709
 3910SOL    HW223190   0.020   0.077   5.825 -1.4902 -0.9086 -3.8411
 3911SOL     OW23191   3.824   0.671   9.438  0.0610  0.6638  0.3384
 3911SOL    HW123192   3.898   0.645   9.491  0.5450  0.7245 -0.3068
 3911SOL    HW223193   3.820   0.609   9.365  1.4923 -2.0180  2.5699
 3912SOL     OW23194   0.576   3.500   6.685  0.4310  0.3074  0.4195
 3912SOL    HW123195   0.499   3.552   6.711  0.7986 -0.0948  2.2782
 3912SOL    HW223196   0.620   3.497   6.770 -0.9847 -1.6769  1.0848
 3913SOL     OW23197   4.623   1.759   3.042  0.2757  0.4302 -0.5067
 3913SOL    HW123198   4.554   1.733   2.981  0.0194  1.0591 -0.4744
 3913SOL    HW223199   4.584   1.775   3.128  1.8946  1.6486 -0.0105
 3914SOL     OW23200   3.874   1.654  17.514 -0.1255  0.1149  0.6421
 3914SOL    HW123201   3.846   1.699  17.594  0.8595  2.2384 -0.2165
 3914SOL    HW223202   3.957   1.697  17.492  0.1444 -1.0148 -0.5809
 3915SOL     OW23203   3.021   1.725  17.192 -0.2831 -0.2468 -0.4158
 3915SOL    HW123204   2.937   1.687  17.169 -1.7818  1.5887  2.0154
 3915SOL    HW223205   3.070   1.647  17.219  1.1465  0.9442  0.4334
 3916SOL     OW23206   3.672   0.576  14.043  0.5234 -0.0276 -0.9454
 3916SOL    HW123207   3.723   0.657  14.052  1.5248 -1.0545  2.8551
 3916SOL    HW223208   3.661   0.543  14.133 -1.3340 -1.1129 -1.5693
 3917SOL     OW23209   3.574   0.228   0.668  0.6481 -0.2684  0.0472
 3917SOL    HW123210   3.665   0.232   0.641  0.7858  0.5134  0.6194
 3917SOL    HW223211   3.553   0.321   0.677 -0.0347 -0.3153 -1.0589
 3918SOL     OW23212   3.174   0.999  11.767  0.0941 -0.7981 -0.6076
 3918SOL    HW123213   3.097   0.944  11.756 -0.6823 -0.2075  2.0293
 3918SOL    HW223214   3.207   1.014  11.678  0.6826  2.1941  0.1203
 3919SOL     OW23215   0.643   4.070   2.354  0.1959  0.3897 -0.0189
 3919SOL    HW123216   0.641   3.998   2.290 -0.9010  1.9082 -1.6993
 3919SOL    HW223217   0.723   4.047   2.401  1.2069  0.2604 -1.7788
 3920SOL     OW23218   1.581   1.835   6.884  0.5988  0.4505 -0.6505
 3920SOL    HW123219   1.597   1.878   6.969  1.3984 -2.1923  0.5192
 3920SOL    HW223220   1.632   1.756   6.898  2.0454  0.9944 -2.8355
 3921SOL     OW23221   2.244   0.357   7.888 -0.3199  0.0242  0.5622
 3921SOL    HW123222   2.193   0.429   7.852 -1.6523 -1.4093 -0.4686
 3921SOL    HW223223   2.200   0.276   7.860  0.1567  0.3816 -1.2374
 3922SOL     OW23224   0.545   4.617   0.984  0.2228 -0.0136  0.5338
 3922SOL    HW123225   0.496   4.567   0.918 -2.1396  1.2037  1.3654
 3922SOL    HW223226   0.632   4.580   0.970 -0.7176 -2.0406 -0.0164
 3923SOL     OW23227   3.655   3.644   6.437  0.1961  0.0331 -0.3839
 3923SOL    HW123228   3.632   3.717   6.496 -0.1423 -0.7008  0.3890
 3923SOL    HW223229   3.596   3.576   6.469 -0.0906  0.1819 -0.5928
 3924SOL     OW23230   2.699   1.052   6.609 -0.2022  0.6717  0.4832
 3924SOL    HW123231   2.685   1.037   6.516  0.2846 -0.4269  0.5928
 3924SOL    HW223232   2.755   1.128   6.624 -0.5270  0.8357  0.8854
 3925SOL     OW23233   4.206   3.638   9.275  0.6844 -0.0563  0.3833
 3925SOL    HW123234   4.190   3.663   9.366  1.9626  1.2155  0.2714
 3925SOL    HW223235   4.201   3.543   9.284 -0.7245 -0.0223 -0.1230
 3926SOL     OW23236   4.318   2.073   7.023 -0.0390  0.1465  0.5847
 3926SOL    HW123237   4.340   2.157   6.982  2.5824  0.1400  1.9935
 3926SOL    HW223238   4.391   2.055   7.081  0.3013 -0.6198 -0.0900
 3927SOL     OW23239   1.135   0.296   3.574 -0.0862  0.1067  0.5077
 3927SOL    HW123240   1.042   0.303   3.553 -0.0815  1.0780  0.8202
 3927SOL    HW223241   1.175   0.253   3.498  0.2420  1.7175 -0.2332
 3928SOL     OW23242   2.264   2.481   6.099  0.3070 -0.3570  0.2518
 3928SOL    HW123243   2.213   2.404   6.073 -0.3156 -0.0275  0.4745
 3928SOL    HW223244   2.303   2.463   6.185  1.1310  0.5677  0.0732
 3929SOL     OW23245   3.364   1.165   3.078  0.4454 -0.0674  0.0079
 3929SOL    HW123246   3.285   1.166   3.133 -0.2387  1.8435 -1.0152
 3929SOL    HW223247   3.331   1.162   2.988  5.6975 -0.2042 -1.8845
 3930SOL     OW23248   2.808   4.103   6.117 -0.1008 -0.5171 -0.1188
 3930SOL    HW123249   2.806   4.119   6.211 -0.2131 -0.5611 -0.1134
 3930SOL    HW223250   2.892   4.057   6.111  0.1328 -0.2648  1.1460
 3931SOL     OW23251   1.577   1.645   0.071  0.3894  0.3214 -0.0659
 3931SOL    HW123252   1.584   1.695  17.676 -0.0622  1.9657  0.8874
 3931SOL    HW223253   1.657   1.666   0.120 -1.5499  3.5346  1.8037
 3932SOL     OW23254   2.552   1.204   5.009 -0.1838 -0.1444 -0.1558
 3932SOL    HW123255   2.542   1.288   4.963 -1.5390 -2.4935 -4.1396
 3932SOL    HW223256   2.640   1.212   5.046  0.5089 -1.5988 -1.5091
 3933SOL     OW23257   2.505   0.262   2.957  0.3371 -0.2940 -0.4282
 3933SOL    HW123258   2.597   0.251   2.982  0.6430 -1.1365 -1.9200
 3933SOL    HW223259   2.509   0.306   2.872  1.1519  0.0888 -0.1938
 3934SOL     OW23260   2.388   4.679   2.459 -0.2609 -0.1129 -0.4072
 3934SOL    HW123261   2.426   4.673   2.371  1.5930 -0.5699  0.4193
 3934SOL    HW223262   2.418   0.042   2.494 -1.6404 -0.9201  2.7343
 3935SOL     OW23263   3.590   3.335  11.114 -0.6640 -0.2861 -0.0458
 3935SOL    HW123264   3.506   3.367  11.084  0.9268  2.3268 -1.7068
 3935SOL    HW223265   3.605   3.402  11.181  0.8595 -1.4787  0.8296
 3936SOL     OW23266   3.049   1.678  12.578 -0.3515 -0.0320 -0.5733
 3936SOL    HW123267   3.145   1.687  12.581 -0.5302  2.4966 -1.8334
 3936SOL    HW223268   3.042   1.615  12.506 -2.9206  1.6371 -1.7916
 3937SOL     OW23269   1.525   1.966   3.697 -0.5764 -0.1622 -0.0113
 3937SOL    HW123270   1.521   2.057   3.726  0.0069 -0.0977 -0.1345
 3937SOL    HW223271   1.527   1.932   3.787 -1.8349 -1.7760 -0.5825
 3938SOL     OW23272   3.291   4.239   8.743 -0.1535 -0.0061 -0.3393
 3938SOL    HW123273   3.274   4.312   8.683  1.2915  0.7106  0.1346
 3938SOL    HW223274   3.211   4.186   8.738 -1.3584  1.8444 -0.7576
 3939SOL     OW23275   1.729   0.277   6.475 -0.6493 -0.2743 -0.2070
 3939SOL    HW123276   1.778   0.253   6.554 -0.5592 -0.6425 -0.3737
 3939SOL    HW223277   1.797   0.322   6.424 -1.3307 -0.5970 -1.3884
 3940SOL     OW23278   2.347   3.729   6.390 -0.1827 -0.0831 -0.0845
 3940SOL    HW123279   2.267   3.773   6.420 -1.1767  0.5619 -3.7242
 3940SOL    HW223280   2.395   3.794   6.338 -0.7864 -0.1409 -0.7138
 3941SOL     OW23281   0.019   3.384   0.964  0.1751 -0.5742 -0.3767
 3941SOL    HW123282   4.681   3.357   0.894  0.2136  0.3156 -0.7446
 3941SOL    HW223283   4.685   3.360   1.039 -0.3969 -2.2131 -1.3211
 3942SOL     OW23284   3.882   0.663   7.225  0.4704  0.1461  0.2236
 3942SOL    HW123285   3.966   0.685   7.266  0.2375 -1.7002  1.7016
 3942SOL    HW223286   3.828   0.674   7.303  0.5611  1.5430  0.0797
 3943SOL     OW23287   3.060   0.567   2.569 -0.2558 -0.6581  0.1100
 3943SOL    HW123288   3.141   0.604   2.534  0.6325 -2.8560 -0.1485
 3943SOL    HW223289   3.077   0.473   2.570  0.9730 -0.4563 -1.5975
 3944SOL     OW23290   2.639   2.388   8.993  0.1308 -0.1672 -0.2189
 3944SOL    HW123291   2.625   2.470   9.041  0.9581  0.3848 -0.9157
 3944SOL    HW223292   2.724   2.394   8.949 -1.0654  1.7344 -2.3043
 3945SOL     OW23293   3.795   3.985   4.098  1.0910 -0.6296 -0.2253
 3945SOL    HW123294   3.810   4.072   4.061 -3.4292  0.0378 -0.5133
 3945SOL    HW223295   3.789   3.941   4.014  0.7715  0.2901 -0.6863
 3946SOL     OW23296   2.722   0.442   7.604  0.3031  0.1941  0.1455
 3946SOL    HW123297   2.737   0.405   7.517  2.5038  0.2077  0.5132
 3946SOL    HW223298   2.647   0.390   7.633 -0.6308  0.4162 -1.8347
 3947SOL     OW23299   4.648   4.128   9.306  0.6826  0.0272 -0.0440
 3947SOL    HW123300   4.596   4.051   9.284 -0.8800  0.3734  2.4042
 3947SOL    HW223301   4.591   4.165   9.373  1.2536  2.4218 -0.8878
 3948SOL     OW23302   4.662   1.578   9.533  0.0023  0.0389 -0.0233
 3948SOL    HW123303   4.627   1.491   9.515  0.0293  0.2159 -0.9327
 3948SOL    HW223304   4.676   1.609   9.443 -2.2317  1.7979  0.2279
 3949SOL     OW23305   2.138   0.494   5.202  0.0168  0.0606 -0.1308
 3949SOL    HW123306   2.105   0.411   5.168  0.3047 -0.5590  1.1216
 3949SOL    HW223307   2.229   0.492   5.171 -0.2208  0.9753 -0.9006
 3950SOL     OW23308   3.739   0.721   5.037 -0.3056 -0.1730  0.7300
 3950SOL    HW123309   3.722   0.746   5.128 -1.4373 -1.1014  0.7700
 3950SOL    HW223310   3.835   0.715   5.039 -0.2810 -0.0531 -0.0165
 3951SOL     OW23311   2.517   3.455   9.395 -0.3631  0.0120  0.5673
 3951SOL    HW123312   2.513   3.364   9.364 -0.3971  0.8383 -1.9076
 3951SOL    HW223313   2.574   3.443   9.471 -0.9361  0.8681  1.1330
 3952SOL     OW23314   3.148   1.538   3.536  0.3563 -0.3205  0.0045
 3952SOL    HW123315   3.121   1.453   3.570 -0.3716 -0.3270 -0.5943
 3952SOL    HW223316   3.063   1.569   3.505 -0.0912 -2.5253 -1.0086
 3953SOL     OW23317   4.574   0.833   3.950  0.4595 -0.1444 -0.7420
 3953SOL    HW123318   4.608   0.918   3.923  0.3451 -0.1976 -1.0533
 3953SOL    HW223319   4.600   0.835   4.042 -0.5061 -0.8898 -0.4435
 3954SOL     OW23320   2.183   0.326   3.207 -0.2714  0.0237 -0.4373
 3954SOL    HW123321   2.265   0.286   3.176 -0.2532 -0.3522  0.0923
 3954SOL    HW223322   2.130   0.254   3.241 -0.0082  1.3809  2.7897
 3955SOL     OW23323   4.253   1.332  12.337 -0.6659  0.5677 -0.1413
 3955SOL    HW123324   4.260   1.411  12.390  1.3129 -0.4101  1.0330
 3955SOL    HW223325   4.158   1.333  12.326 -0.4959  1.8883 -1.4357
 3956SOL     OW23326   1.987   1.290   5.700 -0.1246 -0.0816  0.1252
 3956SOL    HW123327   2.002   1.195   5.705  0.8120  0.0726  0.2063
 3956SOL    HW223328   2.021   1.325   5.782 -0.2400  0.3654 -0.0157
 3957SOL     OW23329   4.006   3.074   6.900  0.3603 -0.0927  0.5244
 3957SOL    HW123330   4.003   3.146   6.963 -0.5136  1.2274 -1.0323
 3957SOL    HW223331   4.087   3.032   6.927  0.5299 -1.7666 -2.6666
 3958SOL     OW23332   0.724   2.990  15.012 -0.0653 -0.3381 -0.5026
 3958SOL    HW123333   0.677   2.927  15.068  1.1438 -0.6186  0.1842
 3958SOL    HW223334   0.666   3.001  14.936 -2.2328 -0.3139  1.1488
 3959SOL     OW23335   1.469   3.445  17.140  0.4618  0.6307  0.2516
 3959SOL    HW123336   1.398   3.457  17.078  0.0288 -3.2440  0.0164
 3959SOL    HW223337   1.517   3.365  17.119 -1.4122 -0.2135 -0.7468
 3960SOL     OW23338   4.025   3.525   8.191  0.4880 -0.3052 -0.6751
 3960SOL    HW123339   4.079   3.560   8.120 -0.6694  0.5040 -1.1460
 3960SOL    HW223340   4.010   3.607   8.239 -0.4442 -0.8112 -0.0922
 3961SOL     OW23341   0.719   3.093   4.220  0.0631 -0.5847 -0.6951
 3961SOL    HW123342   0.716   3.145   4.140  0.8776 -0.4671 -0.6449
 3961SOL    HW223343   0.814   3.088   4.228 -0.2734 -0.8010  3.3831
 3962SOL     OW23344   1.072   4.590  16.252 -0.1782  0.2465 -0.0423
 3962SOL    HW123345   1.042   4.597  16.343 -0.1678  1.0234 -0.0995
 3962SOL    HW223346   1.163   4.618  16.259  0.9564 -3.0833 -1.9625
 3963SOL     OW23347   2.077   0.156   7.007 -0.3678 -0.1223  0.4667
 3963SOL    HW123348   2.104   0.159   7.099 -0.0105 -1.0523  0.3922
 3963SOL    HW223349   2.155   0.194   6.966 -1.6465  2.2771  0.2740
 3964SOL     OW23350   0.054   1.276  10.230 -0.6448 -1.0598 -0.3365
 3964SOL    HW123351   0.103   1.197  10.252  0.8492  0.6916  2.5565
 3964SOL    HW223352   0.123   1.342  10.235 -1.2844 -0.4502  0.4689
 3965SOL     OW23353   0.429   0.386   2.073 -0.2722 -0.5714  0.1456
 3965SOL    HW123354   0.420   0.477   2.100  0.7051 -0.2462 -0.6152
 3965SOL    HW223355   0.348   0.374   2.024 -0.4382  1.4599 -0.0805
 3966SOL     OW23356   4.287   4.550   1.468  0.0776 -0.3511  0.1315
 3966SOL    HW123357   4.197   4.522   1.448 -0.2368  0.2946  0.6604
 3966SOL    HW223358   4.343   4.479   1.497  0.9299  1.3475  2.6285
 3967SOL     OW23359   2.961   1.349  15.866 -0.3622 -0.2273 -0.4801
 3967SOL    HW123360   3.040   1.357  15.919 -1.5835 -0.4132  1.3933
 3967SOL    HW223361   2.898   1.410  15.906  0.6679  0.0472  0.7289
 3968SOL     OW23362   4.337   2.221   9.108  0.0628 -0.2572 -0.8856
 3968SOL    HW123363   4.362   2.133   9.078  1.4955 -0.3426  0.6144
 3968SOL    HW223364   4.423   2.256   9.131 -0.5963 -0.1916  1.4279
 3969SOL     OW23365   1.022   4.439   8.975  0.0411  0.1613  0.2410
 3969SOL    HW123366   0.936   4.425   9.015 -0.0102 -0.8987 -0.2549
 3969SOL    HW223367   1.065   4.373   9.029  1.0087  0.5703 -0.0344
 3970SOL     OW23368   0.912   1.164   0.435  0.1594 -0.2782 -0.6025
 3970SOL    HW123369   0.888   1.102   0.366  0.7601 -0.7907 -0.3491
 3970SOL    HW223370   0.858   1.241   0.417  1.2798  0.9068  1.1469
 3971SOL     OW23371   0.419   3.859   6.095 -0.0950  0.3434 -0.1041
 3971SOL    HW123372   0.331   3.894   6.083  0.3980  0.8530 -2.3357
 3971SOL    HW223373   0.474   3.936   6.107 -0.1835  0.3857  0.0348
 3972SOL     OW23374   0.219   3.698   4.529  0.0328 -0.3213 -0.3962
 3972SOL    HW123375   0.125   3.690   4.509  0.3394 -2.7888 -0.8398
 3972SOL    HW223376   0.229   3.616   4.577  1.3373  0.5125  0.7735
 3973SOL     OW23377   3.948   0.749   4.179 -0.3755  0.4358 -0.2561
 3973SOL    HW123378   3.876   0.748   4.242  0.4387  0.7316  0.6842
 3973SOL    HW223379   3.972   0.842   4.178  0.7608  0.2038  2.9414
 3974SOL     OW23380   3.836   2.315  17.273  0.4151  0.2087  0.7008
 3974SOL    HW123381   3.921   2.328  17.317  0.4080  0.0254  0.7674
 3974SOL    HW223382   3.779   2.378  17.317 -1.4323  0.6138 -2.3331
 3975SOL     OW23383   2.904   2.324   3.806  0.5847  0.4341  0.0663
 3975SOL    HW123384   2.824   2.276   3.784 -0.2582  0.9788  1.9715
 3975SOL    HW223385   2.871   2.391   3.866  2.3499 -0.1349  1.6764
 3976SOL     OW23386   1.125   2.085  13.509  0.9214 -0.1261 -0.6443
 3976SOL    HW123387   1.182   2.118  13.439  0.1210 -0.4771 -1.4629
 3976SOL    HW223388   1.077   2.026  13.452 -0.8136 -0.2728  0.9733
 3977SOL     OW23389   0.978   1.941   3.992 -0.2931  0.0203  0.1315
 3977SOL    HW123390   0.960   1.983   4.075  1.1958  0.5688  0.1759
 3977SOL    HW223391   0.977   2.008   3.924 -0.9109 -0.6364 -0.5160
 3978SOL     OW23392   0.039   2.726   8.634 -0.1357 -0.5442  0.1531
 3978SOL    HW123393   0.083   2.641   8.629  0.1115 -0.4600  0.8846
 3978SOL    HW223394   4.701   2.706   8.707 -0.1820  2.0688  0.8291
 3979SOL     OW23395   3.426   0.416   6.256 -0.2738  0.3279  0.4875
 3979SOL    HW123396   3.367   0.415   6.331 -0.0373 -0.2204  0.6641
 3979SOL    HW223397   3.502   0.364   6.282  0.2976  0.1452 -1.5066
 3980SOL     OW23398   1.734   1.307  17.605 -0.2550 -0.8213  0.9319
 3980SOL    HW123399   1.673   1.374  17.574 -0.5073 -2.4780 -2.0983
 3980SOL    HW223400   1.718   1.286   0.011  0.5826  2.4182  1.8416
 3981SOL     OW23401   4.192   0.129  11.468 -0.0007 -0.5352  0.0964
 3981SOL    HW123402   4.113   0.177  11.489  1.1141  0.4992  1.8791
 3981SOL    HW223403   4.166   0.046  11.508  0.0515  0.7469  2.7986
 3982SOL     OW23404   4.260   1.472   6.310  0.0166 -0.3200 -1.0971
 3982SOL    HW123405   4.283   1.476   6.217  1.3390 -1.3918 -0.8062
 3982SOL    HW223406   4.254   1.378   6.327 -0.0456 -0.1011  0.0910
 3983SOL     OW23407   2.563   3.101   6.369 -0.4041  0.6472 -0.1489
 3983SOL    HW123408   2.629   3.162   6.402 -0.4141  0.6493 -0.1327
 3983SOL    HW223409   2.483   3.152   6.381 -1.3149 -0.7388 -0.4184
 3984SOL     OW23410   0.018   2.027   5.047 -0.7878  0.5906  0.7668
 3984SOL    HW123411   4.696   1.999   4.967 -0.3994 -0.2564  0.8521
 3984SOL    HW223412   0.044   2.117   5.026  0.4699 -0.0888 -0.5786
 3985SOL     OW23413   2.498   3.159   6.091  0.7115  0.0096  0.0339
 3985SOL    HW123414   2.471   3.177   6.182  0.3810 -3.0795  0.5327
 3985SOL    HW223415   2.464   3.237   6.048  0.3163 -0.4883 -0.5537
 3986SOL     OW23416   3.504   2.809   5.207  0.2940  0.4411  0.1749
 3986SOL    HW123417   3.513   2.865   5.284  1.5956 -0.5958  0.7986
 3986SOL    HW223418   3.410   2.797   5.193  1.0226 -3.1333 -1.8828
 3987SOL     OW23419   1.398   3.023  17.517  0.8490 -0.2979 -0.1452
 3987SOL    HW123420   1.493   3.022  17.524  0.9134 -1.8701 -1.3028
 3987SOL    HW223421   1.372   2.934  17.496  3.3002 -0.6819 -1.4869
 3988SOL     OW23422   4.536   2.726  13.076  0.0551  0.8970  0.1253
 3988SOL    HW123423   4.444   2.737  13.099 -0.0455  0.0280  0.1480
 3988SOL    HW223424   4.525   2.659  13.008  2.4440 -1.0870  1.6837
 3989SOL     OW23425   1.606   2.182   4.361  0.0014  0.0273  0.4924
 3989SOL    HW123426   1.575   2.123   4.430  1.1102 -0.9731  0.1318
 3989SOL    HW223427   1.692   2.146   4.343  0.5397  0.8103  1.4595
 3990SOL     OW23428   2.440   0.595   3.849  0.3421 -0.0825  0.4937
 3990SOL    HW123429   2.364   0.604   3.907 -0.9624  0.2193 -1.2833
 3990SOL    HW223430   2.463   0.502   3.857 -1.3372 -0.6956 -2.0624
 3991SOL     OW23431   2.625   1.372  17.346  0.1648 -0.4389  0.1576
 3991SOL    HW123432   2.552   1.388  17.286  0.8443  0.8696 -0.3273
 3991SOL    HW223433   2.625   1.447  17.405  2.0152 -1.6551  1.7078
 3992SOL     OW23434   1.774   0.625   7.111 -0.6852 -0.4323  0.0336
 3992SOL    HW123435   1.809   0.571   7.182  0.8924 -2.0453 -1.9993
 3992SOL    HW223436   1.698   0.656   7.160 -0.9252 -2.4048  0.8802
 3993SOL     OW23437   2.767   1.470  14.496  0.1748 -0.4831  0.2921
 3993SOL    HW123438   2.809   1.413  14.432 -0.2917  1.2605 -1.5725
 3993SOL    HW223439   2.837   1.484  14.559 -1.1741 -1.0454  1.9177
 3994SOL     OW23440   4.657   0.683   7.813  0.3540  0.4350 -0.7178
 3994SOL    HW123441   4.565   0.663   7.831  0.1249  2.6496  0.5103
 3994SOL    HW223442   4.695   0.671   7.900 -1.0968 -0.2298 -0.1864
 3995SOL     OW23443   0.699   2.305  10.359  0.0322 -0.1022  0.0465
 3995SOL    HW123444   0.772   2.367  10.359  0.2694 -0.3717 -1.6013
 3995SOL    HW223445   0.687   2.301  10.264 -1.3879 -0.3636  0.2361
 3996SOL     OW23446   0.388   0.029   1.454 -0.3371  0.0207  0.8230
 3996SOL    HW123447   0.395   0.119   1.421 -2.7090 -1.0144 -2.5461
 3996SOL    HW223448   0.421   0.042   1.542  0.5709 -1.3509  0.6754
 3997SOL     OW23449   3.915   1.820   3.883  0.2843 -0.0265 -0.0280
 3997SOL    HW123450   3.922   1.908   3.847 -1.1343  1.0128  2.2923
 3997SOL    HW223451   3.854   1.772   3.827  0.1019  0.6849 -0.4337
 3998SOL     OW23452   3.969   4.005   2.448 -0.2298 -0.4091  0.4114
 3998SOL    HW123453   3.939   4.096   2.445  1.7083  0.2353  0.4317
 3998SOL    HW223454   3.950   3.977   2.358 -0.5199 -1.9476  0.9542
 3999SOL     OW23455   3.564   3.433   8.194  0.2822 -0.2657  0.4023
 3999SOL    HW123456   3.607   3.485   8.262 -1.0388  0.9285  0.3217
 3999SOL    HW223457   3.535   3.501   8.134  0.2337 -1.3492 -0.8123
 4000SOL     OW23458   2.404   3.229   8.297 -0.2361  0.6525  0.2969
 4000SOL    HW123459   2.374   3.286   8.368 -0.7640 -0.5169  1.0226
 4000SOL    HW223460   2.419   3.295   8.230 -0.6931  0.3951 -0.0640
 4001SOL     OW23461   3.684   4.218  16.434  0.0277  0.6351  0.4317
 4001SOL    HW123462   3.659   4.279  16.503 -0.4459  0.8965  0.0253
 4001SOL    HW223463   3.604   4.212  16.382  0.9775  0.2956 -1.0074
 4002SOL     OW23464   2.792   0.672   0.510  0.2584 -0.0036  0.7668
 4002SOL    HW123465   2.865   0.711   0.559  2.8423 -2.7555 -0.8859
 4002SOL    HW223466   2.745   0.646   0.589  0.6400 -0.9963  0.6678
 4003SOL     OW23467   1.565   0.549   5.159 -0.7243  0.1236  0.2463
 4003SOL    HW123468   1.627   0.477   5.168  0.0549  0.6831 -0.7572
 4003SOL    HW223469   1.611   0.609   5.218  1.0536 -1.4574  0.4757
 4004SOL     OW23470   1.365   1.987   0.920 -0.3298 -0.0902 -0.0291
 4004SOL    HW123471   1.353   1.971   1.014  0.2697  2.6895  0.5038
 4004SOL    HW223472   1.460   1.996   0.920  0.0554 -3.9307 -0.7010
 4005SOL     OW23473   0.411   4.428   4.976  0.1408  0.1098 -0.0430
 4005SOL    HW123474   0.387   4.391   5.061  0.9766 -1.0449 -0.3119
 4005SOL    HW223475   0.410   4.353   4.916 -1.0165 -1.1593  1.5506
 4006SOL     OW23476   1.587   1.670   2.658 -0.4372 -0.2127  0.4191
 4006SOL    HW123477   1.554   1.661   2.748 -0.6495  1.1326  0.4788
 4006SOL    HW223478   1.648   1.598   2.649  1.0298  0.9446  1.0619
 4007SOL     OW23479   0.863   1.999   5.791 -0.8343  0.3709 -0.3274
 4007SOL    HW123480   0.952   1.972   5.768 -0.0478  3.5108 -0.8795
 4007SOL    HW223481   0.846   1.952   5.873  2.3052  0.4393  0.3622
 4008SOL     OW23482   4.527   1.824   7.353  0.2907  0.5893  0.5595
 4008SOL    HW123483   4.609   1.843   7.398 -0.2876  2.5249  0.7678
 4008SOL    HW223484   4.534   1.882   7.277 -0.6879  0.5147  0.4120
 4009SOL     OW23485   0.755   1.766   4.033 -0.3805 -0.2948  1.1261
 4009SOL    HW123486   0.815   1.838   4.013 -1.5596  0.3318 -0.0885
 4009SOL    HW223487   0.827   1.704   4.041 -1.1728 -1.2144  1.0895
 4010SOL     OW23488   2.161   2.435   2.785 -0.0375 -0.2097  0.8524
 4010SOL    HW123489   2.252   2.462   2.799 -0.3296  0.7437  0.9092
 4010SOL    HW223490   2.141   2.374   2.856 -1.9803  1.8745  2.1240
 4011SOL     OW23491   4.683   2.998  10.732  0.3018 -0.3877 -0.0466
 4011SOL    HW123492   0.039   3.000  10.788 -1.6134 -0.5231  2.5644
 4011SOL    HW223493   4.627   2.943  10.786  1.5261 -0.8437  0.7450
 4012SOL     OW23494   1.497   4.481   4.554  0.8604 -0.3415  0.1409
 4012SOL    HW123495   1.460   4.556   4.507 -0.4042 -0.8336  0.3667
 4012SOL    HW223496   1.423   4.428   4.584 -0.9274  1.9858 -0.1566
 4013SOL     OW23497   3.241   4.618   1.727 -0.0544  0.4457  0.0191
 4013SOL    HW123498   3.198   4.547   1.774  1.6254 -1.4419 -1.3039
 4013SOL    HW223499   3.287   4.659   1.800 -0.5258 -2.4096  1.9345
 4014SOL     OW23500   2.772   1.150  10.272 -0.1618  0.1107  0.0508
 4014SOL    HW123501   2.712   1.142  10.346  2.5497  0.5457  2.3057
 4014SOL    HW223502   2.714   1.176  10.201  0.0234 -3.5460 -1.4196
 4015SOL     OW23503   4.098   3.005   5.948  0.0646 -0.0680  0.1703
 4015SOL    HW123504   4.078   2.912   5.956 -1.1882  0.1708 -0.1064
 4015SOL    HW223505   4.058   3.033   6.031  0.2856  1.0370 -0.0943
 4016SOL     OW23506   1.451   1.278   7.211 -0.3716  0.6436 -0.5036
 4016SOL    HW123507   1.472   1.371   7.201 -0.6223  0.5463 -1.9337
 4016SOL    HW223508   1.384   1.288   7.279 -0.0559 -4.2644  0.5614
 4017SOL     OW23509   2.324   0.296   8.387  0.0786  0.2188  0.7412
 4017SOL    HW123510   2.345   0.290   8.294 -2.3658 -2.5136  0.3445
 4017SOL    HW223511   2.395   0.252   8.433 -1.0234  1.0289  3.2309
 4018SOL     OW23512   4.053   2.476   3.244  0.1807 -0.9283  0.3546
 4018SOL    HW123513   4.078   2.492   3.335  0.4110  1.0232 -0.0319
 4018SOL    HW223514   4.132   2.468   3.190 -0.5565 -0.1618 -0.8591
 4019SOL     OW23515   2.717   2.770   3.275  0.3251 -0.1287 -0.4995
 4019SOL    HW123516   2.762   2.796   3.356  2.0075 -1.5433 -0.9799
 4019SOL    HW223517   2.668   2.850   3.258 -0.5234 -0.4620  0.3554
 4020SOL     OW23518   0.431   0.377   6.617 -0.2175 -1.0059 -0.4223
 4020SOL    HW123519   0.379   0.434   6.673 -0.8902 -1.2332 -0.8109
 4020SOL    HW223520   0.390   0.412   6.538 -1.1207  0.6200  0.7972
 4021SOL     OW23521   0.962   2.017   4.266  0.4685  0.1494  0.3576
 4021SOL    HW123522   0.967   2.102   4.310  2.2811  1.3850 -2.2246
 4021SOL    HW223523   0.920   1.964   4.334 -1.8123 -0.4930 -1.5720
 4022SOL     OW23524   0.627   0.010   4.520  0.0384  0.2784  0.6942
 4022SOL    HW123525   0.586   4.645   4.516  0.0472  0.4197 -2.1020
 4022SOL    HW223526   0.553   0.070   4.533  0.4601  0.2636  3.3048
 4023SOL     OW23527   0.303   3.531   9.715  0.1189  0.7287 -0.2507
 4023SOL    HW123528   0.263   3.459   9.763  0.7247 -0.2421 -1.1961
 4023SOL    HW223529   0.390   3.493   9.705 -0.0518  0.0714  0.8038
 4024SOL     OW23530   1.235   1.856   8.042  0.3789  0.3857 -0.1037
 4024SOL    HW123531   1.287   1.779   8.017  1.2324  0.2444  2.0904
 4024SOL    HW223532   1.219   1.894   7.956 -0.2335  0.2063 -0.0679
 4025SOL     OW23533   0.798   4.479   2.426  0.2982  0.2205 -1.0803
 4025SOL    HW123534   0.786   4.440   2.340 -1.7456 -2.5557  0.4728
 4025SOL    HW223535   0.714   4.517   2.450  0.1109 -1.4247  0.8739
 4026SOL     OW23536   2.792   3.086   7.318  0.4538 -0.1183 -0.1876
 4026SOL    HW123537   2.882   3.116   7.334 -0.6643  2.1587  1.7529
 4026SOL    HW223538   2.778   3.114   7.228  2.0235  1.1820 -0.0136
 4027SOL     OW23539   1.687   0.013   7.222  0.1735 -0.4774  0.0685
 4027SOL    HW123540   1.695   0.025   7.127 -2.8526 -2.6134 -0.4516
 4027SOL    HW223541   1.658   0.103   7.238 -0.6866 -0.7586  0.0958
 4028SOL     OW23542   2.231   1.723   3.696 -0.2568 -0.0226  0.3304
 4028SOL    HW123543   2.279   1.804   3.713  0.5029  0.0324 -2.1193
 4028SOL    HW223544   2.278   1.692   3.619  1.4953  0.5716  1.1691
 4029SOL     OW23545   3.795   0.387   7.913 -0.6045 -0.2808  0.4552
 4029SOL    HW123546   3.710   0.367   7.871 -0.2200 -1.7026  0.3503
 4029SOL    HW223547   3.803   0.309   7.968 -2.0988 -0.2653  0.7027
 4030SOL     OW23548   1.137   3.506   1.951  0.0995 -0.3001 -0.3406
 4030SOL    HW123549   1.071   3.514   2.020 -1.3249  0.8504 -1.8512
 4030SOL    HW223550   1.199   3.576   1.970  0.5356 -1.1588  1.4226
 4031SOL     OW23551   3.847   2.831  16.967  0.0535  0.1796 -0.3075
 4031SOL    HW123552   3.805   2.914  16.943 -1.4967 -0.9500 -1.5194
 4031SOL    HW223553   3.938   2.844  16.939  0.2198 -1.1364 -0.3536
 4032SOL     OW23554   1.818   0.056   3.514  0.0538  0.1918 -0.2275
 4032SOL    HW123555   1.755   4.712   3.544  2.1994 -1.5401  0.5522
 4032SOL    HW223556   1.828   0.111   3.591 -1.1880 -1.9012  1.4294
 4033SOL     OW23557   4.393   2.938   3.000  0.0309  0.7307  0.1415
 4033SOL    HW123558   4.409   2.871   3.067  1.8339 -0.4602 -1.4737
 4033SOL    HW223559   4.388   3.016   3.054  0.0255  1.9695 -1.6386
 4034SOL     OW23560   1.139   4.119   1.334  0.1306 -0.1273  0.4281
 4034SOL    HW123561   1.122   4.170   1.413  0.0273  0.2477  0.1612
 4034SOL    HW223562   1.155   4.190   1.273 -1.0191 -1.2993 -1.2338
 4035SOL     OW23563   1.030   3.407   1.069  0.5735 -0.3650 -0.1535
 4035SOL    HW123564   0.987   3.460   1.002 -0.2911  1.3876  1.7957
 4035SOL    HW223565   1.122   3.427   1.051  0.6744  0.9595  1.7684
 4036SOL     OW23566   3.537   0.387   8.845  0.0822 -0.1054  0.1631
 4036SOL    HW123567   3.473   0.318   8.829  0.0808 -0.2132  0.6527
 4036SOL    HW223568   3.616   0.346   8.810 -1.3181 -2.1961 -0.5155
 4037SOL     OW23569   0.422   3.843   0.918  0.4812  0.6630 -0.1860
 4037SOL    HW123570   0.418   3.783   0.992 -2.4732 -0.3921 -1.1960
 4037SOL    HW223571   0.349   3.814   0.864 -1.5981 -1.9157  4.0175
 4038SOL     OW23572   4.646   1.334   4.541  0.3880 -0.1340  0.2346
 4038SOL    HW123573   4.647   1.399   4.470 -0.5577  0.9504  1.2164
 4038SOL    HW223574   0.015   1.327   4.573 -0.0907 -0.7546  1.4164
 4039SOL     OW23575   4.710   0.804   2.828  0.3687 -0.2589 -0.3703
 4039SOL    HW123576   0.022   0.893   2.814 -2.2544  1.1380  2.2741
 4039SOL    HW223577   0.066   0.768   2.873  1.1996  3.3557  1.1552
 4040SOL     OW23578   3.295   3.736   7.498  0.3244  0.0438 -0.1307
 4040SOL    HW123579   3.346   3.657   7.481 -0.0070  0.0340 -1.0746
 4040SOL    HW223580   3.320   3.793   7.425  0.3202 -0.6540 -0.6759
 4041SOL     OW23581   4.600   3.269   9.789  0.0085  0.4025  0.0780
 4041SOL    HW123582   4.642   3.187   9.762  0.3589  0.6313 -0.0726
 4041SOL    HW223583   4.525   3.237   9.840  0.4945  0.9367  1.1173
 4042SOL     OW23584   2.346   2.520   6.957 -0.5551 -0.0369  0.5840
 4042SOL    HW123585   2.351   2.499   6.864  2.0462 -0.5730  0.8509
 4042SOL    HW223586   2.267   2.473   6.984 -0.4027  0.2022  1.4398
 4043SOL     OW23587   1.231   3.982  10.725 -0.0004  0.4498  0.0167
 4043SOL    HW123588   1.230   3.887  10.738  1.2056  0.3182 -0.7837
 4043SOL    HW223589   1.303   4.013  10.779 -1.3410 -0.0250  2.0496
 4044SOL     OW23590   3.163   3.128   4.869 -0.8317 -0.7067 -0.5355
 4044SOL    HW123591   3.125   3.057   4.921 -0.6928  1.3377  2.3598
 4044SOL    HW223592   3.226   3.170   4.927 -0.4320 -3.8405  1.3172
 4045SOL     OW23593   1.842   2.453   7.504 -0.0107  0.2505  0.0605
 4045SOL    HW123594   1.792   2.442   7.585  1.1210 -1.5488  0.4915
 4045SOL    HW223595   1.901   2.378   7.508  0.0694  0.4391  2.5590
 4046SOL     OW23596   3.431   1.956   6.374 -0.2191  0.2862  0.0021
 4046SOL    HW123597   3.410   1.901   6.449 -0.8359  0.0081 -0.3782
 4046SOL    HW223598   3.473   1.898   6.311 -2.7363 -0.4599 -0.9918
 4047SOL     OW23599   4.204   1.400   9.426 -0.8282  0.4894 -0.0968
 4047SOL    HW123600   4.121   1.414   9.471 -0.7245  2.1952 -0.4315
 4047SOL    HW223601   4.245   1.329   9.476 -3.0247 -0.2866  0.5954
 4048SOL     OW23602   2.050   2.293   8.474 -0.0929  0.4036 -0.5789
 4048SOL    HW123603   2.011   2.208   8.492  0.9068  0.0810  0.0866
 4048SOL    HW223604   1.978   2.339   8.432 -0.1529  2.5102  1.9022
 4049SOL     OW23605   1.890   0.971   2.701 -0.0857 -0.4812  0.0451
 4049SOL    HW123606   1.883   1.061   2.670 -1.1965 -0.4388  0.4204
 4049SOL    HW223607   1.808   0.939   2.663  0.7240 -1.3715 -0.9507
 4050SOL     OW23608   1.050   4.435   4.400 -0.2950 -0.3579  0.6159
 4050SOL    HW123609   1.103   4.465   4.327  1.4369  0.6387  2.2621
 4050SOL    HW223610   0.977   4.496   4.410  0.5937  0.8160 -0.1345
 4051SOL     OW23611   0.646   4.721   2.115  0.3979 -0.1175  0.5277
 4051SOL    HW123612   0.690   0.036   2.037 -0.3809 -1.7315 -0.6588
 4051SOL    HW223613   0.710   4.712   2.185 -1.4602 -1.6596  2.0301
 4052SOL     OW23614   3.428   1.738   6.553  0.3458 -0.2597 -0.6105
 4052SOL    HW123615   3.411   1.681   6.628  0.2461 -0.1680 -0.5629
 4052SOL    HW223616   3.488   1.801   6.591 -0.9622  1.2035 -0.9578
 4053SOL     OW23617   1.074   2.314   1.612  0.6202  0.4690  0.0138
 4053SOL    HW123618   1.109   2.294   1.699 -1.8274  1.1550  1.1581
 4053SOL    HW223619   1.121   2.394   1.588  1.6453 -0.5768 -1.4932
 4054SOL     OW23620   0.252   1.986  14.938  0.0260  0.2341  0.2848
 4054SOL    HW123621   0.164   2.024  14.946  0.0837  0.4453 -0.1109
 4054SOL    HW223622   0.267   1.973  14.845 -0.1095 -1.9057  0.5692
 4055SOL     OW23623   0.099   1.836   9.592  0.6274 -0.0137 -0.5480
 4055SOL    HW123624   0.045   1.780   9.647 -1.6933  2.7696  0.0122
 4055SOL    HW223625   0.118   1.919   9.636  1.1265 -1.9360  2.8551
 4056SOL     OW23626   1.413   1.061   4.264 -0.8641  0.1044 -0.1380
 4056SOL    HW123627   1.475   0.994   4.292 -3.7614 -0.7932  4.1166
 4056SOL    HW223628   1.337   1.033   4.314  0.2934 -2.0854  0.3848
 4057SOL     OW23629   3.941   1.484   3.931  0.6766 -0.0629 -0.1620
 4057SOL    HW123630   3.872   1.442   3.880  0.2828 -0.4707  0.7109
 4057SOL    HW223631   3.995   1.525   3.863  0.5806  0.6597  0.1928
 4058SOL     OW23632   0.201   0.279  15.389 -1.0264  0.2271 -0.2253
 4058SOL    HW123633   0.228   0.314  15.474 -0.0883 -0.0390 -0.4131
 4058SOL    HW223634   0.251   0.198  15.381  0.1112  0.8067  0.7872
 4059SOL     OW23635   0.549   3.748   7.070 -0.2167 -0.2391 -0.2920
 4059SOL    HW123636   0.575   3.741   7.161 -0.2838  0.8647 -0.1792
 4059SOL    HW223637   0.475   3.688   7.081  1.9574 -2.8279  0.0572
 4060SOL     OW23638   4.082   2.467  16.776 -0.1026 -0.3136  0.0193
 4060SOL    HW123639   4.066   2.506  16.862  0.6347  1.5114 -0.6623
 4060SOL    HW223640   4.094   2.375  16.800 -1.1178 -0.7427 -1.0753
 4061SOL     OW23641   4.527   2.085   4.871 -0.0433 -0.2068  0.7009
 4061SOL    HW123642   4.479   2.145   4.927 -1.2505  0.5401 -1.1188
 4061SOL    HW223643   4.553   2.141   4.797 -0.0940  1.1658  1.7261
 4062SOL     OW23644   1.064   1.873   5.957  0.4218  0.4374  0.4121
 4062SOL    HW123645   1.054   1.779   5.968  2.3040  0.3814  1.6058
 4062SOL    HW223646   1.143   1.872   5.902 -0.1932 -0.3116 -0.4549
 4063SOL     OW23647   3.042   3.000   5.839  0.1022  0.3405 -0.3580
 4063SOL    HW123648   3.036   2.909   5.868  0.0299  0.1820 -0.8737
 4063SOL    HW223649   3.078   2.994   5.751 -0.7399  1.0346 -0.7587
 4064SOL     OW23650   3.363   2.046   9.693 -0.4461  0.1926 -0.3566
 4064SOL    HW123651   3.456   2.062   9.681 -0.3198 -0.8596 -0.8221
 4064SOL    HW223652   3.358   1.963   9.740 -4.3273 -0.6955 -2.3128
 4065SOL     OW23653   1.042   3.255   4.876 -0.2265  0.3065 -0.8749
 4065SOL    HW123654   1.090   3.220   4.801 -0.1249 -1.8865  0.2340
 4065SOL    HW223655   1.111   3.262   4.941 -0.5693  0.8309 -0.5664
 4066SOL     OW23656   1.909   2.832   3.559 -0.0575 -0.1676 -0.2120
 4066SOL    HW123657   1.882   2.774   3.487 -1.7614  1.0751 -0.5729
 4066SOL    HW223658   1.895   2.916   3.516 -1.4272 -0.0321  0.5252
 4067SOL     OW23659   3.146   0.541   6.132 -0.7730 -0.1114 -0.2530
 4067SOL    HW123660   3.188   0.492   6.061 -2.0005 -1.0983 -0.2869
 4067SOL    HW223661   3.093   0.473   6.173  0.9849 -2.6863 -2.2705
 4068SOL     OW23662   0.681   1.168  13.947  0.1007 -0.0299  1.0541
 4068SOL    HW123663   0.762   1.131  13.910 -0.0063  0.7740  0.0040
 4068SOL    HW223664   0.612   1.116  13.905  1.1446 -0.8175  0.2973
 4069SOL     OW23665   0.614   4.052  16.816 -0.3201 -0.7977 -0.2587
 4069SOL    HW123666   0.611   3.958  16.834 -0.9427 -0.3845  1.7944
 4069SOL    HW223667   0.673   4.051  16.741  1.8912  3.5047  1.3879
 4070SOL     OW23668   1.169   4.409   3.851 -0.3019  0.1627  0.1508
 4070SOL    HW123669   1.235   4.340   3.847  0.2201  0.5503  2.2524
 4070SOL    HW223670   1.116   4.382   3.776  2.0330  1.1533 -1.8889
 4071SOL     OW23671   0.617   2.524  10.562  0.2254  0.2260  0.6147
 4071SOL    HW123672   0.594   2.445  10.514 -0.5473  1.8891 -1.7369
 4071SOL    HW223673   0.651   2.477  10.639  2.0712  1.9729  0.8590
 4072SOL     OW23674   1.363   0.503   5.801  0.3820  0.1877  0.1759
 4072SOL    HW123675   1.403   0.565   5.740  0.3672  0.2345  0.2142
 4072SOL    HW223676   1.283   0.490   5.749  0.6049 -2.3460  0.4586
 4073SOL     OW23677   0.225   3.125  14.424 -0.1189 -0.4798 -0.2675
 4073SOL    HW123678   0.272   3.049  14.459  1.7207  0.4474 -0.7015
 4073SOL    HW223679   0.299   3.180  14.397  1.0681 -1.9442  0.0532
 4074SOL     OW23680   0.256   1.948   9.312  0.1826 -0.5729  0.3232
 4074SOL    HW123681   0.175   1.907   9.281  0.7214 -0.7825 -0.7820
 4074SOL    HW223682   0.226   2.015   9.374  1.0657 -0.0342  0.1651
 4075SOL     OW23683   3.636   2.858   0.156 -0.5370 -0.3621  0.2563
 4075SOL    HW123684   3.605   2.774   0.190  3.3801 -1.9940 -0.0977
 4075SOL    HW223685   3.656   2.896   0.242  0.0978 -0.2731  0.0721
 4076SOL     OW23686   1.912   1.312   9.153 -0.2411  0.0834 -0.9734
 4076SOL    HW123687   1.933   1.406   9.159 -0.6770  0.0339  1.1378
 4076SOL    HW223688   1.984   1.290   9.095  0.8775  2.2874 -0.4513
 4077SOL     OW23689   1.678   2.747  15.822 -0.4993  0.0987 -0.6736
 4077SOL    HW123690   1.757   2.695  15.814 -2.1440 -3.0634  3.8040
 4077SOL    HW223691   1.629   2.705  15.892 -1.2313  1.6202 -0.2520
 4078SOL     OW23692   3.088   4.295   7.323 -0.0603 -0.2256 -0.9381
 4078SOL    HW123693   3.095   4.213   7.275  1.7244 -0.4513 -0.3073
 4078SOL    HW223694   3.174   4.330   7.300 -0.9917  2.6754 -0.0086
 4079SOL     OW23695   3.640   3.860   8.391 -0.0580  0.1745  0.0582
 4079SOL    HW123696   3.680   3.912   8.460 -0.3275 -1.0952  1.1798
 4079SOL    HW223697   3.576   3.926   8.363 -2.0169 -2.1422 -0.9722
 4080SOL     OW23698   1.937   2.247   0.849  0.1523  0.2224  0.0187
 4080SOL    HW123699   1.931   2.255   0.944 -0.2119 -1.4382  0.1260
 4080SOL    HW223700   1.896   2.161   0.847  1.6597 -0.4831 -0.3865
 4081SOL     OW23701   1.468   2.363   7.582 -0.2694 -0.3564 -0.3492
 4081SOL    HW123702   1.540   2.321   7.629 -0.0109 -0.0493 -0.4786
 4081SOL    HW223703   1.512   2.445   7.561 -1.0906  0.2820  0.4594
 4082SOL     OW23704   4.522   1.048   0.905 -0.0451 -0.7876 -0.2034
 4082SOL    HW123705   4.477   0.989   0.966  1.4385  0.2058  1.8602
 4082SOL    HW223706   4.549   1.110   0.973  0.3352 -1.5933  0.3924
 4083SOL     OW23707   4.162   1.012   7.326  0.3568 -0.3933  0.9992
 4083SOL    HW123708   4.135   1.032   7.236  1.3269  0.0701  0.8088
 4083SOL    HW223709   4.189   0.920   7.327  0.2725 -0.4432 -1.0062
 4084SOL     OW23710   3.129   1.744   8.205 -0.0714  0.1323 -0.4774
 4084SOL    HW123711   3.057   1.701   8.158  0.8543  1.2857 -2.9432
 4084SOL    HW223712   3.118   1.831   8.168  0.2533  0.2121 -0.3848
 4085SOL     OW23713   1.737   2.363  15.181  0.8137  0.4616 -0.4085
 4085SOL    HW123714   1.745   2.267  15.175 -0.8740  0.1893  1.8439
 4085SOL    HW223715   1.830   2.386  15.170  0.8722 -0.1539 -1.2231
 4086SOL     OW23716   1.120   0.308   6.942 -0.3586  0.0004  0.3175
 4086SOL    HW123717   1.179   0.280   7.012  1.9893  2.5541 -0.6421
 4086SOL    HW223718   1.129   0.403   6.938 -0.7742  0.0318  0.0652
 4087SOL     OW23719   4.293   0.106   5.528  0.0742  0.4350 -0.3470
 4087SOL    HW123720   4.234   0.050   5.577  0.9891  0.5055  0.8289
 4087SOL    HW223721   4.233   0.148   5.467 -1.7929 -1.0897  0.4304
 4088SOL     OW23722   0.985   4.394   4.970 -0.4351  0.0530  0.0769
 4088SOL    HW123723   0.919   4.325   4.977  1.1444 -1.2278  2.3665
 4088SOL    HW223724   1.040   4.357   4.901 -0.4266  1.4006 -0.6413
 4089SOL     OW23725   1.381   2.937   8.125  0.2352 -0.0879 -0.1632
 4089SOL    HW123726   1.401   3.016   8.175 -1.5953  0.5310 -0.4050
 4089SOL    HW223727   1.308   2.899   8.174  1.5692 -1.8063  0.4945
 4090SOL     OW23728   2.500   2.887   3.146 -0.1552 -0.2161  0.1432
 4090SOL    HW123729   2.477   2.948   3.217 -1.5500 -2.7076  1.8106
 4090SOL    HW223730   2.499   2.800   3.184 -0.4977  1.3365  3.7146
 4091SOL     OW23731   2.775   2.191  16.540 -0.2428  0.3652 -0.0128
 4091SOL    HW123732   2.836   2.222  16.473 -0.5562  1.8105  0.3772
 4091SOL    HW223733   2.729   2.271  16.566 -1.3507 -0.5700  0.8835
 4092SOL     OW23734   1.212   0.866   6.012  0.6273 -0.4199  0.4148
 4092SOL    HW123735   1.131   0.815   6.001  1.7496 -2.8853  3.6766
 4092SOL    HW223736   1.193   0.930   6.080 -0.6149 -1.5260  1.1053
 4093SOL     OW23737   4.709   0.705  16.644 -0.2098  0.1226 -0.5734
 4093SOL    HW123738   4.684   0.613  16.654  0.0271  0.2382  1.1368
 4093SOL    HW223739   4.638   0.737  16.698 -0.0878 -1.7199  0.6682
 4094SOL     OW23740   0.292   1.432   8.650  0.0033 -0.1640  0.0636
 4094SOL    HW123741   0.278   1.519   8.613 -0.1601 -0.1281  0.2091
 4094SOL    HW223742   0.387   1.429   8.644 -0.1764 -0.5814 -2.6716
 4095SOL     OW23743   2.545   1.184   7.460 -0.0477  0.0076 -0.1945
 4095SOL    HW123744   2.559   1.243   7.385 -1.3415  1.5722  0.7975
 4095SOL    HW223745   2.509   1.105   7.419  0.2878 -0.8229  1.1309
 4096SOL     OW23746   3.442   4.073   4.573  0.1776  0.0451  0.0933
 4096SOL    HW123747   3.510   4.138   4.556 -0.7499  0.3842 -2.3519
 4096SOL    HW223748   3.421   4.090   4.664  2.6297  0.6821  0.5348
 4097SOL     OW23749   1.815   3.880   6.745  0.4649  0.0372  0.3147
 4097SOL    HW123750   1.901   3.909   6.774  1.0761 -2.2528  0.8485
 4097SOL    HW223751   1.782   3.823   6.815 -1.3819 -0.3221 -0.8369
 4098SOL     OW23752   0.038   0.791  15.931 -0.2069 -0.0969 -0.6436
 4098SOL    HW123753   4.703   0.831  15.864 -2.4160 -1.6219  0.2851
 4098SOL    HW223754   0.097   0.739  15.877 -0.2003  0.0293 -0.7589
 4099SOL     OW23755   1.521   1.043   7.497  0.1241  0.2642 -0.0532
 4099SOL    HW123756   1.443   1.056   7.551  0.8697  2.1254  0.5908
 4099SOL    HW223757   1.538   0.950   7.513 -1.3036  0.1753  0.8835
 4100SOL     OW23758   2.606   0.121   6.665  0.0584 -0.6471  0.0219
 4100SOL    HW123759   2.597   0.195   6.725 -0.1324 -0.9292  0.3403
 4100SOL    HW223760   2.688   0.138   6.619 -0.5559 -0.5501 -1.0425
 4101SOL     OW23761   4.536   2.902   3.742 -0.0682  0.2662 -0.0760
 4101SOL    HW123762   4.453   2.949   3.738 -0.7015 -0.9293 -1.1340
 4101SOL    HW223763   4.558   2.888   3.650  2.5198  2.4782  0.2356
 4102SOL     OW23764   2.771   0.153  16.701 -0.7953 -0.6704  0.1714
 4102SOL    HW123765   2.688   0.131  16.745 -0.1547 -1.3593  1.0342
 4102SOL    HW223766   2.778   0.086  16.633 -1.7171 -1.1970  0.5818
 4103SOL     OW23767   1.212   2.654   8.536  0.0163  0.4842 -0.2552
 4103SOL    HW123768   1.145   2.588   8.522  1.7931 -1.2209 -0.7274
 4103SOL    HW223769   1.188   2.731   8.485 -0.8135 -1.0690 -2.2130
 4104SOL     OW23770   1.931   2.743   3.094 -0.1643 -0.2761 -0.3184
 4104SOL    HW123771   1.904   2.653   3.078 -3.3847  0.4559  0.9840
 4104SOL    HW223772   1.862   2.777   3.150  0.2159 -2.3638  1.4195
 4105SOL     OW23773   4.585   0.519   5.628  1.0525  0.4505 -0.1330
 4105SOL    HW123774   4.651   0.587   5.642  0.7172  0.7043  0.1928
 4105SOL    HW223775   4.501   0.555   5.655  0.0538 -1.5763 -0.5519
 4106SOL     OW23776   2.508   1.292  14.898  0.0667  0.0193  0.1193
 4106SOL    HW123777   2.416   1.317  14.909  0.1861 -0.0070  1.1512
 4106SOL    HW223778   2.526   1.263  14.987  0.5402 -0.2698 -0.0680
 4107SOL     OW23779   1.375   1.964   5.436  0.3449 -0.4411  0.6095
 4107SOL    HW123780   1.380   1.888   5.493 -1.0539 -0.5499  0.5784
 4107SOL    HW223781   1.390   1.917   5.354  1.7439 -0.6570  0.9798
 4108SOL     OW23782   2.110   3.734  12.804 -0.1920  0.3488  0.3249
 4108SOL    HW123783   2.184   3.681  12.832  0.3668  0.1714 -1.4533
 4108SOL    HW223784   2.106   3.803  12.870  0.7285  0.6752  0.0526
 4109SOL     OW23785   4.343   3.332  14.490 -0.1774 -0.6976 -0.2153
 4109SOL    HW123786   4.313   3.417  14.522  0.6190  0.6086 -2.8649
 4109SOL    HW223787   4.418   3.307  14.544  1.7462  0.3659 -2.3777
 4110SOL     OW23788   3.931   1.745   4.615 -0.2199  0.3760 -0.3613
 4110SOL    HW123789   4.011   1.775   4.659  1.0362 -2.6140 -0.5745
 4110SOL    HW223790   3.865   1.788   4.669 -2.0223 -0.2069 -2.1358
 4111SOL     OW23791   1.272   3.065   2.351 -0.4853 -0.2692 -0.2100
 4111SOL    HW123792   1.296   2.972   2.357  2.6117  0.5004 -0.5337
 4111SOL    HW223793   1.224   3.079   2.433 -2.6304  0.5025 -1.6003
 4112SOL     OW23794   1.285   0.622  15.068 -0.1948 -0.3262  0.8308
 4112SOL    HW123795   1.374   0.589  15.078  1.1308  2.4524 -1.7485
 4112SOL    HW223796   1.305   0.709  15.033 -0.7399  0.1236  1.6263
 4113SOL     OW23797   3.107   1.004  13.326 -0.2765 -0.3748  0.0353
 4113SOL    HW123798   3.123   0.942  13.397  1.2116  1.6414  1.4339
 4113SOL    HW223799   3.055   1.069  13.373  1.3149  0.2558  0.9244
 4114SOL     OW23800   2.771   0.549   4.826  0.4645 -0.2918 -0.0336
 4114SOL    HW123801   2.722   0.624   4.861 -2.2360 -0.9883 -2.2703
 4114SOL    HW223802   2.727   0.535   4.742 -1.1247 -0.1681  0.7660
 4115SOL     OW23803   3.125   2.094   2.836 -0.1972  0.4098  0.4584
 4115SOL    HW123804   3.162   2.067   2.920 -0.4938 -1.2134  0.0742
 4115SOL    HW223805   3.121   2.010   2.791  0.0300  0.1656  0.8924
 4116SOL     OW23806   4.191   0.773   2.509  0.4982  0.1907 -0.5749
 4116SOL    HW123807   4.243   0.844   2.547  0.5507  0.9738 -2.1106
 4116SOL    HW223808   4.121   0.828   2.474 -1.0394 -1.0339  0.5613
 4117SOL     OW23809   0.942   1.640  16.195 -0.0973  0.9786  0.4646
 4117SOL    HW123810   0.911   1.722  16.158 -0.1042  0.7635 -0.0041
 4117SOL    HW223811   0.920   1.577  16.126 -1.3087 -0.1110  1.8285
 4118SOL     OW23812   0.973   0.717   8.653  0.3720 -0.5166 -0.3771
 4118SOL    HW123813   0.955   0.789   8.713  0.5437 -0.7628 -0.0305
 4118SOL    HW223814   0.979   0.767   8.572  0.8134 -1.0152 -0.6527
 4119SOL     OW23815   3.045   2.294  13.786  0.1532  0.0573  0.0591
 4119SOL    HW123816   3.049   2.389  13.785 -0.1669  0.0660 -0.4531
 4119SOL    HW223817   2.982   2.287  13.858 -1.0741 -3.0158 -1.2618
 4120SOL     OW23818   3.075   0.559   0.529  0.2984 -0.1439  0.1335
 4120SOL    HW123819   3.146   0.502   0.558 -1.8521 -2.0340  1.7107
 4120SOL    HW223820   3.008   0.492   0.542  0.5631 -0.2713  0.8488
 4121SOL     OW23821   2.418   4.558  12.672 -1.1066 -0.5646  0.0410
 4121SOL    HW123822   2.382   4.470  12.681  2.3573 -2.3475 -3.2351
 4121SOL    HW223823   2.345   4.597  12.624 -1.7958 -0.1099  1.4787
 4122SOL     OW23824   2.395   0.358   2.455 -0.2834 -0.2512  0.1150
 4122SOL    HW123825   2.302   0.380   2.455 -0.1324  0.3781  0.4699
 4122SOL    HW223826   2.442   0.433   2.420 -0.2980 -0.8436 -1.1888
 4123SOL     OW23827   0.159   2.564   8.365  0.3383 -0.2179 -0.2089
 4123SOL    HW123828   0.166   2.546   8.459 -0.8905 -0.0287 -0.0798
 4123SOL    HW223829   0.248   2.549   8.331 -0.8290 -0.1281 -3.2495
 4124SOL     OW23830   1.878   2.153   4.918 -0.3063  0.0492  0.0369
 4124SOL    HW123831   1.785   2.167   4.937 -0.0465 -0.0403  1.3587
 4124SOL    HW223832   1.915   2.127   5.002  0.7074 -0.2909 -0.5106
 4125SOL     OW23833   0.809   1.471   6.764 -0.7607 -0.2964 -0.2568
 4125SOL    HW123834   0.714   1.485   6.768 -0.5876  0.3970  1.3733
 4125SOL    HW223835   0.809   1.419   6.684  0.0864  0.0490 -0.4759
 4126SOL     OW23836   0.590   1.595   6.313  0.3302  0.1742  0.6155
 4126SOL    HW123837   0.536   1.673   6.327 -0.2509  0.3242 -2.6656
 4126SOL    HW223838   0.624   1.608   6.225  0.6678  2.3642  1.0690
 4127SOL     OW23839   1.457   3.559  16.615  0.3895 -0.3442  0.0965
 4127SOL    HW123840   1.424   3.581  16.528  3.1973 -0.9425 -1.1169
 4127SOL    HW223841   1.409   3.480  16.641 -0.9592  0.5006  0.1596
 4128SOL     OW23842   1.684   2.654   5.081 -0.2768 -0.3405  0.2144
 4128SOL    HW123843   1.688   2.693   4.994 -0.5750 -1.1362 -0.1596
 4128SOL    HW223844   1.769   2.683   5.116  1.3289  1.9582 -5.6807
 4129SOL     OW23845   0.317   1.208   5.912 -0.9814  0.0909  0.4223
 4129SOL    HW123846   0.378   1.282   5.910 -0.4763 -0.2983  1.3458
 4129SOL    HW223847   0.247   1.214   5.847  0.6719  0.4823 -1.3602
 4130SOL     OW23848   3.600   0.575   3.092  1.5083 -0.2256  0.0219
 4130SOL    HW123849   3.642   0.512   3.035 -2.7549 -1.7459 -1.4410
 4130SOL    HW223850   3.659   0.575   3.167  0.4889 -2.8644  0.8243
 4131SOL     OW23851   1.671   3.931  14.232  0.1322 -0.4850  0.3186
 4131SOL    HW123852   1.687   3.877  14.155  0.9005 -1.2471  1.0054
 4131SOL    HW223853   1.710   4.011  14.198 -1.3157 -0.2136 -0.6909
 4132SOL     OW23854   4.375   2.809  17.096 -0.6409  0.8956  0.4535
 4132SOL    HW123855   4.400   2.845  17.180 -0.7519  0.0528  0.8453
 4132SOL    HW223856   4.448   2.839  17.041 -0.9724  0.9105  0.0175
 4133SOL     OW23857   4.690   0.568   3.135  0.0870  0.4287 -0.0405
 4133SOL    HW123858   4.639   0.553   3.055 -1.2682  2.8525  0.3667
 4133SOL    HW223859   0.035   0.628   3.101 -0.8155  2.1003  1.0962
 4134SOL     OW23860   2.163   2.966   5.919  0.6078  0.0818 -0.0128
 4134SOL    HW123861   2.104   2.895   5.892  0.8133  0.3073 -1.0649
 4134SOL    HW223862   2.183   3.013   5.838  2.7803 -1.8464 -0.6023
 4135SOL     OW23863   1.184   2.413   1.319 -0.4684  0.3025 -0.2077
 4135SOL    HW123864   1.253   2.466   1.279  0.0931  0.8218  1.4743
 4135SOL    HW223865   1.175   2.465   1.399  2.2598  0.9541 -0.3278
 4136SOL     OW23866   2.970   1.490   9.279  0.8943 -0.2017 -0.3671
 4136SOL    HW123867   2.952   1.427   9.349 -0.2315  0.3920 -0.1020
 4136SOL    HW223868   3.053   1.461   9.241  1.5116  1.3690 -0.2353
 4137SOL     OW23869   0.159   2.846   4.831 -0.1845  0.1603  0.2716
 4137SOL    HW123870   0.223   2.902   4.786 -1.5938  0.5182 -1.3173
 4137SOL    HW223871   0.164   2.762   4.785 -2.0782  0.8459 -1.1728
 4138SOL     OW23872   3.670   1.715  16.547 -0.3088 -0.4154 -0.3210
 4138SOL    HW123873   3.718   1.716  16.464  1.6423 -1.8845  0.8017
 4138SOL    HW223874   3.601   1.776  16.519 -0.4308 -0.4523 -0.0979
 4139SOL     OW23875   0.360   0.924   3.379  0.1341  0.4131  0.2698
 4139SOL    HW123876   0.359   1.020   3.388  0.2956  0.5267 -0.8836
 4139SOL    HW223877   0.358   0.898   3.471  2.0549 -1.9997 -0.3729
 4140SOL     OW23878   2.783   4.580   7.447 -0.5963  0.3250 -0.8019
 4140SOL    HW123879   2.865   4.540   7.476 -1.7487 -0.9830  0.6205
 4140SOL    HW223880   2.721   4.515   7.479  1.2435 -1.3909 -0.6999
 4141SOL     OW23881   2.131   3.365   5.891  0.3871 -0.5615 -0.6118
 4141SOL    HW123882   2.106   3.272   5.895 -0.1429 -0.3201  2.0575
 4141SOL    HW223883   2.225   3.353   5.885  0.8771  1.3105  3.2539
 4142SOL     OW23884   2.401   0.708   8.338  0.5155  0.3045 -0.0187
 4142SOL    HW123885   2.446   0.755   8.408  1.5113  1.6400 -1.5811
 4142SOL    HW223886   2.408   0.774   8.269 -1.1815 -0.2696 -0.7361
 4143SOL     OW23887   3.774   2.146   6.684 -0.1041  0.1011 -0.3148
 4143SOL    HW123888   3.713   2.179   6.749 -0.6601  1.5435 -1.5768
 4143SOL    HW223889   3.709   2.099   6.632 -1.0226  1.6440 -0.5408
 4144SOL     OW23890   4.238   0.178  12.488  0.3364  0.3236  0.3529
 4144SOL    HW123891   4.247   0.256  12.542 -1.9085  1.4140 -0.8693
 4144SOL    HW223892   4.246   0.109  12.553 -0.0377  0.9036  1.0090
 4145SOL     OW23893   0.985   3.781  17.376 -0.4192 -0.1038 -0.4614
 4145SOL    HW123894   1.080   3.780  17.390 -0.9864 -0.9784  3.2561
 4145SOL    HW223895   0.971   3.695  17.415  0.3373  0.6532  1.4490
 4146SOL     OW23896   2.557   3.563   3.292  0.3878  0.8961 -0.2275
 4146SOL    HW123897   2.500   3.565   3.215 -0.7871 -2.2397  0.5538
 4146SOL    HW223898   2.578   3.655   3.312  2.9553 -0.4648  3.4164
 4147SOL     OW23899   4.304   4.650   9.318  0.5667 -0.3408 -0.3130
 4147SOL    HW123900   4.379   4.590   9.313  0.9471 -0.1243  2.6109
 4147SOL    HW223901   4.236   4.597   9.359 -0.3377  1.1493  0.1162
 4148SOL     OW23902   4.531   3.138   1.486 -0.3213  0.1868 -0.1118
 4148SOL    HW123903   4.535   3.201   1.415 -1.1192  1.2467  0.7929
 4148SOL    HW223904   4.536   3.195   1.562 -1.1860 -2.8414  2.2199
 4149SOL     OW23905   0.552   3.139   9.692 -0.4136  0.3848 -0.4984
 4149SOL    HW123906   0.503   3.077   9.638 -0.0248 -0.5460  0.2371
 4149SOL    HW223907   0.554   3.078   9.766  2.1641  0.4263 -0.5216
 4150SOL     OW23908   2.261   2.676  12.826  0.0620  0.1967  0.4570
 4150SOL    HW123909   2.211   2.618  12.769  0.0400  0.7930 -0.1401
 4150SOL    HW223910   2.273   2.748  12.764  2.0672  1.7961  2.6981
 4151SOL     OW23911   4.588   1.157   8.585  0.0087 -0.7152  0.4284
 4151SOL    HW123912   4.510   1.134   8.635 -0.4032 -1.8450 -0.7615
 4151SOL    HW223913   4.562   1.177   8.495  1.1041 -2.9288 -0.3702
 4152SOL     OW23914   0.900   4.484   6.018 -0.2183 -0.1854  0.6289
 4152SOL    HW123915   0.954   4.455   5.944  1.1229 -1.6478  2.1627
 4152SOL    HW223916   0.891   4.400   6.064  2.1424 -1.1805 -0.7012
 4153SOL     OW23917   3.117   0.993   3.325 -0.7201  0.0842  0.0751
 4153SOL    HW123918   3.202   1.018   3.361  0.3440  1.9884 -3.6672
 4153SOL    HW223919   3.103   0.914   3.377 -2.2009 -0.2858 -0.8779
 4154SOL     OW23920   1.679   0.917   5.496 -0.5456 -0.2820  0.1459
 4154SOL    HW123921   1.589   0.947   5.484 -1.0721 -1.3444  1.3939
 4154SOL    HW223922   1.732   0.997   5.497 -0.5587 -0.2739  1.2447
 4155SOL     OW23923   1.216   2.589   7.105 -0.1372 -0.0077  0.0747
 4155SOL    HW123924   1.258   2.660   7.055 -1.3448 -0.4396 -1.5620
 4155SOL    HW223925   1.234   2.604   7.197  0.7384  0.4157 -0.1678
 4156SOL     OW23926   0.674   3.925  17.572  0.1679  0.2029  0.2188
 4156SOL    HW123927   0.768   3.930  17.591  0.3993 -0.3929 -0.7838
 4156SOL    HW223928   0.654   3.848  17.625  2.4591  1.3365  2.7692
 4157SOL     OW23929   2.429   4.184   7.716 -0.5094  0.2377  0.4864
 4157SOL    HW123930   2.397   4.100   7.749 -2.0172  0.9534  0.8803
 4157SOL    HW223931   2.439   4.241   7.793 -0.6947 -0.0657  0.7370
 4158SOL     OW23932   2.161   0.822   8.470 -0.8700  0.2073  0.5491
 4158SOL    HW123933   2.146   0.875   8.392  0.9611 -1.4934 -0.9607
 4158SOL    HW223934   2.166   0.736   8.427 -2.0330  0.7207 -0.6185
 4159SOL     OW23935   2.070   1.892   7.906  0.4452 -0.5814 -0.4742
 4159SOL    HW123936   2.117   1.891   7.989  0.8309  1.2295 -0.6648
 4159SOL    HW223937   1.988   1.930   7.937  0.5153 -0.5672 -0.3038
 4160SOL     OW23938   2.732   3.590   6.506 -0.0198 -0.0541 -0.7197
 4160SOL    HW123939   2.661   3.630   6.557 -0.9731 -1.9427 -0.5744
 4160SOL    HW223940   2.771   3.674   6.480  2.1634 -0.2970  1.7543
 4161SOL     OW23941   1.987   0.944   4.706 -0.3635 -0.2780 -0.2670
 4161SOL    HW123942   1.971   0.982   4.620 -1.0850  2.1540  0.9266
 4161SOL    HW223943   2.047   1.003   4.752  0.2589 -1.7967  0.8926
 4162SOL     OW23944   1.278   2.805   3.636 -0.1731  0.2961 -0.3880
 4162SOL    HW123945   1.253   2.873   3.573 -0.6611  0.2230 -0.2727
 4162SOL    HW223946   1.366   2.786   3.602 -0.1728 -0.2910 -0.0519
 4163SOL     OW23947   3.911   0.876  13.426  0.3310  0.2773 -0.6911
 4163SOL    HW123948   3.918   0.874  13.522 -0.1702 -1.5983 -0.6988
 4163SOL    HW223949   3.897   0.970  13.412  0.6920  0.4368 -0.0192
 4164SOL     OW23950   0.792   3.414   9.396  0.1825  0.4315  0.5236
 4164SOL    HW123951   0.864   3.354   9.379  1.1739  2.0976 -1.2592
 4164SOL    HW223952   0.715   3.358   9.388  1.0611 -0.1495 -4.0194
 4165SOL     OW23953   2.903   1.109  14.627 -0.4600  0.1576 -0.5093
 4165SOL    HW123954   2.952   1.184  14.596  0.6067 -1.1970 -2.0864
 4165SOL    HW223955   2.842   1.151  14.688 -2.6760 -2.3499 -0.9649
 4166SOL     OW23956   1.194   2.250   0.895  0.2723 -0.4117  0.6828
 4166SOL    HW123957   1.241   2.289   0.821 -0.9287  1.2485  0.7948
 4166SOL    HW223958   1.244   2.169   0.906 -0.1195 -0.7955 -0.3492
 4167SOL     OW23959   4.478   1.792  14.152  0.4897 -0.0013  0.5323
 4167SOL    HW123960   4.389   1.826  14.144  0.4767 -0.5008 -1.2107
 4167SOL    HW223961   4.498   1.758  14.066  0.5886  0.2367  0.4593
 4168SOL     OW23962   4.097   2.810   4.732  0.3061 -0.4676 -0.5189
 4168SOL    HW123963   4.036   2.825   4.659  0.0399  0.0865 -0.1797
 4168SOL    HW223964   4.098   2.715   4.743  1.1887 -0.1225  2.3136
 4169SOL     OW23965   2.388   3.891  11.777 -0.7195 -0.1874 -0.5087
 4169SOL    HW123966   2.456   3.947  11.813  0.1351 -1.0732 -0.7467
 4169SOL    HW223967   2.363   3.832  11.848  1.0133  0.1270  0.3581
 4170SOL     OW23968   3.514   4.075   8.703 -0.6062 -0.1130 -0.1075
 4170SOL    HW123969   3.541   4.109   8.788  1.1320 -2.2733  0.2152
 4170SOL    HW223970   3.448   4.142   8.687 -0.7976 -0.0712  0.9009
 4171SOL     OW23971   2.984   2.511  14.844 -0.2033  0.5605  0.9502
 4171SOL    HW123972   3.042   2.467  14.907  1.6763  2.7111  0.7579
 4171SOL    HW223973   2.961   2.587  14.898 -0.5553 -0.2057  1.8794
 4172SOL     OW23974   0.375   3.197   7.185  0.2003  0.0562 -0.0533
 4172SOL    HW123975   0.440   3.236   7.127 -0.4529 -1.5095 -1.8503
 4172SOL    HW223976   0.415   3.110   7.190 -0.5370 -0.2347  0.8725
 4173SOL     OW23977   2.740   3.431   7.448 -0.1345  0.1617  0.1137
 4173SOL    HW123978   2.822   3.400   7.486 -0.6178 -1.1243  0.1136
 4173SOL    HW223979   2.663   3.395   7.493 -0.3002  0.6016  0.1919
 4174SOL     OW23980   3.519   1.794   6.163  0.5042 -0.0618  0.1760
 4174SOL    HW123981   3.538   1.864   6.102 -0.1095 -0.5198 -0.5385
 4174SOL    HW223982   3.581   1.734   6.123 -1.2507 -1.0450 -1.1035
 4175SOL     OW23983   2.191   0.985   3.690  0.0986 -0.4878 -0.3087
 4175SOL    HW123984   2.107   0.945   3.713 -0.3300  0.0188 -0.9903
 4175SOL    HW223985   2.249   0.921   3.732 -0.8797 -2.0089 -1.2846
 4176SOL     OW23986   2.270   4.172  12.033 -0.7913 -0.0355  0.0343
 4176SOL    HW123987   2.233   4.123  12.106 -0.7964 -0.7713 -0.4596
 4176SOL    HW223988   2.252   4.254  12.079 -0.4546 -0.4427  0.8719
 4177SOL     OW23989   3.911   2.955   7.287 -0.5016 -0.0437 -0.7442
 4177SOL    HW123990   3.892   2.871   7.245 -0.3751  0.9073 -2.7196
 4177SOL    HW223991   4.006   2.944   7.293 -0.4805 -0.4437 -1.7604
 4178SOL     OW23992   3.621   0.974   9.178  0.0599 -0.2723 -0.0206
 4178SOL    HW123993   3.549   0.989   9.239  0.5455 -2.2977  1.0297
 4178SOL    HW223994   3.671   1.056   9.177 -0.9190  0.3275  0.3235
 4179SOL     OW23995   3.509   0.699   6.333  0.0896 -0.0433 -0.0208
 4179SOL    HW123996   3.447   0.771   6.322 -0.8105 -0.8622 -0.2771
 4179SOL    HW223997   3.478   0.630   6.274 -0.4529 -0.0129  0.2273
 4180SOL     OW23998   0.415   2.879   7.089 -0.8238  0.0720  1.1491
 4180SOL    HW123999   0.338   2.854   7.039  0.5620 -1.5547 -0.1316
 4180SOL    HW224000   0.400   2.836   7.173 -0.4006 -0.2847  1.0421
 4181SOL     OW24001   0.390   4.527   9.064 -0.3835  0.2989 -0.0230
 4181SOL    HW124002   0.423   4.491   9.146 -4.1489  1.9290  2.2008
 4181SOL    HW224003   0.334   4.452   9.042 -0.8296  0.2769  1.2141
 4182SOL     OW24004   1.206   1.535   3.091  0.5725  0.1615  0.2861
 4182SOL    HW124005   1.207   1.631   3.082 -0.4836  0.0730 -0.8681
 4182SOL    HW224006   1.139   1.503   3.031 -0.3067 -0.6180  1.6914
 4183SOL     OW24007   2.950   2.416   3.237 -0.6564 -0.0025  0.6846
 4183SOL    HW124008   3.011   2.370   3.293  2.1415  0.4035 -2.0213
 4183SOL    HW224009   2.968   2.367   3.157  1.5718 -1.8962  2.3615
 4184SOL     OW24010   4.005   4.023   4.938 -0.2172  0.2097  1.0028
 4184SOL    HW124011   3.968   4.101   4.897 -0.9662 -0.0547  1.1746
 4184SOL    HW224012   3.928   3.969   4.955 -2.2602  3.0858  0.8799
 4185SOL     OW24013   3.709   1.461  16.595  0.2454  0.6463  0.2638
 4185SOL    HW124014   3.710   1.549  16.560 -1.6630  0.8082  0.5857
 4185SOL    HW224015   3.715   1.474  16.690  0.9520 -3.2884  0.7810
 4186SOL     OW24016   3.142   4.688   2.317  0.0144  0.5209 -0.2536
 4186SOL    HW124017   3.077   4.633   2.361  1.5085 -0.9058  0.1398
 4186SOL    HW224018   3.074   0.003   2.260 -2.1153 -0.5137  1.6318
 4187SOL     OW24019   2.059   0.488   4.668  0.8743 -0.0807  0.0801
 4187SOL    HW124020   1.988   0.498   4.731  1.4968 -0.6815  0.8861
 4187SOL    HW224021   2.128   0.441   4.714  0.9027 -0.5008 -0.3942
 4188SOL     OW24022   2.903   4.447   9.328 -0.1791  0.1263  0.4788
 4188SOL    HW124023   2.890   4.352   9.332  1.4730 -0.0738  1.1109
 4188SOL    HW224024   2.909   4.468   9.421 -1.3026  1.9797  0.1253
 4189SOL     OW24025   1.303   0.005  15.361 -0.3287  0.1169  0.5449
 4189SOL    HW124026   1.241   0.008  15.287 -0.7869 -0.6186  0.9001
 4189SOL    HW224027   1.334   0.095  15.368 -1.5900  0.6036 -0.0400
 4190SOL     OW24028   1.410   2.815  17.039  0.1369  0.6811  0.1237
 4190SOL    HW124029   1.428   2.878  17.109  1.4506  1.0111 -0.5052
 4190SOL    HW224030   1.468   2.849  16.971 -0.2191  0.2722 -0.3796
 4191SOL     OW24031   0.079   4.638  12.546 -0.2313 -0.0550 -0.7229
 4191SOL    HW124032   0.040   4.552  12.555  1.4391 -0.7408 -0.0813
 4191SOL    HW224033   0.005   4.697  12.532  2.0284  2.9852  0.0662
 4192SOL     OW24034   3.935   1.677   2.931 -0.6190 -0.4636  0.3093
 4192SOL    HW124035   3.869   1.717   2.987 -0.1000  1.6904 -0.6285
 4192SOL    HW224036   3.891   1.614   2.874  0.7476 -0.2544 -0.9754
 4193SOL     OW24037   2.821   2.236   8.380  0.0827 -0.2257  0.3575
 4193SOL    HW124038   2.893   2.202   8.434  0.9592 -1.2067 -1.4320
 4193SOL    HW224039   2.756   2.265   8.444  1.1028 -2.8918  2.6496
 4194SOL     OW24040   1.523   4.661  15.043 -0.1972 -0.5385 -0.5440
 4194SOL    HW124041   1.526   0.016  14.985 -2.5039 -0.6560 -0.8108
 4194SOL    HW224042   1.434   4.633  15.023 -0.0725  0.0477 -1.9629
 4195SOL     OW24043   4.238   2.446   2.559  0.5805  0.0214 -0.1473
 4195SOL    HW124044   4.248   2.469   2.651  1.9864 -0.6548 -0.1341
 4195SOL    HW224045   4.292   2.368   2.544  1.6926  0.4714  1.4681
 4196SOL     OW24046   0.315   1.841   0.882 -0.7917 -0.5049  0.1459
 4196SOL    HW124047   0.372   1.892   0.939  0.9592 -2.1001 -0.1889
 4196SOL    HW224048   0.230   1.882   0.897  0.0814  1.1558  0.6130
 4197SOL     OW24049   3.413   1.881   7.935 -0.1192 -0.3772  0.2846
 4197SOL    HW124050   3.473   1.956   7.935  0.6773 -1.0091 -0.6239
 4197SOL    HW224051   3.367   1.877   8.019 -0.9654  1.6361 -0.0776
 4198SOL     OW24052   2.091   0.355  13.633 -0.0434  0.1104 -0.0826
 4198SOL    HW124053   2.152   0.325  13.699 -0.0061 -3.2333 -1.6588
 4198SOL    HW224054   2.015   0.374  13.689 -1.7060 -0.2036 -2.2002
 4199SOL     OW24055   3.185   0.173   7.345 -0.3821  0.4114 -0.4848
 4199SOL    HW124056   3.216   0.173   7.436  1.7363  0.0650 -1.2134
 4199SOL    HW224057   3.154   0.263   7.340 -1.0594  0.2788  1.1127
 4200SOL     OW24058   2.859   4.138  14.129 -0.0927 -0.5542  0.1172
 4200SOL    HW124059   2.792   4.148  14.196 -0.5003  0.1500 -0.3931
 4200SOL    HW224060   2.839   4.063  14.073  1.4138 -1.2172  0.4466
 4201SOL     OW24061   3.339   4.309   3.258 -0.1037  0.9048 -0.2629
 4201SOL    HW124062   3.345   4.254   3.337  0.0518  1.6865  0.2701
 4201SOL    HW224063   3.255   4.353   3.274 -0.7497 -1.0017  1.6415
 4202SOL     OW24064   3.384   3.695   9.066 -0.3092  0.1570  0.0163
 4202SOL    HW124065   3.316   3.667   9.004 -1.4844  0.6171  1.1145
 4202SOL    HW224066   3.368   3.789   9.070  0.0799  0.2387 -0.3756
 4203SOL     OW24067   3.096   0.808   6.079 -0.0448 -0.1625  0.5395
 4203SOL    HW124068   3.111   0.713   6.086 -0.3479 -0.2165  0.4540
 4203SOL    HW224069   3.103   0.821   5.984  1.9882 -1.2166  0.5356
 4204SOL     OW24070   1.083   2.906   1.369 -0.0975  0.2064 -0.3536
 4204SOL    HW124071   1.077   2.975   1.435  1.2474  0.7141 -0.7587
 4204SOL    HW224072   0.992   2.885   1.348  0.2655 -1.0073 -0.7008
 4205SOL     OW24073   1.045   1.539  16.430  0.0788 -0.0148 -0.3166
 4205SOL    HW124074   1.132   1.510  16.399  0.9168  1.2001  0.9152
 4205SOL    HW224075   1.000   1.562  16.349  0.0455  0.1605 -0.2486
 4206SOL     OW24076   3.508   2.785   6.935  0.1107  0.0721 -0.0181
 4206SOL    HW124077   3.542   2.709   6.982  2.3050  0.2512 -1.3156
 4206SOL    HW224078   3.516   2.840   7.013 -0.5047  0.5627 -0.2932
 4207SOL     OW24079   1.045   2.189   5.614  0.2787  0.1449  0.1404
 4207SOL    HW124080   1.066   2.096   5.605 -0.4903  0.1786 -1.8399
 4207SOL    HW224081   0.985   2.188   5.689 -3.1600  0.1626 -2.5943
 4208SOL     OW24082   3.536   3.435   3.126  0.1475 -0.0116  0.1006
 4208SOL    HW124083   3.528   3.382   3.206 -1.3528  1.2884  0.8136
 4208SOL    HW224084   3.560   3.518   3.167 -0.0502  0.3804 -0.5729
 4209SOL     OW24085   3.780   3.872   3.851  0.0954  0.6573 -0.7456
 4209SOL    HW124086   3.717   3.838   3.788 -0.6533  0.7344 -0.0334
 4209SOL    HW224087   3.833   3.928   3.794  0.5519 -0.4809 -1.4451
 4210SOL     OW24088   1.107   0.357   2.377  0.0921  0.4854  0.2430
 4210SOL    HW124089   1.194   0.389   2.404  0.5569  0.0008 -0.6823
 4210SOL    HW224090   1.130   0.285   2.318  0.4871  2.2162 -1.7260
 4211SOL     OW24091   2.454   2.695   2.280  0.4104 -0.5426 -0.8263
 4211SOL    HW124092   2.469   2.681   2.374  1.9388  1.8227 -0.7117
 4211SOL    HW224093   2.530   2.651   2.243  0.8077  1.4727 -2.4129
 4212SOL     OW24094   0.780   3.294  12.058 -0.4065 -0.5645 -0.1095
 4212SOL    HW124095   0.704   3.341  12.094 -0.0559  2.3814 -3.1906
 4212SOL    HW224096   0.734   3.250  11.987  1.5435 -0.0915 -1.6705
 4213SOL     OW24097   3.577   2.553   2.464  0.2186 -0.0370  0.4042
 4213SOL    HW124098   3.634   2.626   2.491  1.0480 -0.0646 -1.2513
 4213SOL    HW224099   3.510   2.601   2.415  0.2575 -0.2225  0.1694
 4214SOL     OW24100   0.136   1.420  13.448  0.1784  0.4424 -0.1261
 4214SOL    HW124101   0.204   1.486  13.434  3.2349 -2.2469  1.9307
 4214SOL    HW224102   0.064   1.432  13.386  1.9398  1.6381 -1.9511
 4215SOL     OW24103   3.135   2.698   0.620 -0.4781 -0.0330 -0.9149
 4215SOL    HW124104   3.211   2.665   0.668 -0.4935  1.8543  0.4072
 4215SOL    HW224105   3.096   2.613   0.597 -1.9948  1.6812 -4.7529
 4216SOL     OW24106   2.025   3.131   3.075  0.1805  0.6199  0.5026
 4216SOL    HW124107   1.937   3.098   3.055  0.7455 -0.9333  0.5862
 4216SOL    HW224108   2.088   3.061   3.055 -0.0033  0.8128 -0.7734
 4217SOL     OW24109   4.278   0.458   9.362  0.6295  0.5899 -0.3214
 4217SOL    HW124110   4.247   0.373   9.331  2.0522  0.3365 -1.0528
 4217SOL    HW224111   4.356   0.428   9.409  1.2603  2.0885 -0.4200
 4218SOL     OW24112   1.611   0.947  16.652 -0.4141  0.2054  0.0700
 4218SOL    HW124113   1.631   1.011  16.720  0.8256  0.5839 -0.6467
 4218SOL    HW224114   1.666   0.873  16.677 -0.3982 -0.0799 -0.8132
 4219SOL     OW24115   0.456   2.249  15.332  0.6005  0.2232 -0.5856
 4219SOL    HW124116   0.422   2.176  15.280 -3.0152 -0.2957  2.5292
 4219SOL    HW224117   0.379   2.262  15.387  1.4078  0.6450  0.4372
 4220SOL     OW24118   0.747   1.660   2.469  0.2893  0.0926 -0.6860
 4220SOL    HW124119   0.834   1.689   2.443 -1.0090  3.6857 -1.0388
 4220SOL    HW224120   0.731   1.599   2.397 -0.5976  0.9677 -1.2272
 4221SOL     OW24121   0.318   4.103  15.571  0.7956  0.3060  0.2577
 4221SOL    HW124122   0.394   4.053  15.599  0.3943 -1.4385 -1.7519
 4221SOL    HW224123   0.314   4.093  15.475  2.8642  0.2348  0.1839
 4222SOL     OW24124   4.400   0.687   8.579  0.4139 -0.5502 -0.0603
 4222SOL    HW124125   4.375   0.597   8.599  1.5017 -1.2792 -2.0268
 4222SOL    HW224126   4.462   0.721   8.644 -0.3926 -0.2818  0.5732
 4223SOL     OW24127   0.304   4.690  10.496 -0.1974  0.1315  0.3360
 4223SOL    HW124128   0.217   4.697  10.534 -0.4993 -0.6610 -0.2197
 4223SOL    HW224129   0.358   4.703  10.575  0.2382  0.7694 -0.0594
 4224SOL     OW24130   0.950   4.620   1.019 -0.2251  0.0736 -0.0959
 4224SOL    HW124131   0.915   4.579   1.098 -1.0203 -0.1065 -0.5435
 4224SOL    HW224132   0.890   4.693   1.012  1.3972  1.5171  1.2281
 4225SOL     OW24133   4.584   3.678   5.605 -0.0218  0.4891  0.2998
 4225SOL    HW124134   4.499   3.642   5.630  0.0350 -1.1051 -1.8250
 4225SOL    HW224135   4.627   3.593   5.599 -2.3291 -0.7066  0.5669
 4226SOL     OW24136   0.009   3.813   3.140  0.0662 -0.7101  0.3179
 4226SOL    HW124137   0.010   3.879   3.071  1.9783 -1.2673 -0.2051
 4226SOL    HW224138   4.681   3.856   3.209 -0.3780  1.1601 -1.1630
 4227SOL     OW24139   2.968   0.630  10.025  0.5129 -0.4529 -0.0212
 4227SOL    HW124140   2.996   0.715  10.058 -0.3686 -0.5384  0.9531
 4227SOL    HW224141   3.029   0.571  10.069 -1.9169 -2.4387  0.6933
 4228SOL     OW24142   2.612   1.333  13.424  0.0955  0.3695  0.6737
 4228SOL    HW124143   2.604   1.424  13.450  0.9429  0.7146 -0.2677
 4228SOL    HW224144   2.584   1.292  13.506  1.4011  2.7894  2.3264
 4229SOL     OW24145   0.212   3.137   8.461 -0.0889  0.3171  0.0968
 4229SOL    HW124146   0.294   3.173   8.496 -0.9174  1.9889  0.3439
 4229SOL    HW224147   0.199   3.197   8.387 -0.1061  1.6178  1.1405
 4230SOL     OW24148   3.954   3.312   6.436  0.4261  0.0835 -0.0630
 4230SOL    HW124149   4.048   3.310   6.421  1.1285  1.6571  4.2732
 4230SOL    HW224150   3.924   3.253   6.504 -0.9167 -0.3008 -0.9815
 4231SOL     OW24151   2.589   3.967   2.653  0.2481 -0.4746 -0.3450
 4231SOL    HW124152   2.666   3.986   2.598  1.0369 -0.1277  0.8712
 4231SOL    HW224153   2.596   3.872   2.656  0.5433 -0.4731 -0.8624
 4232SOL     OW24154   3.219   3.590   6.523 -0.2488  0.6005 -0.1295
 4232SOL    HW124155   3.206   3.570   6.616 -0.6565  0.9357 -0.1119
 4232SOL    HW224156   3.187   3.515   6.472 -2.3394  1.3094  0.1137
 4233SOL     OW24157   3.618   1.854   1.967  0.4746  0.2579 -0.4359
 4233SOL    HW124158   3.538   1.897   1.998  1.5156  1.4669  0.5336
 4233SOL    HW224159   3.578   1.770   1.941 -0.2423 -0.1504  2.0146
 4234SOL     OW24160   2.751   0.944   5.211 -0.0066 -0.2909 -0.0997
 4234SOL    HW124161   2.750   1.011   5.143  1.6917  1.0126  1.1608
 4234SOL    HW224162   2.840   0.912   5.201 -0.4473 -1.6002  0.1703
 4235SOL     OW24163   3.544   0.175   6.434  0.0856 -0.3296  0.4022
 4235SOL    HW124164   3.514   0.090   6.468  0.5081  0.1109  1.8956
 4235SOL    HW224165   3.638   0.166   6.422 -0.3151 -2.2496 -1.2175
 4236SOL     OW24166   4.112   4.265  17.166  0.0508 -0.7726 -0.8986
 4236SOL    HW124167   4.072   4.326  17.104  0.2850  0.9361  0.6214
 4236SOL    HW224168   4.134   4.323  17.239  1.3629  1.3375 -2.9772
 4237SOL     OW24169   0.766   2.227  17.173 -0.6014  0.6882 -0.1675
 4237SOL    HW124170   0.859   2.230  17.147  0.0925 -3.2157  1.8982
 4237SOL    HW224171   0.725   2.266  17.096 -2.0079 -0.3884  0.0353
 4238SOL     OW24172   4.559   2.332   9.275 -0.0967 -0.1062  0.3429
 4238SOL    HW124173   4.529   2.260   9.330  0.9999  0.1379  1.2520
 4238SOL    HW224174   4.615   2.278   9.220  1.3340  0.9086  0.8059
 4239SOL     OW24175   1.914   0.072   9.094  0.1581  0.1506  0.3601
 4239SOL    HW124176   1.881   4.705   9.110  0.6025 -0.3026 -1.2169
 4239SOL    HW224177   1.845   0.136   9.115  1.0345  0.6644  1.6796
 4240SOL     OW24178   3.210   2.954   6.907 -0.3070 -0.0136  0.0252
 4240SOL    HW124179   3.212   3.043   6.942 -3.9489 -0.5550  1.6507
 4240SOL    HW224180   3.201   2.896   6.983  0.4351 -0.1164  0.0293
 4241SOL     OW24181   0.600   0.379   0.831  0.0376  0.2836  0.0168
 4241SOL    HW124182   0.643   0.461   0.806  1.7124 -0.4554  0.4241
 4241SOL    HW224183   0.569   0.338   0.750  0.9156  0.3364 -0.3533
 4242SOL     OW24184   4.594   3.341  10.927  0.7258  0.2185  0.3905
 4242SOL    HW124185   4.635   3.404  10.986  1.3066 -0.3201  0.5681
 4242SOL    HW224186   4.565   3.272  10.987  2.3058 -2.1456 -1.5913
 4243SOL     OW24187   4.240   3.798   3.589 -0.3900  0.0335 -0.5856
 4243SOL    HW124188   4.287   3.715   3.601  2.9085  1.8319 -1.1694
 4243SOL    HW224189   4.191   3.784   3.508 -1.7612 -1.1059  0.4506
 4244SOL     OW24190   3.071   2.967   6.653 -0.6892 -0.3158 -0.7703
 4244SOL    HW124191   3.022   3.047   6.672  0.5833  0.1960  0.3096
 4244SOL    HW224192   3.130   2.966   6.729 -0.3475 -0.0966 -1.0353
 4245SOL     OW24193   2.067   4.516   4.311  0.0469  0.4642  0.2035
 4245SOL    HW124194   2.048   4.457   4.238 -2.4184 -0.2873  1.4535
 4245SOL    HW224195   2.126   4.466   4.367  0.0357  1.6882  1.2963
 4246SOL     OW24196   1.480   2.792  13.425 -0.3302 -0.0651  0.4064
 4246SOL    HW124197   1.428   2.729  13.376  0.8717  0.9197 -2.1349
 4246SOL    HW224198   1.466   2.873  13.377 -0.3140 -0.7768 -0.7973
 4247SOL     OW24199   0.785   3.460   3.973  0.0702 -0.4102  0.6889
 4247SOL    HW124200   0.700   3.416   3.978 -0.4706  0.4297 -1.1415
 4247SOL    HW224201   0.835   3.378   3.972 -0.4408 -0.7211  0.2855
 4248SOL     OW24202   0.236   0.114  15.676  0.3354 -0.4763 -0.1434
 4248SOL    HW124203   0.199   0.026  15.668 -1.9793  0.2157  2.7114
 4248SOL    HW224204   0.181   0.151  15.746  2.4326 -1.1677  1.8602
 4249SOL     OW24205   2.562   3.451   2.551  0.1698  0.9909 -0.0628
 4249SOL    HW124206   2.638   3.396   2.567 -0.0381  0.2014 -1.8940
 4249SOL    HW224207   2.485   3.394   2.562  0.5524  0.4944  0.0366
 4250SOL     OW24208   1.724   2.600  14.766  0.1921 -0.2615  0.0683
 4250SOL    HW124209   1.753   2.690  14.753 -1.7675  0.5524  1.2916
 4250SOL    HW224210   1.787   2.570  14.831 -0.6481 -1.0153  0.5294
 4251SOL     OW24211   2.094   4.290  15.274 -0.3393 -0.6755 -0.1228
 4251SOL    HW124212   2.020   4.242  15.310 -0.9320 -1.1963 -2.0484
 4251SOL    HW224213   2.160   4.242  15.324 -0.1835  0.3276  0.6530
 4252SOL     OW24214   3.720   0.364   2.669 -0.0544  0.0372 -0.2177
 4252SOL    HW124215   3.757   0.403   2.747 -1.4469  0.0518  0.4369
 4252SOL    HW224216   3.645   0.418   2.644 -0.3296 -0.7927 -1.1904
 4253SOL     OW24217   2.505   2.485  11.538 -0.3362 -0.4896  0.5181
 4253SOL    HW124218   2.508   2.391  11.552 -2.3666 -0.5713  0.4525
 4253SOL    HW224219   2.574   2.499  11.473 -0.2107 -1.0865  0.5233
 4254SOL     OW24220   3.039   2.438   1.990 -0.3457 -0.0361  0.1666
 4254SOL    HW124221   3.028   2.519   2.039  0.7080  0.6162 -0.6606
 4254SOL    HW224222   3.013   2.376   2.058 -0.8934 -0.9515 -0.8709
 4255SOL     OW24223   3.439   0.569   9.605  0.1783  0.0197 -0.3700
 4255SOL    HW124224   3.503   0.555   9.674  0.4475  0.0577 -0.6122
 4255SOL    HW224225   3.491   0.634   9.559  0.3907 -1.7056 -2.5828
 4256SOL     OW24226   1.003   3.773   7.991  0.1501 -0.2798 -0.5455
 4256SOL    HW124227   0.988   3.773   7.896 -0.8820 -0.7598 -0.3866
 4256SOL    HW224228   1.073   3.710   8.004  1.6279  1.5974  0.4166
 4257SOL     OW24229   0.845   3.671  11.263  0.0508 -0.7136 -0.4040
 4257SOL    HW124230   0.758   3.672  11.302  0.7583 -0.5490  1.1655
 4257SOL    HW224231   0.887   3.605  11.317 -1.9070 -1.1390  0.5664
 4258SOL     OW24232   0.171   1.633   9.276  0.2324  0.2068  0.3922
 4258SOL    HW124233   0.078   1.654   9.266  0.1842 -0.3582 -0.2800
 4258SOL    HW224234   0.169   1.539   9.258  0.8748 -0.3914  3.4309
 4259SOL     OW24235   1.428   4.402   6.307 -0.4206 -0.4475 -0.1656
 4259SOL    HW124236   1.509   4.360   6.337 -0.8423 -2.2936 -1.5899
 4259SOL    HW224237   1.456   4.453   6.231  1.7404  0.0221  0.9420
 4260SOL     OW24238   0.327   4.593  12.454  0.2650 -0.2255  0.5151
 4260SOL    HW124239   0.315   4.546  12.372 -2.2584  0.8904  0.2414
 4260SOL    HW224240   0.236   4.615  12.475  0.6582  0.7644  1.2095
 4261SOL     OW24241   2.238   4.211  15.014 -0.2848  0.0920 -0.5723
 4261SOL    HW124242   2.172   4.190  14.947 -0.4427 -0.6212 -0.1917
 4261SOL    HW224243   2.178   4.199  15.087  1.1996  0.6295  0.7211
 4262SOL     OW24244   4.430   2.010  13.143  0.2366  0.2175 -0.3274
 4262SOL    HW124245   4.343   2.013  13.183  1.5483  0.7634  2.4605
 4262SOL    HW224246   4.453   2.102  13.128 -0.3321 -0.0000 -2.5774
 4263SOL     OW24247   0.310   2.048  15.221  0.5171 -0.2701  0.1793
 4263SOL    HW124248   0.288   2.083  15.135  0.3680 -0.6724  0.0492
 4263SOL    HW224249   0.323   1.954  15.208  1.0495  0.0720 -1.6978
 4264SOL     OW24250   3.764   1.758  17.298 -0.4426  0.3415  0.0557
 4264SOL    HW124251   3.713   1.835  17.323 -1.8536 -0.2200 -1.0827
 4264SOL    HW224252   3.812   1.751  17.380 -0.0323 -4.4217 -0.6307
 4265SOL     OW24253   3.742   2.506   5.184 -0.4820 -0.3386  0.2574
 4265SOL    HW124254   3.651   2.476   5.188 -1.1155  1.4752 -0.4549
 4265SOL    HW224255   3.731   2.601   5.190 -0.2314 -0.2185 -1.1542
 4266SOL     OW24256   2.316   1.182   8.144  0.2131  0.4423  0.3136
 4266SOL    HW124257   2.352   1.124   8.211  1.1582  1.2330  0.4889
 4266SOL    HW224258   2.365   1.153   8.067  0.4160 -2.5446  1.5844
 4267SOL     OW24259   4.015   0.461   6.548  0.1956 -0.0946 -0.0463
 4267SOL    HW124260   3.974   0.499   6.470  0.8511 -0.8531 -0.7608
 4267SOL    HW224261   4.102   0.449   6.511  0.2909 -0.5600  0.3246
 4268SOL     OW24262   2.783   1.319  13.975  0.0431  0.1271  0.1915
 4268SOL    HW124263   2.788   1.369  13.893 -0.9952 -1.2102 -0.6763
 4268SOL    HW224264   2.783   1.231  13.937 -0.6425 -0.5975  1.9026
 4269SOL     OW24265   4.377   1.992  14.663 -0.0683 -0.3786 -0.4537
 4269SOL    HW124266   4.376   2.055  14.736 -2.6307 -1.2988  0.3097
 4269SOL    HW224267   4.321   2.036  14.599 -1.0416 -1.4572 -0.3404
 4270SOL     OW24268   3.583   0.103   3.282  0.2423 -0.4728 -0.1615
 4270SOL    HW124269   3.551   0.117   3.193 -1.9090 -2.9433  0.2222
 4270SOL    HW224270   3.625   0.184   3.310  0.0820 -0.8142  1.0744
 4271SOL     OW24271   2.287   3.398   7.137 -0.0703  0.1637 -0.2994
 4271SOL    HW124272   2.205   3.448   7.140  1.1229  1.9964  1.1580
 4271SOL    HW224273   2.304   3.429   7.225  0.8047 -0.6930 -0.1714
 4272SOL     OW24274   1.709   3.801   7.026  0.0057 -0.4578 -0.3486
 4272SOL    HW124275   1.699   3.838   7.114  2.4497  0.6259 -0.5448
 4272SOL    HW224276   1.756   3.723   7.055  0.7924  0.4868  0.9255
 4273SOL     OW24277   1.889   0.422   4.881  0.3749 -0.2362 -0.0270
 4273SOL    HW124278   1.857   0.428   4.971 -0.6049 -1.7050 -0.2797
 4273SOL    HW224279   1.842   0.341   4.861  2.1011 -0.9231 -1.3324
 4274SOL     OW24280   3.743   2.560   9.429 -0.2682 -0.5355 -0.3072
 4274SOL    HW124281   3.794   2.570   9.349 -0.9443  0.9744 -0.5463
 4274SOL    HW224282   3.783   2.623   9.489  0.4884 -1.8623  0.5807
 4275SOL     OW24283   0.909   4.665   8.254 -0.0206 -0.8073  0.0390
 4275SOL    HW124284   0.895   4.596   8.190 -0.7954  0.3510 -1.0319
 4275SOL    HW224285   0.999   4.642   8.278 -0.6661 -3.4167 -0.1130
 4276SOL     OW24286   1.914   0.810   8.115 -0.1528 -0.2121 -0.0392
 4276SOL    HW124287   1.970   0.797   8.038  2.1652  1.3971  1.3836
 4276SOL    HW224288   1.983   0.831   8.177  0.1585 -2.6992  0.4418
 4277SOL     OW24289   4.571   3.462   4.404  0.1837  0.4224 -0.3054
 4277SOL    HW124290   4.634   3.408   4.358  0.1220  0.5687 -0.5639
 4277SOL    HW224291   4.533   3.399   4.465  0.5299  1.7423  1.2636
 4278SOL     OW24292   3.705   0.568   5.551  0.9622  0.3682  0.0824
 4278SOL    HW124293   3.769   0.501   5.573 -1.4291 -1.6518  0.9822
 4278SOL    HW224294   3.628   0.543   5.603 -0.2150  0.2704 -1.6919
 4279SOL     OW24295   2.536   3.575   2.808 -0.0448  0.0516 -0.4412
 4279SOL    HW124296   2.627   3.549   2.819 -0.0466  0.1809 -0.1211
 4279SOL    HW224297   2.524   3.536   2.722  1.6856 -2.7394  0.5652
 4280SOL     OW24298   3.165   3.474   7.845  0.8557  0.1453  0.2589
 4280SOL    HW124299   3.223   3.398   7.844  0.0110 -0.4897 -0.0042
 4280SOL    HW224300   3.116   3.464   7.926 -1.3173 -0.9052 -1.1986
 4281SOL     OW24301   0.378   2.890   7.985 -0.0518 -0.3125  0.5437
 4281SOL    HW124302   0.365   2.945   7.908  0.6621  0.7081  1.1661
 4281SOL    HW224303   0.288   2.876   8.012 -0.0176 -0.8613  0.3830
 4282SOL     OW24304   0.751   3.649   2.628 -0.4255 -0.0601  0.0015
 4282SOL    HW124305   0.753   3.659   2.723  1.1525  0.8119 -0.1221
 4282SOL    HW224306   0.843   3.665   2.609 -0.7988  0.2872 -1.5358
 4283SOL     OW24307   1.747   0.736  10.500  0.2730  0.0009  0.2093
 4283SOL    HW124308   1.710   0.784  10.426  0.2586 -1.5070 -0.7557
 4283SOL    HW224309   1.832   0.778  10.513 -0.0018  0.0591  1.9035
 4284SOL     OW24310   4.647   2.873   5.727 -0.2685 -0.4259 -0.2040
 4284SOL    HW124311   4.683   2.961   5.742 -1.2522 -0.0256 -0.1490
 4284SOL    HW224312   4.569   2.903   5.680 -0.0122  0.4948 -0.0493
 4285SOL     OW24313   1.951   3.073   3.985  0.0024  0.5975  0.5527
 4285SOL    HW124314   1.886   3.041   3.922  0.2509 -1.8533  1.5285
 4285SOL    HW224315   2.004   3.128   3.928  0.5796 -1.3123 -0.7745
 4286SOL     OW24316   0.917   1.159   4.414 -0.0948 -0.3462 -0.7233
 4286SOL    HW124317   0.913   1.204   4.499  0.2596  0.0841 -0.9358
 4286SOL    HW224318   0.977   1.225   4.380 -0.2107  0.4780  0.6502
 4287SOL     OW24319   3.474   0.493   5.734 -0.1411 -0.1349  0.8067
 4287SOL    HW124320   3.398   0.491   5.676 -0.3745 -3.9306  1.2586
 4287SOL    HW224321   3.481   0.403   5.765  0.7123 -0.7949 -1.3085
 4288SOL     OW24322   0.270   3.989   4.779 -0.2797  0.1174 -0.0470
 4288SOL    HW124323   0.186   3.956   4.748  1.0366 -1.3784 -1.9753
 4288SOL    HW224324   0.237   4.045   4.850  0.3154 -0.3288  0.5792
 4289SOL     OW24325   0.595   1.951   9.761 -0.1144 -0.4627  0.2303
 4289SOL    HW124326   0.654   2.014   9.718 -0.4006 -1.0771 -1.0759
 4289SOL    HW224327   0.654   1.904   9.819  2.5759 -0.6744 -2.6754
 4290SOL     OW24328   2.598   0.162  11.975 -0.5232 -0.1060 -0.2199
 4290SOL    HW124329   2.515   0.138  12.017  1.1997 -1.6593  2.2971
 4290SOL    HW224330   2.664   0.110  12.020 -0.8994 -2.0363 -1.9081
 4291SOL     OW24331   1.492   0.401   8.136  0.4649  0.9291  0.2967
 4291SOL    HW124332   1.414   0.410   8.191 -0.1942 -0.0559 -0.4784
 4291SOL    HW224333   1.533   0.483   8.163  1.7769  1.4601 -3.2400
 4292SOL     OW24334   3.637   0.992   7.825 -0.8591 -0.1789 -0.3237
 4292SOL    HW124335   3.666   0.995   7.916 -0.5230  0.2870 -0.4424
 4292SOL    HW224336   3.713   1.017   7.772 -1.5972 -0.2626 -1.4209
 4293SOL     OW24337   0.112   1.300   9.623 -0.2781 -0.3594 -0.5834
 4293SOL    HW124338   0.024   1.264   9.608 -0.5088 -0.0344  0.0055
 4293SOL    HW224339   0.101   1.328   9.714 -0.0541 -3.1973  0.3093
 4294SOL     OW24340   1.856   4.620   5.344 -0.0794  0.3369 -0.4525
 4294SOL    HW124341   1.809   4.598   5.264 -2.4861 -0.2939  1.1287
 4294SOL    HW224342   1.949   4.614   5.320 -0.6506 -1.7009 -2.1219
 4295SOL     OW24343   2.112   0.951  17.125  0.1654  0.1646  0.0007
 4295SOL    HW124344   2.019   0.946  17.102 -0.1412  2.7054  0.6796
 4295SOL    HW224345   2.128   0.856  17.128  0.6302  0.2806  1.1942
 4296SOL     OW24346   4.261   3.200   2.764 -0.0923 -0.3335  1.0090
 4296SOL    HW124347   4.339   3.214   2.818 -0.1675 -1.2493  1.3582
 4296SOL    HW224348   4.271   3.254   2.686 -0.1062 -2.1004 -0.1970
 4297SOL     OW24349   3.932   2.444   2.148  0.1407  0.0704  0.0196
 4297SOL    HW124350   3.907   2.421   2.059  0.8317  1.5918 -0.5651
 4297SOL    HW224351   3.929   2.538   2.130 -2.9169 -0.4143 -2.0970
 4298SOL     OW24352   4.617   4.394   8.242 -0.1911  0.1490  0.3306
 4298SOL    HW124353   4.564   4.369   8.166 -0.6070  0.6788  0.4403
 4298SOL    HW224354   4.693   4.338   8.231 -0.0654  1.3435 -4.7463
 4299SOL     OW24355   3.014   0.510   4.728  0.3317 -0.1297 -0.3924
 4299SOL    HW124356   3.070   0.543   4.799  1.4366  0.8140 -1.7136
 4299SOL    HW224357   2.933   0.530   4.775  0.7227 -1.0325  0.6719
 4300SOL     OW24358   4.159   4.164   3.677  0.5458  0.0518 -0.6298
 4300SOL    HW124359   4.180   4.145   3.585 -0.3026 -3.8646 -0.0379
 4300SOL    HW224360   4.128   4.253   3.667 -1.0483 -0.7414 -2.8061
 4301SOL     OW24361   0.355   1.770  12.014  0.1282 -0.7869  0.0301
 4301SOL    HW124362   0.316   1.834  11.955  0.3976  1.1845  2.0104
 4301SOL    HW224363   0.436   1.818  12.031 -0.9614  1.5858 -1.5294
 4302SOL     OW24364   1.527   3.671  17.342  0.0603  0.4328  0.0191
 4302SOL    HW124365   1.505   3.601  17.403  2.8216 -0.1615  0.3405
 4302SOL    HW224366   1.510   3.634  17.255 -1.0913  0.0213  0.4146
 4303SOL     OW24367   0.517   3.867   2.090 -0.2614  0.0668 -0.4786
 4303SOL    HW124368   0.531   3.789   2.144  0.5592 -0.5661 -1.5900
 4303SOL    HW224369   0.426   3.860   2.062 -0.2890  0.9039 -0.5986
 4304SOL     OW24370   3.638   4.665   8.353 -0.0514 -0.3249  0.0481
 4304SOL    HW124371   3.724   4.624   8.363 -0.0215  0.1460  1.8081
 4304SOL    HW224372   3.583   4.591   8.329 -0.3261  0.4360 -1.6523
 4305SOL     OW24373   0.999   1.511   6.249  0.0476 -0.1543 -0.0161
 4305SOL    HW124374   0.991   1.416   6.261  0.9128  0.4294  4.8707
 4305SOL    HW224375   1.016   1.541   6.338 -0.7737  0.4128 -0.0494
 4306SOL     OW24376   2.750   0.042   8.653 -0.0251  0.0189 -0.2371
 4306SOL    HW124377   2.799   4.704   8.710 -0.3262 -0.2536 -0.2593
 4306SOL    HW224378   2.666   0.018   8.692  0.3523 -1.5120 -0.3518
 4307SOL     OW24379   1.539   2.209  10.250 -0.3277 -0.0796  0.1294
 4307SOL    HW124380   1.631   2.226  10.231  0.0122 -2.0076  0.1069
 4307SOL    HW224381   1.495   2.239  10.171  1.1909 -0.8096 -0.9819
 4308SOL     OW24382   2.389   4.412  15.298 -0.1501 -0.0976 -0.6075
 4308SOL    HW124383   2.371   4.320  15.280 -1.6396  0.2924 -1.1263
 4308SOL    HW224384   2.359   4.411  15.389  0.5040  1.0897 -0.3801
 4309SOL     OW24385   4.450   4.675   8.168 -0.0939 -0.2147  0.5989
 4309SOL    HW124386   4.491   4.596   8.134  1.0749  0.3428  0.7078
 4309SOL    HW224387   4.526   0.012   8.173 -0.7346  0.7205 -0.5766
 4310SOL     OW24388   3.186   4.091  17.110 -0.1809  0.6242 -0.4756
 4310SOL    HW124389   3.151   4.082  17.021 -0.2574 -0.8787 -0.2962
 4310SOL    HW224390   3.120   4.046  17.163 -0.4894 -0.5084 -1.8101
 4311SOL     OW24391   1.882   3.204  16.987  0.9741  0.0558  0.4691
 4311SOL    HW124392   1.957   3.214  16.928  0.6411  3.1907  0.5766
 4311SOL    HW224393   1.928   3.190  17.070 -0.0582  0.7223  1.1551
 4312SOL     OW24394   2.516   1.309  13.158  0.3082 -0.4429  0.3524
 4312SOL    HW124395   2.575   1.379  13.186 -0.2777  0.0932  0.2436
 4312SOL    HW224396   2.541   1.238  13.216  1.5943 -1.6294 -1.6342
 4313SOL     OW24397   3.774   1.663   5.309 -0.1232 -0.0684 -0.2483
 4313SOL    HW124398   3.842   1.596   5.305 -1.4856 -1.3219 -2.1035
 4313SOL    HW224399   3.799   1.693   5.222  0.2432 -1.0734 -0.4867
 4314SOL     OW24400   2.804   0.922  13.700  0.5792 -0.0271 -0.2416
 4314SOL    HW124401   2.748   0.911  13.624  0.7514 -1.0767 -0.2114
 4314SOL    HW224402   2.890   0.916  13.658 -0.2187 -1.4257 -1.6598
 4315SOL     OW24403   0.466   4.031   5.244 -0.3439 -0.1935 -0.3844
 4315SOL    HW124404   0.447   3.978   5.167 -1.5729  0.8304 -0.7854
 4315SOL    HW224405   0.387   4.012   5.294 -1.4363 -0.0291 -2.0475
 4316SOL     OW24406   1.516   1.530   7.218  0.3150  0.5548 -0.1966
 4316SOL    HW124407   1.490   1.622   7.225 -1.8637 -0.3045  3.5789
 4316SOL    HW224408   1.585   1.516   7.282 -0.3711  2.3036  0.9298
 4317SOL     OW24409   1.922   2.841   1.923 -0.2645  0.2785  0.1771
 4317SOL    HW124410   1.966   2.914   1.965 -0.1933 -0.0580  0.6956
 4317SOL    HW224411   1.837   2.884   1.913 -0.6595 -0.3373  0.8416
 4318SOL     OW24412   0.241   0.105   4.054  0.5573  0.5036 -0.3366
 4318SOL    HW124413   0.197   0.183   4.090  0.8553 -0.3751  1.9204
 4318SOL    HW224414   0.167   0.065   4.008 -0.8943  2.2337  0.4824
 4319SOL     OW24415   0.890   2.762   6.633 -0.2866  0.0089 -0.4109
 4319SOL    HW124416   0.822   2.750   6.699  0.3291 -0.7561  0.0821
 4319SOL    HW224417   0.844   2.807   6.562 -0.8085 -0.6942 -0.5138
 4320SOL     OW24418   1.868   3.591   8.455  0.2753  0.0502 -0.5396
 4320SOL    HW124419   1.846   3.631   8.539  1.6004 -1.9165  0.7165
 4320SOL    HW224420   1.962   3.580   8.470  0.2200 -2.1548 -1.8593
 4321SOL     OW24421   3.880   2.731   5.379  0.6129 -0.3389  0.1919
 4321SOL    HW124422   3.831   2.788   5.438  0.1617 -1.0358  0.4884
 4321SOL    HW224423   3.870   2.774   5.294 -0.2032 -1.6577 -0.3784
 4322SOL     OW24424   4.191   1.137  13.431 -0.4805 -0.1520  0.1448
 4322SOL    HW124425   4.239   1.214  13.400 -1.4376  0.1310 -0.6292
 4322SOL    HW224426   4.219   1.124  13.522  2.0627  0.0591 -0.5822
 4323SOL     OW24427   3.381   1.677   1.970  0.7688 -0.5748 -0.3630
 4323SOL    HW124428   3.322   1.603   1.954 -0.2888 -0.4383  2.8780
 4323SOL    HW224429   3.336   1.740   2.027 -0.9044 -1.0580 -1.1483
 4324SOL     OW24430   1.353   3.758   3.425  0.3593 -0.2460  0.5950
 4324SOL    HW124431   1.376   3.828   3.486 -0.0453  0.5947 -0.2235
 4324SOL    HW224432   1.376   3.794   3.339 -0.4411 -0.3433  0.3430
 4325SOL     OW24433   2.037   1.033   9.507 -0.3736 -0.6883  0.1787
 4325SOL    HW124434   2.039   1.001   9.597  0.3609 -1.0869  0.0237
 4325SOL    HW224435   2.079   0.962   9.458 -0.0827 -0.1484 -0.3559
 4326SOL     OW24436   2.430   2.076  11.121 -0.2201  0.3330 -0.1051
 4326SOL    HW124437   2.401   2.104  11.208  0.8838  1.0386  0.0417
 4326SOL    HW224438   2.494   2.146  11.108  1.1637 -0.8097  0.5290
 4327SOL     OW24439   3.687   4.476   6.795  0.0750 -0.0375 -0.0946
 4327SOL    HW124440   3.668   4.461   6.702 -0.2195  0.4975 -0.1214
 4327SOL    HW224441   3.621   4.543   6.811  0.9818  0.5458  1.2009
 4328SOL     OW24442   2.849   2.769   5.177  0.1974  0.1401  0.5002
 4328SOL    HW124443   2.755   2.765   5.188 -0.0041 -0.3929 -1.3544
 4328SOL    HW224444   2.867   2.834   5.245  3.5642 -1.1009  0.8153
 4329SOL     OW24445   1.398   1.630   9.149 -0.1652  0.4571 -0.2156
 4329SOL    HW124446   1.407   1.704   9.209 -2.0263  0.3466  0.1744
 4329SOL    HW224447   1.474   1.644   9.092  1.4653 -3.4545  1.0389
 4330SOL     OW24448   0.970   0.926   7.556  0.9681  0.3210  0.2422
 4330SOL    HW124449   0.933   1.000   7.604  0.2125 -1.8884  3.0871
 4330SOL    HW224450   1.001   0.962   7.473 -0.1646  0.3941 -0.1541
 4331SOL     OW24451   2.835   1.316   7.271 -0.3436 -0.6156  0.6282
 4331SOL    HW124452   2.858   1.316   7.364  1.6201  0.2184  0.1439
 4331SOL    HW224453   2.741   1.298   7.277 -0.5936  1.0328  1.7322
 4332SOL     OW24454   3.517   4.626   4.869  0.3428 -0.6463 -0.5283
 4332SOL    HW124455   3.524   4.718   4.843 -1.8046 -0.2725  0.2074
 4332SOL    HW224456   3.438   4.596   4.824  0.4488 -2.0952  0.2393
 4333SOL     OW24457   2.820   2.960   2.404  0.0007 -0.1473  0.6718
 4333SOL    HW124458   2.911   2.953   2.434 -0.2141 -2.8201  0.7229
 4333SOL    HW224459   2.812   2.959   2.308  1.6488 -1.4938  0.5552
 4334SOL     OW24460   2.957   1.421   6.903 -0.1402 -0.4133  0.1409
 4334SOL    HW124461   2.973   1.327   6.914 -0.4848 -0.6217 -1.2363
 4334SOL    HW224462   2.880   1.426   6.960  0.0325  1.9402  0.1648
 4335SOL     OW24463   0.556   4.655   4.877  0.4988  0.7415  0.3925
 4335SOL    HW124464   0.508   4.583   4.918  1.8398  1.1364  2.6779
 4335SOL    HW224465   0.538   4.637   4.785  2.6901 -1.7555  0.4331
 4336SOL     OW24466   2.526   2.993   8.568  0.2811  0.3921 -0.3774
 4336SOL    HW124467   2.573   3.029   8.493  1.3422  0.6007  0.3759
 4336SOL    HW224468   2.441   3.029   8.543  0.3538  2.3778  2.1266
 4337SOL     OW24469   2.388   4.129   3.947  0.1399 -0.0609 -0.4963
 4337SOL    HW124470   2.312   4.103   3.896 -1.2504 -0.4948  1.7575
 4337SOL    HW224471   2.361   4.205   3.999 -0.0863 -0.1668 -0.4599
 4338SOL     OW24472   4.144   1.203   6.068  0.0611 -0.1206 -0.0015
 4338SOL    HW124473   4.231   1.163   6.065 -1.2588 -3.0215  0.2488
 4338SOL    HW224474   4.092   1.139   6.020 -0.8629  0.8473 -0.2793
 4339SOL     OW24475   2.328   2.875  16.955 -0.3495  0.0423  0.1280
 4339SOL    HW124476   2.261   2.928  16.998  0.7595 -0.4578  2.4893
 4339SOL    HW224477   2.339   2.805  17.020  0.0898 -0.3931 -0.4174
 4340SOL     OW24478   0.226   1.265   3.864 -0.6341  0.7324  0.8048
 4340SOL    HW124479   0.176   1.346   3.857  2.0940  2.1188 -2.8638
 4340SOL    HW224480   0.305   1.298   3.908  0.2415 -1.1102  0.6072
 4341SOL     OW24481   4.454   2.078   3.434 -0.4072  0.7661 -0.9926
 4341SOL    HW124482   4.479   2.168   3.454  1.4770  0.2422 -0.9987
 4341SOL    HW224483   4.381   2.101   3.377 -0.4406  1.0479 -0.8331
 4342SOL     OW24484   2.046   0.890   6.530  0.6370  0.0157 -0.0679
 4342SOL    HW124485   1.996   0.939   6.595 -0.7245  1.1322 -1.9446
 4342SOL    HW224486   2.023   0.799   6.548  1.9763  0.1022  2.0889
 4343SOL     OW24487   4.402   4.716  16.151  0.4823 -0.0019 -0.4302
 4343SOL    HW124488   4.314   0.030  16.164 -0.4726 -1.9774 -1.5088
 4343SOL    HW224489   4.417   0.018  16.060  1.4280  1.5813  0.1226
 4344SOL     OW24490   2.695   1.777   8.208  0.4235 -0.1309  0.0488
 4344SOL    HW124491   2.608   1.748   8.236 -0.6815  0.4530 -2.8199
 4344SOL    HW224492   2.675   1.830   8.131  1.3886 -1.0170 -0.8134
 4345SOL     OW24493   2.068   4.644  17.367  0.3191 -0.1453  0.1671
 4345SOL    HW124494   2.008   4.645  17.442 -0.6157  1.2581 -0.5975
 4345SOL    HW224495   2.151   4.624  17.411  0.5507  0.9690  0.2432
 4346SOL     OW24496   4.428   1.424   4.690  0.4793 -0.1534 -0.1324
 4346SOL    HW124497   4.513   1.419   4.647 -1.7631 -0.3472 -4.5624
 4346SOL    HW224498   4.407   1.334   4.665  0.6338 -0.5759  1.2714
 4347SOL     OW24499   0.172   2.037   8.714  0.9284  0.4334 -0.1595
 4347SOL    HW124500   0.166   2.009   8.805 -0.9756 -2.1218 -1.0672
 4347SOL    HW224501   0.177   2.132   8.721 -0.6172  0.4188  0.9772
 4348SOL     OW24502   3.901   0.121   7.986  0.0914  0.1381  0.1845
 4348SOL    HW124503   3.897   0.150   8.077  2.3414  0.5351  0.1705
 4348SOL    HW224504   3.977   0.063   7.981  0.2623  0.4526 -0.9165
 4349SOL     OW24505   1.776   2.628   6.161 -0.2761 -0.1613 -0.4342
 4349SOL    HW124506   1.795   2.680   6.239  1.8576  0.1678 -1.1684
 4349SOL    HW224507   1.681   2.632   6.152 -0.1510  0.9474 -1.3649
 4350SOL     OW24508   4.185   3.231   5.537  0.3589  0.0938 -0.2394
 4350SOL    HW124509   4.166   3.244   5.630 -0.8028 -3.0745 -0.0478
 4350SOL    HW224510   4.278   3.213   5.533  0.1775 -0.6944 -1.0505
 4351SOL     OW24511   1.039   3.062   9.032  0.4048 -0.2149 -0.7050
 4351SOL    HW124512   0.953   3.020   9.029  0.2037  0.2078 -0.8248
 4351SOL    HW224513   1.051   3.061   9.127 -0.5729 -1.3552 -0.5912
 4352SOL     OW24514   1.632   1.481   4.629  0.1063  0.3921  0.0683
 4352SOL    HW124515   1.586   1.403   4.599  0.2591  0.3375 -0.0245
 4352SOL    HW224516   1.654   1.524   4.546 -0.3910  0.8448  0.1746
 4353SOL     OW24517   2.753   0.088   9.006 -0.6615 -0.4402 -0.1703
 4353SOL    HW124518   2.714   0.172   9.028  0.2418  0.4625 -2.0172
 4353SOL    HW224519   2.799   0.059   9.085  1.5497  0.8041 -0.9915
 4354SOL     OW24520   4.715   3.510   9.498  0.0591 -0.4255 -0.3246
 4354SOL    HW124521   0.009   3.515   9.592  1.4490  1.3654 -0.6456
 4354SOL    HW224522   0.048   3.582   9.465 -0.1134 -0.4234 -0.6022
 4355SOL     OW24523   0.154   4.658  12.843  0.2667  0.0862  0.2556
 4355SOL    HW124524   0.202   0.010  12.882 -0.9592  0.4542  1.0676
 4355SOL    HW224525   0.166   4.672  12.749  0.1433 -1.7417 -0.0382
 4356SOL     OW24526   2.693   1.381  15.663 -0.0521  0.0302  0.3999
 4356SOL    HW124527   2.624   1.316  15.653  0.1163  0.1045 -1.3435
 4356SOL    HW224528   2.668   1.426  15.744 -0.1823 -1.3238  1.1131
 4357SOL     OW24529   2.051   3.509   4.272  0.3063  0.6761 -0.0297
 4357SOL    HW124530   2.106   3.549   4.340  1.5421 -0.5005 -0.3345
 4357SOL    HW224531   2.123   3.479   4.216  0.5727 -1.3753  1.3979
 4358SOL     OW24532   0.681   0.865   7.450 -0.2178 -0.5085  0.4043
 4358SOL    HW124533   0.700   0.812   7.528  1.0907  0.4342  0.7326
 4358SOL    HW224534   0.596   0.829   7.427  0.4590 -1.8033 -0.0557
 4359SOL     OW24535   1.400   4.328   9.336  0.0630 -0.1537  0.2245
 4359SOL    HW124536   1.365   4.239   9.340 -0.3743 -0.0364 -1.0759
 4359SOL    HW224537   1.454   4.315   9.414  0.1225 -1.8502 -0.0966
 4360SOL     OW24538   4.679   0.388   3.367  0.5210  0.1214  0.4165
 4360SOL    HW124539   0.048   0.358   3.352  0.7365  1.6756 -1.2975
 4360SOL    HW224540   4.661   0.428   3.282  1.7087  0.5647  0.3763
 4361SOL     OW24541   0.618   2.183   2.157  0.9956  0.7032 -0.1339
 4361SOL    HW124542   0.562   2.229   2.219 -0.9063  0.6855 -1.8547
 4361SOL    HW224543   0.639   2.106   2.211  0.3511  0.5713 -0.0727
 4362SOL     OW24544   4.120   0.262   7.297  0.5358  0.1665  0.1670
 4362SOL    HW124545   4.197   0.214   7.328  0.4153 -0.0012  0.2081
 4362SOL    HW224546   4.053   0.199   7.324  1.6382 -1.2769 -0.4755
 4363SOL     OW24547   1.279   1.899   1.206 -0.2206  0.2951 -0.4334
 4363SOL    HW124548   1.344   1.843   1.249 -0.3129 -0.6737 -1.5496
 4363SOL    HW224549   1.256   1.957   1.278  0.6239  1.4308 -1.0726
 4364SOL     OW24550   3.298   0.582   9.206  0.6954 -0.4980 -0.5706
 4364SOL    HW124551   3.294   0.493   9.172 -1.2479 -0.3924 -0.6205
 4364SOL    HW224552   3.392   0.597   9.217  0.2243  2.8937 -1.0685
 4365SOL     OW24553   3.056   0.588  15.240  0.0130 -0.0694 -0.3434
 4365SOL    HW124554   3.074   0.674  15.277  1.1266  0.3317 -1.8036
 4365SOL    HW224555   2.998   0.612  15.168  0.0881  2.8296  0.5754
 4366SOL     OW24556   1.644   3.177   0.869  0.5263 -0.6779 -0.0798
 4366SOL    HW124557   1.600   3.199   0.951  0.2554  0.7979 -0.6201
 4366SOL    HW224558   1.697   3.102   0.895  4.6175  2.2930  0.2556
 4367SOL     OW24559   1.152   1.479  15.013  0.1868  0.2862  0.1275
 4367SOL    HW124560   1.085   1.467  14.945  0.1345  0.3187  0.1727
 4367SOL    HW224561   1.226   1.435  14.972  2.4410  2.8475  1.4574
 4368SOL     OW24562   3.014   2.479   5.362  0.2994 -0.1190 -0.5657
 4368SOL    HW124563   3.099   2.447   5.391 -1.3389 -3.0727  1.0014
 4368SOL    HW224564   2.999   2.531   5.440 -2.2065 -0.0231 -1.1164
 4369SOL     OW24565   2.420   4.324   3.537 -0.0289  0.0879  0.5837
 4369SOL    HW124566   2.430   4.371   3.620  0.7347  2.1449 -0.6663
 4369SOL    HW224567   2.424   4.394   3.472 -2.6652  0.2305  0.6061
 4370SOL     OW24568   0.575   0.153  14.969  0.2328  0.4512 -0.1304
 4370SOL    HW124569   0.502   0.211  14.948 -1.0284 -1.8229 -2.1149
 4370SOL    HW224570   0.530   0.092  15.027 -0.3409 -0.5567 -1.6226
 4371SOL     OW24571   2.876   3.362  14.981 -0.9696  0.0773 -0.5135
 4371SOL    HW124572   2.877   3.410  15.063 -1.1821  0.3351 -0.6629
 4371SOL    HW224573   2.886   3.427  14.912  1.8130  1.2469  0.9963
 4372SOL     OW24574   3.338   1.718   7.116  0.1496  0.3484  0.0905
 4372SOL    HW124575   3.307   1.688   7.201  0.4518 -1.2497 -0.3634
 4372SOL    HW224576   3.268   1.684   7.061  1.2285  1.0625 -1.7306
 4373SOL     OW24577   3.727   1.832   9.633 -0.1854  0.0630 -0.0130
 4373SOL    HW124578   3.755   1.763   9.693 -0.9126  0.2504  0.5413
 4373SOL    HW224579   3.815   1.863   9.611 -0.8151  2.7412  1.1782
 4374SOL     OW24580   1.118   3.683   2.842  0.3954 -0.0240  0.7447
 4374SOL    HW124581   1.205   3.724   2.846 -0.3558  1.7028 -1.0545
 4374SOL    HW224582   1.134   3.624   2.916  0.5447 -1.6609 -0.6088
 4375SOL     OW24583   3.855   2.479  16.610 -0.6145  0.0742 -0.4510
 4375SOL    HW124584   3.950   2.487  16.619 -0.6229  0.5388 -0.7718
 4375SOL    HW224585   3.822   2.529  16.685  1.7364  0.9849 -0.0148
 4376SOL     OW24586   2.129   3.630  15.289 -0.2422  0.5869  0.0742
 4376SOL    HW124587   2.038   3.603  15.304  0.1478 -1.4751 -1.2237
 4376SOL    HW224588   2.158   3.573  15.218  2.2777 -0.8240  2.2702
 4377SOL     OW24589   4.225   0.494   2.475 -0.5373  0.5126 -0.0012
 4377SOL    HW124590   4.304   0.507   2.526 -0.0203 -0.6542 -0.4967
 4377SOL    HW224591   4.204   0.586   2.459  2.0641  1.2622  0.9131
 4378SOL     OW24592   0.590   3.621   8.440  0.5263  0.0442  0.1830
 4378SOL    HW124593   0.518   3.599   8.382  0.2638  1.0407  0.1221
 4378SOL    HW224594   0.593   3.716   8.427  0.1234 -0.1677 -1.4627
 4379SOL     OW24595   0.498   2.789   6.068  0.2937 -0.4281 -0.2920
 4379SOL    HW124596   0.489   2.776   5.974 -0.2194 -1.0341 -0.1568
 4379SOL    HW224597   0.592   2.769   6.075 -0.2412 -1.7588  3.1274
 4380SOL     OW24598   3.251   0.202   3.018  0.1415 -0.8359 -0.2847
 4380SOL    HW124599   3.271   0.260   2.946 -1.5719  0.1060 -0.0096
 4380SOL    HW224600   3.244   0.267   3.088 -1.5502  2.0503 -3.1756
 4381SOL     OW24601   3.522   4.699   6.817 -0.2535  0.2470 -0.7776
 4381SOL    HW124602   3.564   0.064   6.813  1.5877 -0.5928  0.4955
 4381SOL    HW224603   3.491   4.695   6.726 -1.4884 -1.7353 -0.2739
 4382SOL     OW24604   0.961   1.230   5.519  0.2584  0.2978 -0.3079
 4382SOL    HW124605   0.996   1.214   5.607  0.1286 -0.4952 -0.4031
 4382SOL    HW224606   0.934   1.145   5.485  0.7618  0.0170 -0.0175
 4383SOL     OW24607   2.658   1.671   6.144  0.0340  0.2207 -0.1230
 4383SOL    HW124608   2.638   1.690   6.235  0.0485  0.5107 -0.1809
 4383SOL    HW224609   2.591   1.606   6.123 -1.7710  2.4587 -1.2692
 4384SOL     OW24610   3.659   3.363  12.433  0.0020  0.2378  0.4254
 4384SOL    HW124611   3.632   3.435  12.489 -0.6172  0.1920  0.1768
 4384SOL    HW224612   3.746   3.394  12.409  0.6137 -1.3847  0.4978
 4385SOL     OW24613   3.403   1.689  16.413 -0.2359  0.5614  0.7112
 4385SOL    HW124614   3.374   1.670  16.503  1.6587 -3.0572  0.5873
 4385SOL    HW224615   3.364   1.771  16.385  3.8627  1.5621 -2.0317
 4386SOL     OW24616   2.728   4.382   1.946 -0.0427 -0.2314  0.4889
 4386SOL    HW124617   2.655   4.420   1.897 -1.4116 -1.6905  1.3940
 4386SOL    HW224618   2.738   4.298   1.902 -2.2798  0.8513 -2.0824
 4387SOL     OW24619   0.560   0.028   7.189 -0.4263  0.0119  0.1670
 4387SOL    HW124620   0.636   0.076   7.157 -0.7383  0.9405  0.7863
 4387SOL    HW224621   0.558   0.062   7.279 -1.7811 -1.4418  0.6778
 4388SOL     OW24622   3.746   2.085  16.555  0.1651 -0.3796  0.3541
 4388SOL    HW124623   3.759   2.145  16.628  0.5262 -0.2571  0.1867
 4388SOL    HW224624   3.666   2.037  16.579  0.0270 -0.1527  0.3495
 4389SOL     OW24625   0.011   3.936   4.682  0.4278 -0.2360  0.2035
 4389SOL    HW124626   4.689   3.865   4.634 -0.6166  1.1491 -0.8876
 4389SOL    HW224627   4.657   3.983   4.718  0.8996  0.2607  0.5312
 4390SOL     OW24628   3.090   2.833   3.591  0.0227 -0.4894 -0.5681
 4390SOL    HW124629   3.184   2.838   3.609 -0.3562 -0.8645  1.5386
 4390SOL    HW224630   3.075   2.763   3.654  0.1411  1.0778  1.2170
 4391SOL     OW24631   1.740   1.293   3.587 -0.6119  0.3338  0.0092
 4391SOL    HW124632   1.825   1.307   3.545 -0.0215  0.5214  1.2710
 4391SOL    HW224633   1.735   1.369   3.645 -3.3153  0.2733 -0.1693
 4392SOL     OW24634   2.642   1.020   9.436 -0.3376  0.3887  0.3252
 4392SOL    HW124635   2.554   1.035   9.470 -1.5993  1.1823 -3.3006
 4392SOL    HW224636   2.635   0.928   9.409 -1.2652  0.2971  0.9006
 4393SOL     OW24637   1.051   3.597   8.908 -0.1816  0.1920 -0.1245
 4393SOL    HW124638   0.965   3.607   8.867  0.6124  0.2792 -1.7561
 4393SOL    HW224639   1.068   3.502   8.908 -0.5239  0.1306 -0.1083
 4394SOL     OW24640   1.645   1.519   5.503  0.0307 -0.1652  0.4645
 4394SOL    HW124641   1.640   1.585   5.434 -0.9939 -1.3488 -0.6053
 4394SOL    HW224642   1.727   1.547   5.542  0.1555  1.5057 -0.9659
 4395SOL     OW24643   1.398   1.017   4.852  0.3001 -0.0309  0.0393
 4395SOL    HW124644   1.415   0.953   4.783  0.2906 -0.0997  0.1014
 4395SOL    HW224645   1.480   1.063   4.865 -0.0368  0.2014  1.3302
 4396SOL     OW24646   3.672   1.419   8.332 -0.5493  0.3101 -0.3272
 4396SOL    HW124647   3.650   1.421   8.425 -2.5534 -3.4922 -0.7127
 4396SOL    HW224648   3.634   1.337   8.300 -1.6494 -0.0122  1.7917
 4397SOL     OW24649   2.513   1.142   4.218  0.5961 -0.5341  0.7450
 4397SOL    HW124650   2.448   1.087   4.262 -0.3219 -2.3094 -2.8530
 4397SOL    HW224651   2.509   1.209   4.286 -1.0986  0.7807 -0.6657
 4398SOL     OW24652   4.624   2.172   1.893 -0.2119  0.6193  0.0521
 4398SOL    HW124653   4.612   2.233   1.966  2.5906  0.0811  0.9567
 4398SOL    HW224654   4.552   2.109   1.904 -0.5908  0.7246 -1.8321
 4399SOL     OW24655   3.069   4.421   8.093  0.1550 -0.4741 -0.2288
 4399SOL    HW124656   3.165   4.414   8.089  0.1435  1.1062 -2.8179
 4399SOL    HW224657   3.044   4.483   8.025  3.4156  0.1026 -0.9038
 4400SOL     OW24658   4.377   2.809  10.663  0.4419 -0.2634  0.2384
 4400SOL    HW124659   4.431   2.805  10.741  0.7482 -1.2583 -0.0203
 4400SOL    HW224660   4.329   2.728  10.681  3.1578 -1.6511  1.2374
 4401SOL     OW24661   3.691   4.407  12.187  0.1148  0.7271  0.4571
 4401SOL    HW124662   3.640   4.432  12.264  3.1504 -0.1059  2.7318
 4401SOL    HW224663   3.666   4.316  12.176 -0.4633  0.8035  1.2051
 4402SOL     OW24664   2.298   4.167   4.572 -0.4821 -0.1085 -0.2874
 4402SOL    HW124665   2.293   4.204   4.661 -1.6230  2.2092 -1.3217
 4402SOL    HW224666   2.393   4.163   4.560 -0.3847  2.1442 -0.3693
 4403SOL     OW24667   3.761   1.673   6.552 -0.1884  0.7070  0.2241
 4403SOL    HW124668   3.726   1.610   6.489  1.5634  0.7243 -0.7754
 4403SOL    HW224669   3.853   1.656   6.531  0.6793  0.3050  4.4400
 4404SOL     OW24670   3.231   0.992  17.125  0.6369 -0.5580  0.1163
 4404SOL    HW124671   3.224   1.006  17.220 -0.0865 -0.5684  0.0635
 4404SOL    HW224672   3.148   1.028  17.093  0.1925 -0.5891  1.2098
 4405SOL     OW24673   2.558   4.037   8.140 -0.1731 -0.7105 -0.6696
 4405SOL    HW124674   2.535   3.960   8.191  0.8135 -1.6514 -1.6394
 4405SOL    HW224675   2.610   3.998   8.069 -1.4484 -0.3909 -1.7773
 4406SOL     OW24676   1.158   0.973   4.400 -0.4314  0.1959 -0.1137
 4406SOL    HW124677   1.166   0.907   4.330  1.6659  0.3843 -0.0532
 4406SOL    HW224678   1.078   1.020   4.377 -0.3033  0.4554 -0.0257
 4407SOL     OW24679   4.247   2.196   3.942 -0.0777  0.1607 -0.2063
 4407SOL    HW124680   4.240   2.157   3.856  3.1761 -1.8127  0.4222
 4407SOL    HW224681   4.192   2.132   3.987 -1.4755  0.8652 -0.9333
 4408SOL     OW24682   2.303   1.820  15.950 -0.3594  0.4855 -0.1226
 4408SOL    HW124683   2.350   1.828  15.867  0.0943  0.1065  0.0966
 4408SOL    HW224684   2.261   1.905  15.962 -1.1679  0.3953 -2.2861
 4409SOL     OW24685   1.211   4.021   0.223  0.0302  0.3560 -0.0433
 4409SOL    HW124686   1.282   3.986   0.277 -1.3040 -2.8894 -0.4577
 4409SOL    HW224687   1.210   4.110   0.259  0.1236 -0.0605  0.9936
 4410SOL     OW24688   1.162   3.517   9.966 -0.8086  0.3652 -0.1076
 4410SOL    HW124689   1.108   3.514  10.045  1.1456  0.0619  1.2378
 4410SOL    HW224690   1.119   3.441   9.927 -2.7213  0.7938  1.1741
 4411SOL     OW24691   0.808   2.500  10.901 -0.0990  0.1030  0.0477
 4411SOL    HW124692   0.856   2.557  10.840  0.4772  1.0260  1.3757
 4411SOL    HW224693   0.767   2.433  10.847  0.3765  0.1409 -0.3624
 4412SOL     OW24694   2.144   4.040   3.826 -0.3605  0.5241  0.3565
 4412SOL    HW124695   2.065   4.057   3.877 -0.2795 -0.1987  0.7382
 4412SOL    HW224696   2.129   4.101   3.755  1.3105  1.2758  0.6325
 4413SOL     OW24697   2.599   0.746   0.349  0.1607 -0.1114 -0.0254
 4413SOL    HW124698   2.617   0.840   0.361 -0.0568  0.0454 -0.8972
 4413SOL    HW224699   2.665   0.707   0.406 -0.0602 -1.4392 -0.6897
 4414SOL     OW24700   2.435   2.041   4.558  0.3089 -0.6868  0.1664
 4414SOL    HW124701   2.405   2.119   4.606  0.6475 -0.1130 -0.5409
 4414SOL    HW224702   2.372   1.978   4.593 -2.7760  1.4866 -1.3673
 4415SOL     OW24703   3.046   0.671   9.239 -0.1423  0.1960  0.2674
 4415SOL    HW124704   3.043   0.738   9.171 -0.7140  1.1315  1.2193
 4415SOL    HW224705   3.128   0.626   9.219 -0.1230  0.8261 -1.0483
 4416SOL     OW24706   4.207   3.752   3.244 -0.5343  0.0518 -0.1755
 4416SOL    HW124707   4.141   3.822   3.252 -0.0681  0.6839 -1.7643
 4416SOL    HW224708   4.144   3.688   3.210 -0.4260 -0.3026  0.3067
 4417SOL     OW24709   0.226   2.924   6.467 -0.4674 -0.1125  0.3598
 4417SOL    HW124710   0.211   3.000   6.411  0.9427 -1.1726 -1.4539
 4417SOL    HW224711   0.294   2.950   6.528 -0.7529  0.9133  0.2441
 4418SOL     OW24712   1.286   3.855   8.133 -0.0257 -0.5102 -0.3694
 4418SOL    HW124713   1.222   3.834   8.065 -2.7725  0.2095  1.9884
 4418SOL    HW224714   1.311   3.765   8.156 -1.1229 -0.2304  1.9733
 4419SOL     OW24715   0.449   2.940   9.341 -0.1959 -0.5856  0.1688
 4419SOL    HW124716   0.410   2.965   9.424  1.0742  1.7793  0.0320
 4419SOL    HW224717   0.429   2.846   9.336  0.5351 -0.8745  2.5371
 4420SOL     OW24718   4.290   3.537   3.412  0.4573 -0.4021  0.2440
 4420SOL    HW124719   4.201   3.501   3.409 -0.4879  1.9207 -0.0584
 4420SOL    HW224720   4.284   3.617   3.359 -2.9329 -0.0563  1.1228
 4421SOL     OW24721   4.415   2.129  14.370 -0.0847 -0.0789  0.5864
 4421SOL    HW124722   4.444   2.194  14.434 -1.7610  0.5946  0.6394
 4421SOL    HW224723   4.322   2.120  14.388 -0.5520 -0.0955 -1.7499
 4422SOL     OW24724   3.780   0.662   1.157  0.0513  0.4957 -0.0603
 4422SOL    HW124725   3.779   0.757   1.161 -1.1148  0.4335  1.1098
 4422SOL    HW224726   3.826   0.653   1.074  2.0604  1.9969  0.9055
 4423SOL     OW24727   0.704   0.229   2.981 -0.4622  0.4145  0.2809
 4423SOL    HW124728   0.773   0.225   2.914 -0.1675  0.8441  0.5581
 4423SOL    HW224729   0.752   0.274   3.051  2.2447 -0.6298 -0.8761
 4424SOL     OW24730   2.925   1.809   2.837 -0.3826  0.7488  0.2696
 4424SOL    HW124731   2.923   1.715   2.853  0.2120  1.0603  2.0856
 4424SOL    HW224732   2.988   1.815   2.765 -0.6662 -1.4640 -0.1611
 4425SOL     OW24733   0.730   1.386   6.062 -0.5539  0.1578 -0.6222
 4425SOL    HW124734   0.809   1.398   6.009 -0.5013 -3.7158 -1.4411
 4425SOL    HW224735   0.749   1.307   6.113 -1.2951  1.2844  1.3659
 4426SOL     OW24736   1.915   3.440   8.854 -0.6520 -1.1697 -0.1680
 4426SOL    HW124737   1.864   3.463   8.931 -0.8903  0.2832 -0.7478
 4426SOL    HW224738   2.000   3.479   8.876  0.1299 -1.8475 -1.9878
 4427SOL     OW24739   0.027   1.073   6.906  0.5477  0.1026  0.4008
 4427SOL    HW124740   0.094   1.039   6.847 -1.4831 -0.9464 -1.2788
 4427SOL    HW224741   0.079   1.141   6.949 -2.0515  1.8031  0.8368
 4428SOL     OW24742   0.792   3.836   0.344 -0.2147  0.0504  0.1312
 4428SOL    HW124743   0.717   3.782   0.369  1.2566 -2.3391 -0.6907
 4428SOL    HW224744   0.767   3.911   0.398  0.7010  1.7578 -1.8391
 4429SOL     OW24745   2.296   4.171  15.438  0.3278 -0.6076  0.3566
 4429SOL    HW124746   2.319   4.220  15.517  0.1358  0.9629 -0.5560
 4429SOL    HW224747   2.252   4.091  15.467  2.3248 -0.8921  2.5695
 4430SOL     OW24748   1.033   4.138  13.293 -0.3448 -0.0757 -0.0273
 4430SOL    HW124749   0.961   4.120  13.233  0.0886  0.0363 -0.5734
 4430SOL    HW224750   1.043   4.233  13.287 -1.5434 -0.0666 -1.6475
 4431SOL     OW24751   4.467   3.868   8.029  0.3450 -0.4414 -0.3479
 4431SOL    HW124752   4.431   3.780   8.020  1.4268 -0.4998 -4.1550
 4431SOL    HW224753   4.512   3.877   7.945 -0.0179 -0.9377 -0.5960
 4432SOL     OW24754   4.083   0.021   4.010  0.1692  0.0515 -0.5827
 4432SOL    HW124755   4.163   0.010   4.062 -0.4813  0.0743  0.4381
 4432SOL    HW224756   4.050   4.653   4.002 -3.8045  1.1782  2.9224
 4433SOL     OW24757   1.528   1.448   3.852  0.0493  0.3430 -0.0718
 4433SOL    HW124758   1.606   1.498   3.825 -0.8579  2.1633  0.6557
 4433SOL    HW224759   1.496   1.415   3.769 -1.5906  1.3171  0.1850
 4434SOL     OW24760   3.763   0.989   3.298 -0.3103  0.1677 -0.3241
 4434SOL    HW124761   3.805   0.904   3.291 -0.5704 -0.1694  2.3889
 4434SOL    HW224762   3.836   1.050   3.305 -0.1152 -0.2413  1.1007
 4435SOL     OW24763   0.953   0.028  12.955  0.3245 -0.0122 -0.7023
 4435SOL    HW124764   0.925   4.675  12.901 -0.4266 -0.6935  0.6054
 4435SOL    HW224765   0.930   0.110  12.911  1.2223  0.4227 -0.3679
 4436SOL     OW24766   4.152   0.189  15.510  0.1973  0.5510  0.0803
 4436SOL    HW124767   4.136   0.274  15.550  1.2662 -0.3897  2.5210
 4436SOL    HW224768   4.247   0.181  15.518  0.0657 -0.6093  0.4466
 4437SOL     OW24769   4.707   4.438   1.301  0.0190 -0.0675 -0.4547
 4437SOL    HW124770   0.071   4.410   1.266 -1.6942 -0.1283 -4.5207
 4437SOL    HW224771   0.008   4.484   1.383  1.0289  0.5060 -1.0425
 4438SOL     OW24772   2.906   2.073   1.804  0.3542 -0.2839 -0.1270
 4438SOL    HW124773   2.852   1.999   1.774  0.1423  0.7089 -2.2107
 4438SOL    HW224774   2.854   2.116   1.873 -0.3016 -1.1624 -0.0713
 4439SOL     OW24775   3.986   4.352   4.747 -0.0957  0.2369  0.7899
 4439SOL    HW124776   3.913   4.291   4.735 -0.8683  0.8250  2.7186
 4439SOL    HW224777   3.955   4.425   4.799  1.4613  0.7640  0.9764
 4440SOL     OW24778   2.095   0.387   2.378  0.2500 -0.1731  0.1795
 4440SOL    HW124779   2.047   0.458   2.336  0.2126  0.4482  1.2836
 4440SOL    HW224780   2.044   0.311   2.351  0.5825 -0.2665 -0.1964
 4441SOL     OW24781   0.772   3.354   0.617  0.5747  0.1793 -0.0323
 4441SOL    HW124782   0.705   3.419   0.636  0.2665  0.1332 -0.9609
 4441SOL    HW224783   0.790   3.369   0.524 -0.1625  1.1073 -0.0175
 4442SOL     OW24784   1.597   4.382   6.668  0.1833 -0.9509 -0.0945
 4442SOL    HW124785   1.687   4.413   6.677  1.4589 -4.1904 -1.7096
 4442SOL    HW224786   1.610   4.290   6.646  0.6578 -1.2629  1.5211
 4443SOL     OW24787   2.515   3.146   2.237 -0.4020  0.5968 -0.0210
 4443SOL    HW124788   2.548   3.066   2.194  1.3375  0.9127  0.7191
 4443SOL    HW224789   2.597   3.196   2.238 -1.6719  2.6136  1.0047
 4444SOL     OW24790   2.661   4.704  10.825  0.0895  0.4897  0.0210
 4444SOL    HW124791   2.659   0.057  10.765  4.0590  0.9763  0.4642
 4444SOL    HW224792   2.590   0.003  10.886  0.6188  0.0216  0.7895
 4445SOL     OW24793   1.857   0.187   1.473 -0.8092 -0.5925  0.5732
 4445SOL    HW124794   1.885   0.275   1.500  0.7177 -0.3674 -1.7124
 4445SOL    HW224795   1.908   0.135   1.535 -1.8758 -0.0633  1.8902
 4446SOL     OW24796   3.462   0.814   0.809  0.2419  0.1025  0.3920
 4446SOL    HW124797   3.429   0.760   0.737  0.1908  2.5327 -1.3997
 4446SOL    HW224798   3.393   0.788   0.871 -0.1312 -2.2218 -0.9931
 4447SOL     OW24799   3.345   1.834   5.788  0.3661 -0.0659  0.7354
 4447SOL    HW124800   3.255   1.806   5.806 -0.2044  1.0348 -0.4096
 4447SOL    HW224801   3.356   1.909   5.847 -0.6416  0.1203  0.6841
 4448SOL     OW24802   1.707   2.070   0.637 -0.2658  0.0839 -0.4031
 4448SOL    HW124803   1.745   1.995   0.592 -0.9944 -0.6724  0.2336
 4448SOL    HW224804   1.722   2.041   0.727  1.6456  0.2380 -0.6558
 4449SOL     OW24805   3.858   0.439   4.464 -0.2419 -0.0329 -0.1586
 4449SOL    HW124806   3.899   0.352   4.468  0.6445  0.2733 -2.1925
 4449SOL    HW224807   3.918   0.494   4.513  0.0785 -0.6087  0.1003
 4450SOL     OW24808   3.658   1.742   4.798 -0.1703 -0.0434  0.1823
 4450SOL    HW124809   3.628   1.825   4.835  0.9580  0.6118 -0.3703
 4450SOL    HW224810   3.601   1.680   4.842  1.4389 -1.6031  0.0636
 4451SOL     OW24811   4.291   2.993   3.622  0.1607  0.0128  0.4935
 4451SOL    HW124812   4.209   2.946   3.638 -1.0507  1.7745 -0.5939
 4451SOL    HW224813   4.269   3.074   3.577  2.0040 -0.8431 -2.0215
 4452SOL     OW24814   4.554   2.459   1.342  0.1553 -0.0133  0.1254
 4452SOL    HW124815   4.573   2.476   1.435 -0.8435 -1.1973  0.5486
 4452SOL    HW224816   4.545   2.365   1.330  1.2837 -0.0257 -0.5566
 4453SOL     OW24817   3.197   2.648   2.990 -0.5236  0.3558  0.1278
 4453SOL    HW124818   3.152   2.568   2.962  1.3455  0.1352 -2.2285
 4453SOL    HW224819   3.168   2.706   2.919 -0.7387 -3.0462 -2.5577
 4454SOL     OW24820   3.487   3.082  17.056 -0.1804 -0.2558 -0.0343
 4454SOL    HW124821   3.531   3.083  16.971  1.2063  0.2673  0.6962
 4454SOL    HW224822   3.449   2.995  17.047  0.2020 -0.7490  3.1434
 4455SOL     OW24823   3.357   3.133   8.141  0.3180  0.8110 -0.2992
 4455SOL    HW124824   3.387   3.043   8.150 -0.1995  0.6304 -0.3758
 4455SOL    HW224825   3.278   3.119   8.088  0.2811 -0.0839  0.0016
 4456SOL     OW24826   2.164   2.771  15.201 -0.0280 -0.5265 -0.2627
 4456SOL    HW124827   2.070   2.758  15.192  0.1063 -0.3742 -1.8996
 4456SOL    HW224828   2.187   2.812  15.117 -0.0418  0.2379  0.1080
 4457SOL     OW24829   3.865   3.908   1.993  0.6202  0.0451 -0.4307
 4457SOL    HW124830   3.828   3.971   2.055  0.1209 -1.4626  0.7859
 4457SOL    HW224831   3.937   3.884   2.051 -1.5859 -0.0093  2.3126
 4458SOL     OW24832   1.356   1.180  13.955 -0.3781 -0.2631  0.6266
 4458SOL    HW124833   1.315   1.096  13.976  0.2545 -0.6297  0.4085
 4458SOL    HW224834   1.419   1.182  14.027 -1.3723 -1.5146  1.5263
 4459SOL     OW24835   4.157   4.564  17.232  0.3763 -0.0539  0.6483
 4459SOL    HW124836   4.070   4.580  17.196  1.0771  3.0558  0.3094
 4459SOL    HW224837   4.187   4.655  17.227  1.1707 -0.3795 -0.3550
 4460SOL     OW24838   0.979   1.109   3.826 -0.4457  0.3834  0.2382
 4460SOL    HW124839   1.067   1.122   3.791 -0.9745  3.4210  0.0379
 4460SOL    HW224840   0.997   1.048   3.898 -0.2958  2.6205  2.1028
 4461SOL     OW24841   0.488   1.921   3.285  0.8057  0.6572 -0.3760
 4461SOL    HW124842   0.492   1.999   3.229  2.1859 -0.2715 -1.5674
 4461SOL    HW224843   0.405   1.939   3.330  1.3099 -0.8022  1.1251
 4462SOL     OW24844   1.350   0.677  12.516 -0.5087 -0.2183  0.5855
 4462SOL    HW124845   1.377   0.704  12.428  1.7471 -0.4565  1.1940
 4462SOL    HW224846   1.341   0.584  12.495 -1.7410 -0.0117  0.1955
 4463SOL     OW24847   3.206   3.298   3.756 -0.1900 -0.0358 -0.0308
 4463SOL    HW124848   3.246   3.364   3.699  0.6985  0.0795  0.7280
 4463SOL    HW224849   3.222   3.214   3.713 -3.8294 -1.2841  1.0260
 4464SOL     OW24850   3.870   3.104   8.652 -0.3772  0.3730  0.1424
 4464SOL    HW124851   3.893   3.197   8.660 -2.3962  0.8729  0.2537
 4464SOL    HW224852   3.942   3.076   8.596 -0.6544  1.0544 -0.5595
 4465SOL     OW24853   1.773   4.001  16.631  0.1669  0.0752 -0.4043
 4465SOL    HW124854   1.711   3.991  16.704  0.7037 -1.2992 -0.1378
 4465SOL    HW224855   1.781   4.096  16.622  1.7429  0.1216  1.5512
 4466SOL     OW24856   4.093   3.145   8.246 -0.3982 -0.1175  0.2340
 4466SOL    HW124857   4.091   3.069   8.188 -0.1557 -1.4474  1.9641
 4466SOL    HW224858   4.020   3.193   8.209 -0.2856 -1.0698 -1.2093
 4467SOL     OW24859   0.451   0.196   4.839 -0.6840  0.0194  0.5159
 4467SOL    HW124860   0.483   0.110   4.866  0.1373  0.1279 -0.1275
 4467SOL    HW224861   0.533   0.244   4.850 -1.3523  1.2625  0.1242
 4468SOL     OW24862   1.858   0.120   8.469 -0.8487 -0.3821  0.8128
 4468SOL    HW124863   1.871   0.182   8.398  0.1241 -0.2983  1.0716
 4468SOL    HW224864   1.937   0.142   8.518  0.2504  0.5602 -1.3842
 4469SOL     OW24865   0.858   1.748  10.791  0.3912 -0.2456  0.3832
 4469SOL    HW124866   0.894   1.808  10.725 -0.8356 -1.9068 -1.8025
 4469SOL    HW224867   0.772   1.731  10.753  0.5983  1.1907 -0.7297
 4470SOL     OW24868   4.645   2.951  15.998 -0.2664  0.0022  0.2290
 4470SOL    HW124869   4.661   3.045  16.006  0.7881 -0.1645  0.0975
 4470SOL    HW224870   4.559   2.950  15.957 -0.3378  0.2543  0.3777
 4471SOL     OW24871   3.746   0.811   6.645  0.3179 -0.6183  0.2110
 4471SOL    HW124872   3.743   0.872   6.719 -1.6766 -1.2287  0.6366
 4471SOL    HW224873   3.776   0.729   6.683 -0.9624 -0.6659  1.1042
 4472SOL     OW24874   0.001   2.336  12.880  0.3133  0.3770  0.9148
 4472SOL    HW124875   4.708   2.338  12.975 -1.9755  0.2735  0.5942
 4472SOL    HW224876   4.664   2.264  12.855 -1.1955  1.2860  1.7544
 4473SOL     OW24877   1.680   3.426   8.313 -0.0006  0.1305  0.1904
 4473SOL    HW124878   1.700   3.433   8.407 -2.0279 -1.1514  0.7163
 4473SOL    HW224879   1.751   3.472   8.267 -1.3834  0.6671 -1.3905
 4474SOL     OW24880   1.995   1.364   0.006 -0.4581 -0.4541 -0.0479
 4474SOL    HW124881   2.001   1.300   0.078  0.3601 -1.4515 -1.0065
 4474SOL    HW224882   1.924   1.324  17.642 -0.8871 -1.0575  1.0330
 4475SOL     OW24883   0.061   3.974   3.405  0.2802 -0.4673  0.5837
 4475SOL    HW124884   0.147   3.949   3.369  0.3648  1.8095 -0.7881
 4475SOL    HW224885   0.090   4.023   3.482  1.8962  2.2570 -1.7457
 4476SOL     OW24886   1.288   3.428   0.979 -0.4285  0.8663 -0.3508
 4476SOL    HW124887   1.324   3.418   1.067 -3.5836 -0.3002  0.7918
 4476SOL    HW224888   1.367   3.448   0.929 -2.2898 -1.1587 -4.0531
 4477SOL     OW24889   4.405   3.226   3.423 -1.2795  0.4575  0.4325
 4477SOL    HW124890   4.455   3.306   3.408 -2.0490  0.4507 -2.2420
 4477SOL    HW224891   4.424   3.204   3.514  1.5051  2.1952  0.2478
 4478SOL     OW24892   3.550   4.047   3.568  0.0946  0.6631 -0.2359
 4478SOL    HW124893   3.489   4.081   3.503 -0.2727 -1.0917 -0.8326
 4478SOL    HW224894   3.532   4.107   3.640 -2.6216 -1.2701  0.7073
 4479SOL     OW24895   0.858   0.018   2.337 -0.9879  0.3251 -0.0467
 4479SOL    HW124896   0.926   0.036   2.272 -1.5360  1.5239 -0.2926
 4479SOL    HW224897   0.841   4.645   2.344 -4.9817  1.0214 -0.6034
 4480SOL     OW24898   2.380   3.469   0.984 -0.1667  0.6056 -0.2768
 4480SOL    HW124899   2.374   3.455   1.078  1.4880 -1.5810 -0.4931
 4480SOL    HW224900   2.310   3.534   0.977 -0.6849 -0.0186 -0.8993
 4481SOL     OW24901   2.066   1.293   4.766  0.2309 -0.2975  1.0191
 4481SOL    HW124902   2.097   1.203   4.781  1.4639 -0.3367 -1.7031
 4481SOL    HW224903   2.121   1.330   4.697 -0.4034  1.2790  1.3651
 4482SOL     OW24904   1.640   4.679   8.430  0.7133  0.0721  0.4225
 4482SOL    HW124905   1.719   4.719   8.467 -0.1590  2.7917 -0.7274
 4482SOL    HW224906   1.630   0.009   8.350  0.2273  0.3359  0.6552
 4483SOL     OW24907   3.979   2.311   7.283 -0.3174 -0.4968  0.0112
 4483SOL    HW124908   4.000   2.321   7.190  0.1645  1.8050  0.3701
 4483SOL    HW224909   4.051   2.359   7.323 -0.2476 -1.4917  1.0566
 4484SOL     OW24910   2.164   0.352   9.148  0.2638  0.3781  0.5834
 4484SOL    HW124911   2.130   0.287   9.086 -0.4808  0.6379  0.7227
 4484SOL    HW224912   2.087   0.406   9.162  1.4208  2.1845  0.0128
 4485SOL     OW24913   0.152   3.619  12.209 -0.1815  0.4103 -0.4047
 4485SOL    HW124914   0.143   3.696  12.266 -0.0918  1.3682 -1.7026
 4485SOL    HW224915   0.219   3.647  12.147  0.5794  2.0420  1.1260
 4486SOL     OW24916   3.543   3.198   5.224  0.7276 -0.4278  0.1290
 4486SOL    HW124917   3.596   3.253   5.166  0.5479 -0.0914  0.2813
 4486SOL    HW224918   3.489   3.163   5.153 -1.2385  1.4606  0.7000
 4487SOL     OW24919   0.750   1.168  10.627  0.3827 -0.2563 -0.8379
 4487SOL    HW124920   0.837   1.169  10.588  0.1941 -0.8165 -1.2785
 4487SOL    HW224921   0.737   1.261  10.645 -0.2531 -0.0241 -2.4594
 4488SOL     OW24922   2.573   4.717  11.756  0.4530 -0.0400 -0.1209
 4488SOL    HW124923   2.596   0.049  11.832 -0.7762  1.0908 -0.5475
 4488SOL    HW224924   2.496   4.665  11.779 -0.9237  0.5637 -3.3458
 4489SOL     OW24925   3.037   3.443  16.301 -0.1816  0.5128 -0.0278
 4489SOL    HW124926   3.013   3.457  16.209  2.5782 -1.1394 -0.9929
 4489SOL    HW224927   3.010   3.352  16.311  2.6157 -0.3007  0.0584
 4490SOL     OW24928   3.123   4.401   3.340  0.1558  0.1466  0.0202
 4490SOL    HW124929   3.070   4.458   3.284  0.9345  2.6008  1.7893
 4490SOL    HW224930   3.060   4.363   3.401 -0.3603  0.1362 -0.5143
 4491SOL     OW24931   0.264   3.049  15.340 -0.2423 -0.0793  0.1856
 4491SOL    HW124932   0.287   3.086  15.255 -2.2722 -0.2218 -0.4314
 4491SOL    HW224933   0.198   3.105  15.381 -0.3785  0.4845 -0.8247
 4492SOL     OW24934   2.558   2.838  10.875  0.1174 -0.3884  0.0129
 4492SOL    HW124935   2.530   2.800  10.792 -0.6018  1.6824 -0.6895
 4492SOL    HW224936   2.484   2.817  10.932  0.7039  0.8505  1.2367
 4493SOL     OW24937   1.921   1.866  17.454 -0.4502 -0.2819 -0.3135
 4493SOL    HW124938   1.922   1.923  17.377  0.2180  0.2150  0.0686
 4493SOL    HW224939   1.980   1.799  17.422  0.9168  0.0597  1.5244
 4494SOL     OW24940   0.458   1.234   7.048 -0.4587  0.6213 -0.1274
 4494SOL    HW124941   0.471   1.326   7.070 -1.6069  0.6330  0.5238
 4494SOL    HW224942   0.495   1.228   6.960 -0.9012  0.6053 -0.3145
 4495SOL     OW24943   3.603   3.761  10.402 -0.2094 -0.2785 -0.0729
 4495SOL    HW124944   3.646   3.768  10.487  0.4016  0.0090 -0.4093
 4495SOL    HW224945   3.621   3.673  10.369  0.1986  0.6686 -2.3461
 4496SOL     OW24946   0.833   3.462   0.323  0.1893  0.3605 -0.1670
 4496SOL    HW124947   0.917   3.448   0.366  0.5496  1.3556 -0.5707
 4496SOL    HW224948   0.844   3.535   0.263 -1.4716  0.1269 -0.7544
 4497SOL     OW24949   0.125   3.842   0.271  0.4025 -0.3048  0.4572
 4497SOL    HW124950   0.218   3.839   0.245  0.0620 -1.5097 -0.6142
 4497SOL    HW224951   0.099   3.781   0.202 -3.6230 -0.8584  2.4856
 4498SOL     OW24952   1.624   2.611  11.570 -0.3984 -0.2410  0.1396
 4498SOL    HW124953   1.542   2.563  11.576 -0.5558  0.1918  1.3958
 4498SOL    HW224954   1.663   2.594  11.656 -0.6447 -3.4452 -0.4126
 4499SOL     OW24955   2.515   3.477   0.248  0.2931  0.0351  0.5976
 4499SOL    HW124956   2.452   3.530   0.296 -0.8675  0.2585 -1.1574
 4499SOL    HW224957   2.458   3.419   0.196 -1.9984  1.0510  2.0172
 4500SOL     OW24958   1.954   2.059   7.700 -0.8274 -0.2270  0.0322
 4500SOL    HW124959   2.016   2.013   7.755 -2.9030 -2.5728  0.4052
 4500SOL    HW224960   1.935   2.142   7.745  0.8087  0.1677 -0.0172
 4501SOL     OW24961   3.538   1.190   6.887 -0.2871  0.5962 -0.4262
 4501SOL    HW124962   3.558   1.273   6.930 -2.6820  0.4817  0.9345
 4501SOL    HW224963   3.466   1.219   6.831 -1.8809 -0.3188  1.1524
 4502SOL     OW24964   2.158   2.373   0.451  0.1133  0.2679 -0.4376
 4502SOL    HW124965   2.083   2.327   0.490  0.0783  1.0466  0.4286
 4502SOL    HW224966   2.209   2.387   0.531 -1.0850  1.5380  0.1097
 4503SOL     OW24967   3.423   4.306  16.294 -0.8654 -0.5276  0.3628
 4503SOL    HW124968   3.375   4.314  16.211 -2.7526 -0.4203  1.4594
 4503SOL    HW224969   3.450   4.395  16.315 -0.2470 -0.5877 -0.1698
 4504SOL     OW24970   3.867   0.178  10.621  0.2502 -0.3512 -0.3446
 4504SOL    HW124971   3.867   0.239  10.548  0.3118  1.8558  1.4965
 4504SOL    HW224972   3.960   0.185  10.644  0.1745  2.1864 -0.8823
 4505SOL     OW24973   2.368   1.709  13.666 -0.2106  0.2019 -0.0675
 4505SOL    HW124974   2.328   1.646  13.726  1.4442  0.4668  1.3088
 4505SOL    HW224975   2.409   1.647  13.606 -2.0310  0.9989 -2.1365
 4506SOL     OW24976   2.398   4.537   7.305  0.0713 -0.0818 -0.2118
 4506SOL    HW124977   2.310   4.508   7.281  0.2491  0.0954 -1.0918
 4506SOL    HW224978   2.451   4.504   7.232  0.5295 -1.6758  0.8425
 4507SOL     OW24979   2.511   4.563   1.534  0.1538 -0.1757 -0.2793
 4507SOL    HW124980   2.599   4.525   1.529  0.8184  1.5068 -1.2901
 4507SOL    HW224981   2.508   4.588   1.441 -0.4954  0.1691 -0.1654
 4508SOL     OW24982   1.272   2.461   9.133  0.3705 -0.0091 -0.3093
 4508SOL    HW124983   1.321   2.379   9.134  0.3197 -0.0720 -3.0892
 4508SOL    HW224984   1.335   2.526   9.162  1.5066  0.0023 -2.8501
 4509SOL     OW24985   0.850   3.810   2.896 -0.6435 -0.0128 -0.7329
 4509SOL    HW124986   0.815   3.734   2.941 -0.2559 -0.8391 -1.8158
 4509SOL    HW224987   0.940   3.779   2.885  0.5021  2.2139  2.3921
 4510SOL     OW24988   0.040   1.375   9.889  0.0649  0.1258  0.1379
 4510SOL    HW124989   4.711   1.410   9.962  0.3518  0.1385  0.3260
 4510SOL    HW224990   0.075   1.295   9.928  0.5429 -0.1723 -0.8960
 4511SOL     OW24991   2.763   4.391   3.723 -0.4541 -0.5829  0.3291
 4511SOL    HW124992   2.678   4.355   3.698  0.0305 -1.4162 -0.1251
 4511SOL    HW224993   2.741   4.476   3.762  0.6083 -0.2409  0.1933
 4512SOL     OW24994   2.746   0.192   0.948 -0.2862 -0.1666  0.1122
 4512SOL    HW124995   2.740   0.141   0.867 -0.3869  0.5534 -0.3335
 4512SOL    HW224996   2.841   0.204   0.950 -0.1567 -1.1176 -0.2944
 4513SOL     OW24997   3.903   4.032  17.117 -0.4241 -0.4794  0.4020
 4513SOL    HW124998   3.885   4.038  17.211  0.1539 -0.3834  0.5056
 4513SOL    HW224999   3.907   4.123  17.090  0.1578  0.4054  3.4591
 4514SOL     OW25000   3.561   3.181   4.341  0.0150 -0.1341 -0.1485
 4514SOL    HW125001   3.515   3.266   4.338  0.1834 -0.0309  0.1395
 4514SOL    HW225002   3.564   3.155   4.433 -1.9200 -0.6576 -0.2373
 4515SOL     OW25003   0.356   0.102   2.925  0.1065 -0.4970  0.3723
 4515SOL    HW125004   0.281   0.054   2.959 -0.1601 -0.6176 -0.4080
 4515SOL    HW225005   0.319   0.117   2.839 -1.5410 -1.6506  0.8920
 4516SOL     OW25006   1.934   2.560  14.928  0.1476 -0.0371  0.0227
 4516SOL    HW125007   1.976   2.477  14.952  0.5421  0.0877 -0.2456
 4516SOL    HW225008   1.998   2.586  14.862  1.7345  0.9351  1.9599
 4517SOL     OW25009   3.501   3.630   8.588  0.2504  0.9419  0.1431
 4517SOL    HW125010   3.546   3.636   8.504 -0.5839  0.5890 -0.3356
 4517SOL    HW225011   3.454   3.547   8.576 -1.8956  2.4158 -1.7628
 4518SOL     OW25012   4.183   0.999   0.680 -0.0283  0.1356  0.3363
 4518SOL    HW125013   4.190   0.914   0.725  0.4481 -1.6981 -3.2388
 4518SOL    HW225014   4.256   0.997   0.619 -0.7068 -0.8985 -0.4310
 4519SOL     OW25015   3.160   2.281  10.391  0.0210 -0.5475 -0.5928
 4519SOL    HW125016   3.215   2.287  10.469  0.6099 -2.1403 -0.8842
 4519SOL    HW225017   3.229   2.278  10.325 -0.8466 -0.2458 -1.5114
 4520SOL     OW25018   3.938   3.572   7.541  0.1838 -0.0387  0.2199
 4520SOL    HW125019   3.870   3.520   7.584 -0.7848  0.3203 -0.8595
 4520SOL    HW225020   4.011   3.520   7.574  0.8834  0.4740 -0.5233
 4521SOL     OW25021   2.873   1.161   5.984 -0.4080 -0.6122  0.3827
 4521SOL    HW125022   2.893   1.237   5.929  1.1561 -0.3155  1.3852
 4521SOL    HW225023   2.950   1.159   6.040 -1.2066  3.1899  1.6294
 4522SOL     OW25024   0.224   3.988   1.687  0.5652 -0.1626 -0.3943
 4522SOL    HW125025   0.226   4.084   1.688  0.8135 -0.1706  0.9456
 4522SOL    HW225026   0.242   3.966   1.596  2.4137  0.2143 -0.1185
 4523SOL     OW25027   4.657   3.051   8.019  0.2042  0.9282  0.4364
 4523SOL    HW125028   4.646   3.056   8.114  0.4397 -2.0616  0.6180
 4523SOL    HW225029   4.628   3.140   7.998  1.6840  0.8511 -1.8927
 4524SOL     OW25030   4.169   4.649   8.469 -0.3104 -0.1603 -0.2180
 4524SOL    HW125031   4.261   4.654   8.494 -0.9112 -0.7056  2.1014
 4524SOL    HW225032   4.141   4.597   8.545 -1.9730 -0.2632 -0.9068
 4525SOL     OW25033   1.987   4.438   3.667  0.7564  0.3563  0.4729
 4525SOL    HW125034   2.008   4.470   3.579 -0.3273 -0.1253  0.0361
 4525SOL    HW225035   1.975   4.346   3.642 -0.3113  0.9995 -1.3396
 4526SOL     OW25036   4.106   3.146   7.949  0.1927  0.1380 -0.2630
 4526SOL    HW125037   4.108   3.053   7.974 -0.0440 -0.3883 -2.1965
 4526SOL    HW225038   4.035   3.184   8.001  0.4464  0.3442 -0.0625
 4527SOL     OW25039   1.303   4.128   3.455 -0.2364 -0.2110  0.3608
 4527SOL    HW125040   1.316   4.049   3.507  1.0275 -0.4052 -0.2572
 4527SOL    HW225041   1.240   4.101   3.387 -0.0100 -1.1562  0.5165
 4528SOL     OW25042   1.533   2.643   4.715 -0.1480 -0.1921 -0.1577
 4528SOL    HW125043   1.580   2.572   4.758  0.5012  1.1226  1.2782
 4528SOL    HW225044   1.596   2.707   4.748 -1.2962  0.8941 -0.0549
 4529SOL     OW25045   0.885   2.637   4.767  0.1155  0.0710 -0.2197
 4529SOL    HW125046   0.981   2.639   4.772  0.1029 -1.0768  0.4890
 4529SOL    HW225047   0.849   2.577   4.832 -0.7775 -0.0660 -0.8452
 4530SOL     OW25048   2.837   4.405  15.775 -0.2707  0.3080  0.1882
 4530SOL    HW125049   2.763   4.377  15.721 -0.4159  0.3321  0.3768
 4530SOL    HW225050   2.816   4.499  15.776  0.2046  0.3838  3.2968
 4531SOL     OW25051   0.147   3.209   2.644  0.7699 -0.6685  0.1565
 4531SOL    HW125052   0.122   3.238   2.556 -2.0019 -1.0440  0.8150
 4531SOL    HW225053   0.226   3.161   2.620  0.2238 -2.4309  1.8821
 4532SOL     OW25054   3.904   3.245  16.339 -0.3010  0.6815  0.1193
 4532SOL    HW125055   3.903   3.311  16.408 -0.2741 -0.0423  0.8141
 4532SOL    HW225056   3.818   3.204  16.344 -1.1273  2.4031 -0.1349
 4533SOL     OW25057   1.415   0.237   4.781  0.4625  0.5573 -0.6916
 4533SOL    HW125058   1.452   0.314   4.824  1.7197 -0.6405  0.3753
 4533SOL    HW225059   1.436   0.162   4.838  1.8574  0.2888 -1.5576
 4534SOL     OW25060   3.339   0.149   0.781  0.2758 -0.1543 -1.0459
 4534SOL    HW125061   3.425   0.154   0.739  1.6794 -0.0487  1.8733
 4534SOL    HW225062   3.372   0.170   0.868 -1.8001 -0.5975 -0.1491
 4535SOL     OW25063   0.287   1.722   9.011  0.0998 -0.1855 -0.2909
 4535SOL    HW125064   0.208   1.702   9.061 -0.9742  0.2477 -1.8396
 4535SOL    HW225065   0.320   1.637   8.982  0.1543 -0.3302  0.1877
 4536SOL     OW25066   2.054   0.700  13.293  0.2528  0.9008 -0.3062
 4536SOL    HW125067   2.057   0.664  13.382 -1.3437 -0.2682 -0.7075
 4536SOL    HW225068   2.113   0.651  13.235 -0.4432  0.0226 -0.2764
 4537SOL     OW25069   4.316   0.256   5.836  0.3729  0.4736  0.4372
 4537SOL    HW125070   4.406   0.237   5.809 -0.0154 -3.4437  1.7773
 4537SOL    HW225071   4.288   0.175   5.879  1.8777 -1.2471 -1.8099
 4538SOL     OW25072   2.246   1.546  12.422 -0.1117 -0.3022 -0.5545
 4538SOL    HW125073   2.172   1.488  12.444  1.8819 -2.3049  0.8692
 4538SOL    HW225074   2.294   1.535  12.504  0.1127 -0.6746 -0.7309
 4539SOL     OW25075   0.106   2.999  11.694 -0.4926 -0.3138 -0.0140
 4539SOL    HW125076   0.019   2.969  11.668 -0.1156 -0.0292 -1.5815
 4539SOL    HW225077   0.112   2.979  11.788  1.8430  0.9905  0.1145
 4540SOL     OW25078   4.644   4.425   7.926 -0.3463 -0.2101 -0.1953
 4540SOL    HW125079   4.619   4.483   7.854 -0.1925 -0.6190 -0.5809
 4540SOL    HW225080   4.607   4.338   7.908  0.7096 -0.9626  1.2601
 4541SOL     OW25081   3.341   0.930   4.072 -0.7296 -0.2499 -0.5714
 4541SOL    HW125082   3.371   1.012   4.111 -1.7985 -0.2153  0.1854
 4541SOL    HW225083   3.248   0.947   4.081 -0.7461 -0.2035 -0.8452
 4542SOL     OW25084   4.407   2.127   8.689  0.8459 -0.2411 -0.6593
 4542SOL    HW125085   4.415   2.142   8.783  0.8695 -0.7990 -0.5765
 4542SOL    HW225086   4.484   2.079   8.659  0.9094  0.0362 -0.9416
 4543SOL     OW25087   0.331   0.693   8.273 -0.7711 -0.0441  0.0832
 4543SOL    HW125088   0.307   0.785   8.286  0.9511  0.1777  1.5891
 4543SOL    HW225089   0.246   0.655   8.249 -1.4100  1.2327  0.3295
 4544SOL     OW25090   3.560   3.049   6.542 -0.0329  0.0471  0.1385
 4544SOL    HW125091   3.564   3.128   6.595 -1.9777 -1.8118  3.1023
 4544SOL    HW225092   3.489   3.000   6.584  1.8258 -1.1630  1.9106
 4545SOL     OW25093   1.875   2.701  11.157 -0.1447 -0.0989 -0.3735
 4545SOL    HW125094   1.895   2.665  11.244  2.7716  2.0898 -0.1284
 4545SOL    HW225095   1.916   2.787  11.166 -2.3926  0.7890  1.5514
 4546SOL     OW25096   3.854   3.164   3.844 -0.6130 -0.5611 -0.0676
 4546SOL    HW125097   3.787   3.233   3.850  1.3402  1.0436  3.4274
 4546SOL    HW225098   3.934   3.213   3.863 -2.6043  1.7860  2.4730
 4547SOL     OW25099   0.079   0.879   5.153  0.4037 -0.3978  0.3563
 4547SOL    HW125100   0.020   0.807   5.129  1.2030 -1.1023  0.4844
 4547SOL    HW225101   0.154   0.855   5.098 -1.1029 -2.8217 -0.6578
 4548SOL     OW25102   2.836   1.341   8.573  0.3065  0.0315  0.0950
 4548SOL    HW125103   2.791   1.422   8.598 -1.9611 -1.1388 -0.2131
 4548SOL    HW225104   2.799   1.346   8.484  0.8628  0.9588 -0.0899
 4549SOL     OW25105   0.058   2.494  12.327 -0.6630  0.6742  0.5299
 4549SOL    HW125106   4.719   2.496  12.401  0.0958  1.2926  1.1311
 4549SOL    HW225107   0.133   2.439  12.351 -1.7471  0.0108  2.3476
 4550SOL     OW25108   0.637   4.294   6.007 -0.0540 -0.3084 -0.4809
 4550SOL    HW125109   0.583   4.240   6.065  0.3446 -0.0920  0.0783
 4550SOL    HW225110   0.712   4.305   6.065 -1.4072  0.1826  1.1582
 4551SOL     OW25111   4.639   2.341   8.263 -0.3168 -0.1317  0.1155
 4551SOL    HW125112   4.682   2.308   8.342  1.6105  0.3045 -0.7433
 4551SOL    HW225113   4.712   2.372   8.210 -0.4225 -1.2809 -0.7036
 4552SOL     OW25114   2.935   1.045   4.930  0.6190 -0.2610 -0.0192
 4552SOL    HW125115   2.953   1.073   4.841 -0.9462 -1.7181 -0.8084
 4552SOL    HW225116   3.022   1.035   4.968  1.1291 -0.9991 -1.3903
 4553SOL     OW25117   1.285   0.730   9.022  0.0792  0.3978  0.1697
 4553SOL    HW125118   1.331   0.654   8.986  2.2425  0.8289  1.9719
 4553SOL    HW225119   1.258   0.784   8.948  1.4462  0.3935 -0.3311
 4554SOL     OW25120   4.073   1.173   9.668 -0.3107 -0.6900 -0.0447
 4554SOL    HW125121   4.007   1.178   9.599  1.8639  0.5658 -1.9974
 4554SOL    HW225122   4.085   1.081   9.693 -0.5185 -0.1364  2.1036
 4555SOL     OW25123   4.166   1.265  13.954 -0.1719  0.7430  0.2582
 4555SOL    HW125124   4.252   1.277  13.995 -0.1398 -0.1825  0.4616
 4555SOL    HW225125   4.115   1.297  14.028  0.8291  0.1851  1.2062
 4556SOL     OW25126   2.101   4.087   3.035  0.2491 -0.3830  0.2453
 4556SOL    HW125127   2.083   4.021   2.968  2.7978 -0.3299 -0.4814
 4556SOL    HW225128   2.009   4.107   3.052 -0.3929 -2.6168 -0.6385
 4557SOL     OW25129   2.054   4.446  15.637 -0.6518 -0.8092  0.7275
 4557SOL    HW125130   2.061   4.539  15.659  1.1090 -1.1447  1.5865
 4557SOL    HW225131   2.024   4.465  15.548  0.2204  0.4356  0.6941
 4558SOL     OW25132   4.387   4.037   5.967  0.1954 -0.1634 -0.5555
 4558SOL    HW125133   4.473   4.077   5.978  0.3586 -0.4511 -0.7845
 4558SOL    HW225134   4.396   3.956   6.017  0.2850  1.2945  1.7704
 4559SOL     OW25135   0.219   0.567   6.236 -0.0378  0.0121  0.9055
 4559SOL    HW125136   0.160   0.601   6.303 -0.1813  0.9495  0.3018
 4559SOL    HW225137   0.301   0.596   6.275 -0.3987  1.0217  0.9056
 4560SOL     OW25138   2.212   1.674  11.444 -0.0564  0.4984 -0.0834
 4560SOL    HW125139   2.171   1.588  11.433 -0.4848  0.8032 -0.9080
 4560SOL    HW225140   2.221   1.672  11.539 -0.2460  1.5494 -0.0424
 4561SOL     OW25141   2.377   2.307   8.260 -1.0765  0.0038  0.8404
 4561SOL    HW125142   2.393   2.392   8.302  1.4830 -0.9092  1.6836
 4561SOL    HW225143   2.418   2.243   8.317 -0.9168 -1.7780 -1.2535
 4562SOL     OW25144   2.736   0.252   5.732  0.1741 -0.1146  0.0841
 4562SOL    HW125145   2.737   0.163   5.768  0.3545 -0.9090 -1.8841
 4562SOL    HW225146   2.643   0.257   5.709  0.3736  0.3608 -0.6112
 4563SOL     OW25147   0.560   0.014   8.344 -0.1063 -0.0793 -0.3599
 4563SOL    HW125148   0.538   4.642   8.349  0.8232 -0.3008 -0.3134
 4563SOL    HW225149   0.588   0.025   8.435  0.3523  1.3174 -0.6577
 4564SOL     OW25150   0.040   2.410   2.285  0.6198  0.0286 -0.6684
 4564SOL    HW125151   0.102   2.462   2.233 -0.3267  0.5931 -1.2225
 4564SOL    HW225152   4.682   2.407   2.231 -0.7719  0.5835  1.3372
 4565SOL     OW25153   1.495   1.994  16.270  0.3064  0.4444 -0.4378
 4565SOL    HW125154   1.440   1.932  16.221 -0.6969 -1.3915  2.9845
 4565SOL    HW225155   1.450   2.017  16.351 -0.4252  0.0340 -0.7283
 4566SOL     OW25156   0.423   3.165   5.506 -0.4184  0.1610  0.5295
 4566SOL    HW125157   0.398   3.129   5.420 -0.4139 -2.0160  1.4450
 4566SOL    HW225158   0.518   3.152   5.503 -0.6129 -1.6455  2.7964
 4567SOL     OW25159   1.540   2.716   0.920  0.3715  0.2821  0.4025
 4567SOL    HW125160   1.581   2.802   0.911 -0.5331  0.1990 -4.6261
 4567SOL    HW225161   1.606   2.667   0.871  1.0736  0.9681  0.6583
 4568SOL     OW25162   1.680   3.793   5.581  0.5316 -0.1676  0.2563
 4568SOL    HW125163   1.601   3.747   5.552  1.0227 -2.0190  1.8637
 4568SOL    HW225164   1.634   3.849   5.643  0.5909 -0.8477  0.9095
 4569SOL     OW25165   4.593   1.352   2.668  0.0936 -0.3068 -0.6226
 4569SOL    HW125166   4.588   1.370   2.761 -1.3926 -0.7202 -0.6295
 4569SOL    HW225167   4.501   1.331   2.655 -0.1221  1.3877 -1.7821
 4570SOL     OW25168   3.085   4.615   0.034 -0.7611 -0.3407  0.2234
 4570SOL    HW125169   3.178   4.634   0.040 -0.9561  0.7832 -0.2669
 4570SOL    HW225170   3.057   4.609   0.125  0.5202 -3.5521  0.3737
 4571SOL     OW25171   2.562   2.116   8.801  0.2911 -0.5296 -0.3613
 4571SOL    HW125172   2.638   2.100   8.746  1.1399  1.3000  0.2903
 4571SOL    HW225173   2.506   2.169   8.743 -0.7064 -0.6835  0.4535
 4572SOL     OW25174   0.591   3.546   8.703 -0.3414 -0.1484 -0.6340
 4572SOL    HW125175   0.602   3.568   8.610  0.8904 -0.9663 -0.6823
 4572SOL    HW225176   0.497   3.533   8.692 -0.4104  1.7867 -2.3361
 4573SOL     OW25177   1.944   2.420   5.762 -0.2345  0.3777  0.4410
 4573SOL    HW125178   1.959   2.485   5.693 -2.0048 -1.0114 -1.2462
 4573SOL    HW225179   1.922   2.342   5.711 -3.3298  1.0170  0.8122
 4574SOL     OW25180   2.764   2.736   2.617  0.3540  0.4823 -0.5179
 4574SOL    HW125181   2.854   2.741   2.587  1.3573 -0.8567  2.3133
 4574SOL    HW225182   2.724   2.818   2.586  1.8134  0.3033 -2.8654
 4575SOL     OW25183   4.588   2.924  12.893  0.6398  0.2055 -0.3470
 4575SOL    HW125184   4.580   2.847  12.950 -2.5121  1.2498  0.6372
 4575SOL    HW225185   4.520   2.981  12.929  0.1927 -1.1889  0.9990
 4576SOL     OW25186   0.892   0.863   8.873  0.5018 -0.6901 -0.3864
 4576SOL    HW125187   0.889   0.876   8.968 -0.5843  2.7803 -0.9198
 4576SOL    HW225188   0.810   0.813   8.866  0.3160 -0.8308  2.4124
 4577SOL     OW25189   0.124   3.179   1.216 -0.0070  0.0111  0.2821
 4577SOL    HW125190   0.052   3.232   1.252 -0.1474  1.6708 -2.4541
 4577SOL    HW225191   0.072   3.121   1.161 -0.6429  1.4270 -0.6008
 4578SOL     OW25192   2.927   3.955   4.138  0.1418  0.3738  0.0454
 4578SOL    HW125193   2.849   3.926   4.093  0.9556 -3.2208  0.9656
 4578SOL    HW225194   2.897   3.947   4.229 -0.6059 -1.3527 -0.3701
 4579SOL     OW25195   3.207   2.465   8.589  0.6225  0.1190  0.3034
 4579SOL    HW125196   3.222   2.371   8.600 -1.6863 -0.2990 -0.1574
 4579SOL    HW225197   3.297   2.495   8.581  1.0034 -1.0065  0.3238
 4580SOL     OW25198   4.214   3.603   9.802 -0.0170  0.0330  0.4772
 4580SOL    HW125199   4.302   3.573   9.781  1.1633  4.3244 -0.6583
 4580SOL    HW225200   4.176   3.521   9.833  1.2460  0.1151  2.2116
 4581SOL     OW25201   3.743   4.658  10.667 -0.4418  0.1409 -0.1160
 4581SOL    HW125202   3.787   0.019  10.642 -0.7831 -0.2578 -1.9898
 4581SOL    HW225203   3.811   4.597  10.638 -1.8531 -0.3662 -2.3710
 4582SOL     OW25204   2.774   4.662   6.390 -0.0847  0.0457  0.1310
 4582SOL    HW125205   2.800   4.653   6.482 -0.4219 -3.0960 -0.0754
 4582SOL    HW225206   2.831   0.013   6.363 -1.6506  1.4092  0.4538
 4583SOL     OW25207   3.625   4.161   5.897 -0.6132  0.1322 -0.2761
 4583SOL    HW125208   3.673   4.244   5.892 -1.5864  0.8660  2.2946
 4583SOL    HW225209   3.692   4.105   5.938  1.1963  2.2228 -0.3838
 4584SOL     OW25210   3.518   4.548   7.456 -0.1914 -0.2149 -0.4265
 4584SOL    HW125211   3.591   4.548   7.518 -0.0673  0.4273 -0.5683
 4584SOL    HW225212   3.569   4.552   7.376 -0.0030 -2.9146 -0.4239
 4585SOL     OW25213   3.827   1.931   6.117  0.3902 -0.6564  0.2742
 4585SOL    HW125214   3.850   1.906   6.027 -0.6651  1.7818 -0.6779
 4585SOL    HW225215   3.741   1.968   6.098 -0.1146 -3.4935 -2.9318
 4586SOL     OW25216   4.388   3.053   5.074 -0.3504 -0.0413  0.3855
 4586SOL    HW125217   4.382   3.141   5.110 -0.0786  0.7940 -1.5992
 4586SOL    HW225218   4.425   2.998   5.144  0.0835  0.4297  0.5259
 4587SOL     OW25219   2.946   1.671   0.990 -0.1456 -0.6655 -0.2853
 4587SOL    HW125220   2.880   1.728   0.951  0.7665  1.0911  0.7314
 4587SOL    HW225221   3.021   1.680   0.932  0.6558 -2.9430  0.3942
 4588SOL     OW25222   3.919   2.703   4.517 -0.4153  0.1631 -0.3804
 4588SOL    HW125223   3.866   2.729   4.442  2.7285  0.5217 -2.4894
 4588SOL    HW225224   3.851   2.652   4.560  3.5173 -1.1760  4.3066
 4589SOL     OW25225   4.187   0.863   5.518 -0.0256 -0.0493 -0.9617
 4589SOL    HW125226   4.251   0.875   5.448  1.9799 -1.6703  0.6009
 4589SOL    HW225227   4.116   0.923   5.493  1.1561  0.1231 -3.8892
 4590SOL     OW25228   1.658   3.455  15.608 -0.6752  0.6923  0.2206
 4590SOL    HW125229   1.669   3.550  15.619  0.6890  0.6973 -1.2077
 4590SOL    HW225230   1.563   3.441  15.600 -0.9918  1.2500  3.1208
 4591SOL     OW25231   3.362   1.548   6.350 -0.4002 -0.2688 -0.4193
 4591SOL    HW125232   3.348   1.594   6.267 -2.9449  0.1667  0.2713
 4591SOL    HW225233   3.380   1.621   6.409  3.0246 -1.0547 -0.4887
 4592SOL     OW25234   3.418   0.992   4.537 -0.2377  0.1004  0.1788
 4592SOL    HW125235   3.358   0.942   4.592 -0.8960 -1.7040 -2.2390
 4592SOL    HW225236   3.477   1.027   4.605  2.4720 -0.4563 -1.8750
 4593SOL     OW25237   4.004   4.516   9.153 -0.1066  0.1693  0.2541
 4593SOL    HW125238   3.941   4.453   9.120  1.1558 -1.3612  0.7889
 4593SOL    HW225239   4.024   4.480   9.240 -0.4605 -0.0796  0.2293
 4594SOL     OW25240   2.718   0.352   0.281  0.4793  0.1885  0.1773
 4594SOL    HW125241   2.650   0.419   0.284 -0.0757 -0.3937  0.3568
 4594SOL    HW225242   2.765   0.388   0.205 -0.9501 -2.6332 -2.0417
 4595SOL     OW25243   2.281   1.502  13.794 -0.0330  0.0286  0.6185
 4595SOL    HW125244   2.213   1.434  13.786 -0.7923  0.4993  3.2797
 4595SOL    HW225245   2.292   1.505  13.889  0.0246 -0.2002  0.6192
 4596SOL     OW25246   1.178   2.902  13.311 -0.0899  0.2103  0.4131
 4596SOL    HW125247   1.260   2.947  13.292  0.2767 -0.1817  1.0724
 4596SOL    HW225248   1.121   2.964  13.265  1.7094  0.8381 -0.9588
 4597SOL     OW25249   4.691   1.990  14.628  0.4340  0.3427  0.1031
 4597SOL    HW125250   0.013   2.068  14.595  0.5217 -0.7034 -2.2874
 4597SOL    HW225251   4.620   1.978  14.564  1.5327 -0.1881 -1.0292
 4598SOL     OW25252   0.627   2.763  16.953 -0.4909  0.3322 -0.2109
 4598SOL    HW125253   0.704   2.812  16.981  0.2615 -2.0250  1.7919
 4598SOL    HW225254   0.661   2.720  16.874 -0.4369  2.5727 -1.4091
 4599SOL     OW25255   4.200   1.102  11.623 -0.1206  0.3842 -0.0607
 4599SOL    HW125256   4.182   1.015  11.657  0.2487  0.7527  1.0652
 4599SOL    HW225257   4.270   1.138  11.678  0.8452  0.4087 -1.2974
 4600SOL     OW25258   3.979   2.722  16.105 -0.5436  0.3442 -0.3333
 4600SOL    HW125259   4.021   2.769  16.177 -0.2123  0.5120 -0.6390
 4600SOL    HW225260   4.040   2.730  16.031 -1.6917  1.0285 -1.2025
 4601SOL     OW25261   1.081   4.387   7.879 -0.3774 -0.3486  0.0488
 4601SOL    HW125262   1.161   4.414   7.924 -0.8918  3.1353 -1.1324
 4601SOL    HW225263   1.037   4.333   7.944  0.4556 -1.3076 -0.1940
 4602SOL     OW25264   2.676   3.947   4.021  0.1347  0.5781  0.2228
 4602SOL    HW125265   2.616   3.903   4.081  2.8290 -0.7738  1.9692
 4602SOL    HW225266   2.655   4.040   4.027  1.6824  1.0316 -1.1380
 4603SOL     OW25267   2.314   2.980   7.233 -0.2558 -0.3912 -0.3537
 4603SOL    HW125268   2.308   2.911   7.299  0.5691  0.2076  0.3456
 4603SOL    HW225269   2.331   2.925   7.157  1.4751 -0.6739  0.2545
 4604SOL     OW25270   2.721   3.953   7.655  0.1787  0.1797  0.3057
 4604SOL    HW125271   2.806   3.912   7.671  0.0303 -0.3345 -0.2185
 4604SOL    HW225272   2.669   3.875   7.634  1.6823 -0.3834 -1.4024
 4605SOL     OW25273   2.090   3.308   5.396 -0.0952 -0.2984  0.3857
 4605SOL    HW125274   2.119   3.290   5.306 -2.5641  1.7202 -0.8102
 4605SOL    HW225275   2.110   3.402   5.401  0.7165 -0.3707 -1.4698
 4606SOL     OW25276   3.675   4.256  14.213 -0.4564 -0.0741  0.1755
 4606SOL    HW125277   3.622   4.280  14.289 -1.5701 -0.8115 -0.3682
 4606SOL    HW225278   3.632   4.309  14.146  3.8011  2.1095 -0.8264
 4607SOL     OW25279   3.979   2.433   5.280  1.5435  0.2460 -0.0190
 4607SOL    HW125280   3.901   2.463   5.232  2.7888  1.4027 -1.3157
 4607SOL    HW225281   3.955   2.455   5.370  1.4843 -1.4559  0.3769
 4608SOL     OW25282   2.756   3.071   1.185 -0.5460  0.3012 -1.1229
 4608SOL    HW125283   2.846   3.103   1.198 -0.7330  0.3446  0.0031
 4608SOL    HW225284   2.710   3.148   1.217 -1.3789 -0.7443  0.1862
 4609SOL     OW25285   3.038   0.855  15.368 -0.2635 -0.2513  1.0114
 4609SOL    HW125286   3.044   0.878  15.461 -0.5280  2.0747  0.4609
 4609SOL    HW225287   3.070   0.933  15.323 -0.8922 -0.0447  0.9281
 4610SOL     OW25288   0.195   2.538   7.294 -0.2296 -0.7777 -0.2016
 4610SOL    HW125289   0.100   2.533   7.291 -0.3132 -1.5490  3.1172
 4610SOL    HW225290   0.219   2.552   7.203 -1.4651  1.0949 -0.2420
 4611SOL     OW25291   1.204   0.016   6.646 -0.2073 -0.2106  0.2406
 4611SOL    HW125292   1.158   4.685   6.712 -0.8000  1.1107  0.8793
 4611SOL    HW225293   1.263   4.670   6.610  0.7764 -0.0009  1.4432
 4612SOL     OW25294   2.771   1.028   7.908 -0.3010  0.0999  0.5302
 4612SOL    HW125295   2.815   1.111   7.887  2.6539 -1.2681  1.2341
 4612SOL    HW225296   2.839   0.966   7.936  0.6118  0.2371 -1.3383
 4613SOL     OW25297   0.429   0.372   7.332  0.5831  0.2445  0.1176
 4613SOL    HW125298   0.519   0.383   7.362  0.5691 -0.3997  0.4116
 4613SOL    HW225299   0.399   0.288   7.368  0.2914  0.6958  0.9317
 4614SOL     OW25300   3.682   3.056   6.291 -0.2799 -0.5102 -0.7877
 4614SOL    HW125301   3.753   3.008   6.333 -0.5390 -0.6075 -0.4537
 4614SOL    HW225302   3.621   3.055   6.366  0.4164 -0.9913 -0.2280
 4615SOL     OW25303   4.503   3.703   9.223  0.6256 -0.0417  0.3942
 4615SOL    HW125304   4.452   3.640   9.273  0.5358 -0.6525 -0.4753
 4615SOL    HW225305   4.534   3.652   9.148  0.9197 -0.4160  0.7654
 4616SOL     OW25306   0.570   4.122   4.531  0.2740 -0.1367 -0.0650
 4616SOL    HW125307   0.554   4.211   4.499  0.2106  0.3609  1.3438
 4616SOL    HW225308   0.553   4.074   4.450 -0.0486  2.4038 -1.5116
 4617SOL     OW25309   3.138   3.174   4.224 -0.0211 -0.2298  0.6593
 4617SOL    HW125310   3.222   3.202   4.188 -0.5917 -2.5251 -2.4833
 4617SOL    HW225311   3.096   3.193   4.141 -0.9867 -1.4013  0.8751
 4618SOL     OW25312   2.670   2.996   6.653  0.4174 -0.3736  0.0614
 4618SOL    HW125313   2.625   2.997   6.737  0.7353 -1.6669  0.2467
 4618SOL    HW225314   2.755   3.033   6.676 -0.2401 -0.7284  3.0135
 4619SOL     OW25315   1.468   0.367   4.172  0.1152  0.5016 -0.2607
 4619SOL    HW125316   1.419   0.410   4.102 -0.7687  0.0050  0.0608
 4619SOL    HW225317   1.479   0.437   4.237  0.5115 -1.0391  1.3096
 4620SOL     OW25318   3.949   2.194   0.721 -0.0922  0.2611 -0.5500
 4620SOL    HW125319   3.921   2.274   0.765  2.5294  0.0182  1.5975
 4620SOL    HW225320   4.045   2.196   0.726 -0.0264  0.0126 -1.7246
 4621SOL     OW25321   1.468   3.037   7.754  0.2507 -0.0573  0.5870
 4621SOL    HW125322   1.515   2.985   7.820  0.4284  0.8978  1.2163
 4621SOL    HW225323   1.441   3.111   7.808  1.4811 -0.0546  1.2175
 4622SOL     OW25324   0.386   3.620   4.202  0.4305  0.2543 -0.6091
 4622SOL    HW125325   0.394   3.651   4.292 -0.1536  1.5796 -1.0229
 4622SOL    HW225326   0.432   3.686   4.150 -0.0498  2.2666  1.5137
 4623SOL     OW25327   4.115   3.384   9.905 -0.7344  0.1142 -0.0943
 4623SOL    HW125328   4.114   3.337   9.988  1.4497  0.4534  0.1281
 4623SOL    HW225329   4.034   3.349   9.869 -1.4193  2.6698 -1.0466
 4624SOL     OW25330   0.518   3.477   6.405  0.0504 -0.4626  0.2465
 4624SOL    HW125331   0.567   3.509   6.481  1.2404 -0.0176 -0.7024
 4624SOL    HW225332   0.505   3.560   6.359  2.3259 -0.4448 -0.3480
 4625SOL     OW25333   2.797   3.613   1.444 -1.0370  0.0028 -0.5076
 4625SOL    HW125334   2.838   3.656   1.519  0.6904 -1.7475 -0.4602
 4625SOL    HW225335   2.787   3.688   1.384  1.4582 -1.9672 -3.4031
 4626SOL     OW25336   0.208   1.220   2.346  0.2082  0.3463 -0.2377
 4626SOL    HW125337   0.225   1.184   2.259 -2.8148 -1.2419 -0.1749
 4626SOL    HW225338   0.301   1.227   2.367 -0.4141  1.4883  2.1365
 4627SOL     OW25339   4.230   1.028   2.814 -1.0830  0.1341 -0.6323
 4627SOL    HW125340   4.143   1.065   2.830 -1.1689  0.5243 -2.0385
 4627SOL    HW225341   4.235   0.944   2.860 -1.5115  0.4285 -0.0367
 4628SOL     OW25342   1.173   3.755   8.520  0.1731  0.2616  0.7058
 4628SOL    HW125343   1.198   3.847   8.512  0.1483  0.2073 -0.0362
 4628SOL    HW225344   1.160   3.744   8.614  0.2953  0.3747  0.7350
 4629SOL     OW25345   4.626   1.036   4.488  0.6981 -0.1096 -0.0313
 4629SOL    HW125346   4.706   1.053   4.538  0.3134 -1.0538  0.9165
 4629SOL    HW225347   4.631   1.085   4.406 -1.7693  0.5509  0.1966
 4630SOL     OW25348   2.732   4.191   2.205  0.3882  0.4482 -0.2787
 4630SOL    HW125349   2.743   4.280   2.172  0.6060  0.8788  0.9646
 4630SOL    HW225350   2.689   4.213   2.287 -1.1545  0.4411 -1.0831
 4631SOL     OW25351   4.694   3.334   3.134  0.5531 -0.5811 -0.1295
 4631SOL    HW125352   4.675   3.405   3.195  0.0568  0.3499 -1.3655
 4631SOL    HW225353   4.704   3.260   3.194 -2.1159 -2.2424 -1.7731
 4632SOL     OW25354   3.577   1.016   0.943  0.2565 -0.0992  0.3246
 4632SOL    HW125355   3.521   0.939   0.928  2.4710 -1.4737 -0.8486
 4632SOL    HW225356   3.521   1.093   0.933  0.2998 -0.2649 -1.2507
 4633SOL     OW25357   3.372   3.288   0.854  0.4730  0.7076  0.2568
 4633SOL    HW125358   3.276   3.286   0.846  0.5788 -1.8804 -0.4698
 4633SOL    HW225359   3.380   3.316   0.945  2.4916 -1.6356  0.7954
 4634SOL     OW25360   1.505   3.286   5.081 -0.4679  0.1697  0.0327
 4634SOL    HW125361   1.599   3.301   5.092 -0.9985  2.1412  1.6752
 4634SOL    HW225362   1.471   3.375   5.080  0.0583  0.3725  0.6734
 4635SOL     OW25363   1.025   2.808  14.505 -0.1740  0.0376 -0.2100
 4635SOL    HW125364   0.982   2.794  14.589 -0.0408  3.1969  0.4022
 4635SOL    HW225365   0.965   2.760  14.448  0.8921 -0.4743 -0.8996
 4636SOL     OW25366   3.733   2.655  16.009 -0.3704 -0.3582 -0.0345
 4636SOL    HW125367   3.743   2.566  16.044  1.6196  0.3712  1.2323
 4636SOL    HW225368   3.823   2.687  16.020 -0.5378 -0.2958  1.0671
 4637SOL     OW25369   1.369   0.378   2.438 -0.2690 -0.2261 -0.5396
 4637SOL    HW125370   1.461   0.396   2.418  0.4404 -3.1012  0.1117
 4637SOL    HW225371   1.368   0.295   2.486 -0.8910  0.1952  0.1783
 4638SOL     OW25372   2.263   4.257   4.306  0.2860  1.2156  0.3597
 4638SOL    HW125373   2.203   4.202   4.357 -0.7492  0.2545 -1.9354
 4638SOL    HW225374   2.336   4.264   4.368 -0.0307  0.6083  0.7994
 4639SOL     OW25375   0.916   4.386   2.874  0.0893 -0.5318  0.1245
 4639SOL    HW125376   0.931   4.427   2.788  2.2750 -0.6329  0.4566
 4639SOL    HW225377   0.827   4.353   2.866  0.3069 -1.1492  0.3112
 4640SOL     OW25378   3.319   3.079   3.591 -0.0771  0.5045  0.6788
 4640SOL    HW125379   3.383   3.034   3.647  1.1250  0.0957 -1.0284
 4640SOL    HW225380   3.336   3.036   3.508  4.3173  0.2835  1.6811
 4641SOL     OW25381   2.399   3.095   6.628  0.1762  0.4909  0.1628
 4641SOL    HW125382   2.375   3.057   6.543  0.1986 -0.0802  0.4158
 4641SOL    HW225383   2.490   3.065   6.629  0.3101  0.8360 -0.9268
 4642SOL     OW25384   0.472   4.214   2.199 -0.3834 -0.3005 -0.4283
 4642SOL    HW125385   0.520   4.176   2.125 -0.7183 -2.3675  0.4042
 4642SOL    HW225386   0.539   4.215   2.268 -1.8448  1.8452  0.9399
 4643SOL     OW25387   1.226   0.190   4.106 -0.3864 -0.2558 -0.1133
 4643SOL    HW125388   1.286   0.240   4.161 -0.2725  0.9099 -1.3119
 4643SOL    HW225389   1.152   0.250   4.094  0.2465  0.0758 -2.2160
 4644SOL     OW25390   2.269   3.015   7.810 -0.1391 -0.0229  0.2632
 4644SOL    HW125391   2.306   2.975   7.889  1.7288  2.5962  0.7049
 4644SOL    HW225392   2.185   2.969   7.804 -0.3729  0.3943  0.3498
 4645SOL     OW25393   0.186   1.529  17.029  0.2742 -0.1062 -0.7101
 4645SOL    HW125394   0.091   1.546  17.030  0.4941  1.0139  1.2882
 4645SOL    HW225395   0.216   1.604  17.081  2.0107 -1.9666  0.9548
 4646SOL     OW25396   2.677   0.805   4.926 -0.4509  0.5200  0.1338
 4646SOL    HW125397   2.618   0.880   4.925  0.2030  1.0119 -1.4510
 4646SOL    HW225398   2.737   0.821   4.853  0.1647  2.3511  1.0306
 4647SOL     OW25399   1.753   4.555   7.466  0.2615 -0.0426 -0.1903
 4647SOL    HW125400   1.692   4.486   7.493 -2.3949  1.1263 -3.1562
 4647SOL    HW225401   1.701   4.604   7.402  0.0129  0.7800  0.6536
 4648SOL     OW25402   1.397   2.554   3.345 -0.4836 -0.2361  0.3624
 4648SOL    HW125403   1.343   2.627   3.316 -0.4616 -0.8192 -1.1219
 4648SOL    HW225404   1.440   2.600   3.417  0.9915 -3.1386  1.3520
 4649SOL     OW25405   2.561   4.416   2.709  0.1796  0.2116 -0.3138
 4649SOL    HW125406   2.571   4.386   2.799 -2.4248  0.7088  0.1498
 4649SOL    HW225407   2.466   4.410   2.722  0.4803 -3.3279  0.3203
 4650SOL     OW25408   0.644   3.215   8.335  0.1110 -0.5519  0.5329
 4650SOL    HW125409   0.636   3.161   8.257  1.5217  0.6036 -0.4035
 4650SOL    HW225410   0.735   3.245   8.331  0.4964 -1.4746  2.0341
 4651SOL     OW25411   1.368   1.470   6.482 -0.6601 -0.1147  0.3375
 4651SOL    HW125412   1.407   1.548   6.520  0.1119 -0.0207 -0.6558
 4651SOL    HW225413   1.442   1.412   6.500 -1.0422 -1.1332 -1.3554
 4652SOL     OW25414   2.496   1.221   1.411 -0.2155  0.2054  0.4526
 4652SOL    HW125415   2.557   1.233   1.484 -0.1794  0.8056  0.3243
 4652SOL    HW225416   2.438   1.297   1.416  1.0880  1.1608  1.1595
 4653SOL     OW25417   2.295   3.067   2.855  0.2853  0.1058 -0.7994
 4653SOL    HW125418   2.268   2.997   2.914 -2.5870  1.8365 -0.0699
 4653SOL    HW225419   2.303   3.020   2.772 -0.6456 -0.4972 -0.5513
 4654SOL     OW25420   1.527   4.234   4.770 -0.6505  0.1133  0.0561
 4654SOL    HW125421   1.525   4.275   4.683  1.4641 -0.1240 -0.1084
 4654SOL    HW225422   1.483   4.300   4.824  1.1153  0.7323  0.7379
 4655SOL     OW25423   3.528   0.426  16.832 -0.9767 -0.1327 -0.4760
 4655SOL    HW125424   3.542   0.521  16.824  0.7060 -0.3459 -0.2309
 4655SOL    HW225425   3.434   0.430  16.844 -0.8589 -1.7785  0.8956
 4656SOL     OW25426   0.643   3.641  17.336  0.1926  0.3972  0.2964
 4656SOL    HW125427   0.570   3.600  17.383  1.3559 -1.8715  0.1560
 4656SOL    HW225428   0.691   3.689  17.403 -0.9336  2.2752 -0.2506
 4657SOL     OW25429   0.429   4.232   4.808  0.2538 -0.1302  0.6403
 4657SOL    HW125430   0.510   4.234   4.757 -1.1629  0.8820 -1.5768
 4657SOL    HW225431   0.386   4.160   4.762  0.9069  1.4399 -2.4717
 4658SOL     OW25432   2.977   1.209   2.315  0.1378 -0.1872 -0.5781
 4658SOL    HW125433   3.011   1.286   2.270  1.1807 -1.5079 -2.0322
 4658SOL    HW225434   3.056   1.156   2.324  0.7253  0.5462 -1.4398
 4659SOL     OW25435   0.905   3.402   5.914 -0.0220  0.1510 -0.0954
 4659SOL    HW125436   0.877   3.462   5.845 -0.5010  0.8335  0.6856
 4659SOL    HW225437   0.893   3.458   5.991  1.3535 -2.5773  2.1197
 4660SOL     OW25438   3.671   0.908  13.243 -0.1724  0.5406  0.3132
 4660SOL    HW125439   3.760   0.876  13.255  0.0850  1.0711 -0.1871
 4660SOL    HW225440   3.689   0.937  13.154  0.2141 -0.9240 -0.0793
 4661SOL     OW25441   4.534   1.508  17.263  0.1260  0.1953  0.6991
 4661SOL    HW125442   4.469   1.523  17.331 -0.1121  0.4633  0.4116
 4661SOL    HW225443   4.567   1.421  17.285  1.4422  0.5338  0.0931
 4662SOL     OW25444   1.592   4.033   6.397 -0.2278  0.2098 -0.1855
 4662SOL    HW125445   1.642   4.113   6.409  0.8669 -0.6976  1.3355
 4662SOL    HW225446   1.632   3.996   6.318  2.4625  2.1095  0.3113
 4663SOL     OW25447   1.238   2.152   8.099  0.1046 -0.4900  0.0462
 4663SOL    HW125448   1.215   2.060   8.108  1.3270 -0.7233  0.7393
 4663SOL    HW225449   1.302   2.149   8.028 -0.4218  0.6175 -0.4773
 4664SOL     OW25450   1.365   0.518   6.809 -0.0061 -0.3031  0.3620
 4664SOL    HW125451   1.371   0.542   6.717  0.4553  1.4581  0.8496
 4664SOL    HW225452   1.359   0.605   6.849 -0.2898 -0.7955  1.3785
 4665SOL     OW25453   2.983   4.654   8.278 -0.2685 -0.2054  0.0737
 4665SOL    HW125454   3.051   4.612   8.226  0.3735  1.4248 -0.4088
 4665SOL    HW225455   2.930   4.701   8.214 -0.9442 -1.2032 -0.0895
 4666SOL     OW25456   3.433   2.244   6.247 -0.7566  0.3083 -0.1821
 4666SOL    HW125457   3.427   2.195   6.329  1.1055 -0.6242 -0.6197
 4666SOL    HW225458   3.445   2.332   6.284 -0.7338  0.1012  0.2992
 4667SOL     OW25459   2.170   2.772   3.624 -0.2302  0.0245  0.2915
 4667SOL    HW125460   2.076   2.755   3.625  0.2679 -2.8346 -2.2639
 4667SOL    HW225461   2.192   2.848   3.571 -1.6447 -0.8202 -1.5215
 4668SOL     OW25462   3.809   2.156   2.256  0.0177  0.3191 -0.3086
 4668SOL    HW125463   3.880   2.219   2.270  0.2127  0.5010 -2.1271
 4668SOL    HW225464   3.740   2.214   2.287  0.2383 -0.2763  1.3126
 4669SOL     OW25465   0.861   3.818   1.539 -0.0379 -0.2795 -0.3872
 4669SOL    HW125466   0.882   3.865   1.458 -0.1492  1.4953  0.6197
 4669SOL    HW225467   0.782   3.774   1.508 -0.0581 -1.3020  1.0785
 4670SOL     OW25468   0.638   0.431  13.259  0.1945  0.0139  0.1043
 4670SOL    HW125469   0.672   0.496  13.320  1.8366  0.0213 -0.8247
 4670SOL    HW225470   0.555   0.469  13.228  1.1902  2.9220  1.0375
 4671SOL     OW25471   2.944   2.164   5.276 -0.3160  0.3033 -0.7534
 4671SOL    HW125472   2.901   2.197   5.355 -0.0957  2.3309 -1.4804
 4671SOL    HW225473   2.867   2.166   5.219  1.1541  0.1547 -2.7281
 4672SOL     OW25474   4.196   3.253   8.465 -0.0033  0.3063  0.2225
 4672SOL    HW125475   4.167   3.173   8.508  0.1954  0.8699  1.4089
 4672SOL    HW225476   4.149   3.227   8.386  1.9158 -0.9365 -0.4938
 4673SOL     OW25477   0.458   0.941   3.021  0.7039  0.2938  0.7005
 4673SOL    HW125478   0.501   0.994   3.088 -0.9900  1.3492  0.9335
 4673SOL    HW225479   0.530   0.893   2.979 -1.0145 -1.1816 -0.5421
 4674SOL     OW25480   3.824   1.329   2.968 -0.0276  0.2902  0.4888
 4674SOL    HW125481   3.748   1.362   3.016 -1.7555 -1.2520 -1.1708
 4674SOL    HW225482   3.813   1.371   2.883 -1.6294  0.4754  0.7762
 4675SOL     OW25483   1.037   0.726   3.203  0.2923 -0.0922 -0.5629
 4675SOL    HW125484   0.967   0.670   3.238 -0.0652  1.1868  0.7633
 4675SOL    HW225485   1.096   0.659   3.168 -0.1504 -0.3426 -0.8446
 4676SOL     OW25486   1.081   2.264   3.059  0.2411 -0.2301 -0.0373
 4676SOL    HW125487   1.072   2.355   3.088 -1.3179 -1.5696  3.7431
 4676SOL    HW225488   1.116   2.261   2.970  0.4694  0.4420  0.0349
 4677SOL     OW25489   4.074   4.036   2.943  0.7522  0.5423 -0.2338
 4677SOL    HW125490   4.137   4.100   2.973  0.5671 -0.1121  1.5280
 4677SOL    HW225491   3.990   4.080   2.957  0.3640  0.0539 -1.0203
 4678SOL     OW25492   1.422   2.944   0.196  0.0038 -0.1780  0.1200
 4678SOL    HW125493   1.467   2.983   0.271 -1.5342  1.7941  0.0182
 4678SOL    HW225494   1.430   2.849   0.208  0.5612 -0.1644 -0.1295
 4679SOL     OW25495   3.759   0.011   2.240 -1.0204  0.1374  0.2014
 4679SOL    HW125496   3.699   4.706   2.170  0.1614  1.0327 -1.1314
 4679SOL    HW225497   3.702   0.057   2.301 -0.7536  0.3946  0.2596
 4680SOL     OW25498   0.266   3.432   9.188  0.1868 -0.3746 -0.0871
 4680SOL    HW125499   0.317   3.371   9.136 -0.9367 -1.0109 -0.4412
 4680SOL    HW225500   0.326   3.433   9.263 -1.9894 -0.3440  1.6515
 4681SOL     OW25501   2.239   2.836   2.165 -0.5992 -0.2796  0.3749
 4681SOL    HW125502   2.207   2.760   2.115 -2.7548  0.9539 -0.1056
 4681SOL    HW225503   2.283   2.794   2.239 -0.3156 -0.7246 -0.0470
 4682SOL     OW25504   1.960   2.668   0.638  0.3226  0.3723 -0.1540
 4682SOL    HW125505   1.899   2.636   0.705  3.2843 -2.3224  1.2677
 4682SOL    HW225506   1.909   2.638   0.563  1.8549 -0.0928 -1.0117
 4683SOL     OW25507   3.204   1.142   8.074 -0.7769 -0.7026  0.5760
 4683SOL    HW125508   3.191   1.068   8.134  0.1957 -2.0462 -0.8601
 4683SOL    HW225509   3.271   1.102   8.019  1.3432  3.7888 -0.0234
 4684SOL     OW25510   0.591   2.605   7.220  0.0091 -0.1448  0.1991
 4684SOL    HW125511   0.669   2.564   7.182 -0.4469  1.5511 -2.6425
 4684SOL    HW225512   0.536   2.593   7.142  1.8919  1.5429 -1.3998
 4685SOL     OW25513   4.061   1.683   1.181 -0.4894 -0.1514  0.1834
 4685SOL    HW125514   4.068   1.678   1.086 -0.1140 -2.1339  0.3210
 4685SOL    HW225515   3.969   1.698   1.204 -0.4686  0.8371 -0.3659
 4686SOL     OW25516   0.453   2.640   8.028 -0.0904 -0.2093 -0.7435
 4686SOL    HW125517   0.457   2.630   7.933  1.3408 -0.1594 -0.6874
 4686SOL    HW225518   0.453   2.736   8.031 -0.0904 -0.2187 -0.3760
 4687SOL     OW25519   0.830   1.325  16.419 -0.8647  0.2770  0.0017
 4687SOL    HW125520   0.812   1.405  16.469 -0.0293 -1.5004  3.1330
 4687SOL    HW225521   0.750   1.273  16.425  0.1563 -1.3114 -0.1927
 4688SOL     OW25522   1.269   4.611   6.969  0.0202 -0.3977 -0.2073
 4688SOL    HW125523   1.190   4.588   6.920  1.4631  0.4774 -2.9737
 4688SOL    HW225524   1.236   4.672   7.034 -0.1755 -0.0602 -0.6190
 4689SOL     OW25525   3.435   1.653   9.337 -0.4985  0.2988  0.2875
 4689SOL    HW125526   3.477   1.608   9.410 -0.1386 -2.8391 -1.8449
 4689SOL    HW225527   3.494   1.727   9.324 -1.3266  1.4986  3.5664
 4690SOL     OW25528   4.403   3.578   2.802  0.3426  0.5173  0.1441
 4690SOL    HW125529   4.490   3.542   2.822  1.4685  2.7898 -0.5633
 4690SOL    HW225530   4.402   3.557   2.709  1.2895  2.5449 -0.3433
 4691SOL     OW25531   0.679   3.129   1.560 -0.0948 -0.4488  0.2670
 4691SOL    HW125532   0.717   3.203   1.607 -0.5612  0.3824 -0.6770
 4691SOL    HW225533   0.586   3.139   1.580 -0.2781  1.9023 -1.8087
 4692SOL     OW25534   2.491   1.237  14.110  0.2518 -0.6110  0.9962
 4692SOL    HW125535   2.577   1.221  14.072  0.3155  0.0612  0.8491
 4692SOL    HW225536   2.499   1.192  14.193  3.1485  0.3209  1.2192
 4693SOL     OW25537   0.940   4.434   0.282 -0.1688  0.0566 -0.0911
 4693SOL    HW125538   0.976   4.438   0.194  1.1082  1.3686  0.4770
 4693SOL    HW225539   1.017   4.455   0.336 -1.7691  0.4077  2.0666
 4694SOL     OW25540   3.047   0.633  11.634  0.0672  0.5980  0.7181
 4694SOL    HW125541   3.041   0.544  11.598 -1.3286  1.0733 -0.1882
 4694SOL    HW225542   3.087   0.619  11.720  0.8493 -1.1203  0.0913
 4695SOL     OW25543   4.720   3.469   5.554 -0.5721 -0.3282 -0.7267
 4695SOL    HW125544   0.074   3.424   5.517  0.8940  0.2942  1.5293
 4695SOL    HW225545   4.662   3.396   5.576 -0.7021 -0.4740 -1.5299
 4696SOL     OW25546   0.853   3.529   6.609 -0.5214 -0.0117 -0.9750
 4696SOL    HW125547   0.863   3.620   6.636  0.3408 -0.8168  1.4045
 4696SOL    HW225548   0.758   3.523   6.609 -0.6528  1.9628 -4.0329
 4697SOL     OW25549   2.370   2.074   5.318  0.0690  0.6122  0.4683
 4697SOL    HW125550   2.417   2.048   5.398 -0.4988 -0.3109  0.4982
 4697SOL    HW225551   2.281   2.095   5.346  0.6726  3.8465 -0.0557
 4698SOL     OW25552   4.390   0.601   3.579  0.4517 -0.0117  0.5718
 4698SOL    HW125553   4.485   0.604   3.588  0.7820 -2.1531 -2.2620
 4698SOL    HW225554   4.378   0.529   3.517 -0.3657 -1.0976  2.0131
 4699SOL     OW25555   0.254   2.728   2.635 -0.1541  0.6321  1.0129
 4699SOL    HW125556   0.172   2.717   2.587 -0.3652  1.2955  1.2182
 4699SOL    HW225557   0.232   2.810   2.681 -0.4115  0.4647  1.1883
 4700SOL     OW25558   0.004   3.214   5.036 -0.2862  0.6254 -0.1449
 4700SOL    HW125559   0.017   3.301   5.074  1.3682  1.2414 -2.1221
 4700SOL    HW225560   4.641   3.195   5.078 -0.1758  1.3121  0.3803
 4701SOL     OW25561   4.145   4.575   5.167  0.1604  0.2378 -0.5128
 4701SOL    HW125562   4.142   4.607   5.077 -2.2648  0.1292 -0.4943
 4701SOL    HW225563   4.186   4.656   5.198 -1.6303  1.3021 -0.9249
 4702SOL     OW25564   0.882   4.376  16.679 -0.6704 -0.3706  0.1539
 4702SOL    HW125565   0.828   4.352  16.754 -1.1189 -2.0960 -0.7085
 4702SOL    HW225566   0.927   4.292  16.667 -0.4883 -0.2524 -0.0069
 4703SOL     OW25567   2.416   3.995  15.262  0.1361 -0.1359 -0.7650
 4703SOL    HW125568   2.339   3.960  15.217 -0.9098 -2.2463  2.7228
 4703SOL    HW225569   2.377   4.065  15.314  0.9382 -1.5969  1.7931
 4704SOL     OW25570   3.177   1.586  12.843  0.3588 -0.0513 -0.6782
 4704SOL    HW125571   3.084   1.605  12.855  0.2276 -1.9140  1.3862
 4704SOL    HW225572   3.199   1.626  12.927 -2.5400 -0.0373  0.0884
 4705SOL     OW25573   3.186   0.154   5.456 -0.7433  0.0038  0.9302
 4705SOL    HW125574   3.149   0.066   5.464 -1.2281  0.1529  0.3010
 4705SOL    HW225575   3.190   0.175   5.550 -1.3149 -0.0460  0.9641
 4706SOL     OW25576   0.363   0.475  11.411 -0.6895 -0.3964  0.1086
 4706SOL    HW125577   0.369   0.450  11.503  0.8600 -1.6808 -0.3475
 4706SOL    HW225578   0.429   0.420  11.371  0.9024  1.8799 -0.4196
 4707SOL     OW25579   3.219   1.658  14.921 -0.1985  0.6756  0.3855
 4707SOL    HW125580   3.126   1.646  14.938 -0.9505  3.6820 -1.5610
 4707SOL    HW225581   3.241   1.585  14.979  0.8634  0.7600  0.0813
 4708SOL     OW25582   0.976   2.454   6.321 -0.1829 -0.1056  0.1322
 4708SOL    HW125583   0.893   2.502   6.319  0.1417  0.5500  1.8244
 4708SOL    HW225584   0.995   2.424   6.232  0.7174  2.6420 -0.5889
 4709SOL     OW25585   0.974   3.373   7.715  0.2402 -0.1700  0.1654
 4709SOL    HW125586   0.938   3.324   7.788 -2.1439 -2.2346 -2.4084
 4709SOL    HW225587   0.897   3.410   7.672 -1.4348 -0.1964  3.1270
 4710SOL     OW25588   2.769   3.428   2.815 -0.5282  0.1604 -0.1818
 4710SOL    HW125589   2.857   3.401   2.844 -0.1990 -0.0749 -1.4112
 4710SOL    HW225590   2.770   3.397   2.725  2.9983 -2.5479  0.7749
 4711SOL     OW25591   0.326   0.968   7.447 -0.5989 -0.0365 -0.3478
 4711SOL    HW125592   0.341   0.892   7.391  1.6660 -0.8018  1.2845
 4711SOL    HW225593   0.378   1.038   7.408 -1.4615  0.6497 -0.2679
 4712SOL     OW25594   2.336   3.874  16.869  0.6300 -0.0744 -0.1105
 4712SOL    HW125595   2.243   3.880  16.888  0.5652 -1.3081 -0.0254
 4712SOL    HW225596   2.337   3.779  16.861  1.5385 -0.0326 -0.4643
 4713SOL     OW25597   2.926   3.129   6.362 -0.7690 -0.5449  0.8220
 4713SOL    HW125598   2.947   3.040   6.333 -0.3829  0.1208 -0.9173
 4713SOL    HW225599   2.852   3.145   6.305 -1.4562 -3.8175  0.7843
 4714SOL     OW25600   3.256   0.703   5.203  0.2125 -0.1837 -0.4683
 4714SOL    HW125601   3.248   0.691   5.297 -1.1377  0.1171 -0.5434
 4714SOL    HW225602   3.256   0.611   5.178  0.3637 -0.7510  1.6162
 4715SOL     OW25603   3.872   2.966   8.890 -0.2964  0.6307  0.4008
 4715SOL    HW125604   3.935   2.894   8.882 -2.6730 -1.5310  1.3144
 4715SOL    HW225605   3.851   2.989   8.799  0.8011 -1.2649 -0.3322
 4716SOL     OW25606   3.819   2.905   9.265  0.5468  0.5770  0.0455
 4716SOL    HW125607   3.838   2.881   9.355 -3.0105 -1.2760  0.3266
 4716SOL    HW225608   3.908   2.905   9.230  0.6024  2.8549  0.2149
 4717SOL     OW25609   2.796   0.719   7.966 -0.4905 -0.0442 -0.2480
 4717SOL    HW125610   2.865   0.781   7.945 -0.1025  0.0860  1.4247
 4717SOL    HW225611   2.827   0.703   8.055  0.5159 -1.4508 -0.8439
 4718SOL     OW25612   0.360   3.892   2.694  0.2087 -0.5974 -0.3350
 4718SOL    HW125613   0.375   3.798   2.688 -1.6650 -0.8652 -1.0504
 4718SOL    HW225614   0.266   3.895   2.676  0.0959 -3.2877 -0.2638
 4719SOL     OW25615   3.908   3.206  14.799 -0.8635  0.6072  0.0425
 4719SOL    HW125616   3.871   3.165  14.878 -0.9959  0.3853 -0.1342
 4719SOL    HW225617   3.870   3.293  14.817  0.9025  1.1202  1.2435
 4720SOL     OW25618   1.237   0.189  14.760  0.3560  0.6647 -0.2183
 4720SOL    HW125619   1.205   0.132  14.690 -1.0969 -0.6292  1.5304
 4720SOL    HW225620   1.194   0.271  14.734  1.3292  1.2837  0.1088
 4721SOL     OW25621   3.512   1.757   3.231  0.5058 -0.1361  0.0945
 4721SOL    HW125622   3.447   1.703   3.275  1.6500 -1.3083  0.3438
 4721SOL    HW225623   3.482   1.847   3.242  2.1395  0.8000 -2.9064
 4722SOL     OW25624   1.958   1.678   6.730 -0.3440  0.5408 -0.4133
 4722SOL    HW125625   1.899   1.748   6.703 -1.1875 -0.8589 -2.2247
 4722SOL    HW225626   1.922   1.608   6.675 -1.5056 -0.2213  1.3484
 4723SOL     OW25627   1.778   1.846   6.222  0.3021  0.2612 -0.3650
 4723SOL    HW125628   1.689   1.882   6.219  0.7178  1.4133  0.9583
 4723SOL    HW225629   1.771   1.758   6.184 -1.0236  1.4096 -2.7588
 4724SOL     OW25630   2.560   3.684   5.507 -0.1832  0.2359 -0.4722
 4724SOL    HW125631   2.587   3.718   5.422  0.9360 -1.7939 -0.9429
 4724SOL    HW225632   2.639   3.684   5.561 -0.1126  0.1657 -0.5753
 4725SOL     OW25633   3.878   2.960   2.879  0.5341 -0.0573  0.1294
 4725SOL    HW125634   3.878   2.865   2.879  2.2291 -0.0448  1.6794
 4725SOL    HW225635   3.971   2.970   2.857  0.1002  2.6683 -0.5434
 4726SOL     OW25636   1.174   3.561   3.462  0.4971  0.0374  0.2889
 4726SOL    HW125637   1.184   3.539   3.555  2.5244 -0.4434 -0.0498
 4726SOL    HW225638   1.221   3.644   3.456  1.6911 -0.7011 -0.5311
 4727SOL     OW25639   4.410   0.199   9.054 -0.0460  0.3341  0.4858
 4727SOL    HW125640   4.467   0.276   9.049 -0.8509  1.0534  2.4042
 4727SOL    HW225641   4.462   0.149   9.117  1.4048  0.7101 -0.4162
 4728SOL     OW25642   1.746   4.363   4.444  0.2761  0.0482 -0.1827
 4728SOL    HW125643   1.764   4.304   4.517  0.1901  0.9920  0.6173
 4728SOL    HW225644   1.680   4.414   4.492  0.0346  0.4170 -0.9045
 4729SOL     OW25645   0.451   2.608   8.290  0.1135 -0.7521  0.2702
 4729SOL    HW125646   0.456   2.697   8.325 -0.4557 -0.9038  0.7421
 4729SOL    HW225647   0.445   2.629   8.196 -0.4712  1.5706  0.8186
 4730SOL     OW25648   2.535   0.179   2.585  0.2302  0.1966  0.1282
 4730SOL    HW125649   2.491   0.233   2.520 -0.8755 -0.9847 -0.1161
 4730SOL    HW225650   2.577   0.250   2.634 -3.0672  1.5531  0.9303
 4731SOL     OW25651   1.248   3.747  10.835 -0.0338 -0.1014  0.3903
 4731SOL    HW125652   1.237   3.809  10.907 -1.7700  0.3412 -0.2423
 4731SOL    HW225653   1.331   3.702  10.851 -0.6093 -1.1311  0.4779
 4732SOL     OW25654   2.149   4.461   7.217  0.0387  0.0240 -0.0924
 4732SOL    HW125655   2.151   4.456   7.121 -0.3624  0.4260 -0.1238
 4732SOL    HW225656   2.089   4.534   7.233 -3.4250 -2.7923 -0.3579
 4733SOL     OW25657   1.133   3.102   6.743  0.5136 -0.1476 -0.4298
 4733SOL    HW125658   1.089   3.184   6.721 -0.3016 -0.7574 -1.0589
 4733SOL    HW225659   1.058   3.043   6.738  0.8763 -0.8117  2.0960
 4734SOL     OW25660   3.157   1.982  14.389  0.6259 -0.2830  0.1390
 4734SOL    HW125661   3.149   1.887  14.380 -0.8440 -0.1396 -0.0327
 4734SOL    HW225662   3.085   2.012  14.334  1.3874  1.0219 -0.1312
 4735SOL     OW25663   3.101   2.316   4.762  0.0280 -0.4267 -0.8290
 4735SOL    HW125664   3.158   2.329   4.687  2.1107  0.4394  0.9087
 4735SOL    HW225665   3.097   2.222   4.777  0.0026 -0.3555 -0.3660
 4736SOL     OW25666   4.005   1.402   3.290 -0.0656 -0.7156 -0.5118
 4736SOL    HW125667   4.060   1.444   3.224  1.1449 -1.0859  0.2728
 4736SOL    HW225668   4.000   1.314   3.255 -1.3316 -1.2570  1.0302
 4737SOL     OW25669   0.377   0.115   4.461 -0.3318 -0.2582  0.0956
 4737SOL    HW125670   0.392   0.101   4.367 -0.3022  0.7494 -0.0522
 4737SOL    HW225671   0.317   0.042   4.475 -1.0668 -0.0101 -1.6794
 4738SOL     OW25672   0.675   0.782   2.580 -0.2822 -0.5474  0.2635
 4738SOL    HW125673   0.642   0.703   2.538 -1.1780  0.0567 -0.1679
 4738SOL    HW225674   0.762   0.780   2.539  0.0381  0.9417  0.8564
 4739SOL     OW25675   2.145   0.624   7.174 -0.0974 -0.4201  0.0054
 4739SOL    HW125676   2.181   0.564   7.240 -1.0565 -0.2014  0.7350
 4739SOL    HW225677   2.221   0.633   7.117  0.9148  0.6143  1.5302
 4740SOL     OW25678   2.678   4.466  14.912  0.1871  0.4543 -0.1492
 4740SOL    HW125679   2.729   4.390  14.883  1.0966  1.8351 -2.1391
 4740SOL    HW225680   2.601   4.422  14.949  0.2768  2.6767  2.6556
 4741SOL     OW25681   0.097   1.443  14.144 -0.2443  0.0860  0.2049
 4741SOL    HW125682   0.127   1.433  14.053  0.3726  1.0156  0.3087
 4741SOL    HW225683   0.019   1.387  14.149  1.9515 -2.9380  1.0933
 4742SOL     OW25684   1.090   3.667   7.141  0.8160  0.3296 -0.3847
 4742SOL    HW125685   1.002   3.686   7.174  1.1320 -0.2637  0.7745
 4742SOL    HW225686   1.096   3.747   7.088  3.2186  0.6423  0.3535
 4743SOL     OW25687   1.692   3.299  16.373  0.0081  1.2055  0.0895
 4743SOL    HW125688   1.725   3.236  16.310  1.7077  2.4143 -0.2272
 4743SOL    HW225689   1.599   3.274  16.376 -0.2087  2.0639  0.5682
 4744SOL     OW25690   0.601   4.382   1.752  0.6452 -0.4087  0.2551
 4744SOL    HW125691   0.594   4.371   1.657  1.4801  1.4636 -0.0221
 4744SOL    HW225692   0.514   4.418   1.767  0.9245 -0.0058  0.8960
 4745SOL     OW25693   0.848   0.364   4.343  0.1704 -0.4780  0.2849
 4745SOL    HW125694   0.787   0.290   4.349  1.5618 -1.6521 -0.1552
 4745SOL    HW225695   0.795   0.426   4.291  0.2007 -0.9921 -0.3656
 4746SOL     OW25696   1.340   0.132   2.592  0.3382  0.6123  0.0447
 4746SOL    HW125697   1.263   0.077   2.576  0.7279  0.3507 -0.9465
 4746SOL    HW225698   1.375   0.085   2.667  0.4543 -0.6529 -0.8000
 4747SOL     OW25699   4.175   2.980   6.278  0.3643  0.4769  0.0650
 4747SOL    HW125700   4.224   2.915   6.329  0.3054 -0.9552 -1.7121
 4747SOL    HW225701   4.115   2.926   6.227 -1.3052  1.6597  0.7826
 4748SOL     OW25702   0.064   0.520  11.248 -0.3882 -0.2119  0.1383
 4748SOL    HW125703   0.063   0.449  11.184 -3.5820  0.9293 -1.0560
 4748SOL    HW225704   0.091   0.488  11.334  0.0509  1.2137  0.5314
 4749SOL     OW25705   0.316   1.881   2.852 -0.1720 -0.4551  0.1813
 4749SOL    HW125706   0.335   1.845   2.939 -1.4846 -1.0928  0.2001
 4749SOL    HW225707   0.307   1.804   2.797 -0.8227 -0.3315  0.1181
 4750SOL     OW25708   0.584   0.638   1.042  0.3083  0.2492  0.1740
 4750SOL    HW125709   0.675   0.661   1.059  0.7106 -1.2874  0.0666
 4750SOL    HW225710   0.602   0.568   0.979 -0.2169 -0.9088  1.3126
 4751SOL     OW25711   2.059   1.253   2.972  0.9145  0.3899 -0.1358
 4751SOL    HW125712   1.987   1.316   2.979 -0.1626 -0.6839 -1.3835
 4751SOL    HW225713   2.120   1.323   2.949  0.6955  0.5241 -0.3150
 4752SOL     OW25714   1.662   0.399   3.908  0.6916 -0.1642 -0.3801
 4752SOL    HW125715   1.611   0.390   3.989 -0.4937 -0.7039 -1.1763
 4752SOL    HW225716   1.602   0.344   3.857  0.9424  1.7550 -2.7067
 4753SOL     OW25717   1.548   0.582  15.118  0.0304 -0.4953  0.2429
 4753SOL    HW125718   1.573   0.566  15.209 -1.1303 -0.6122  0.5308
 4753SOL    HW225719   1.622   0.639  15.097 -0.1544 -0.3849 -0.1009
 4754SOL     OW25720   1.662   4.176   0.378 -0.1757 -0.6008 -0.6861
 4754SOL    HW125721   1.594   4.243   0.389  0.6175 -0.0936  1.2123
 4754SOL    HW225722   1.698   4.224   0.303  0.9595 -2.6229 -1.4319
 4755SOL     OW25723   2.896   1.760   4.968  0.1754  0.4166 -0.6554
 4755SOL    HW125724   2.858   1.700   4.904 -2.3127  1.4928 -0.1687
 4755SOL    HW225725   2.848   1.841   4.953 -0.2555  0.1583 -0.6686
 4756SOL     OW25726   2.681   3.879   3.196  0.3960  0.0805 -0.3750
 4756SOL    HW125727   2.688   3.784   3.197 -0.8794 -0.0269 -1.0597
 4756SOL    HW225728   2.680   3.899   3.102  0.2172  2.6019  0.1546
 4757SOL     OW25729   1.937   2.372   5.349  0.0319  0.1704 -0.1848
 4757SOL    HW125730   1.962   2.416   5.431  0.6875 -0.8314  0.1466
 4757SOL    HW225731   1.878   2.301   5.373 -1.4203  1.3748 -0.2339
 4758SOL     OW25732   1.269   2.127   6.696 -0.1054  0.0803  0.0866
 4758SOL    HW125733   1.363   2.124   6.714 -0.3047  0.1790  1.1768
 4758SOL    HW225734   1.241   2.051   6.748  0.9491  0.5299  1.3133
 4759SOL     OW25735   2.637   1.456   4.315  0.4707 -0.4658  0.1651
 4759SOL    HW125736   2.693   1.448   4.238 -0.6225  1.4982 -0.8454
 4759SOL    HW225737   2.575   1.520   4.279  0.4334 -0.2864  0.5497
 4760SOL     OW25738   4.439   2.715   8.620  0.2067  0.4411  0.1883
 4760SOL    HW125739   4.382   2.646   8.654 -0.5124  1.0330  0.1890
 4760SOL    HW225740   4.480   2.660   8.553  2.1157  0.8908  0.9948
 4761SOL     OW25741   0.612   2.987   6.922 -0.4139 -0.1604 -0.3301
 4761SOL    HW125742   0.556   2.936   6.981 -0.9769  0.7519 -0.0839
 4761SOL    HW225743   0.606   3.073   6.963 -3.2030  0.7829 -2.7087
 4762SOL     OW25744   0.092   1.574   5.419  0.5516 -0.0346  0.2540
 4762SOL    HW125745   0.028   1.503   5.416  0.5000  0.0533 -0.5647
 4762SOL    HW225746   0.061   1.636   5.486  0.7824  0.2268  0.1151
 4763SOL     OW25747   1.920   3.397   4.864 -0.2626  0.8313 -0.8672
 4763SOL    HW125748   1.997   3.443   4.830 -0.2601 -0.0497 -2.0678
 4763SOL    HW225749   1.902   3.337   4.792 -0.9481  0.9628 -0.8028
 4764SOL     OW25750   0.379   1.718   6.704 -0.4706 -0.2765  0.3833
 4764SOL    HW125751   0.326   1.786   6.746  0.8876 -0.0615  1.7613
 4764SOL    HW225752   0.421   1.761   6.630  2.2321  0.0636  2.1071
 4765SOL     OW25753   1.166   0.913   0.847  0.5202 -0.1623  0.0221
 4765SOL    HW125754   1.254   0.893   0.878  0.3803 -0.2584  0.3609
 4765SOL    HW225755   1.129   0.953   0.926  1.6568  0.9248  0.0040
 4766SOL     OW25756   0.940   1.313  12.781 -0.1145 -0.0790  0.3590
 4766SOL    HW125757   0.957   1.219  12.778 -1.8518 -0.3844  0.0166
 4766SOL    HW225758   0.876   1.334  12.850 -2.8075 -1.7845 -1.6427
 4767SOL     OW25759   0.973   1.748   0.743  0.4780  0.1603  0.3349
 4767SOL    HW125760   0.987   1.655   0.723 -0.8263 -0.0831  0.6047
 4767SOL    HW225761   1.065   1.765   0.766  0.3009  2.4023 -0.6367
 4768SOL     OW25762   4.607   3.440   2.892  0.2299  0.9635 -0.2303
 4768SOL    HW125763   4.637   3.460   2.981  0.4786 -0.3788 -0.0204
 4768SOL    HW225764   4.573   3.352   2.903 -0.2191  1.5528  3.1377
 4769SOL     OW25765   4.148   1.998   4.118 -0.1193 -0.9744 -0.3529
 4769SOL    HW125766   4.153   2.023   4.210 -1.6099 -0.4455 -0.4135
 4769SOL    HW225767   4.063   1.954   4.118 -0.0531 -1.1006  0.2410
 4770SOL     OW25768   4.435   1.974  14.986 -0.3927 -0.4559 -0.1355
 4770SOL    HW125769   4.388   1.974  15.070 -2.4080  1.1548 -1.2655
 4770SOL    HW225770   4.386   2.037  14.933 -1.2965  0.7539  2.0996
 4771SOL     OW25771   1.764   3.610   9.277 -0.2700 -0.7547 -0.6377
 4771SOL    HW125772   1.706   3.668   9.326  2.9558 -1.0478  3.4939
 4771SOL    HW225773   1.809   3.571   9.352 -0.9823 -0.6435 -0.1565
 4772SOL     OW25774   0.159   0.898   4.756  0.3418 -0.1201 -0.3136
 4772SOL    HW125775   0.220   0.881   4.828 -0.9899 -0.1550  0.7917
 4772SOL    HW225776   0.201   0.974   4.717 -0.3724  0.4665  0.0671
 4773SOL     OW25777   0.679   1.579  16.569 -0.1293  0.2749 -0.4093
 4773SOL    HW125778   0.594   1.537  16.577 -0.7314  1.6350  0.3437
 4773SOL    HW225779   0.732   1.543  16.641 -1.8969 -1.2798  0.1142
 4774SOL     OW25780   2.461   0.996   4.880  0.0525  0.2440  0.3653
 4774SOL    HW125781   2.476   1.027   4.791  1.0405  0.3476  0.5609
 4774SOL    HW225782   2.476   1.077   4.930  0.0524  1.5772 -1.8085
 4775SOL     OW25783   4.297   4.256  16.176  0.0950  0.2971  0.6809
 4775SOL    HW125784   4.216   4.211  16.155  1.0308 -1.0667 -0.0076
 4775SOL    HW225785   4.281   4.293  16.263 -5.5034 -1.5994  0.4001
 4776SOL     OW25786   1.246   3.137  13.523 -0.1799  0.3370  0.4775
 4776SOL    HW125787   1.157   3.131  13.556 -0.3079  0.9314  0.2332
 4776SOL    HW225788   1.275   3.220  13.560  0.6665 -1.6398  4.1819
 4777SOL     OW25789   1.805   3.192  12.379 -0.2286 -0.7228 -0.1995
 4777SOL    HW125790   1.742   3.225  12.315 -0.5096 -0.0784  0.4047
 4777SOL    HW225791   1.846   3.116  12.339 -1.4580 -1.7699  0.5197
 4778SOL     OW25792   4.093   0.241   0.759  0.1683 -0.0312  0.2832
 4778SOL    HW125793   4.180   0.202   0.768  0.1473 -0.2478 -0.4417
 4778SOL    HW225794   4.044   0.163   0.786  1.9773 -0.1747  3.0861
 4779SOL     OW25795   2.678   2.563  17.351  0.5785 -0.0056 -0.2318
 4779SOL    HW125796   2.594   2.563  17.305 -0.7396  2.6870  2.2460
 4779SOL    HW225797   2.673   2.645  17.400  0.4566 -0.3529  0.3246
 4780SOL     OW25798   2.244   1.413   3.962  0.0336  0.6204  0.1769
 4780SOL    HW125799   2.211   1.355   3.893 -0.0618  2.3953 -1.2623
 4780SOL    HW225800   2.334   1.381   3.955 -0.3814 -0.7554  1.1484
 4781SOL     OW25801   4.441   2.695   8.132  0.3265 -0.4419 -0.5021
 4781SOL    HW125802   4.441   2.738   8.047 -3.5750  1.9598  0.7015
 4781SOL    HW225803   4.534   2.694   8.152  0.5162 -1.0542 -1.4118
 4782SOL     OW25804   4.158   0.465   5.739 -0.2804 -1.0145  0.2038
 4782SOL    HW125805   4.208   0.456   5.659  0.0249  0.7908  0.2000
 4782SOL    HW225806   4.194   0.387   5.782  0.1421 -0.8695  0.1066
 4783SOL     OW25807   0.768   0.263   2.395  0.3099  0.3286  0.1423
 4783SOL    HW125808   0.731   0.290   2.311 -0.2480 -1.5084 -0.2121
 4783SOL    HW225809   0.788   0.170   2.390 -0.2200  0.2808 -1.1295
 4784SOL     OW25810   0.103   0.212   6.542 -0.3708 -0.1572 -0.8078
 4784SOL    HW125811   0.157   0.138   6.569 -3.7482 -1.7588  1.5064
 4784SOL    HW225812   0.139   0.228   6.454  0.3630  0.3110 -0.4220
 4785SOL     OW25813   0.395   3.689   6.822  0.5085 -0.0821 -0.0593
 4785SOL    HW125814   0.330   3.757   6.804  0.4357 -0.7894 -2.5192
 4785SOL    HW225815   0.350   3.641   6.891  0.2940  0.5886  0.2644
 4786SOL     OW25816   2.709   3.665   4.695 -0.5276 -0.5046 -0.5210
 4786SOL    HW125817   2.772   3.609   4.742 -0.4392  1.4338  1.6684
 4786SOL    HW225818   2.716   3.640   4.603  1.4154  1.3712 -0.8832
 4787SOL     OW25819   4.491   0.146  13.245  0.4789  0.2039 -0.5239
 4787SOL    HW125820   4.521   0.056  13.230 -0.6271  0.0034 -1.5227
 4787SOL    HW225821   4.397   0.143  13.234  0.4726 -2.1174  0.0981
 4788SOL     OW25822   3.423   3.206   9.428 -0.0775 -0.2256 -0.9232
 4788SOL    HW125823   3.490   3.248   9.374 -1.5021  0.1772 -2.3778
 4788SOL    HW225824   3.403   3.123   9.385 -0.4380 -1.3332  1.3975
 4789SOL     OW25825   3.819   0.750  12.739 -0.3929  0.0775 -0.3812
 4789SOL    HW125826   3.754   0.819  12.727 -1.8908 -1.6923 -2.3537
 4789SOL    HW225827   3.792   0.735  12.829  0.2541 -1.1541 -0.3879
 4790SOL     OW25828   2.582   0.055   0.394 -0.0189 -0.4110 -0.0798
 4790SOL    HW125829   2.621   0.113   0.459  2.0460 -0.7324 -1.0128
 4790SOL    HW225830   2.656   0.037   0.336  1.1236 -0.2544  1.3253
 4791SOL     OW25831   4.304   3.217  11.269  0.2006 -0.1086 -0.5298
 4791SOL    HW125832   4.221   3.196  11.311  1.0087  0.4200  1.3209
 4791SOL    HW225833   4.304   3.141  11.209 -0.1646  0.1368 -0.8441
 4792SOL     OW25834   3.135   1.006   3.860 -0.8623  0.6178 -0.5730
 4792SOL    HW125835   3.226   1.019   3.887 -1.2726  0.1221  1.0432
 4792SOL    HW225836   3.131   0.926   3.806 -1.9234  2.0736 -2.6832
 4793SOL     OW25837   3.755   2.059  12.980 -0.0590 -0.3274  0.0162
 4793SOL    HW125838   3.796   2.144  12.995 -3.2650  1.2583 -0.1329
 4793SOL    HW225839   3.829   2.006  12.950  0.8217  0.2490  1.1743
 4794SOL     OW25840   3.359   1.969  12.174  0.2019  0.0517  0.2421
 4794SOL    HW125841   3.362   1.999  12.084 -2.6134  0.8437  0.3968
 4794SOL    HW225842   3.338   2.051  12.219  0.1941 -0.2620  0.8255
 4795SOL     OW25843   1.190   3.953  10.075  0.5509  0.4276 -0.3855
 4795SOL    HW125844   1.136   4.012  10.023  0.8229  1.2503  0.2712
 4795SOL    HW225845   1.132   3.932  10.148 -0.7190  0.2008 -1.4706
 4796SOL     OW25846   2.553   4.343   9.604  0.4446 -0.0363  0.0276
 4796SOL    HW125847   2.641   4.309   9.594  0.0632 -0.9479 -0.2098
 4796SOL    HW225848   2.514   4.339   9.517  3.2430  0.5941 -1.2558
 4797SOL     OW25849   4.062   2.420  12.313  0.2643  0.1276  0.2122
 4797SOL    HW125850   4.024   2.414  12.401 -3.2062 -1.7222 -1.4271
 4797SOL    HW225851   4.063   2.514  12.298 -1.0858  0.1930  0.4992
 4798SOL     OW25852   3.700   2.711   0.531 -0.0297 -0.7791 -0.4858
 4798SOL    HW125853   3.656   2.629   0.507 -2.9000  0.9779 -1.1625
 4798SOL    HW225854   3.777   2.694   0.477  0.8530 -1.5266  0.9914
 4799SOL     OW25855   4.554   4.212   2.996  0.2936 -0.3666 -0.4932
 4799SOL    HW125856   4.555   4.120   2.969 -0.8590 -1.5173  3.3199
 4799SOL    HW225857   4.648   4.228   2.989  0.0481  1.4741  0.5391
 4800SOL     OW25858   1.114   1.127   4.892 -0.0418 -0.8730 -0.0491
 4800SOL    HW125859   1.169   1.055   4.924 -1.9284 -2.2128  0.1991
 4800SOL    HW225860   1.043   1.122   4.957  0.0027 -3.1952 -0.1592
 4801SOL     OW25861   0.038   0.161   4.494  0.1240  0.0614  0.2945
 4801SOL    HW125862   0.086   0.165   4.577  1.6046  1.2960 -0.6295
 4801SOL    HW225863   0.073   0.075   4.471 -0.9822  0.2209 -1.9035
 4802SOL     OW25864   3.291   2.067   4.162  0.4052 -0.0775  0.1711
 4802SOL    HW125865   3.237   2.065   4.083 -1.3844  0.0230  1.3973
 4802SOL    HW225866   3.266   1.980   4.195 -0.2294  0.2137  0.4488
 4803SOL     OW25867   3.754   0.366   3.027  0.3424 -0.0131 -0.2305
 4803SOL    HW125868   3.717   0.278   3.034  2.3609 -0.8470 -0.0678
 4803SOL    HW225869   3.839   0.361   2.983 -0.2468  1.6060 -1.5507
 4804SOL     OW25870   3.470   3.521   6.855 -0.5910  0.3221  0.6118
 4804SOL    HW125871   3.533   3.590   6.835  0.1175 -0.2366  0.8929
 4804SOL    HW225872   3.479   3.455   6.786 -3.3222  0.5674  0.0299
 4805SOL     OW25873   3.031   0.628   3.333  0.0686 -0.3874  0.0613
 4805SOL    HW125874   3.121   0.622   3.301 -0.5069  0.9160 -1.8691
 4805SOL    HW225875   2.985   0.645   3.251 -1.8681 -1.0218  1.0301
 4806SOL     OW25876   3.305   2.280   8.951  0.0805 -0.1351  0.0536
 4806SOL    HW125877   3.344   2.348   9.006 -0.1884  0.1489 -0.1056
 4806SOL    HW225878   3.214   2.308   8.953  0.3088  0.5772  0.7188
 4807SOL     OW25879   1.334   2.296   3.457  0.0072 -0.2175  0.1278
 4807SOL    HW125880   1.325   2.341   3.540 -1.4990 -1.0746  0.4171
 4807SOL    HW225881   1.349   2.367   3.393 -2.7713 -0.0787 -0.3864
 4808SOL     OW25882   1.624   3.441   6.320 -0.2973 -0.3477 -0.2838
 4808SOL    HW125883   1.592   3.530   6.305  0.6613  0.1716  0.7787
 4808SOL    HW225884   1.657   3.441   6.410  0.5558 -2.4342 -0.5853
 4809SOL     OW25885   2.968   2.345  17.539 -0.1881 -0.4548 -0.1030
 4809SOL    HW125886   2.977   2.433  17.502  0.8992 -0.2610  0.6388
 4809SOL    HW225887   3.047   2.346  17.593  0.8973  0.1680 -1.7058
 4810SOL     OW25888   2.259   1.788  14.712 -0.1271  0.4350  0.2832
 4810SOL    HW125889   2.303   1.767  14.630  1.1806 -0.3331  1.1747
 4810SOL    HW225890   2.166   1.771  14.698  0.7983 -3.1340 -1.6617
 4811SOL     OW25891   2.020   3.381  12.363 -0.1954 -0.2923  0.5836
 4811SOL    HW125892   2.033   3.389  12.458 -0.5309  0.4174  0.5712
 4811SOL    HW225893   1.993   3.289  12.366 -0.8654 -0.1137  0.1609
 4812SOL     OW25894   1.058   3.251  11.094 -0.0829  0.3510 -0.7519
 4812SOL    HW125895   0.981   3.195  11.087 -0.8133  1.1240  1.0483
 4812SOL    HW225896   1.031   3.313  11.027  0.2523  2.0288  0.6536
 4813SOL     OW25897   3.410   1.160   7.128 -0.1798  0.0524 -0.1089
 4813SOL    HW125898   3.439   1.248   7.152 -0.8882  0.2837 -0.1107
 4813SOL    HW225899   3.471   1.123   7.063 -0.7242 -2.1203  0.6360
 4814SOL     OW25900   0.435   4.510   0.357 -0.1266 -0.6531 -0.2866
 4814SOL    HW125901   0.459   4.591   0.401 -0.3879 -0.3469 -0.7033
 4814SOL    HW225902   0.395   4.542   0.276  0.2538 -0.8802 -0.5670
 4815SOL     OW25903   4.369   2.339   6.944  0.2830 -0.9381  0.0121
 4815SOL    HW125904   4.464   2.330   6.933  0.0392 -2.0971 -1.0628
 4815SOL    HW225905   4.337   2.396   6.874  1.0546 -0.3154  0.1666
 4816SOL     OW25906   1.986   1.908   5.273 -0.1755  0.4500  0.4610
 4816SOL    HW125907   2.076   1.905   5.305  1.1290 -0.5983 -3.3624
 4816SOL    HW225908   2.005   1.963   5.197 -2.9126 -1.8528 -1.9010
 4817SOL     OW25909   4.624   0.493   3.956  0.1568  0.0497  0.9558
 4817SOL    HW125910   4.534   0.503   3.988  0.4407  0.1772  1.7202
 4817SOL    HW225911   4.643   0.581   3.925 -1.7244 -0.1445 -0.7749
 4818SOL     OW25912   1.605   0.799   4.115 -0.3936 -0.2347  0.4540
 4818SOL    HW125913   1.581   0.831   4.202  0.3000 -0.4315  0.7162
 4818SOL    HW225914   1.521   0.772   4.079 -1.2428  0.9542  1.5213
 4819SOL     OW25915   0.782   0.831   7.877 -0.6642  0.0581 -0.1379
 4819SOL    HW125916   0.867   0.876   7.870  0.1211 -0.9057  3.1422
 4819SOL    HW225917   0.792   0.771   7.803  0.6213 -1.1622  1.0194
 4820SOL     OW25918   0.225   2.778  13.017  0.5278 -0.2204 -0.8322
 4820SOL    HW125919   0.206   2.785  12.924 -2.1021  3.3684  0.0041
 4820SOL    HW225920   0.154   2.721  13.048 -0.6406  1.9231  0.3991
 4821SOL     OW25921   4.311   2.832  16.712  0.8041 -0.1359 -0.4821
 4821SOL    HW125922   4.261   2.906  16.678  2.2088  1.3286  0.6445
 4821SOL    HW225923   4.399   2.864  16.695  1.0530 -0.3284  0.4330
 4822SOL     OW25924   0.420   0.714  16.898  0.1287 -0.2097  0.8232
 4822SOL    HW125925   0.341   0.749  16.857  0.5727  2.0404  1.8883
 4822SOL    HW225926   0.439   0.633  16.850 -3.0589 -0.4565 -0.0314
 4823SOL     OW25927   2.241   2.977  11.881  0.3150  0.3438 -0.0090
 4823SOL    HW125928   2.321   2.954  11.834  0.9423  1.5482  0.4902
 4823SOL    HW225929   2.188   3.026  11.818  0.8072  1.2411  0.2832
 4824SOL     OW25930   2.863   2.040   8.184 -0.0382 -0.0478 -1.0432
 4824SOL    HW125931   2.837   2.117   8.234 -0.6135 -0.5668 -0.5401
 4824SOL    HW225932   2.864   1.970   8.250 -0.1389  2.9221  2.1520
 4825SOL     OW25933   1.540   1.176   0.166  0.4079 -0.4699 -0.6639
 4825SOL    HW125934   1.634   1.167   0.180  0.2661 -0.2770  0.4167
 4825SOL    HW225935   1.495   1.151   0.247  1.8352 -1.5397 -0.2210
 4826SOL     OW25936   1.497   3.366   1.440 -0.1667 -0.1359  0.6717
 4826SOL    HW125937   1.591   3.352   1.431 -0.5212 -0.4875 -2.4598
 4826SOL    HW225938   1.481   3.400   1.528 -0.9046 -0.0650  0.5082
 4827SOL     OW25939   4.328   4.431   7.797 -0.2495  0.1860  0.4645
 4827SOL    HW125940   4.314   4.359   7.734  1.3640 -1.1546  1.6160
 4827SOL    HW225941   4.379   4.498   7.751  0.2846  0.4042  1.3701
 4828SOL     OW25942   1.149   0.822   5.005 -0.4251 -0.2898  0.4987
 4828SOL    HW125943   1.239   0.849   4.986 -0.3832 -1.2488 -0.6589
 4828SOL    HW225944   1.140   0.743   4.953  0.9951 -1.0465  1.4101
 4829SOL     OW25945   4.065   1.473  14.659 -0.1549  0.0742 -0.8078
 4829SOL    HW125946   4.130   1.515  14.716 -1.1334  0.8625 -0.2655
 4829SOL    HW225947   3.997   1.509  14.716 -0.7831  1.5898 -2.5109
 4830SOL     OW25948   0.173   1.439   8.267  0.6131  0.3555 -0.5631
 4830SOL    HW125949   0.216   1.499   8.207 -0.6461  0.7821 -1.0214
 4830SOL    HW225950   0.244   1.379   8.290  0.4871  0.0064 -1.0907
 4831SOL     OW25951   4.324   3.310  14.839 -0.5073 -0.0752 -0.0514
 4831SOL    HW125952   4.263   3.247  14.803  1.4352 -1.0798 -1.5361
 4831SOL    HW225953   4.266   3.346  14.907 -1.8959  0.8561 -1.7292
 4832SOL     OW25954   2.274   4.073   6.938 -0.1800 -0.5019 -0.0994
 4832SOL    HW125955   2.185   4.039   6.943 -0.5227  0.5700  1.1098
 4832SOL    HW225956   2.274   4.093   6.844 -1.2213 -2.4789 -0.5219
 4833SOL     OW25957   0.691   4.398   4.802  0.8344 -0.2336 -0.3470
 4833SOL    HW125958   0.606   4.389   4.845  0.2455 -0.5354 -1.5845
 4833SOL    HW225959   0.735   4.328   4.850  0.8447  1.3220  1.9079
 4834SOL     OW25960   2.699   4.274   4.011  0.3088  0.0685 -0.1505
 4834SOL    HW125961   2.766   4.325   4.056  1.8473 -1.7392 -0.3625
 4834SOL    HW225962   2.733   4.266   3.922 -1.6256  0.7144 -0.9525
 4835SOL     OW25963   4.014   1.544   8.518 -0.7340  0.3678 -0.1538
 4835SOL    HW125964   4.083   1.601   8.553 -0.8173  1.2581 -1.4299
 4835SOL    HW225965   4.047   1.457   8.537 -0.1495  0.6204 -0.0102
 4836SOL     OW25966   4.611   0.191   6.370 -0.1842 -0.0604  0.6663
 4836SOL    HW125967   4.701   0.211   6.344  0.3758 -0.8822  2.0005
 4836SOL    HW225968   4.623   0.180   6.464 -0.2295  1.6091  0.8718
 4837SOL     OW25969   2.764   1.760   3.785 -0.1204  0.1523 -0.0389
 4837SOL    HW125970   2.720   1.792   3.706 -0.3113 -0.1117 -0.0395
 4837SOL    HW225971   2.855   1.771   3.758  0.6876 -0.2361  2.4959
 4838SOL     OW25972   3.659   0.653   3.834  0.2241 -0.0659 -0.1036
 4838SOL    HW125973   3.588   0.594   3.858 -0.5416  0.5559 -0.8435
 4838SOL    HW225974   3.732   0.618   3.885  0.8262 -1.5477 -1.9932
 4839SOL     OW25975   0.591   3.660  10.448 -0.1033 -0.1489  0.2064
 4839SOL    HW125976   0.627   3.730  10.394  0.5825 -0.9133 -0.3248
 4839SOL    HW225977   0.675   3.627  10.477 -1.1210 -1.2491  1.8707
 4840SOL     OW25978   0.464   4.353  14.540 -0.2275 -0.4089 -0.3351
 4840SOL    HW125979   0.543   4.386  14.497 -0.8681  0.3246 -0.9672
 4840SOL    HW225980   0.431   4.285  14.481 -2.0331  2.5348 -2.7101
 4841SOL     OW25981   1.882   1.690   7.633  0.1974  0.5055  0.2239
 4841SOL    HW125982   1.832   1.672   7.713 -1.1817 -0.6852 -0.9340
 4841SOL    HW225983   1.807   1.714   7.579 -0.2682 -1.1020  0.1687
 4842SOL     OW25984   4.627   3.554   4.877  0.7047  0.1182  0.1892
 4842SOL    HW125985   4.618   3.487   4.944 -3.1265 -0.2973 -0.7763
 4842SOL    HW225986   4.538   3.585   4.861  0.3333 -0.2131  1.6269
 4843SOL     OW25987   3.979   2.383   7.724 -0.5533  0.1538 -0.2085
 4843SOL    HW125988   4.063   2.429   7.730  0.0354 -0.9099 -0.2916
 4843SOL    HW225989   4.000   2.313   7.662 -1.9192 -2.5780  2.4157
 4844SOL     OW25990   0.202   2.405  10.214 -0.2010 -0.2576 -0.2773
 4844SOL    HW125991   0.151   2.484  10.195  0.0362  0.3270  1.5401
 4844SOL    HW225992   0.161   2.339  10.158  1.0146 -0.2229 -1.1899
 4845SOL     OW25993   0.410   2.574  16.897  0.4135 -0.1151 -0.1994
 4845SOL    HW125994   0.472   2.638  16.931 -1.3224  1.6438 -0.4124
 4845SOL    HW225995   0.335   2.626  16.923 -0.1527 -1.6568  1.2737
 4846SOL     OW25996   0.543   1.491   6.746  0.4748  0.3032  0.7567
 4846SOL    HW125997   0.502   1.418   6.700 -0.6254 -0.2863  2.6458
 4846SOL    HW225998   0.485   1.560   6.715  2.1712  0.4962 -2.0002
 4847SOL     OW25999   3.151   4.693   2.730  0.2919 -0.1139  0.2373
 4847SOL    HW126000   3.147   4.597   2.735 -1.4880 -0.1216 -1.2731
 4847SOL    HW226001   3.137   4.716   2.822  1.5355  1.3158  0.0661
 4848SOL     OW26002   0.044   2.587  13.106 -0.1492  0.7087  0.0455
 4848SOL    HW126003   4.686   2.641  13.105 -0.0050  0.9169 -1.7776
 4848SOL    HW226004   4.715   2.505  13.106  2.2644 -0.7766 -1.5801
 4849SOL     OW26005   1.238   3.435   7.179 -0.5070  0.8147  0.5997
 4849SOL    HW126006   1.293   3.394   7.112 -1.7651  1.6799 -0.9489
 4849SOL    HW226007   1.196   3.508   7.134 -1.3760  0.0940  0.2318
 4850SOL     OW26008   4.380   2.154  10.614 -0.3234  0.2652  0.5519
 4850SOL    HW126009   4.388   2.144  10.709  0.0788 -1.7462  0.3131
 4850SOL    HW226010   4.472   2.161  10.588 -0.0538  0.9342  1.7020
 4851SOL     OW26011   3.457   2.581   8.542  0.1543 -0.5396  0.0038
 4851SOL    HW126012   3.408   2.658   8.571  1.5331 -0.7361  2.8594
 4851SOL    HW226013   3.517   2.569   8.616 -0.2678 -0.2499  0.3916
 4852SOL     OW26014   3.342   3.074   8.950  0.3993  0.7813  0.2032
 4852SOL    HW126015   3.342   3.166   8.975 -1.1891  1.3504 -1.9466
 4852SOL    HW226016   3.413   3.039   9.004 -0.6213  0.2262  1.1716
 4853SOL     OW26017   2.156   3.431   2.198 -0.1255 -0.3000 -0.2988
 4853SOL    HW126018   2.242   3.470   2.182  0.4934 -0.9110  1.5943
 4853SOL    HW226019   2.112   3.487   2.133 -0.7042  0.5959  0.8748
 4854SOL     OW26020   2.390   0.156  10.724  0.3045  1.0878  0.6474
 4854SOL    HW126021   2.461   0.200  10.677  1.0724  0.0754  0.8710
 4854SOL    HW226022   2.396   0.063  10.702 -0.8638  1.9116 -3.1290
 4855SOL     OW26023   0.712   4.363   0.980  0.5444  0.2441  0.2408
 4855SOL    HW126024   0.793   4.314   0.993  0.8075  0.7396  0.4637
 4855SOL    HW226025   0.713   4.384   0.886 -0.1722 -2.9139 -0.4925
 4856SOL     OW26026   0.911   0.240   8.169  0.4538 -0.5966 -0.2611
 4856SOL    HW126027   0.931   0.307   8.234  2.2094 -1.6255  0.2715
 4856SOL    HW226028   0.969   0.256   8.095  0.0572 -0.6373 -0.5821
 4857SOL     OW26029   1.884   0.774   4.066 -0.0316  0.6868 -0.3169
 4857SOL    HW126030   1.898   0.731   3.982  0.9725  0.9763 -0.3030
 4857SOL    HW226031   1.790   0.770   4.078 -0.7084 -0.1002 -5.9565
 4858SOL     OW26032   1.639   2.980   3.399  0.5307 -0.0849 -0.4471
 4858SOL    HW126033   1.703   3.050   3.394 -1.3591  1.6277 -0.8733
 4858SOL    HW226034   1.568   3.009   3.341  0.3515  0.0780 -0.1472
 4859SOL     OW26035   3.947   1.783   2.462 -0.6596  0.4786 -0.4062
 4859SOL    HW126036   4.013   1.836   2.418  1.1487 -1.3332  0.1365
 4859SOL    HW226037   3.873   1.785   2.401 -1.3668  0.4595  0.4409
 4860SOL     OW26038   2.502   1.925  11.643 -0.2063 -0.3652  0.4249
 4860SOL    HW126039   2.477   2.015  11.621  0.2300 -0.2213  0.5254
 4860SOL    HW226040   2.430   1.891  11.697  1.2990  0.3010  2.8240
 4861SOL     OW26041   1.467   0.484   9.339 -0.5729 -0.0488 -0.3210
 4861SOL    HW126042   1.419   0.566   9.333 -2.0479 -1.0345 -1.9223
 4861SOL    HW226043   1.409   0.430   9.285  1.3078 -1.8549 -0.5304
 4862SOL     OW26044   1.621   4.582   3.996  0.1210 -0.7108  0.0286
 4862SOL    HW126045   1.706   4.584   3.952  0.2702 -1.0008  0.3047
 4862SOL    HW226046   1.646   4.553   4.084  1.9318 -0.6401 -0.4710
 4863SOL     OW26047   2.837   2.036   4.211 -0.6645  0.1341  0.1429
 4863SOL    HW126048   2.862   2.129   4.208  0.9976 -0.3025  0.7545
 4863SOL    HW226049   2.819   2.026   4.304  0.7064 -1.4502  0.2185
 4864SOL     OW26050   4.434   2.261   6.586 -0.2303 -0.1547 -0.5116
 4864SOL    HW126051   4.476   2.186   6.629 -0.2002  0.7267  0.9778
 4864SOL    HW226052   4.510   2.298   6.540  0.3243 -0.0636  0.4764
 4865SOL     OW26053   1.588   2.507  15.014 -0.0490  0.7332 -0.3964
 4865SOL    HW126054   1.533   2.545  15.083  0.9098  1.9482 -0.3107
 4865SOL    HW226055   1.648   2.451  15.063 -0.6249 -0.5143 -1.0927
 4866SOL     OW26056   1.396   3.716   3.954  0.1743 -0.1139  0.4331
 4866SOL    HW126057   1.428   3.723   4.044  0.8862 -3.0835  0.3976
 4866SOL    HW226058   1.460   3.768   3.904 -0.6705  0.6220  0.1161
 4867SOL     OW26059   1.095   3.015   8.655  0.2785  0.3370  0.0416
 4867SOL    HW126060   1.090   3.070   8.733 -0.1272 -0.7550  0.7838
 4867SOL    HW226061   1.047   3.064   8.588  1.7709  0.9212 -0.5985
 4868SOL     OW26062   2.018   4.001   6.409  0.4674 -0.3910 -0.4316
 4868SOL    HW126063   2.101   3.976   6.451  1.3306  1.7926 -0.8586
 4868SOL    HW226064   1.956   3.929   6.419 -0.1293 -0.0355 -1.5013
 4869SOL     OW26065   0.214   0.547   8.557 -1.0676 -0.1610  0.5212
 4869SOL    HW126066   0.242   0.610   8.491 -0.5720  0.7203  1.5681
 4869SOL    HW226067   0.160   0.606   8.610 -1.4376  2.0411 -2.2640
 4870SOL     OW26068   2.548   4.049  12.057  0.0234  0.0906 -0.5315
 4870SOL    HW126069   2.548   4.140  12.086  0.3318 -0.0515 -0.0866
 4870SOL    HW226070   2.455   4.030  12.048 -0.0035 -0.9840  2.0092
 4871SOL     OW26071   2.950   3.283  12.771 -0.2775 -0.3233 -0.0368
 4871SOL    HW126072   2.968   3.212  12.709  1.5753  1.4688 -1.5051
 4871SOL    HW226073   3.031   3.283  12.821 -0.0883 -0.2017 -0.3469
 4872SOL     OW26074   1.254   4.015   8.489  0.1699 -0.1691  0.0903
 4872SOL    HW126075   1.347   3.997   8.485  0.3745  1.1679 -1.5214
 4872SOL    HW226076   1.249   4.068   8.568 -0.3464 -4.0895  2.6773
 4873SOL     OW26077   0.689   0.760   5.903  0.3893  0.4354  0.1769
 4873SOL    HW126078   0.677   0.666   5.911  1.1089  0.1919 -1.6715
 4873SOL    HW226079   0.617   0.793   5.956 -0.0234  0.7926 -0.5957
 4874SOL     OW26080   0.737   3.511   5.258  0.3292 -0.3185 -0.4562
 4874SOL    HW126081   0.829   3.511   5.230  0.7020  0.0093  0.7699
 4874SOL    HW226082   0.717   3.601   5.232 -0.7286  0.0334  1.6367
 4875SOL     OW26083   2.422   2.680   7.864  0.0492 -0.0139  0.5461
 4875SOL    HW126084   2.390   2.758   7.911 -1.6003 -0.4385  0.1167
 4875SOL    HW226085   2.405   2.610   7.927  0.4262 -1.9396 -1.4922
 4876SOL     OW26086   2.456   1.586   3.832 -0.8021 -0.0278  0.4349
 4876SOL    HW126087   2.474   1.664   3.779 -0.5098 -0.1070  0.4135
 4876SOL    HW226088   2.372   1.560   3.795  1.1234 -3.7841 -1.3489
 4877SOL     OW26089   4.571   2.506   4.135 -0.1245 -0.8090  0.2186
 4877SOL    HW126090   4.557   2.453   4.056  0.8713 -0.5160 -0.1491
 4877SOL    HW226091   4.562   2.441   4.204  0.4561 -2.9307 -1.7124
 4878SOL     OW26092   1.248   0.359  17.623  0.4322  0.2479  0.0068
 4878SOL    HW126093   1.281   0.326  17.540 -1.0371  0.1189 -0.5080
 4878SOL    HW226094   1.200   0.438  17.600 -1.9368 -1.3795 -0.5643
 4879SOL     OW26095   4.428   3.028  15.876 -0.5399  0.0764 -0.1479
 4879SOL    HW126096   4.392   3.051  15.791 -0.5763  0.4930 -0.0203
 4879SOL    HW226097   4.373   3.071  15.941 -2.3274 -3.1156  0.4294
 4880SOL     OW26098   4.184   2.029  13.250 -0.2884 -0.4540 -0.1195
 4880SOL    HW126099   4.170   1.971  13.325  1.0871  0.7469  1.0679
 4880SOL    HW226100   4.145   2.113  13.270 -0.3201 -0.3760 -0.5001
 4881SOL     OW26101   1.259   4.368   4.590 -0.4608  0.4110  0.5240
 4881SOL    HW126102   1.208   4.394   4.513  0.7657 -2.4020 -1.2412
 4881SOL    HW226103   1.196   4.317   4.641  1.3197 -0.9420  1.3750
 4882SOL     OW26104   3.919   0.574   6.336 -0.1738 -0.5784  0.3152
 4882SOL    HW126105   3.970   0.654   6.340 -1.1132  0.0279  0.1415
 4882SOL    HW226106   3.918   0.551   6.243 -0.6043 -0.3682  0.2685
 4883SOL     OW26107   1.564   4.663  15.384 -0.0355  0.1270 -0.1894
 4883SOL    HW126108   1.598   4.594  15.327 -1.8356 -1.1348  0.2696
 4883SOL    HW226109   1.481   4.687  15.343  0.6888 -0.0972 -1.7659
 4884SOL     OW26110   0.244   4.121   4.246 -0.5556  0.9488  0.0412
 4884SOL    HW126111   0.183   4.070   4.299  1.1713 -0.7805  0.3637
 4884SOL    HW226112   0.292   4.166   4.315  1.9612  0.8881 -1.6489
 4885SOL     OW26113   0.998   1.811   2.403 -0.9289  0.3830  0.1826
 4885SOL    HW126114   1.064   1.770   2.347  0.5075  0.3054  1.9045
 4885SOL    HW226115   0.954   1.868   2.340 -1.5637  0.9295  1.1316
 4886SOL     OW26116   0.418   3.123   1.528  0.3559 -0.0462 -0.1228
 4886SOL    HW126117   0.341   3.171   1.560  0.6312  0.6568 -0.5325
 4886SOL    HW226118   0.388   3.088   1.444  0.5859  1.7479 -0.9514
 4887SOL     OW26119   1.742   3.159  11.045 -0.5906 -0.0299 -0.0354
 4887SOL    HW126120   1.721   3.141  11.137  1.5304 -1.6199  0.1355
 4887SOL    HW226121   1.680   3.231  11.037  0.8271  1.0111 -1.6780
 4888SOL     OW26122   1.334   0.382   5.172  0.5484  0.6096 -0.6542
 4888SOL    HW126123   1.264   0.445   5.189 -0.4291 -0.4548 -0.7154
 4888SOL    HW226124   1.413   0.429   5.200  0.0004  1.3380 -0.3541
 4889SOL     OW26125   2.948   0.671   6.975  0.1058  0.3359 -0.2349
 4889SOL    HW126126   3.037   0.636   6.967 -0.3246 -0.7409 -0.3445
 4889SOL    HW226127   2.937   0.708   6.887  1.8967 -2.4350 -1.6286
 4890SOL     OW26128   3.103   4.101   3.667  0.4773  0.3321 -0.2847
 4890SOL    HW126129   3.008   4.106   3.663  0.4670 -0.3188 -0.7343
 4890SOL    HW226130   3.109   4.059   3.753  2.1725  2.5410  0.6891
 4891SOL     OW26131   4.356   1.702   7.575 -0.3152  0.0290 -0.7014
 4891SOL    HW126132   4.319   1.631   7.522  0.1966 -0.7398 -0.0391
 4891SOL    HW226133   4.409   1.748   7.510 -2.0261 -0.2074 -2.2550
 4892SOL     OW26134   3.390   0.397  10.496  0.2874 -0.3736  0.3151
 4892SOL    HW126135   3.459   0.378  10.560  0.4420  2.6352  1.0297
 4892SOL    HW226136   3.373   0.487  10.523 -0.0261  0.1857 -1.7221
 4893SOL     OW26137   3.356   1.561   3.346  0.4354  0.4700 -0.0434
 4893SOL    HW126138   3.311   1.538   3.427  1.6384  1.1246  0.8176
 4893SOL    HW226139   3.395   1.478   3.318 -2.7753 -0.3270 -2.1134
 4894SOL     OW26140   3.762   1.611   6.987 -0.2660  0.1504  0.6760
 4894SOL    HW126141   3.757   1.563   6.905 -0.5219 -0.3406  0.9828
 4894SOL    HW226142   3.853   1.637   6.972  0.0953 -1.5193  0.0303
 4895SOL     OW26143   2.910   2.254  14.024  0.1174 -0.8029  0.1391
 4895SOL    HW126144   2.830   2.202  14.016 -3.0051  3.8038  1.6232
 4895SOL    HW226145   2.911   2.276  14.117 -2.7716 -0.5320  0.1257
 4896SOL     OW26146   1.886   0.490   7.304  0.0961  0.1140  0.2434
 4896SOL    HW126147   1.946   0.561   7.325  1.0847 -0.4819 -0.5497
 4896SOL    HW226148   1.816   0.510   7.365 -0.1574 -1.2424  0.3868
 4897SOL     OW26149   0.179   4.259  11.021 -0.3447 -0.3383  0.2486
 4897SOL    HW126150   0.147   4.220  10.939 -0.6132 -1.0284  0.6792
 4897SOL    HW226151   0.133   4.209  11.089 -2.4761  0.8597 -0.3287
 4898SOL     OW26152   2.616   3.782   1.063  0.4696 -0.0464 -0.2828
 4898SOL    HW126153   2.545   3.735   1.107  2.1086 -1.8517  0.4527
 4898SOL    HW226154   2.683   3.780   1.132  0.5486 -0.0959 -0.3607
 4899SOL     OW26155   4.137   2.901   8.090  0.3603 -0.0651 -0.3665
 4899SOL    HW126156   4.133   2.843   8.166 -0.5990 -0.8337 -0.9944
 4899SOL    HW226157   4.225   2.890   8.055 -0.4979 -2.0905 -1.8772
 4900SOL     OW26158   3.544   1.817   6.983  0.0798  0.6528  0.6681
 4900SOL    HW126159   3.466   1.781   7.026  1.1006 -1.2562  0.8944
 4900SOL    HW226160   3.618   1.765   7.012 -1.7073 -0.7658  2.6869
 4901SOL     OW26161   0.096   1.726  14.702  0.0074  0.1403 -0.7205
 4901SOL    HW126162   0.054   1.670  14.637 -0.7507  1.8629 -1.7270
 4901SOL    HW226163   0.070   1.817  14.686 -0.8716  0.1957  0.9998
 4902SOL     OW26164   2.193   2.234   7.429  0.4930 -0.2186 -0.0203
 4902SOL    HW126165   2.194   2.167   7.496 -0.5262 -0.3035 -0.0868
 4902SOL    HW226166   2.227   2.185   7.354  0.9384 -0.1434  0.1325
 4903SOL     OW26167   1.604   1.257   4.440 -0.4624 -0.1337  0.3800
 4903SOL    HW126168   1.586   1.225   4.351 -1.0364 -0.6579  0.6909
 4903SOL    HW226169   1.550   1.206   4.500  0.9435 -1.5432  0.4561
 4904SOL     OW26170   1.730   0.201   1.871  0.2283  0.2838 -0.4406
 4904SOL    HW126171   1.694   0.194   1.960  1.0060  0.3472 -0.1212
 4904SOL    HW226172   1.783   0.281   1.867  1.8371 -0.7282  0.9222
 4905SOL     OW26173   0.806   2.315   3.229  0.1445 -0.0682  0.2844
 4905SOL    HW126174   0.745   2.308   3.303 -0.5850 -0.7360 -0.3740
 4905SOL    HW226175   0.891   2.321   3.273 -0.2234 -1.2480  1.1579
 4906SOL     OW26176   1.921   0.097   5.748 -0.1111 -0.0788 -0.2210
 4906SOL    HW126177   1.931   0.011   5.790  1.0813 -0.1510 -0.6553
 4906SOL    HW226178   1.850   0.137   5.798 -0.0467  1.5878 -1.4861
 4907SOL     OW26179   1.820   3.182   3.431 -0.7128  0.5315 -0.2265
 4907SOL    HW126180   1.788   3.262   3.387  0.3918  0.6517 -0.8135
 4907SOL    HW226181   1.773   3.183   3.515 -1.9285  0.2612 -0.9026
 4908SOL     OW26182   4.308   1.483   4.251 -0.0087  0.7125 -0.0010
 4908SOL    HW126183   4.294   1.572   4.218 -0.6874  0.7881  0.4864
 4908SOL    HW226184   4.224   1.438   4.247  0.1209  0.3969  0.8306
 4909SOL     OW26185   0.226   1.820   2.483  0.2006 -0.6204  0.1315
 4909SOL    HW126186   0.284   1.751   2.518 -0.2977 -1.7290 -1.2236
 4909SOL    HW226187   0.278   1.858   2.412  1.6137 -2.7386  0.0079
 4910SOL     OW26188   1.979   0.291   6.771 -0.0701  0.4573  0.7843
 4910SOL    HW126189   2.068   0.299   6.806  0.4226  2.5594 -0.9585
 4910SOL    HW226190   1.933   0.374   6.783 -0.8472  0.1596 -0.1332
 4911SOL     OW26191   4.407   2.056   5.225 -0.0844 -0.0040  0.0086
 4911SOL    HW126192   4.422   2.015   5.140 -0.9200  1.9940 -1.0946
 4911SOL    HW226193   4.311   2.062   5.229  0.1106  2.0369  2.0722
 4912SOL     OW26194   1.184   1.613   8.748  0.5005 -0.0487  0.1921
 4912SOL    HW126195   1.258   1.641   8.803  1.9747 -0.8567 -1.3496
 4912SOL    HW226196   1.155   1.697   8.713 -1.7770 -0.6420  0.6769
 4913SOL     OW26197   2.734   1.065  13.913  0.2184  0.0902  0.0482
 4913SOL    HW126198   2.739   1.004  13.839  1.1549 -1.0095  1.0148
 4913SOL    HW226199   2.657   1.033  13.959 -0.5465 -0.7588 -1.8210
 4914SOL     OW26200   3.057   0.685   4.370  0.5486 -0.6805 -0.2406
 4914SOL    HW126201   2.964   0.663   4.363  0.4359 -0.1060 -0.5679
 4914SOL    HW226202   3.050   0.780   4.371 -1.4536 -0.8170 -1.5279
 4915SOL     OW26203   3.902   2.490  15.033  0.3269  0.3391 -0.2394
 4915SOL    HW126204   3.984   2.493  15.083 -0.3033  0.7746  0.7616
 4915SOL    HW226205   3.899   2.569  14.979  0.5451  1.2384  1.0397
 4916SOL     OW26206   3.362   0.317   4.164  0.5857 -0.3128 -0.2469
 4916SOL    HW126207   3.322   0.364   4.237  0.4804  0.0888 -0.5597
 4916SOL    HW226208   3.419   0.252   4.205  1.4658  0.8196  0.3094
 4917SOL     OW26209   0.694   4.239   5.710  0.7758  0.2526 -0.1722
 4917SOL    HW126210   0.701   4.319   5.657  0.5650  0.5060  0.1864
 4917SOL    HW226211   0.671   4.276   5.795  1.0866  2.5822 -1.1043
 4918SOL     OW26212   3.658   2.196   5.782  0.0335  0.0990  0.0672
 4918SOL    HW126213   3.713   2.118   5.779  1.6657  1.3393 -1.9303
 4918SOL    HW226214   3.715   2.252   5.833 -0.6170  0.2369  0.6482
 4919SOL     OW26215   2.026   0.552   8.043  0.5281  0.2899  0.0975
 4919SOL    HW126216   2.113   0.527   8.073  0.7430  0.6685 -0.2200
 4919SOL    HW226217   1.991   0.600   8.119  0.1742  1.2727 -0.6772
 4920SOL     OW26218   3.339   0.621   2.482 -0.8066  0.4593  0.9757
 4920SOL    HW126219   3.421   0.612   2.532  1.2669 -1.5942 -2.8325
 4920SOL    HW226220   3.327   0.527   2.470 -1.8704  0.5440  1.3653
 4921SOL     OW26221   3.399   1.944  10.169  0.7613 -0.3667  0.1014
 4921SOL    HW126222   3.465   1.997  10.124  1.0449  1.0634  2.2343
 4921SOL    HW226223   3.411   1.868  10.112 -2.1613  0.3529 -1.4737
 4922SOL     OW26224   1.474   2.511  14.721 -1.2303  0.9845 -0.1152
 4922SOL    HW126225   1.453   2.459  14.799  1.0677  1.2261  0.6646
 4922SOL    HW226226   1.555   2.548  14.756 -1.2397 -1.4861  2.5114
 4923SOL     OW26227   2.672   1.355   6.394 -0.5491 -0.1834 -0.3862
 4923SOL    HW126228   2.712   1.345   6.308 -0.7671 -0.0472 -0.5062
 4923SOL    HW226229   2.751   1.332   6.444 -0.3916 -1.2008 -1.1166
 4924SOL     OW26230   2.793   2.576   1.191 -0.3256 -0.5285  0.5300
 4924SOL    HW126231   2.796   2.658   1.239 -0.2364  0.6527 -1.4847
 4924SOL    HW226232   2.813   2.508   1.255  1.4677  0.3166  0.8694
 4925SOL     OW26233   4.135   2.748   2.648  0.0292 -0.0162 -0.6559
 4925SOL    HW126234   4.067   2.758   2.582 -1.6246  1.4467  1.3210
 4925SOL    HW226235   4.128   2.832   2.692  0.2397  0.0039 -0.6568
 4926SOL     OW26236   3.885   3.477  16.854  0.2856 -0.1434  0.2851
 4926SOL    HW126237   3.815   3.497  16.791 -0.3687  0.2306  1.1321
 4926SOL    HW226238   3.933   3.559  16.845 -0.3883  0.0712 -1.4415
 4927SOL     OW26239   3.242   2.406   4.543 -0.0335 -0.4428 -0.4545
 4927SOL    HW126240   3.248   2.470   4.472 -0.8280  1.8590  1.5823
 4927SOL    HW226241   3.226   2.329   4.489 -1.1883  1.1220 -2.3484
 4928SOL     OW26242   1.282   0.836   1.592 -0.0671 -0.1406 -0.3971
 4928SOL    HW126243   1.284   0.911   1.532 -2.7559  0.4382  0.2275
 4928SOL    HW226244   1.221   0.876   1.655 -0.4790  1.0923 -1.5670
 4929SOL     OW26245   0.633   1.093   8.974  0.1554 -0.5351  0.1536
 4929SOL    HW126246   0.557   1.040   9.000 -0.5304  0.4055  0.0420
 4929SOL    HW226247   0.698   1.046   9.026  0.3055  2.5125  2.6609
 4930SOL     OW26248   1.660   1.808   5.599  0.0957  0.2048  0.4291
 4930SOL    HW126249   1.663   1.904   5.593  1.3624  0.1591  0.2326
 4930SOL    HW226250   1.736   1.785   5.545 -0.3715 -0.0704 -0.1141
 4931SOL     OW26251   0.122   4.244   8.203 -0.1562  0.1351 -0.0258
 4931SOL    HW126252   0.208   4.274   8.234 -0.0552  0.0597 -0.2266
 4931SOL    HW226253   0.145   4.198   8.122  1.4891 -0.6096  0.8595
 4932SOL     OW26254   4.002   3.018  10.767  0.0212 -0.1056 -0.6459
 4932SOL    HW126255   4.020   2.926  10.787 -1.9204 -0.0281  1.4367
 4932SOL    HW226256   4.079   3.041  10.715  0.1274 -0.8322 -0.8154
 4933SOL     OW26257   1.694   3.955   8.657  0.4287  0.2328  0.2127
 4933SOL    HW126258   1.609   3.972   8.697  1.3030  2.1539  1.2335
 4933SOL    HW226259   1.700   3.868   8.697  0.2353 -0.4080 -1.1435
 4934SOL     OW26260   3.410   2.038  14.498  0.3774  0.9647  0.0076
 4934SOL    HW126261   3.315   2.024  14.504  0.6923 -0.6753  1.3534
 4934SOL    HW226262   3.448   1.952  14.511 -0.1262  1.2252  3.3352
 4935SOL     OW26263   1.502   0.002   0.576  0.1602  0.3111 -0.0479
 4935SOL    HW126264   1.465   0.020   0.662  1.4545  0.4465  0.4806
 4935SOL    HW226265   1.479   0.084   0.532 -2.1682  0.5107  1.5479
 4936SOL     OW26266   3.850   3.747  11.627  0.4918  0.3103  0.2793
 4936SOL    HW126267   3.921   3.690  11.658 -0.2948 -0.1620  1.2336
 4936SOL    HW226268   3.846   3.720  11.535 -1.9831  1.5911  0.0248
 4937SOL     OW26269   3.130   1.283  17.317  0.0157 -0.0291  0.2187
 4937SOL    HW126270   3.171   1.369  17.309 -0.2848 -0.0245 -1.2071
 4937SOL    HW226271   3.146   1.270  17.410  2.3067  0.2254 -0.1370
 4938SOL     OW26272   4.229   0.993   1.264  0.2865  0.1088 -0.0472
 4938SOL    HW126273   4.176   1.042   1.327 -0.1255 -2.6274  1.7696
 4938SOL    HW226274   4.232   0.904   1.301  0.4446  0.9756  2.0532
 4939SOL     OW26275   4.121   3.188   4.649  0.2060 -0.3248 -0.0948
 4939SOL    HW126276   4.132   3.257   4.714  0.0016  1.7303 -2.2294
 4939SOL    HW226277   4.199   3.133   4.659 -0.2191 -1.0715 -0.9540
 4940SOL     OW26278   2.023   3.225  16.347  0.6570  0.2426  1.0255
 4940SOL    HW126279   1.941   3.199  16.305  0.8262  1.7433 -0.2606
 4940SOL    HW226280   2.032   3.169  16.424 -0.7421 -2.7155 -0.9419
 4941SOL     OW26281   0.189   4.584   4.747  0.6900 -0.3011  0.0216
 4941SOL    HW126282   0.145   4.606   4.829 -0.1619 -1.6570 -0.0613
 4941SOL    HW226283   0.165   4.664   4.700 -1.4801 -0.1445  1.4030
 4942SOL     OW26284   2.441   3.355   3.932  0.1641  0.2395 -0.2315
 4942SOL    HW126285   2.446   3.261   3.918  1.1221  0.3145 -0.3969
 4942SOL    HW226286   2.424   3.393   3.846 -1.5568 -0.7035 -0.3038
 4943SOL     OW26287   0.818   4.070   1.872 -0.0464  0.0574  0.3145
 4943SOL    HW126288   0.833   3.986   1.914 -1.4862  0.5188  1.7456
 4943SOL    HW226289   0.803   4.041   1.782 -1.4598 -0.4301  0.7086
 4944SOL     OW26290   3.829   2.197   4.713  0.3189 -0.2182  0.2080
 4944SOL    HW126291   3.819   2.281   4.757  1.3554 -0.1154  0.2589
 4944SOL    HW226292   3.738   2.170   4.722  0.2630 -0.1033 -0.0172
 4945SOL     OW26293   1.202   2.731  11.506  0.2072 -0.2566  0.1107
 4945SOL    HW126294   1.110   2.708  11.506  0.5698 -1.7588  1.2346
 4945SOL    HW226295   1.229   2.676  11.433  1.1291 -1.8793  1.6678
 4946SOL     OW26296   1.253   1.020   0.629  0.3155 -0.2090 -0.1691
 4946SOL    HW126297   1.191   0.985   0.693  0.3672 -1.2963 -0.7031
 4946SOL    HW226298   1.338   1.014   0.674  0.7659  1.4554 -0.8179
 4947SOL     OW26299   3.802   2.178   6.295 -0.1657 -0.1649  0.6474
 4947SOL    HW126300   3.781   2.101   6.348 -0.3653 -2.2614 -2.4742
 4947SOL    HW226301   3.783   2.147   6.206 -0.3995 -1.9225  1.3175
 4948SOL     OW26302   1.810   2.420   4.599 -0.6675 -0.2625 -0.1457
 4948SOL    HW126303   1.780   2.436   4.688  0.9925  1.0223  0.1896
 4948SOL    HW226304   1.793   2.327   4.589 -0.1299 -0.4444  0.5897
 4949SOL     OW26305   3.153   2.422   4.169  0.0558  0.2408  0.1689
 4949SOL    HW126306   3.091   2.350   4.165  0.7844 -0.4663  1.7406
 4949SOL    HW226307   3.221   2.382   4.223  0.0137  0.1351  0.1424
 4950SOL     OW26308   4.498   1.150   7.597 -0.1879  0.1227 -0.1566
 4950SOL    HW126309   4.404   1.129   7.603 -0.3799  1.4920  1.3568
 4950SOL    HW226310   4.505   1.188   7.510  0.6839  1.4257  0.4906
 4951SOL     OW26311   1.432   3.518   3.331 -0.1895 -0.2966  0.0438
 4951SOL    HW126312   1.402   3.604   3.360  1.9394  0.1141  0.9668
 4951SOL    HW226313   1.343   3.494   3.305 -0.2828 -0.2189  0.2951
 4952SOL     OW26314   3.443   4.593   4.202 -0.6614  0.1950  0.3323
 4952SOL    HW126315   3.372   4.584   4.139  1.2294  2.2193 -2.1210
 4952SOL    HW226316   3.420   4.516   4.253  1.5597  1.3182  3.0928
 4953SOL     OW26317   1.360   3.211  17.303 -0.6213 -0.3203  0.4522
 4953SOL    HW126318   1.366   3.154  17.380 -1.7701 -1.5789 -0.3785
 4953SOL    HW226319   1.394   3.162  17.228 -0.5726 -2.1869  1.6796
 4954SOL     OW26320   1.142   2.551   0.830 -0.2155 -0.7866  0.0969
 4954SOL    HW126321   1.223   2.510   0.801 -0.1348  0.6747 -1.7753
 4954SOL    HW226322   1.095   2.558   0.747  1.7318 -2.5252 -1.1649
 4955SOL     OW26323   3.913   0.872   2.810  0.3372  0.1417  0.1946
 4955SOL    HW126324   3.916   0.952   2.863 -0.9626  0.2047  0.1504
 4955SOL    HW226325   3.852   0.898   2.742  1.8402  0.7016 -0.9543
 4956SOL     OW26326   1.215   1.997   9.193  0.3593  0.2265 -0.4397
 4956SOL    HW126327   1.241   1.915   9.235  3.2277  0.0299 -2.6209
 4956SOL    HW226328   1.121   1.998   9.213  0.8279 -0.5634  1.7537
 4957SOL     OW26329   0.375   0.404  12.236 -0.2229 -0.4538 -0.1827
 4957SOL    HW126330   0.361   0.315  12.204  3.0292 -1.8837  2.3672
 4957SOL    HW226331   0.363   0.459  12.159  0.1352 -0.1589 -0.0255
 4958SOL     OW26332   1.864   3.714   4.359 -0.1238 -0.1948  0.3381
 4958SOL    HW126333   1.950   3.714   4.402  0.2723  1.8222 -0.4484
 4958SOL    HW226334   1.877   3.675   4.273  2.8717  2.7811 -0.5743
 4959SOL     OW26335   3.039   4.134   1.658  0.2443 -0.6979 -0.9160
 4959SOL    HW126336   2.957   4.084   1.655  0.3702 -1.0264  1.2407
 4959SOL    HW226337   3.001   4.218   1.633 -1.4839 -1.6892 -1.6576
 4960SOL     OW26338   4.005   3.695   4.671 -0.1927 -0.1338 -0.2989
 4960SOL    HW126339   3.971   3.611   4.702  0.7148 -0.9522 -1.5190
 4960SOL    HW226340   4.075   3.662   4.614 -2.0349 -0.8348 -2.1379
 4961SOL     OW26341   0.421   1.493   9.040  0.2895  0.1495  0.3916
 4961SOL    HW126342   0.437   1.451   9.125  0.5210 -0.6823 -0.0632
 4961SOL    HW226343   0.429   1.417   8.983 -0.3610  0.5256 -0.1987
 4962SOL     OW26344   2.983   2.294  14.693  0.2458  1.0779 -0.5092
 4962SOL    HW126345   2.990   2.383  14.727  0.9515 -0.3501  3.0235
 4962SOL    HW226346   2.900   2.293  14.645 -0.8118 -0.4639  1.3490
 4963SOL     OW26347   0.575   2.668  15.996  0.2688 -0.2709 -0.0918
 4963SOL    HW126348   0.516   2.612  15.946 -0.0146  0.8908 -1.0635
 4963SOL    HW226349   0.550   2.755  15.966 -1.0684 -0.5973  0.0596
 4964SOL     OW26350   3.681   2.209   3.368 -0.0177 -0.2324  0.6375
 4964SOL    HW126351   3.628   2.276   3.326  0.2777 -0.4493 -0.0848
 4964SOL    HW226352   3.610   2.165   3.415 -0.2803 -0.9110 -0.4065
 4965SOL     OW26353   4.139   4.670   4.934 -0.3384  0.0036  0.7423
 4965SOL    HW126354   4.198   4.700   4.865 -2.2595 -1.0685 -1.3904
 4965SOL    HW226355   4.062   4.720   4.905  0.4772  1.1060  0.4843
 4966SOL     OW26356   0.596   2.054   5.280  0.7665 -0.2344  0.7080
 4966SOL    HW126357   0.691   2.059   5.281  0.8020 -0.7542  0.2192
 4966SOL    HW226358   0.588   1.966   5.243  2.9714 -0.5380  0.9548
 4967SOL     OW26359   0.877   2.048   0.222 -0.2559 -0.0262 -0.1164
 4967SOL    HW126360   0.895   2.140   0.242 -0.1809  0.2779 -1.5704
 4967SOL    HW226361   0.951   2.031   0.164 -0.7261 -0.7387 -0.5064
 4968SOL     OW26362   2.384   4.357   2.136 -0.1275  0.0748  0.5544
 4968SOL    HW126363   2.357   4.426   2.076  1.3596  0.7165  0.6341
 4968SOL    HW226364   2.392   4.288   2.070  0.1802 -1.8634  2.6104
 4969SOL     OW26365   0.870   3.328   3.386  0.8573  0.0380 -0.4099
 4969SOL    HW126366   0.779   3.299   3.383  1.7954 -2.9663  0.1485
 4969SOL    HW226367   0.894   3.296   3.300  0.6548 -0.6052 -0.2215
 4970SOL     OW26368   3.694   1.675   5.960 -0.4322  0.1587 -0.3346
 4970SOL    HW126369   3.699   1.761   5.918  0.7335  0.6804  0.8857
 4970SOL    HW226370   3.647   1.625   5.893  1.1260 -2.1213  0.2963
 4971SOL     OW26371   3.387   1.022   7.908  0.2781 -0.1913  0.1421
 4971SOL    HW126372   3.470   1.025   7.862  0.6950  1.2384  0.9619
 4971SOL    HW226373   3.387   0.929   7.927 -1.1277  0.2113  2.1494
 4972SOL     OW26374   1.950   0.905   7.666 -0.9489  0.0058 -0.6945
 4972SOL    HW126375   1.982   0.978   7.719 -2.5304 -0.0874  0.4273
 4972SOL    HW226376   1.875   0.871   7.716 -0.6532 -1.1497 -1.0517
 4973SOL     OW26377   4.559   4.714   8.817  0.3568 -0.0890  0.0324
 4973SOL    HW126378   4.487   0.031   8.867 -1.3141 -0.0850 -2.3393
 4973SOL    HW226379   4.511   4.676   8.743  0.0509  2.2127 -0.9555
 4974SOL     OW26380   2.610   4.209   8.816 -0.2554  0.5246  0.4510
 4974SOL    HW126381   2.585   4.231   8.726  1.1049 -2.9646 -0.7872
 4974SOL    HW226382   2.524   4.177   8.844 -0.0596  1.9313  2.6323
 4975SOL     OW26383   0.383   2.443   9.116 -0.1743 -0.1378 -0.0343
 4975SOL    HW126384   0.376   2.370   9.178  0.6242  1.3671  1.8370
 4975SOL    HW226385   0.293   2.475   9.110 -0.3061  0.0409  2.6873
 4976SOL     OW26386   0.429   4.493  15.783 -0.5994 -0.1182  0.2068
 4976SOL    HW126387   0.341   4.518  15.755 -0.1785 -0.1026 -1.1118
 4976SOL    HW226388   0.466   4.581  15.790 -0.3214 -0.2048 -0.1772
 4977SOL     OW26389   2.944   0.108   4.577  0.2742  0.2755  0.0477
 4977SOL    HW126390   2.859   0.152   4.570 -0.1673 -0.4411  1.0455
 4977SOL    HW226391   2.986   0.156   4.648  0.4504  1.3886 -0.8032
 4978SOL     OW26392   1.187   2.794   9.370 -0.0109  0.4739 -0.3413
 4978SOL    HW126393   1.245   2.852   9.419  0.4633  1.1897 -1.7512
 4978SOL    HW226394   1.248   2.744   9.317  0.5175  0.3815  0.3526
 4979SOL     OW26395   4.189   4.540   2.861  0.0626  0.4094  0.0609
 4979SOL    HW126396   4.134   4.485   2.806 -0.7657 -1.4274  2.6816
 4979SOL    HW226397   4.171   4.491   2.942 -0.7053 -0.4269 -0.6167
 4980SOL     OW26398   4.176   3.761   9.001 -0.2023 -0.3709  0.1282
 4980SOL    HW126399   4.211   3.673   8.990 -0.7900 -0.8501  1.9836
 4980SOL    HW226400   4.201   3.780   9.092 -0.5407  0.5855  0.0261
 4981SOL     OW26401   0.850   4.454   3.366  0.0406 -0.2754 -0.1045
 4981SOL    HW126402   0.805   4.482   3.286  0.7360  1.2785  0.0497
 4981SOL    HW226403   0.905   4.531   3.378  1.1629 -1.0580 -0.2027
 4982SOL     OW26404   0.517   2.621   2.575  0.9305  0.3122  0.1396
 4982SOL    HW126405   0.427   2.650   2.589  0.2561 -2.1836  1.0687
 4982SOL    HW226406   0.527   2.551   2.640  1.7671  1.4746  1.2789
 4983SOL     OW26407   3.114   0.525   3.604 -0.3571  0.5912  0.6660
 4983SOL    HW126408   3.142   0.439   3.633  0.5752  0.5194 -0.4475
 4983SOL    HW226409   3.087   0.512   3.513  1.9472 -0.8840  0.2051
 4984SOL     OW26410   3.177   1.781  14.687 -0.1070  0.2432  0.4175
 4984SOL    HW126411   3.197   1.756  14.777  0.1758  0.7923  0.5080
 4984SOL    HW226412   3.169   1.877  14.688  0.2857  0.2917 -0.7701
 4985SOL     OW26413   3.279   4.058  14.457  0.3128 -0.7116 -0.1161
 4985SOL    HW126414   3.304   3.973  14.422 -0.6274  0.4096 -3.4593
 4985SOL    HW226415   3.361   4.108  14.466  0.4293 -1.2610  1.9555
 4986SOL     OW26416   0.308   4.413   3.571 -0.3282 -0.1009  0.5273
 4986SOL    HW126417   0.372   4.438   3.637 -0.0719  1.1041 -0.1688
 4986SOL    HW226418   0.346   4.430   3.484  3.3816 -4.0469  1.4031
 4987SOL     OW26419   0.624   1.423   5.477 -0.1448 -0.1322 -0.1950
 4987SOL    HW126420   0.636   1.456   5.567 -2.9006  0.8585 -0.1779
 4987SOL    HW226421   0.530   1.441   5.478 -0.2292 -0.6814  1.4218
 4988SOL     OW26422   1.107   4.061   7.230  0.5960 -0.5290 -0.4956
 4988SOL    HW126423   1.172   4.093   7.167  0.5306 -0.1708 -0.3820
 4988SOL    HW226424   1.059   3.997   7.177 -0.0620 -0.6624  0.2647
 4989SOL     OW26425   4.403   4.184  16.933  0.3091 -0.2548 -0.2055
 4989SOL    HW126426   4.446   4.209  16.851 -2.3693 -1.4626 -2.0198
 4989SOL    HW226427   4.357   4.261  16.966  0.3118 -0.3326 -0.0232
 4990SOL     OW26428   3.834   1.939   2.663  0.0226 -0.0354  0.0273
 4990SOL    HW126429   3.912   1.935   2.719  1.1211 -2.2324 -1.6962
 4990SOL    HW226430   3.861   1.875   2.597  2.2159 -1.1323  1.9859
 4991SOL     OW26431   0.874   3.309   7.121 -0.0293 -0.0533  0.0548
 4991SOL    HW126432   0.901   3.364   7.047 -3.8702  1.2422 -0.3825
 4991SOL    HW226433   0.953   3.255   7.132 -0.8569 -0.5934  3.2108
 4992SOL     OW26434   1.689   2.306   2.138 -0.4898 -0.2535  0.3044
 4992SOL    HW126435   1.777   2.269   2.147 -0.3620 -0.0141  0.0292
 4992SOL    HW226436   1.638   2.226   2.130 -1.2318  0.2788 -0.3056
 4993SOL     OW26437   2.409   3.159  14.577  0.1943 -0.1398 -0.4371
 4993SOL    HW126438   2.502   3.148  14.594  0.1440  0.3327  0.1496
 4993SOL    HW226439   2.408   3.127  14.487 -0.2614  2.2736 -1.3187
 4994SOL     OW26440   0.163   2.936   3.374 -0.4000  0.4128 -0.2025
 4994SOL    HW126441   0.076   2.975   3.366  0.3001  2.5778  2.6012
 4994SOL    HW226442   0.197   3.009   3.426 -2.3254  0.5977  0.8150
 4995SOL     OW26443   2.697   0.235   0.586 -0.6290 -0.2728  0.6693
 4995SOL    HW126444   2.789   0.259   0.599 -1.3458  3.6065 -1.4784
 4995SOL    HW226445   2.673   0.314   0.538 -0.4930 -0.6087  0.0545
 4996SOL     OW26446   3.635   0.228   5.090 -0.0538 -0.0495 -0.5031
 4996SOL    HW126447   3.603   0.319   5.088  0.7148  0.1933 -1.5496
 4996SOL    HW226448   3.636   0.209   4.997 -0.2455 -0.2813 -0.4579
 4997SOL     OW26449   3.559   2.363   3.164  0.2776  0.0708 -0.3051
 4997SOL    HW126450   3.490   2.422   3.195  0.7751 -0.0160  0.9733
 4997SOL    HW226451   3.571   2.390   3.073 -1.4989  1.3826 -0.1493
 4998SOL     OW26452   2.757   4.341   5.676 -0.5441 -0.0662 -0.4698
 4998SOL    HW126453   2.849   4.327   5.699 -0.5959  0.3980  0.0190
 4998SOL    HW226454   2.746   4.436   5.673  0.0906 -0.0714 -2.6505
 4999SOL     OW26455   4.597   0.530   9.369  1.1564 -0.0569 -0.2098
 4999SOL    HW126456   4.690   0.507   9.373  1.6736  2.2409  0.8633
 4999SOL    HW226457   4.560   0.457   9.418  2.2527 -0.2207  0.3557
 5000SOL     OW26458   3.493   2.815  17.599 -0.0208  0.2418 -0.1946
 5000SOL    HW126459   3.551   2.835  17.525  1.0821 -1.0210  0.3157
 5000SOL    HW226460   3.548   2.849  17.670  1.3927  2.1466 -2.1978
 5001SOL     OW26461   4.709   2.933   0.291 -0.5039 -0.3486 -0.2931
 5001SOL    HW126462   0.032   2.997   0.235  1.0262 -1.0373  0.1263
 5001SOL    HW226463   4.691   2.865   0.227 -0.4946 -1.2675  0.6766
 5002SOL     OW26464   4.288   4.657  12.639 -0.5955 -0.2619  0.0504
 5002SOL    HW126465   4.229   4.583  12.626 -0.7532 -0.3960  1.5531
 5002SOL    HW226466   4.258   4.712  12.711 -0.2697 -0.0333  0.0129
 5003SOL     OW26467   2.219   1.752   6.327  0.1921 -0.0046  0.1025
 5003SOL    HW126468   2.132   1.721   6.303  1.1063 -0.6320 -2.3945
 5003SOL    HW226469   2.226   1.741   6.421  0.1371  1.5327  0.2900
 5004SOL     OW26470   4.330   3.399   3.183  0.3683  0.1675  0.3791
 5004SOL    HW126471   4.384   3.474   3.158 -0.2657  1.1255  1.8584
 5004SOL    HW226472   4.327   3.422   3.276  1.5436  0.2182  0.4086
 5005SOL     OW26473   3.330   2.521  11.347  0.1562  0.3341  0.4761
 5005SOL    HW126474   3.291   2.607  11.355  3.5993  2.0339 -1.0655
 5005SOL    HW226475   3.302   2.490  11.260  1.1049 -0.6093  0.5046
 5006SOL     OW26476   0.443   2.364   5.820  0.1066 -0.5235 -0.3184
 5006SOL    HW126477   0.524   2.344   5.773  1.1110  1.2741  0.6935
 5006SOL    HW226478   0.460   2.377   5.913 -0.5105 -2.5158  0.0854
 5007SOL     OW26479   2.451   4.293   6.942  0.6489 -0.5873 -0.3620
 5007SOL    HW126480   2.365   4.334   6.932  0.0808 -2.8100 -4.4886
 5007SOL    HW226481   2.415   4.205   6.935 -1.1636 -0.0858  2.5769
 5008SOL     OW26482   0.000   1.914   2.640 -0.0896  0.3711 -0.1580
 5008SOL    HW126483   4.689   1.828   2.666  2.8957 -1.4751 -2.5591
 5008SOL    HW226484   0.062   1.888   2.572 -1.4894 -0.7103 -1.0209
 5009SOL     OW26485   2.815   0.085  12.146 -0.2507 -0.1708 -0.4234
 5009SOL    HW126486   2.840   0.174  12.172  1.2884 -0.2435 -1.6499
 5009SOL    HW226487   2.817   0.039  12.230 -0.9684 -2.6348 -1.7499
 5010SOL     OW26488   2.637   0.756   7.752  0.2951  0.0772 -0.0303
 5010SOL    HW126489   2.679   0.840   7.735 -0.2822  0.2356 -0.6657
 5010SOL    HW226490   2.683   0.730   7.831  1.6608 -1.9628 -1.4892
 5011SOL     OW26491   4.430   4.648   5.331  0.2709  0.1601 -0.5452
 5011SOL    HW126492   4.400   4.707   5.262 -1.4920  3.8395  3.3158
 5011SOL    HW226493   4.389   4.692   5.406  0.1198  0.2458 -0.6789
 5012SOL     OW26494   1.861   4.422   8.094 -0.2639  0.0644  0.1331
 5012SOL    HW126495   1.834   4.489   8.030  1.5290  0.6545 -0.0029
 5012SOL    HW226496   1.910   4.364   8.036 -1.8177  0.9377 -2.0579
 5013SOL     OW26497   1.425   2.349   4.232 -0.3471 -0.3901  0.2647
 5013SOL    HW126498   1.407   2.426   4.285 -2.2687 -0.4294 -0.3180
 5013SOL    HW226499   1.486   2.293   4.280  1.4249  0.3461 -1.1060
 5014SOL     OW26500   4.441   2.949   8.750 -0.0482 -0.4048  0.6096
 5014SOL    HW126501   4.486   2.939   8.834  3.7719  4.8153 -0.7880
 5014SOL    HW226502   4.427   2.861   8.717  1.2929 -0.7519  0.9869
 5015SOL     OW26503   2.073   4.566  15.341  0.1592  0.0119 -0.4039
 5015SOL    HW126504   2.144   4.624  15.369 -1.1678  0.8707  1.1746
 5015SOL    HW226505   2.124   4.505  15.288 -0.3513  0.8458 -1.8283
 5016SOL     OW26506   0.843   4.362   9.179  0.0096  0.5889  0.2403
 5016SOL    HW126507   0.749   4.369   9.194 -0.3736 -2.2085 -0.7616
 5016SOL    HW226508   0.872   4.325   9.263 -1.0115  1.2426  0.8719
 5017SOL     OW26509   3.744   0.633   1.439  0.1763 -0.2464 -0.4385
 5017SOL    HW126510   3.745   0.662   1.348  2.9694 -0.0122 -0.3524
 5017SOL    HW226511   3.838   0.641   1.456  0.3368  0.9045 -1.8591
 5018SOL     OW26512   1.507   0.039  16.764  0.2094 -0.3458  0.8755
 5018SOL    HW126513   1.450   4.688  16.793  0.0315 -0.2784  0.6904
 5018SOL    HW226514   1.465   0.118  16.798  0.2511  0.3851 -0.7453
 5019SOL     OW26515   3.666   4.237   4.575 -0.1649 -0.2575 -0.5955
 5019SOL    HW126516   3.719   4.243   4.496  1.7996  0.2409  0.7294
 5019SOL    HW226517   3.627   4.325   4.574  0.4737  0.0793  2.3929
 5020SOL     OW26518   1.688   3.913   4.707  0.0437  0.2148 -0.0331
 5020SOL    HW126519   1.747   3.925   4.782  0.1270  1.6137 -0.3226
 5020SOL    HW226520   1.677   3.819   4.720 -2.0828  0.4138 -0.4115
 5021SOL     OW26521   0.016   3.152   0.660 -0.0118  0.0158 -0.6503
 5021SOL    HW126522   0.017   3.059   0.637 -0.2683 -0.3302  0.7068
 5021SOL    HW226523   4.660   3.160   0.717 -0.5936  0.9697 -1.5639
 5022SOL     OW26524   0.550   3.368   4.900  0.4762  0.1753  0.5610
 5022SOL    HW126525   0.555   3.363   4.804 -1.6999 -0.6356  0.4803
 5022SOL    HW226526   0.639   3.394   4.921  0.1363 -0.6773  3.0046
 5023SOL     OW26527   0.285   2.797   0.552 -0.0336 -0.0409  0.0826
 5023SOL    HW126528   0.304   2.708   0.581  2.5073  0.3513 -0.3826
 5023SOL    HW226529   0.342   2.865   0.589 -1.3158  0.9599  0.2134
 5024SOL     OW26530   3.389   2.798  11.098  0.1742  0.0906  0.0351
 5024SOL    HW126531   3.425   2.745  11.027  1.0548  0.2122  0.3829
 5024SOL    HW226532   3.322   2.848  11.053  2.0097  0.2444 -2.4968
 5025SOL     OW26533   2.643   1.399   2.727 -0.1858  0.2588 -0.1497
 5025SOL    HW126534   2.647   1.469   2.792  0.8563  0.1843 -0.1331
 5025SOL    HW226535   2.716   1.348   2.762  1.3479  0.9647 -2.3136
 5026SOL     OW26536   0.427   4.541   6.240  0.2974  0.1306  0.3976
 5026SOL    HW126537   0.496   4.563   6.176  1.0490  0.9074  1.4837
 5026SOL    HW226538   0.459   4.454   6.262  0.7212  0.0478 -0.5208
 5027SOL     OW26539   1.681   1.817  17.561  0.5423  0.4755  0.0727
 5027SOL    HW126540   1.705   1.739  17.511  2.0402  0.9513  0.0673
 5027SOL    HW226541   1.768   1.856  17.560  1.0436 -0.5261  2.8482
 5028SOL     OW26542   1.191   4.224   1.730 -0.3256  0.2617 -0.0859
 5028SOL    HW126543   1.142   4.252   1.653 -0.0629  1.1696  0.0746
 5028SOL    HW226544   1.278   4.256   1.707  0.0785 -0.4645  0.4289
 5029SOL     OW26545   0.369   3.435  10.485  0.3024 -0.2364 -0.3458
 5029SOL    HW126546   0.421   3.375  10.537  0.3554  1.5110  1.6417
 5029SOL    HW226547   0.290   3.381  10.487  0.2337 -0.2109 -2.4244
 5030SOL     OW26548   2.235   3.464  13.735 -0.0851  0.0584  0.3010
 5030SOL    HW126549   2.260   3.499  13.649  0.7797  1.1602  1.0020
 5030SOL    HW226550   2.175   3.530  13.770  0.8563  0.6241  0.8415
 5031SOL     OW26551   4.317   4.415  17.405 -0.2906  0.2709 -0.1009
 5031SOL    HW126552   4.267   4.468  17.468 -0.0797  0.9322 -0.4827
 5031SOL    HW226553   4.284   4.456  17.324  1.7211  1.1369 -0.4779
 5032SOL     OW26554   0.709   0.216   9.664 -0.2761  0.3283  0.0907
 5032SOL    HW126555   0.765   0.241   9.738  2.2916 -2.3178 -0.9679
 5032SOL    HW226556   0.645   0.162   9.711 -0.1038  0.2715  0.2620
 5033SOL     OW26557   3.521   0.509   7.237  0.6675 -0.4224  0.0667
 5033SOL    HW126558   3.445   0.501   7.293  1.1932  0.7837  0.9513
 5033SOL    HW226559   3.550   0.418   7.230 -2.8154 -1.5429  0.2244
 5034SOL     OW26560   3.465   3.764   5.416  0.2035  0.1149  0.2547
 5034SOL    HW126561   3.540   3.721   5.374  0.1717  0.6158 -0.3170
 5034SOL    HW226562   3.479   3.756   5.510 -0.5374 -1.0111  0.2682
 5035SOL     OW26563   0.312   4.010  12.272 -0.3474 -0.3346  0.0438
 5035SOL    HW126564   0.329   4.085  12.329  3.0127  0.4288 -1.9603
 5035SOL    HW226565   0.228   4.035  12.235 -0.3561  0.6722  0.7368
 5036SOL     OW26566   1.517   1.904   3.952  0.0359  0.0182 -0.5618
 5036SOL    HW126567   1.473   1.947   4.026 -1.1303 -0.4082 -0.9952
 5036SOL    HW226568   1.493   1.814   3.976  0.2614 -0.2087 -1.1841
 5037SOL     OW26569   0.733   0.103   1.066  0.0217  0.4319  0.4785
 5037SOL    HW126570   0.778   0.182   1.036 -0.2491  0.3373 -0.1689
 5037SOL    HW226571   0.653   0.109   1.014  0.0017 -2.1558  0.2372
 5038SOL     OW26572   0.685   3.173  10.459 -0.2152  0.2747 -0.1970
 5038SOL    HW126573   0.664   3.254  10.506 -1.7592 -0.2673  0.0170
 5038SOL    HW226574   0.761   3.140  10.506  1.4465  2.1765 -1.5055
 5039SOL     OW26575   1.824   4.392   4.796 -0.4353 -0.2830 -0.0270
 5039SOL    HW126576   1.732   4.375   4.817 -0.4174  0.2328  0.4723
 5039SOL    HW226577   1.840   4.327   4.728  0.4690 -2.4162  2.2329
 5040SOL     OW26578   4.365   3.463  10.100  0.1832 -0.2216  0.5442
 5040SOL    HW126579   4.349   3.443  10.193 -0.8058  1.5677  0.7483
 5040SOL    HW226580   4.279   3.455  10.060  0.6242 -0.6341 -0.3346
 5041SOL     OW26581   3.216   2.398   7.710 -0.2530  0.2463  0.0331
 5041SOL    HW126582   3.198   2.453   7.634 -0.5326 -0.0379 -0.1072
 5041SOL    HW226583   3.288   2.442   7.755 -1.5694  1.6449  0.7938
 5042SOL     OW26584   3.191   1.486   1.964 -0.4210 -0.2578  0.0198
 5042SOL    HW126585   3.170   1.515   1.875 -0.3060 -0.5181 -0.0922
 5042SOL    HW226586   3.109   1.490   2.013  1.2985 -0.5824  2.9776
 5043SOL     OW26587   1.853   1.083   6.381  0.2842  0.2114 -0.1077
 5043SOL    HW126588   1.767   1.114   6.355 -1.4627 -2.1305  2.8633
 5043SOL    HW226589   1.849   0.988   6.369  0.5841  0.2284 -0.3677
 5044SOL     OW26590   3.686   2.336   4.932 -0.0874 -0.4516  0.0076
 5044SOL    HW126591   3.717   2.388   5.006 -0.1617  1.8788 -1.6136
 5044SOL    HW226592   3.592   2.340   4.949 -0.1192  0.2333 -0.3288
 5045SOL     OW26593   1.591   0.192   7.679 -0.2954  0.0386 -0.3114
 5045SOL    HW126594   1.682   0.200   7.652 -0.5301  0.6971 -0.9155
 5045SOL    HW226595   1.596   0.226   7.768  0.6841 -0.6665 -0.0963
 5046SOL     OW26596   0.580   0.099   6.337  0.3230  0.0638 -0.0200
 5046SOL    HW126597   0.486   0.105   6.355  0.1854 -0.4843 -0.5680
 5046SOL    HW226598   0.613   0.118   6.425 -1.2036  2.0300  0.1217
 5047SOL     OW26599   1.928   0.997   4.285 -0.4150 -0.2083  0.3080
 5047SOL    HW126600   1.881   0.930   4.236  0.1488 -0.7098  0.4448
 5047SOL    HW226601   1.957   1.057   4.216 -1.8906  0.7237  0.5143
 5048SOL     OW26602   1.046   4.350   7.265  0.3814 -0.1948 -0.0394
 5048SOL    HW126603   1.138   4.350   7.241  0.5208  0.2247  0.5019
 5048SOL    HW226604   1.033   4.257   7.283  1.9766 -0.3857  0.0378
 5049SOL     OW26605   1.542   4.367   7.439 -0.0742  0.2475 -0.2041
 5049SOL    HW126606   1.564   4.417   7.361 -1.0600 -1.7567 -1.7702
 5049SOL    HW226607   1.542   4.276   7.407  1.3746  0.3540 -0.4642
 5050SOL     OW26608   1.361   0.953   8.184  0.0746 -0.3571  0.1826
 5050SOL    HW126609   1.419   0.893   8.231 -0.0748 -2.4549 -2.2977
 5050SOL    HW226610   1.377   1.032   8.236  0.9689  1.4488 -2.8648
 5051SOL     OW26611   3.948   2.473  11.380 -0.7480 -0.7693  0.4737
 5051SOL    HW126612   4.021   2.532  11.400 -0.3520 -0.5378 -1.6063
 5051SOL    HW226613   4.006   2.400  11.357 -1.2209 -1.4708  1.4932
 5052SOL     OW26614   1.850   4.134   3.171 -0.4108 -0.5767 -0.8170
 5052SOL    HW126615   1.754   4.142   3.168 -0.2842 -0.0748 -3.8862
 5052SOL    HW226616   1.858   4.057   3.227  4.2785  0.7351  0.2778
 5053SOL     OW26617   2.017   2.309  15.183 -0.3219  0.0082 -0.0226
 5053SOL    HW126618   2.030   2.215  15.192 -0.8369 -0.0538  0.0730
 5053SOL    HW226619   2.090   2.338  15.129 -1.8595  1.8472 -1.1080
 5054SOL     OW26620   0.035   2.432   3.414  0.7823 -0.0507  0.7555
 5054SOL    HW126621   0.001   2.385   3.338  2.8481 -0.6495  0.2265
 5054SOL    HW226622   0.046   2.519   3.376  0.2355 -0.9192 -1.3882
 5055SOL     OW26623   2.619   3.817   2.907 -1.0371  0.0728  0.5995
 5055SOL    HW126624   2.582   3.731   2.885  2.1595 -0.8297 -1.1751
 5055SOL    HW226625   2.574   3.865   2.838  2.1675  1.4276 -0.5316
 5056SOL     OW26626   4.167   2.468   3.506 -0.1665  0.4595  0.5799
 5056SOL    HW126627   4.089   2.520   3.522  1.3268  2.0112  2.9426
 5056SOL    HW226628   4.171   2.410   3.583 -1.2865 -0.0903  0.2209
 5057SOL     OW26629   2.531   2.460  16.488  0.8094 -0.2682 -0.0458
 5057SOL    HW126630   2.530   2.435  16.580  1.4998 -0.8882 -0.2034
 5057SOL    HW226631   2.615   2.503  16.472  1.1981 -1.5842 -1.5579
 5058SOL     OW26632   1.185   1.750   3.960 -0.3068 -0.2924 -0.9158
 5058SOL    HW126633   1.264   1.770   4.010 -0.7422 -2.0233  0.5047
 5058SOL    HW226634   1.128   1.814   4.002  0.6444 -0.6521  0.9418
 5059SOL     OW26635   0.068   0.696   4.614  0.4541  0.5038 -0.0401
 5059SOL    HW126636   0.136   0.638   4.650  1.4436  2.0610  0.5838
 5059SOL    HW226637   0.102   0.775   4.656 -0.5578  0.9853 -0.1307
 5060SOL     OW26638   3.207   0.008   8.691 -1.0295  0.0638 -0.4953
 5060SOL    HW126639   3.175   0.045   8.609  0.5487 -0.6673 -1.4222
 5060SOL    HW226640   3.293   0.049   8.690  0.3845 -2.7984  2.3090
 5061SOL     OW26641   3.394   1.847   2.891  0.6653  0.7008 -0.5022
 5061SOL    HW126642   3.333   1.871   2.961  1.0843 -0.9105  0.4142
 5061SOL    HW226643   3.450   1.925   2.888  1.1852  0.2618 -1.8129
 5062SOL     OW26644   1.144   2.417   5.261  0.7754 -0.0314 -0.0450
 5062SOL    HW126645   1.071   2.368   5.299  1.7235 -2.2970 -1.1366
 5062SOL    HW226646   1.097   2.483   5.211 -0.4510  0.1662  1.3831
 5063SOL     OW26647   1.301   3.696  12.739  0.2286 -0.2313 -0.3102
 5063SOL    HW126648   1.258   3.693  12.825  0.3803 -1.5560 -0.2804
 5063SOL    HW226649   1.307   3.601  12.725 -0.5747 -0.1189 -1.3786
 5064SOL     OW26650   0.441   1.405   2.580  0.1989  0.5940 -0.2814
 5064SOL    HW126651   0.523   1.376   2.619  0.6715 -0.5217 -2.0714
 5064SOL    HW226652   0.447   1.358   2.496 -2.1709 -1.3611  0.6585
 5065SOL     OW26653   3.106   2.963   8.844 -0.4011  0.2619  0.0822
 5065SOL    HW126654   3.180   2.973   8.905  2.3381 -1.1046 -3.0107
 5065SOL    HW226655   3.067   2.883   8.878  0.8722 -1.0229 -1.4978
 5066SOL     OW26656   4.617   3.092   9.422  0.6048  0.0394  0.3605
 5066SOL    HW126657   4.689   3.148   9.392 -0.7414  0.2703 -2.4657
 5066SOL    HW226658   4.647   3.079   9.512  3.1650  2.3562 -0.1551
 5067SOL     OW26659   1.158   2.697   4.830 -0.0791 -0.0164  0.5069
 5067SOL    HW126660   1.179   2.720   4.920  0.3248  3.2702 -0.4502
 5067SOL    HW226661   1.206   2.771   4.792  0.7423 -0.3114  0.9641
 5068SOL     OW26662   0.466   2.071   4.069  0.2159  0.2151 -0.1028
 5068SOL    HW126663   0.493   2.099   3.982  0.6664  1.3949  0.4182
 5068SOL    HW226664   0.500   2.139   4.126 -1.2752 -2.7144  4.2522
 5069SOL     OW26665   4.299   2.396   8.671 -0.2303  0.6808  0.5963
 5069SOL    HW126666   4.286   2.312   8.715  1.3046  0.6113  0.9069
 5069SOL    HW226667   4.390   2.385   8.643 -0.5440 -0.9674  0.2391
 5070SOL     OW26668   0.785   0.956   7.012 -0.5962 -0.2593  0.3297
 5070SOL    HW126669   0.748   0.923   6.930  2.1351  0.5361 -1.2095
 5070SOL    HW226670   0.708   0.960   7.069 -1.8497 -1.4657 -1.2368
 5071SOL     OW26671   0.037   0.694   8.709 -0.5537  0.5799 -0.1481
 5071SOL    HW126672   0.033   0.764   8.644 -0.7819 -0.2088 -0.9836
 5071SOL    HW226673   4.697   0.713   8.780  2.6238 -1.3492  3.1005
 5072SOL     OW26674   2.489   1.664  10.448 -0.8284  0.1730  0.3328
 5072SOL    HW126675   2.539   1.742  10.468 -1.6261  0.8464 -0.2872
 5072SOL    HW226676   2.547   1.610  10.501 -1.6701 -1.1187 -0.0479
 5073SOL     OW26677   1.793   0.399  16.692 -0.1910  0.7096  0.5904
 5073SOL    HW126678   1.760   0.317  16.654  0.1962  1.4286 -1.3091
 5073SOL    HW226679   1.790   0.445  16.608  0.2040 -0.4227 -0.0467
 5074SOL     OW26680   2.002   4.046   6.969 -0.2268  0.4232  0.3760
 5074SOL    HW126681   1.929   4.099   7.000 -0.6264 -0.4917  0.9869
 5074SOL    HW226682   1.986   3.957   7.000 -1.7586  0.1945 -1.0942
 5075SOL     OW26683   2.527   1.159   3.737 -0.3477  0.7211  0.5160
 5075SOL    HW126684   2.505   1.185   3.826 -0.2387  1.0515  0.4455
 5075SOL    HW226685   2.622   1.166   3.733 -0.4398  1.3934 -0.4795
 5076SOL     OW26686   2.347   2.626   8.764 -0.1662  0.2839  0.4189
 5076SOL    HW126687   2.330   2.569   8.840 -1.2857 -1.0582 -0.8352
 5076SOL    HW226688   2.305   2.582   8.690 -1.9552  2.2486  0.2746
 5077SOL     OW26689   4.210   4.588  17.577  0.6829  0.4071  0.8562
 5077SOL    HW126690   4.270   4.588  17.652  1.0376  0.9225  0.5761
 5077SOL    HW226691   4.206   4.682  17.560 -0.2254  0.2107  0.0130
 5078SOL     OW26692   0.435   1.653   7.641 -0.3876 -0.4916  0.0809
 5078SOL    HW126693   0.434   1.740   7.680 -2.3731  0.9115 -3.0810
 5078SOL    HW226694   0.368   1.607   7.692 -2.3380  1.9936 -0.2506
 5079SOL     OW26695   2.752   0.571   2.938  0.4197 -0.6862  0.0925
 5079SOL    HW126696   2.817   0.640   2.927 -3.2068  3.1452  2.2724
 5079SOL    HW226697   2.776   0.506   2.873 -0.8025 -0.7511 -0.3035
 5080SOL     OW26698   4.671   0.680   5.015  0.1090 -0.3724  0.3829
 5080SOL    HW126699   4.582   0.710   4.997 -0.8614 -3.3269  0.3425
 5080SOL    HW226700   4.677   0.608   4.953  1.8430  0.0984 -0.0018
 5081SOL     OW26701   0.526   2.172   4.958  0.0778  0.0781 -0.1331
 5081SOL    HW126702   0.513   2.196   5.050 -2.0046  1.5659 -0.8251
 5081SOL    HW226703   0.620   2.188   4.946  0.1555  0.5382  1.0490
 5082SOL     OW26704   2.193   2.822  10.347 -0.4308 -0.5545 -0.2592
 5082SOL    HW126705   2.266   2.850  10.292 -1.0951  1.1189 -0.2731
 5082SOL    HW226706   2.190   2.726  10.341  3.3748 -0.8373  2.3344
 5083SOL     OW26707   2.696   1.695  15.235 -0.1170  0.4185 -0.0496
 5083SOL    HW126708   2.701   1.628  15.167 -4.2272  0.7422 -0.6301
 5083SOL    HW226709   2.611   1.736  15.222 -0.4089 -0.8642 -2.1905
 5084SOL     OW26710   1.285   3.709  17.200 -0.5266  0.5073 -0.0606
 5084SOL    HW126711   1.202   3.750  17.178 -1.1636  0.2475  1.8324
 5084SOL    HW226712   1.342   3.785  17.206  2.6425 -1.5897 -3.9472
 5085SOL     OW26713   0.771   0.759   3.877  0.0305  0.7617 -0.3900
 5085SOL    HW126714   0.844   0.804   3.919  2.4032 -0.7131 -2.9713
 5085SOL    HW226715   0.716   0.747   3.954 -1.3776 -0.0810 -1.5124
 5086SOL     OW26716   3.953   3.440   1.758  0.4257  0.1396  0.8878
 5086SOL    HW126717   4.006   3.481   1.689  0.4070  1.4151  1.6228
 5086SOL    HW226718   3.875   3.431   1.704 -0.0509  2.1653  1.2275
 5087SOL     OW26719   4.281   0.537   4.928  0.0544  0.0107  0.1296
 5087SOL    HW126720   4.369   0.571   4.912  0.3765 -1.3407 -0.9592
 5087SOL    HW226721   4.273   0.594   5.005 -3.2348  0.1458 -0.2857
 5088SOL     OW26722   4.353   1.405   0.305  0.2654 -0.6158  0.5813
 5088SOL    HW126723   4.338   1.488   0.349 -0.4090 -1.1065  1.2823
 5088SOL    HW226724   4.285   1.348   0.343  0.9736  0.0971  2.9161
 5089SOL     OW26725   2.314   3.195   2.389  0.1945  0.3064  0.0986
 5089SOL    HW126726   2.281   3.267   2.335  1.9911  0.7596 -0.4168
 5089SOL    HW226727   2.386   3.166   2.333 -1.2100  0.4099 -1.7809
 5090SOL     OW26728   4.198   3.972   2.580  0.1376  0.3405  0.4465
 5090SOL    HW126729   4.209   4.059   2.616 -0.8884  0.4558  0.4883
 5090SOL    HW226730   4.113   3.978   2.537  0.0288  0.4006  0.6728
 5091SOL     OW26731   1.705   2.805   6.360 -0.5232  0.2947 -0.8210
 5091SOL    HW126732   1.708   2.887   6.310  0.6983  1.1377  0.6088
 5091SOL    HW226733   1.612   2.785   6.366 -0.0799 -1.2346  1.1203
 5092SOL     OW26734   2.527   0.287  14.503  0.1551  0.5322 -0.1997
 5092SOL    HW126735   2.555   0.298  14.412 -0.7982  1.6109 -0.3721
 5092SOL    HW226736   2.610   0.268  14.545  0.2997  2.6817  0.5119
 5093SOL     OW26737   2.048   2.843   4.096  0.4447  0.2484 -0.1462
 5093SOL    HW126738   2.113   2.834   4.026 -0.4401  1.1920 -1.0974
 5093SOL    HW226739   2.019   2.933   4.082  1.7792  1.0461  2.3584
 5094SOL     OW26740   0.888   1.465   9.589  0.2213  0.1464 -0.0584
 5094SOL    HW126741   0.877   1.531   9.520  1.5406 -0.5920 -0.9830
 5094SOL    HW226742   0.894   1.525   9.663  0.4058  2.4331 -1.9261
 5095SOL     OW26743   1.800   4.020   8.421  0.1857  0.3073  0.4156
 5095SOL    HW126744   1.777   3.985   8.507 -1.7149 -2.8955 -1.3808
 5095SOL    HW226745   1.867   4.086   8.440  0.8623  0.5007 -2.7153
 5096SOL     OW26746   1.175   1.382  13.978 -0.4621 -0.2098 -0.5953
 5096SOL    HW126747   1.235   1.318  13.940 -1.0414 -1.0164 -0.1553
 5096SOL    HW226748   1.104   1.386  13.914  1.3346  0.6603 -2.5063
 5097SOL     OW26749   1.304   0.311   6.289  0.0014 -0.0521 -0.0791
 5097SOL    HW126750   1.364   0.237   6.283 -0.0550 -0.2647  1.8821
 5097SOL    HW226751   1.356   0.372   6.341 -0.9595  0.5087  0.2278
 5098SOL     OW26752   4.522   4.353   3.218  0.2096 -0.1899  0.4182
 5098SOL    HW126753   4.600   4.387   3.263  1.2487 -1.5095 -0.3624
 5098SOL    HW226754   4.561   4.328   3.134 -0.2571  2.6070 -0.6470
 5099SOL     OW26755   1.435   3.668   8.851 -0.0631 -0.3433  0.0543
 5099SOL    HW126756   1.486   3.708   8.921 -1.7515 -0.4097  1.3255
 5099SOL    HW226757   1.420   3.740   8.789  1.2258  2.3074  2.8371
 5100SOL     OW26758   3.332   4.374  11.108 -1.0862 -0.2407  0.2848
 5100SOL    HW126759   3.404   4.437  11.106 -2.1608  0.9286 -1.0580
 5100SOL    HW226760   3.261   4.437  11.100 -0.5955  0.2502 -0.2261
 5101SOL     OW26761   0.498   2.945   9.879 -0.7016  0.4807  0.0728
 5101SOL    HW126762   0.498   2.850   9.873  2.8406  0.5074 -0.4840
 5101SOL    HW226763   0.484   2.958   9.973  1.5651  1.7157  0.2394
 5102SOL     OW26764   0.458   2.641   7.763  0.1451  0.4115  0.4626
 5102SOL    HW126765   0.410   2.682   7.691  0.9009 -0.1042 -0.3438
 5102SOL    HW226766   0.462   2.551   7.730  0.9196  0.4963  0.3204
 5103SOL     OW26767   0.002   1.212   4.223  0.4311  0.1696  0.5231
 5103SOL    HW126768   0.001   1.237   4.130  1.1029 -0.4244  0.3556
 5103SOL    HW226769   0.092   1.229   4.250  0.3954  1.7410 -0.3107
 5104SOL     OW26770   4.193   2.097   4.372  0.1090 -0.6954 -0.2841
 5104SOL    HW126771   4.215   2.014   4.414 -1.2465 -1.1551 -0.4756
 5104SOL    HW226772   4.187   2.149   4.452 -0.8908 -0.2894 -0.6209
 5105SOL     OW26773   2.899   3.574  17.006  0.3310  0.3173  0.3846
 5105SOL    HW126774   2.848   3.515  17.061  0.9100  0.4594  1.0674
 5105SOL    HW226775   2.829   3.595  16.944  0.9636 -2.7105 -1.3718
 5106SOL     OW26776   2.472   4.288   7.988  0.3939 -0.5168 -0.2199
 5106SOL    HW126777   2.455   4.356   8.053  1.2375 -0.1438 -0.3869
 5106SOL    HW226778   2.527   4.231   8.041 -0.3044 -1.6115 -0.6726
 5107SOL     OW26779   1.083   0.401   4.174 -0.1167 -0.0680 -0.1776
 5107SOL    HW126780   1.154   0.453   4.212  0.4373 -0.5933 -0.4931
 5107SOL    HW226781   1.030   0.387   4.252  1.3179 -0.9501  0.6410
 5108SOL     OW26782   0.474   1.722   3.076 -0.1903  0.9851  0.1080
 5108SOL    HW126783   0.382   1.739   3.095 -0.3921  2.1482 -1.8948
 5108SOL    HW226784   0.517   1.778   3.141  0.0144  1.1033 -0.1296
 5109SOL     OW26785   4.363   1.576  17.466  0.2184  0.1219 -0.3007
 5109SOL    HW126786   4.279   1.621  17.462  1.7815  2.9489 -1.3109
 5109SOL    HW226787   4.367   1.571  17.562 -2.3533 -1.7115 -0.2923
 5110SOL     OW26788   3.673   4.268   0.081  0.2542 -0.7620  0.4974
 5110SOL    HW126789   3.661   4.338   0.145  1.4970 -0.0683 -0.0511
 5110SOL    HW226790   3.625   4.301   0.005  1.3967  2.9793  1.4085
 5111SOL     OW26791   0.222   1.076   4.457 -0.3197  0.2249 -0.3542
 5111SOL    HW126792   0.258   1.079   4.369 -1.9997  0.9755 -1.0150
 5111SOL    HW226793   0.301   1.078   4.512 -1.8574 -0.3732  1.9036
 5112SOL     OW26794   1.226   0.838   0.405 -0.3156  0.2881  0.3223
 5112SOL    HW126795   1.276   0.857   0.326  2.0004 -0.9938  1.5020
 5112SOL    HW226796   1.254   0.911   0.461 -0.1392  0.3580  0.1428
 5113SOL     OW26797   2.243   0.584   2.714 -0.2452  0.0771 -0.1648
 5113SOL    HW126798   2.327   0.624   2.690  0.5157 -1.8585 -0.7808
 5113SOL    HW226799   2.190   0.660   2.690  0.5210  0.0715 -1.9029
 5114SOL     OW26800   1.386   4.523   6.556 -0.6154 -0.1344 -0.5566
 5114SOL    HW126801   1.395   4.487   6.468 -0.2697 -3.4753  0.8601
 5114SOL    HW226802   1.468   4.496   6.598 -1.5347 -0.9221  0.7421
 5115SOL     OW26803   1.435   1.644   5.872 -0.6681  0.1750 -0.0309
 5115SOL    HW126804   1.453   1.618   5.962 -2.1614  0.8805  0.4585
 5115SOL    HW226805   1.385   1.569   5.839 -0.2407  0.2497 -0.8533
 5116SOL     OW26806   1.198   1.772  12.902 -0.6393  0.2817  0.2613
 5116SOL    HW126807   1.165   1.802  12.817  1.4515 -0.0972 -0.7043
 5116SOL    HW226808   1.272   1.715  12.879 -0.7867 -0.3340  1.3588
 5117SOL     OW26809   1.830   2.074  16.758 -0.3763  0.5048 -0.1226
 5117SOL    HW126810   1.900   2.116  16.707 -0.8671  0.4798 -0.8251
 5117SOL    HW226811   1.792   2.157  16.785  1.4677  0.9281  1.2016
 5118SOL     OW26812   0.250   3.716   9.007 -0.1971  0.1880 -0.0751
 5118SOL    HW126813   0.269   3.627   8.979  0.1659  0.3722 -0.4252
 5118SOL    HW226814   0.340   3.745   9.017 -0.3761  1.0016 -0.7394
 5119SOL     OW26815   4.626   1.337   3.865  0.6186  0.4550  0.0816
 5119SOL    HW126816   4.535   1.363   3.845  0.0569 -2.4042 -1.0521
 5119SOL    HW226817   4.663   1.408   3.812  2.1923 -0.1884  0.3338
 5120SOL     OW26818   2.049   0.549  13.936  0.3573 -0.0173  0.7877
 5120SOL    HW126819   2.002   0.538  14.019 -2.5084  1.7164 -0.6156
 5120SOL    HW226820   2.007   0.619  13.887 -1.0307 -2.1014 -0.9831
 5121SOL     OW26821   1.190   3.171   0.747 -0.3310  0.4433 -0.0595
 5121SOL    HW126822   1.274   3.194   0.706 -0.0180 -0.0276  0.3259
 5121SOL    HW226823   1.187   3.227   0.824 -1.1275  0.7395 -0.3048
 5122SOL     OW26824   1.308   3.449  16.894  0.2372 -0.4187 -0.1981
 5122SOL    HW126825   1.359   3.515  16.848  1.4582 -1.9362 -1.0112
 5122SOL    HW226826   1.321   3.374  16.836  0.3388 -0.4778 -0.0997
 5123SOL     OW26827   2.060   1.220  14.579 -0.5626 -0.7677  0.1589
 5123SOL    HW126828   2.101   1.136  14.600 -1.4027 -0.4115  3.1625
 5123SOL    HW226829   1.984   1.190  14.530  1.1412 -4.4669 -0.1884
 5124SOL     OW26830   0.321   0.037   5.784 -0.2998 -0.3539 -0.0119
 5124SOL    HW126831   0.287   0.060   5.697 -2.8608 -1.5083  0.6958
 5124SOL    HW226832   0.415   0.028   5.766 -0.6285 -0.6452 -1.5815
 5125SOL     OW26833   1.126   4.032   6.207 -0.4513  0.1724  0.2998
 5125SOL    HW126834   1.191   4.047   6.276  0.2672  0.7638 -0.5068
 5125SOL    HW226835   1.076   4.113   6.214  0.2676  0.6174  0.3618
 5126SOL     OW26836   1.309   1.424   8.466 -0.2016  0.2499  0.4703
 5126SOL    HW126837   1.220   1.405   8.494 -1.3736  2.3809 -1.8523
 5126SOL    HW226838   1.308   1.519   8.459  2.1833  0.2361 -0.0868
 5127SOL     OW26839   0.948   2.006   7.522 -0.2107 -0.5460  0.7294
 5127SOL    HW126840   1.004   2.032   7.449  1.2823 -3.1301  0.9483
 5127SOL    HW226841   0.981   2.066   7.590  1.9663 -1.3752  0.4023
 5128SOL     OW26842   3.051   3.682   5.653  0.6470 -0.6235  0.2896
 5128SOL    HW126843   3.041   3.767   5.610  1.7928 -1.0435 -0.7941
 5128SOL    HW226844   3.092   3.691   5.739  0.6726  0.8033  0.1188
 5129SOL     OW26845   4.199   0.653  17.532 -0.4134 -0.0838 -0.0539
 5129SOL    HW126846   4.159   0.692  17.455  0.7103 -0.6473 -0.9283
 5129SOL    HW226847   4.171   0.718  17.597  0.2563  0.7622 -0.6051
 5130SOL     OW26848   3.042   1.744   3.957  0.0812  0.1005  0.0551
 5130SOL    HW126849   2.988   1.728   4.034  0.1539  0.6561  0.2222
 5130SOL    HW226850   3.022   1.666   3.905  0.4257  0.2556 -0.3166
 5131SOL     OW26851   3.014   4.337   3.800 -0.2860  0.0034  0.2335
 5131SOL    HW126852   3.037   4.261   3.747 -1.7176 -1.3530  1.5713
 5131SOL    HW226853   2.939   4.369   3.750  0.5648 -0.7235 -1.5236
 5132SOL     OW26854   0.909   1.935   2.152 -0.5979  0.4461 -0.2834
 5132SOL    HW126855   1.002   1.953   2.160 -0.7193  2.1871 -2.7953
 5132SOL    HW226856   0.897   1.878   2.076  1.4088 -2.4584  1.5889
 5133SOL     OW26857   2.764   3.994  13.367  0.2549 -0.4904  0.2849
 5133SOL    HW126858   2.847   4.042  13.380  0.6129 -0.9632 -0.2937
 5133SOL    HW226859   2.704   4.063  13.395 -1.3735 -2.1400  0.7745
 5134SOL     OW26860   1.059   4.143   4.463  0.2270 -0.1723 -0.2694
 5134SOL    HW126861   1.087   4.135   4.371 -2.2311 -1.1895 -0.9338
 5134SOL    HW226862   1.043   4.235   4.480  0.3594 -0.0479 -0.8119
 5135SOL     OW26863   3.586   1.336   3.988  0.0510 -0.6189  0.4608
 5135SOL    HW126864   3.609   1.371   3.903 -2.7421 -0.3775 -0.2193
 5135SOL    HW226865   3.601   1.416   4.038  2.3685  0.7956 -2.6041
 5136SOL     OW26866   1.604   3.052   4.840  0.2817 -0.3334 -0.0679
 5136SOL    HW126867   1.647   3.115   4.783 -1.5257 -0.3842 -1.4748
 5136SOL    HW226868   1.563   3.106   4.908  1.2858  0.6785 -0.2538
 5137SOL     OW26869   0.451   4.432  12.654 -0.3524 -0.5819 -0.0768
 5137SOL    HW126870   0.475   4.352  12.607  2.8253 -0.2101  0.9396
 5137SOL    HW226871   0.451   4.497  12.584 -0.5428 -0.6824 -0.1692
 5138SOL     OW26872   1.074   4.518   6.355 -0.3772  0.3717  0.0956
 5138SOL    HW126873   0.982   4.543   6.361 -0.3687 -0.1714  2.5816
 5138SOL    HW226874   1.083   4.492   6.447 -0.4546  0.6764  0.1899
 5139SOL     OW26875   1.541   2.730   4.419 -0.4461  0.0740  0.0933
 5139SOL    HW126876   1.599   2.786   4.367  0.2547 -1.1639 -0.4652
 5139SOL    HW226877   1.582   2.738   4.505  0.2626  2.0863 -0.4251
 5140SOL     OW26878   0.861   0.247   6.008  0.1874 -0.0985  0.0648
 5140SOL    HW126879   0.924   0.176   6.018  1.5484  1.0849 -0.0106
 5140SOL    HW226880   0.812   0.226   5.930  2.0940  0.6876 -1.3498
 5141SOL     OW26881   4.169   3.508  16.449 -0.6193 -0.3930  0.1438
 5141SOL    HW126882   4.082   3.478  16.474 -1.2914  1.0897 -0.4771
 5141SOL    HW226883   4.198   3.570  16.515  2.2117  1.3308 -2.6858
 5142SOL     OW26884   4.480   2.031   8.943 -0.4536 -0.6526 -0.5426
 5142SOL    HW126885   4.527   1.983   8.875  0.4632 -0.5366  0.0183
 5142SOL    HW226886   4.436   1.958   8.986  0.0423  1.3117  3.2438
 5143SOL     OW26887   0.536   2.943  15.239  0.0487 -0.1868  0.4345
 5143SOL    HW126888   0.612   2.890  15.264 -0.7840 -1.2271  0.7310
 5143SOL    HW226889   0.483   2.881  15.190  0.1172 -0.5517  0.8129
 5144SOL     OW26890   1.193   3.425  17.258 -0.0494  0.4951  0.0306
 5144SOL    HW126891   1.277   3.379  17.264 -1.2118 -1.7106 -0.8788
 5144SOL    HW226892   1.223   3.508  17.220 -0.3765  0.8058  0.4475
 5145SOL     OW26893   2.906   3.200  16.484  0.2581 -0.1889  0.2257
 5145SOL    HW126894   2.988   3.153  16.472 -0.2081 -1.1677  0.8395
 5145SOL    HW226895   2.861   3.173  16.403 -2.1086 -2.3824  2.2836
 5146SOL     OW26896   2.440   0.216   5.861  0.7122  0.3011 -0.0886
 5146SOL    HW126897   2.346   0.198   5.868  0.3268  3.1164  1.8695
 5146SOL    HW226898   2.473   0.158   5.930 -0.1534 -0.6527 -0.4739
 5147SOL     OW26899   1.671   2.054  14.135  0.6015 -0.0136  0.4189
 5147SOL    HW126900   1.619   1.989  14.182  2.7744 -2.0545  0.0721
 5147SOL    HW226901   1.617   2.133  14.138 -1.2007 -1.2513  0.5163
 5148SOL     OW26902   3.385   1.419   2.183 -0.0746  0.5248 -0.7489
 5148SOL    HW126903   3.393   1.324   2.172  2.4929  0.6329  0.1044
 5148SOL    HW226904   3.353   1.433   2.094 -1.1080 -0.6372 -0.5452
 5149SOL     OW26905   2.004   1.096  14.856 -0.4296  0.1199  0.3337
 5149SOL    HW126906   2.078   1.065  14.803  0.7184  0.9996  1.3997
 5149SOL    HW226907   1.943   1.118  14.786 -0.7589  0.3601  0.6989
 5150SOL     OW26908   0.359   1.643  17.443 -0.7780 -0.7739  0.3595
 5150SOL    HW126909   0.376   1.736  17.429 -1.6676 -0.7177 -0.2861
 5150SOL    HW226910   0.266   1.641  17.422 -0.5902  1.1767 -0.5943
 5151SOL     OW26911   1.049   2.348   7.245  0.2753  0.3664  0.1167
 5151SOL    HW126912   1.123   2.341   7.185  0.1995  1.2478 -0.0837
 5151SOL    HW226913   1.083   2.415   7.305  0.5184  1.7062 -1.5023
 5152SOL     OW26914   2.132   2.527  14.226 -0.0118 -0.1058  0.1946
 5152SOL    HW126915   2.053   2.575  14.201  0.8888  0.5508 -1.3950
 5152SOL    HW226916   2.106   2.436  14.209 -0.8406 -0.2843  2.4934
 5153SOL     OW26917   2.657   1.944   2.445  0.4128 -0.0445 -0.2193
 5153SOL    HW126918   2.586   2.008   2.456 -0.3009 -0.8154 -0.4112
 5153SOL    HW226919   2.637   1.884   2.517 -0.1405 -1.0346 -1.2119
 5154SOL     OW26920   2.980   1.005   3.083  0.0463  0.1783 -0.4628
 5154SOL    HW126921   3.022   1.061   3.018 -0.7804  2.3451  0.9092
 5154SOL    HW226922   3.040   1.006   3.157 -0.1902 -1.0953 -0.2473
 5155SOL     OW26923   0.223   0.959   8.310  0.1097  0.0672  0.5727
 5155SOL    HW126924   0.274   1.027   8.268 -2.1430  1.0045 -0.6410
 5155SOL    HW226925   0.137   0.997   8.327 -0.0453  0.2115 -0.5619
 5156SOL     OW26926   1.065   3.443   8.236  0.8380  0.1665  0.3160
 5156SOL    HW126927   1.032   3.532   8.248  1.9718  0.9084 -2.0182
 5156SOL    HW226928   1.135   3.454   8.171 -0.2803  2.8048 -0.4431
 5157SOL     OW26929   0.012   4.145  10.814  0.6983  0.0732 -0.6158
 5157SOL    HW126930   4.692   4.210  10.756 -1.6851 -1.2246 -0.3706
 5157SOL    HW226931   4.652   4.095  10.827  1.2343 -1.1195 -1.8728
 5158SOL     OW26932   1.467   2.418   5.474  0.2198 -0.2140 -0.4844
 5158SOL    HW126933   1.416   2.487   5.517  2.0731  1.3906 -0.8743
 5158SOL    HW226934   1.409   2.342   5.481  0.6384 -0.4029  0.9926
 5159SOL     OW26935   0.043   1.077   2.840  0.0741 -0.0078  0.5390
 5159SOL    HW126936   0.138   1.077   2.854  0.1065  0.3791  0.3214
 5159SOL    HW226937   0.003   1.140   2.899 -2.0376 -0.6013 -0.2762
 5160SOL     OW26938   3.628   1.177   9.502  0.4876  0.4835 -0.1182
 5160SOL    HW126939   3.689   1.129   9.558  0.2347  0.2637 -0.0315
 5160SOL    HW226940   3.571   1.104   9.477  1.5314  0.1678 -1.6217
 5161SOL     OW26941   1.359   1.352  14.912  0.3898 -0.6088 -0.1336
 5161SOL    HW126942   1.451   1.328  14.922  0.2548 -1.0998 -0.0967
 5161SOL    HW226943   1.333   1.302  14.835  1.4876 -2.0457  0.4146
 5162SOL     OW26944   2.143   2.663  14.789  0.2391  0.5598 -0.3955
 5162SOL    HW126945   2.239   2.661  14.790  0.2343  0.0784 -0.6348
 5162SOL    HW226946   2.127   2.747  14.831  0.9628  1.6440 -2.2875
 5163SOL     OW26947   0.281   3.507   7.911  0.2043  0.2397 -0.3422
 5163SOL    HW126948   0.198   3.495   7.865  0.1765 -3.9805  0.8492
 5163SOL    HW226949   0.269   3.461   7.994  1.8753 -0.0139 -0.2532
 5164SOL     OW26950   3.921   0.021  12.547  0.1539  0.5536  0.1247
 5164SOL    HW126951   3.961   0.087  12.489  2.3870  0.8646  2.0162
 5164SOL    HW226952   3.892   0.082  12.615 -0.4453  2.6181 -1.9835
 5165SOL     OW26953   1.370   2.309   0.011  0.2075 -0.1840 -0.0628
 5165SOL    HW126954   1.326   2.389   0.042  0.7088 -0.8043  2.2908
 5165SOL    HW226955   1.340   2.247   0.077 -0.4893 -0.2483 -0.4412
 5166SOL     OW26956   2.026   2.995   7.526  0.0926  0.1812  0.8723
 5166SOL    HW126957   1.958   3.015   7.589 -1.8175  0.0513 -1.1319
 5166SOL    HW226958   2.074   3.076   7.508 -0.7106  0.5611  0.4236
 5167SOL     OW26959   2.092   4.621   8.402  0.2029 -0.4360 -0.0082
 5167SOL    HW126960   2.042   4.702   8.391 -0.9740 -1.2679 -0.7265
 5167SOL    HW226961   2.028   4.554   8.423  0.5524  0.0466  2.6033
 5168SOL     OW26962   0.872   2.208   3.874  0.3300  0.7123 -0.1361
 5168SOL    HW126963   0.804   2.268   3.904  2.8697  1.6001  3.8473
 5168SOL    HW226964   0.815   2.151   3.822  1.7652 -1.6993  0.9446
 5169SOL     OW26965   3.499   2.685   1.419  0.1809  0.3129 -0.2825
 5169SOL    HW126966   3.504   2.592   1.441  1.4160  0.8964  1.9305
 5169SOL    HW226967   3.403   2.689   1.415  0.1497  1.1940  1.4228
 5170SOL     OW26968   4.568   1.167   3.460 -0.0883 -0.6689 -0.2679
 5170SOL    HW126969   4.603   1.088   3.501  0.4833  0.4740  1.4316
 5170SOL    HW226970   4.647   1.189   3.412  0.4777 -1.8201  0.1371
 5171SOL     OW26971   2.706   3.320  10.159  0.4635  0.2454  0.0821
 5171SOL    HW126972   2.708   3.392  10.096 -0.2030 -1.2347 -1.6473
 5171SOL    HW226973   2.798   3.319  10.187  0.6168 -2.0903 -0.4989
 5172SOL     OW26974   0.328   2.786   8.972  0.2984 -0.6250 -0.0721
 5172SOL    HW126975   0.278   2.798   9.053  2.1841 -0.3210  1.0478
 5172SOL    HW226976   0.327   2.873   8.933  0.4178  0.1906  1.7537
 5173SOL     OW26977   3.832   2.320   4.459 -0.2321  0.1855  0.2020
 5173SOL    HW126978   3.852   2.271   4.539  0.6413 -0.2701 -0.2939
 5173SOL    HW226979   3.738   2.308   4.445 -0.0962  1.6370 -1.9689
 5174SOL     OW26980   1.283   1.333   7.794 -0.0805  0.4309 -0.1027
 5174SOL    HW126981   1.283   1.238   7.783 -2.0592  0.1714  2.1331
 5174SOL    HW226982   1.213   1.362   7.852  0.0303 -1.6539  1.1136
 5175SOL     OW26983   1.503   1.689   6.610  0.1635 -0.3000  0.5883
 5175SOL    HW126984   1.515   1.783   6.594 -0.8941 -0.2264  0.2298
 5175SOL    HW226985   1.579   1.658   6.659  1.2578 -0.0616 -0.9735
 5176SOL     OW26986   4.143   1.057   4.088 -0.3149 -0.4857  0.0737
 5176SOL    HW126987   4.189   1.108   4.022  1.8108  0.0533  1.9541
 5176SOL    HW226988   4.192   0.974   4.086  0.6168  0.0964 -0.8494
 5177SOL     OW26989   0.334   0.205  12.881  0.1125 -0.0421 -0.2259
 5177SOL    HW126990   0.390   0.145  12.930 -1.2895 -0.3532  0.9982
 5177SOL    HW226991   0.289   0.251  12.953  0.7535  1.6789 -0.9260
 5178SOL     OW26992   3.270   1.809   5.307 -0.5691  0.4244  0.0700
 5178SOL    HW126993   3.271   1.717   5.331 -2.2058  0.4833  0.3625
 5178SOL    HW226994   3.201   1.807   5.240 -1.4151  0.7712  0.9279
 5179SOL     OW26995   1.015   4.174   8.054 -0.1188 -0.0999  0.1846
 5179SOL    HW126996   0.984   4.097   8.101 -1.1088 -0.4486 -1.0253
 5179SOL    HW226997   1.102   4.191   8.090  0.9395  1.3499 -3.0050
 5180SOL     OW26998   0.451   0.097   6.771 -0.5017  0.4617  0.0132
 5180SOL    HW126999   0.470   0.116   6.679  3.6553  0.5885  0.8966
 5180SOL    HW227000   0.461   0.180   6.818  2.4827  1.4533 -2.3358
 5181SOL     OW27001   2.136   3.591  15.951  0.3099  0.0643  0.6552
 5181SOL    HW127002   2.149   3.685  15.963  2.5486 -0.1445 -0.2371
 5181SOL    HW227003   2.214   3.562  15.998  1.5788  3.3696  0.6375
 5182SOL     OW27004   2.476   2.909   5.984 -0.3164  0.1688  0.1087
 5182SOL    HW127005   2.412   2.880   6.048  1.8070  0.1343  2.2124
 5182SOL    HW227006   2.463   3.003   5.998 -1.3590 -0.3471  2.5954
 5183SOL     OW27007   0.858   0.290  12.579  0.0214  0.1153  0.0044
 5183SOL    HW127008   0.937   0.324  12.538  1.3245 -1.1084  1.4948
 5183SOL    HW227009   0.908   0.220  12.621 -1.5767 -1.2163 -0.3069
 5184SOL     OW27010   0.152   0.496   8.965  0.0162 -0.2944 -0.2316
 5184SOL    HW127011   0.172   0.442   8.888 -0.0403 -0.5826 -0.0453
 5184SOL    HW227012   0.062   0.468   8.981 -0.5531  1.4004 -0.4335
 5185SOL     OW27013   2.517   1.729  10.770  0.3676  0.2351 -0.2843
 5185SOL    HW127014   2.485   1.741  10.859  1.9156 -1.0840  0.4550
 5185SOL    HW227015   2.482   1.641  10.752  0.6534 -0.3602  2.1560
 5186SOL     OW27016   3.606   2.871   9.601 -0.1508  0.3647  0.0586
 5186SOL    HW127017   3.548   2.835   9.668 -2.8981 -0.9527 -3.0322
 5186SOL    HW227018   3.614   2.962   9.630 -1.1850  0.5989 -0.3642
 5187SOL     OW27019   3.228   1.998   3.451  0.4240 -0.8239 -0.8094
 5187SOL    HW127020   3.241   1.929   3.515  1.4343  2.1023  2.1213
 5187SOL    HW227021   3.182   1.943   3.388  0.2225  0.3209 -1.6699
 5188SOL     OW27022   3.155   1.697   6.548  0.2598 -0.4959 -0.0788
 5188SOL    HW127023   3.233   1.663   6.592  0.4550  0.2943  0.1995
 5188SOL    HW227024   3.089   1.632   6.571 -1.1638  0.7316 -0.6799
 5189SOL     OW27025   0.030   0.759   5.416 -0.1086  0.1914  0.2494
 5189SOL    HW127026   0.096   0.700   5.450  1.5272  1.2812 -1.0270
 5189SOL    HW227027   0.078   0.811   5.351 -1.2242  0.7445 -0.1299
 5190SOL     OW27028   1.324   1.628   1.008 -0.5818 -1.1570 -0.2213
 5190SOL    HW127029   1.340   1.560   1.074 -0.1907  1.1135  2.0179
 5190SOL    HW227030   1.326   1.709   1.059 -1.5523  0.0735 -2.1467
 5191SOL     OW27031   4.282   3.013   6.901 -0.0383 -0.0140 -0.0597
 5191SOL    HW127032   4.287   2.926   6.941  0.6873 -0.0398 -0.2080
 5191SOL    HW227033   4.372   3.025   6.872  0.0608 -2.3668 -0.7142
 5192SOL     OW27034   0.901   1.248   6.242  0.0517  0.0423 -0.2848
 5192SOL    HW127035   0.894   1.214   6.331 -1.9085 -0.1084 -0.5026
 5192SOL    HW227036   0.967   1.185   6.212 -0.7308 -2.1959  2.7160
 5193SOL     OW27037   3.438   0.987   9.468  0.3915 -0.1476  0.2256
 5193SOL    HW127038   3.503   0.918   9.476  2.3511  1.3969 -2.1161
 5193SOL    HW227039   3.373   0.918   9.457  0.0900  0.0276  0.9283
 5194SOL     OW27040   3.033   4.000  14.983  0.3310  0.0029  0.1867
 5194SOL    HW127041   3.099   4.055  14.941 -0.5436  0.5016 -0.5399
 5194SOL    HW227042   3.007   3.945  14.909 -1.5183  0.7743  0.2604
 5195SOL     OW27043   4.076   1.485  15.097  0.7521  0.3029 -0.2632
 5195SOL    HW127044   4.156   1.442  15.065 -0.6971 -1.3081 -1.6976
 5195SOL    HW227045   4.032   1.408  15.130  1.6208 -0.1024 -0.0404
 5196SOL     OW27046   1.511   1.165  14.181 -0.0748  0.2393  0.0037
 5196SOL    HW127047   1.551   1.251  14.196 -1.2109  0.4072  2.0585
 5196SOL    HW227048   1.537   1.124  14.263 -2.3782  2.5035  1.8675
 5197SOL     OW27049   0.717   2.144   3.594 -0.2972 -0.0795  0.0065
 5197SOL    HW127050   0.770   2.105   3.525 -1.0627  0.4700 -0.9011
 5197SOL    HW227051   0.720   2.236   3.572  2.0832 -0.4849 -1.2736
 5198SOL     OW27052   4.382   2.429  11.131 -0.0686  0.9634  0.1218
 5198SOL    HW127053   4.467   2.387  11.146  0.2739  0.6915 -2.5695
 5198SOL    HW227054   4.361   2.396  11.044  0.5814  2.5471 -0.6438
 5199SOL     OW27055   0.283   4.292   9.020  0.2508 -0.2521 -0.5105
 5199SOL    HW127056   0.341   4.249   9.082  0.7478  0.1801 -0.6745
 5199SOL    HW227057   0.201   4.269   9.064 -0.1867  1.4887 -0.4101
 5200SOL     OW27058   2.697   1.944  11.286  0.0953  0.0061  0.1834
 5200SOL    HW127059   2.655   1.992  11.215  0.1705 -1.6760 -0.9964
 5200SOL    HW227060   2.752   1.881  11.240  0.1835  0.6984 -0.6636
 5201SOL     OW27061   2.383   2.753   3.384  0.3497  0.5877 -0.1344
 5201SOL    HW127062   2.317   2.700   3.339 -0.7223  2.4760 -0.8101
 5201SOL    HW227063   2.332   2.833   3.395  2.1378  1.8570 -1.0723
 5202SOL     OW27064   4.531   1.113  16.540  0.2242  0.0725 -0.1400
 5202SOL    HW127065   4.548   1.167  16.463  0.4961 -1.4614 -1.1613
 5202SOL    HW227066   4.598   1.045  16.530 -2.1972 -2.5433  1.4971
 5203SOL     OW27067   2.848   3.986  12.530  0.1990 -0.7994 -0.1391
 5203SOL    HW127068   2.934   3.965  12.567  0.7433 -0.5398 -1.2624
 5203SOL    HW227069   2.791   3.920  12.569 -0.3115  0.6364  1.5048
 5204SOL     OW27070   4.392   0.747   7.523 -0.1742  0.6995  0.0953
 5204SOL    HW127071   4.316   0.744   7.581 -1.0850 -0.5915 -1.1621
 5204SOL    HW227072   4.396   0.660   7.482 -0.1053  0.1602  1.2510
 5205SOL     OW27073   1.515   2.254  14.382  0.4993 -0.4332 -0.8681
 5205SOL    HW127074   1.581   2.291  14.324  0.0484 -1.3264 -1.9479
 5205SOL    HW227075   1.573   2.240  14.457 -0.6987 -0.9317 -0.0270
 5206SOL     OW27076   3.497   4.409   8.518  0.4091 -0.3342  0.0932
 5206SOL    HW127077   3.407   4.437   8.533  0.0044 -1.1366 -0.8924
 5206SOL    HW227078   3.540   4.477   8.570 -0.1369 -1.7649  2.4525
 5207SOL     OW27079   1.238   0.360  17.092 -0.0812 -0.4222 -0.5776
 5207SOL    HW127080   1.297   0.369  17.018  1.9373 -3.2580  0.6896
 5207SOL    HW227081   1.152   0.366  17.050 -1.3888 -1.5238  1.9214
 5208SOL     OW27082   0.526   1.126   6.130 -0.1359  0.2554 -0.3822
 5208SOL    HW127083   0.536   1.209   6.084  1.6163  0.2929  0.0488
 5208SOL    HW227084   0.456   1.155   6.188 -1.0158 -1.5488 -0.5552
 5209SOL     OW27085   3.357   3.920  16.204 -0.1403 -0.4655  0.0145
 5209SOL    HW127086   3.436   3.943  16.156 -1.2663  2.4776 -0.4035
 5209SOL    HW227087   3.299   3.879  16.139  0.1343  0.4387 -0.7889
 5210SOL     OW27088   2.323   4.126   9.144  0.5953 -0.0736  0.4200
 5210SOL    HW127089   2.313   4.222   9.144  1.5239  0.0242  2.8897
 5210SOL    HW227090   2.414   4.121   9.172  1.5185 -0.8467 -2.6414
 5211SOL     OW27091   2.580   4.114   9.195 -0.1377 -0.1989  0.4400
 5211SOL    HW127092   2.663   4.081   9.230 -0.9515 -1.4620  1.1970
 5211SOL    HW227093   2.619   4.166   9.125  0.8021  1.0225  1.8662
 5212SOL     OW27094   3.151   3.435   2.689 -0.0179  0.6992  0.4111
 5212SOL    HW127095   3.224   3.462   2.744  1.3012  0.0250 -1.0217
 5212SOL    HW227096   3.093   3.397   2.755 -0.2906  0.2128 -0.1000
 5213SOL     OW27097   0.011   0.372   6.744  0.3561 -0.1836  0.3315
 5213SOL    HW127098   0.098   0.408   6.762 -0.5047  0.3863  3.4075
 5213SOL    HW227099   0.029   0.317   6.668  1.5374  2.1705 -1.1044
 5214SOL     OW27100   2.413   0.632   5.070  0.9205  0.1486 -0.1526
 5214SOL    HW127101   2.477   0.616   5.001  0.6144  0.6497 -0.5490
 5214SOL    HW227102   2.466   0.678   5.135  2.5222  0.3712 -1.6341
 5215SOL     OW27103   1.142   2.510   2.847 -0.0683 -0.1318  0.3837
 5215SOL    HW127104   1.128   2.546   2.935  1.7571 -0.2597  0.7309
 5215SOL    HW227105   1.188   2.584   2.809  0.1443 -2.0907 -3.1690
 5216SOL     OW27106   0.981   3.086   5.550  0.4821  0.2476 -0.4499
 5216SOL    HW127107   0.937   3.098   5.634 -0.2755 -0.9365 -0.6775
 5216SOL    HW227108   1.072   3.102   5.578  0.4287  0.5990 -0.4755
 5217SOL     OW27109   1.755   4.260   0.755  0.3237 -0.0295 -0.2248
 5217SOL    HW127110   1.705   4.286   0.832  0.0874 -0.3440 -0.2746
 5217SOL    HW227111   1.728   4.337   0.704  0.2658 -0.4677 -0.8511
 5218SOL     OW27112   1.766   0.264   0.888 -0.0119 -0.3004 -0.4176
 5218SOL    HW127113   1.854   0.264   0.923  0.7525  1.6019 -2.3235
 5218SOL    HW227114   1.749   0.173   0.862 -0.7710 -0.0450 -0.8353
 5219SOL     OW27115   2.998   3.323   2.927  0.0727  0.5136 -0.0463
 5219SOL    HW127116   2.943   3.246   2.941 -0.6449  0.7929 -1.3044
 5219SOL    HW227117   3.079   3.310   2.975  0.5897  0.8129 -0.8322
 5220SOL     OW27118   3.377   0.344   5.250 -0.4471 -0.1138  0.2724
 5220SOL    HW127119   3.369   0.260   5.205 -0.5289  0.5607 -0.9705
 5220SOL    HW227120   3.426   0.394   5.185  0.7594 -1.7859 -0.1037
 5221SOL     OW27121   1.104   0.387  12.470 -0.2205  0.3854  0.0583
 5221SOL    HW127122   1.199   0.391  12.465 -0.4871  3.4505 -2.2552
 5221SOL    HW227123   1.074   0.376  12.380 -1.5827 -1.9549  0.7994
 5222SOL     OW27124   2.566   1.830   2.884  0.0169 -0.3971  0.0494
 5222SOL    HW127125   2.473   1.821   2.903 -0.0306 -0.6976 -0.3183
 5222SOL    HW227126   2.595   1.897   2.946  2.0107 -0.9230 -0.3269
 5223SOL     OW27127   2.409   3.365   6.637 -0.3665  0.3579 -0.7695
 5223SOL    HW127128   2.447   3.378   6.723 -3.3479 -0.0489  0.5989
 5223SOL    HW227129   2.388   3.272   6.646 -0.8011  0.5560  0.1589
 5224SOL     OW27130   4.603   2.712   7.020 -0.0678 -0.0298  0.1980
 5224SOL    HW127131   4.582   2.724   6.928 -0.5170  3.5663  0.7991
 5224SOL    HW227132   4.595   2.800   7.056 -1.2212  0.9023 -2.3072
 5225SOL     OW27133   3.599   3.073   7.823 -0.6032  0.4587 -0.5040
 5225SOL    HW127134   3.673   3.013   7.835 -1.2371 -0.0048  1.1487
 5225SOL    HW227135   3.604   3.119   7.907  3.7785 -1.8436  0.5580
 5226SOL     OW27136   0.599   3.371  10.615  0.3147 -0.0110 -0.0335
 5226SOL    HW127137   0.605   3.351  10.709  1.3516  0.8299  0.0703
 5226SOL    HW227138   0.652   3.450  10.607  0.9306 -0.3585  0.5552
 5227SOL     OW27139   4.090   2.315   7.023  1.0403 -0.0146  0.0096
 5227SOL    HW127140   4.044   2.357   6.951  0.0118  0.0789  0.7290
 5227SOL    HW227141   4.182   2.311   6.997  1.1310  2.3106 -0.0012
 5228SOL     OW27142   2.043   2.545   5.549  0.1800  0.2625 -0.1005
 5228SOL    HW127143   2.094   2.609   5.599  0.5383 -0.9196  1.0174
 5228SOL    HW227144   1.971   2.592   5.507 -1.5788 -0.2991  2.3492
 5229SOL     OW27145   4.646   1.048   8.321  0.1475 -0.1035 -0.0373
 5229SOL    HW127146   4.594   1.006   8.252 -1.1409 -2.0814  2.1420
 5229SOL    HW227147   4.658   1.137   8.286  3.0242  0.0948  1.4751
 5230SOL     OW27148   2.409   3.175   0.659  0.2389 -0.3422 -0.0770
 5230SOL    HW127149   2.364   3.099   0.622 -1.1223 -0.3315  1.5596
 5230SOL    HW227150   2.430   3.147   0.748 -1.8140 -1.3065  0.1007
 5231SOL     OW27151   2.591   0.720   5.262  0.3210  0.1934 -0.2135
 5231SOL    HW127152   2.651   0.791   5.239  1.6255 -0.8635 -0.0152
 5231SOL    HW227153   2.618   0.712   5.354 -0.8257 -0.3831  0.0709
 5232SOL     OW27154   0.214   0.258   7.153 -0.2284 -0.0218 -0.0890
 5232SOL    HW127155   0.278   0.292   7.215  1.2565  0.3529 -1.8281
 5232SOL    HW227156   0.136   0.297   7.194 -0.3845 -0.2307 -0.1838
 5233SOL     OW27157   1.675   1.090   6.687 -0.0994  0.0023 -0.1493
 5233SOL    HW127158   1.766   1.069   6.665 -0.1093  0.6199 -0.7675
 5233SOL    HW227159   1.677   1.053   6.775  1.1665  1.1591  0.3192
 5234SOL     OW27160   0.957   2.738   2.131 -0.5027 -0.1846  0.0895
 5234SOL    HW127161   0.906   2.660   2.151 -0.2382 -0.2550  0.4884
 5234SOL    HW227162   1.045   2.702   2.134 -0.1020  0.9180  2.0625
 5235SOL     OW27163   4.171   0.265   5.331 -0.3530  0.0147 -0.0953
 5235SOL    HW127164   4.107   0.333   5.307 -1.5219  0.0042  3.0559
 5235SOL    HW227165   4.125   0.184   5.311 -2.0168  0.9267 -0.0029
 5236SOL     OW27166   3.992   0.889   2.366 -0.0790 -0.0927  0.1310
 5236SOL    HW127167   3.960   0.979   2.362  0.1224  0.1030  2.9876
 5236SOL    HW227168   3.995   0.871   2.272  0.6795  3.3691 -0.5077
 5237SOL     OW27169   1.420   3.984   4.739 -0.1415  0.2988  0.3018
 5237SOL    HW127170   1.506   3.959   4.706  0.1622 -0.8737  2.0036
 5237SOL    HW227171   1.430   4.077   4.761  0.9578  0.5838 -1.4253
 5238SOL     OW27172   3.330   0.189   9.710  0.4467  0.1277  0.3777
 5238SOL    HW127173   3.306   0.265   9.657 -0.5530  0.2513  1.0195
 5238SOL    HW227174   3.417   0.216   9.739  0.7706  0.8216 -1.2381
 5239SOL     OW27175   3.108   2.149   2.501 -0.1085 -0.1203  0.0859
 5239SOL    HW127176   3.146   2.234   2.521 -0.6734 -0.5254  2.8727
 5239SOL    HW227177   3.162   2.086   2.549 -0.8166 -0.3133  0.6302
 5240SOL     OW27178   1.700   2.848   2.283 -0.8278  0.2323  0.1529
 5240SOL    HW127179   1.725   2.823   2.372 -1.9052 -0.8612  0.1456
 5240SOL    HW227180   1.678   2.767   2.237 -3.3663  0.2397  1.3912
 5241SOL     OW27181   1.321   0.348   7.565  0.2904 -0.5626 -0.8193
 5241SOL    HW127182   1.290   0.264   7.597  0.0816 -0.3595 -0.4829
 5241SOL    HW227183   1.355   0.377   7.650  3.0603 -0.4431 -1.9436
 5242SOL     OW27184   1.885   0.511   2.245  0.6225 -0.2695 -0.1112
 5242SOL    HW127185   1.834   0.588   2.267 -0.1120 -0.6938 -0.3443
 5242SOL    HW227186   1.831   0.490   2.170 -1.4645 -2.2242  1.9277
 5243SOL     OW27187   0.709   2.598   5.994 -0.4508  0.6779  0.0308
 5243SOL    HW127188   0.678   2.510   6.014 -0.1778  0.5470 -0.1162
 5243SOL    HW227189   0.752   2.619   6.077  0.5295  1.0287 -0.5616
 5244SOL     OW27190   0.963   3.511  11.447  0.4657 -0.4081  0.0274
 5244SOL    HW127191   0.977   3.425  11.486  1.6544  0.8785  2.4295
 5244SOL    HW227192   1.036   3.553  11.493 -0.3799 -0.7655  1.7172
 5245SOL     OW27193   2.421   1.264   6.751 -0.1733 -0.0089  0.1519
 5245SOL    HW127194   2.487   1.325   6.717 -0.8063  1.2029  1.0933
 5245SOL    HW227195   2.387   1.326   6.816  1.6797 -0.4663  1.5499
 5246SOL     OW27196   1.722   3.940   4.395 -0.3964 -0.0504 -0.0890
 5246SOL    HW127197   1.692   3.921   4.484  2.7277  0.3637  1.0533
 5246SOL    HW227198   1.785   3.869   4.382 -0.8224 -0.5335  0.4641
 5247SOL     OW27199   1.853   2.096  13.546 -0.6719  0.3940  0.4670
 5247SOL    HW127200   1.903   2.030  13.595  1.2953  1.5758  0.0465
 5247SOL    HW227201   1.764   2.062  13.550 -0.7089  0.1821 -2.3908
 5248SOL     OW27202   0.403   1.653   1.566  0.1112 -0.6786 -0.1374
 5248SOL    HW127203   0.342   1.690   1.630 -1.1215 -0.7148 -1.2955
 5248SOL    HW227204   0.345   1.606   1.507 -1.6697  0.6565  0.5387
 5249SOL     OW27205   3.800   2.929   1.033  0.6829 -0.7257  0.2966
 5249SOL    HW127206   3.714   2.912   1.072  0.5624  1.0042  0.7719
 5249SOL    HW227207   3.783   2.898   0.945  1.0200  0.0698 -0.0508
 5250SOL     OW27208   0.952   3.068   7.252 -0.0212 -0.1048  0.2369
 5250SOL    HW127209   0.872   3.075   7.305 -1.3970 -0.8694 -1.7654
 5250SOL    HW227210   1.002   3.133   7.303 -0.0023 -0.8804  1.2166
 5251SOL     OW27211   2.048   0.995  13.645  0.3333  0.0243 -0.1233
 5251SOL    HW127212   2.117   0.932  13.625  0.3208 -0.6143  1.8266
 5251SOL    HW227213   2.092   1.076  13.619 -0.2448  0.3459 -0.0898
 5252SOL     OW27214   1.858   1.805   2.413  0.7050  0.1121 -0.0661
 5252SOL    HW127215   1.793   1.748   2.371  1.3918 -0.3162 -0.5341
 5252SOL    HW227216   1.915   1.814   2.337  0.3203 -0.4161 -0.4183
 5253SOL     OW27217   0.351   1.166  10.157  0.3721 -0.0802 -0.5863
 5253SOL    HW127218   0.445   1.152  10.170 -0.0222  0.7448  3.2060
 5253SOL    HW227219   0.346   1.261  10.167 -0.8730  0.1312 -3.2494
 5254SOL     OW27220   4.074   4.321   5.141 -0.2165  0.4853 -0.1491
 5254SOL    HW127221   4.107   4.405   5.172 -0.4296  0.5036  0.0286
 5254SOL    HW227222   3.995   4.350   5.096 -1.0291 -1.9160 -0.2856
 5255SOL     OW27223   0.551   4.657   5.702  0.1088 -0.0979  0.7297
 5255SOL    HW127224   0.553   4.696   5.614 -0.8833 -1.8139 -0.0611
 5255SOL    HW227225   0.484   4.590   5.688 -0.1906 -0.1334  2.3475
 5256SOL     OW27226   1.982   0.060  14.904  0.4549 -0.0924  0.1630
 5256SOL    HW127227   1.919   0.035  14.837 -0.2094  0.0601  0.7284
 5256SOL    HW227228   2.045   0.114  14.857  0.6811 -0.1682  0.3751
 5257SOL     OW27229   3.323   2.475   5.293  0.2491  0.4111 -0.1926
 5257SOL    HW127230   3.313   2.539   5.363 -2.2776 -0.4757  0.2952
 5257SOL    HW227231   3.309   2.393   5.341 -3.3199 -0.7045 -3.1368
 5258SOL     OW27232   4.309   0.396   0.585 -1.2210  0.0224  0.1450
 5258SOL    HW127233   4.272   0.389   0.497  1.1629  1.1393 -0.9512
 5258SOL    HW227234   4.277   0.315   0.624 -1.8281  0.2695  0.1598
 5259SOL     OW27235   2.367   0.111   4.231 -0.6878  0.3736  0.5019
 5259SOL    HW127236   2.278   0.081   4.249 -0.9267  1.8272  1.6362
 5259SOL    HW227237   2.417   0.093   4.310 -0.2650 -1.5402 -0.1837
 5260SOL     OW27238   0.754   2.103   3.042  0.0351 -0.2880  0.2998
 5260SOL    HW127239   0.675   2.112   3.096  1.1161 -1.3512  2.0286
 5260SOL    HW227240   0.807   2.160   3.096 -1.2391  1.8597 -0.7134
 5261SOL     OW27241   3.624   4.582   9.028  0.1256  0.2713 -0.2764
 5261SOL    HW127242   3.673   4.512   8.985 -2.7626 -1.7941 -0.2195
 5261SOL    HW227243   3.535   4.558   9.001  1.1538 -1.4079 -2.1083
 5262SOL     OW27244   2.654   2.658   6.860 -0.0939 -0.0027 -0.1044
 5262SOL    HW127245   2.565   2.690   6.871 -0.8243 -1.6939 -1.0003
 5262SOL    HW227246   2.685   2.649   6.950 -0.3162 -0.2992 -0.0568
 5263SOL     OW27247   4.480   0.002   1.588  0.3699 -0.1281 -0.3923
 5263SOL    HW127248   4.451   4.638   1.621 -0.7210  0.1382 -0.6749
 5263SOL    HW227249   4.573   0.005   1.608  0.6768  1.2219 -2.0553
 5264SOL     OW27250   1.317   2.157   7.444  0.0162 -0.4678 -0.1413
 5264SOL    HW127251   1.382   2.108   7.493 -0.5676 -1.9790 -0.8805
 5264SOL    HW227252   1.341   2.241   7.482 -1.7170 -0.3329  0.6622
 5265SOL     OW27253   0.499   4.466   6.635  0.2045 -0.7473  0.1805
 5265SOL    HW127254   0.541   4.513   6.708 -1.9453 -0.6264  1.3401
 5265SOL    HW227255   0.406   4.463   6.657 -0.5095  2.9335 -2.3282
 5266SOL     OW27256   2.420   3.320  11.924 -0.8411  0.3800  0.1866
 5266SOL    HW127257   2.440   3.232  11.955  0.4100  1.0730  1.3493
 5266SOL    HW227258   2.326   3.307  11.912 -1.0941  0.8294  1.6863
 5267SOL     OW27259   2.830   2.654  16.203  0.3392  0.1439  0.1418
 5267SOL    HW127260   2.827   2.748  16.219 -1.7372  0.0889  0.1163
 5267SOL    HW227261   2.899   2.658  16.136  0.6239  2.0893  0.5516
 5268SOL     OW27262   4.079   1.682   7.381  0.2249  0.6030  0.1540
 5268SOL    HW127263   4.014   1.634   7.330  2.4170 -1.1859 -0.9902
 5268SOL    HW227264   4.140   1.608   7.374  2.7351  2.6964 -0.3145
 5269SOL     OW27265   3.063   0.306  16.898  0.4390  0.3350  0.0099
 5269SOL    HW127266   3.028   0.299  16.987 -0.9198  0.7636 -0.5001
 5269SOL    HW227267   3.116   0.227  16.888  0.6031  0.5727 -0.9639
 5270SOL     OW27268   4.404   0.755  10.976 -0.3133  0.0057  0.1261
 5270SOL    HW127269   4.455   0.696  11.031 -0.5355  0.5907  0.9638
 5270SOL    HW227270   4.454   0.837  10.975 -0.2868 -0.0118 -0.0466
 5271SOL     OW27271   2.877   2.641  10.978  0.0696 -0.1014 -0.4145
 5271SOL    HW127272   2.782   2.633  10.981 -0.0774  2.0016  0.5032
 5271SOL    HW227273   2.902   2.559  10.937 -1.4884  0.2356 -2.0401
 5272SOL     OW27274   1.476   2.734   2.903  0.3726 -0.1279 -0.2156
 5272SOL    HW127275   1.399   2.788   2.922  0.0789 -0.9709  1.0175
 5272SOL    HW227276   1.516   2.740   2.990  1.1672 -2.0093 -0.4615
 5273SOL     OW27277   4.431   2.184   7.925  0.1331  0.3195  0.1290
 5273SOL    HW127278   4.342   2.174   7.958  0.9260 -3.7200  1.0369
 5273SOL    HW227279   4.470   2.099   7.947 -0.4135  0.0006 -0.1246
 5274SOL     OW27280   3.913   3.791  13.386 -0.0995  0.1083  0.2083
 5274SOL    HW127281   3.843   3.729  13.366  0.1181 -0.6835  1.8662
 5274SOL    HW227282   3.985   3.727  13.382 -0.8263 -0.6812 -0.0668
 5275SOL     OW27283   2.926   2.911  11.010 -0.4380  0.1342  0.6090
 5275SOL    HW127284   2.860   2.906  11.078 -1.4915 -0.9590 -0.4995
 5275SOL    HW227285   2.898   2.839  10.954  1.3336  0.2095 -0.3814
 5276SOL     OW27286   0.826   2.273   6.013 -0.0024  0.0886  0.5945
 5276SOL    HW127287   0.892   2.208   6.038 -0.4824 -0.0828  1.4553
 5276SOL    HW227288   0.757   2.212   5.986 -3.3327  4.0302  0.1731
 5277SOL     OW27289   1.583   0.013   4.671  0.6176 -0.2175 -0.4345
 5277SOL    HW127290   1.619   0.066   4.601 -0.0710 -1.3311 -1.6204
 5277SOL    HW227291   1.584   4.646   4.633 -1.9956 -1.5088  2.4355
 5278SOL     OW27292   1.394   2.513   2.406 -0.2702  0.2727  0.2304
 5278SOL    HW127293   1.451   2.464   2.465  0.5244 -0.1480 -0.8786
 5278SOL    HW227294   1.400   2.600   2.447  1.0677  0.1706  0.2384
 5279SOL     OW27295   1.209   1.989  16.104 -0.1896 -0.1141  0.0008
 5279SOL    HW127296   1.210   1.896  16.126 -0.5259  0.3690  1.9878
 5279SOL    HW227297   1.186   1.992  16.011  1.5040 -0.4434 -0.4408
 5280SOL     OW27298   3.732   4.360   3.457 -0.6809 -0.4695  0.4408
 5280SOL    HW127299   3.694   4.334   3.374  1.2557  1.2859 -1.0064
 5280SOL    HW227300   3.728   4.278   3.506 -0.6450 -1.2914 -0.9357
 5281SOL     OW27301   4.196   4.373   0.282 -0.2512 -0.2948 -0.6775
 5281SOL    HW127302   4.136   4.305   0.253 -2.6566  1.8005 -0.5851
 5281SOL    HW227303   4.146   4.404   0.357 -1.8447  0.9879 -2.2682
 5282SOL     OW27304   3.815   4.413  11.142 -0.3344  0.4222  0.1824
 5282SOL    HW127305   3.840   4.412  11.049  0.8858  1.2056  0.5128
 5282SOL    HW227306   3.817   4.319  11.162 -1.9372  0.6217  1.2764
 5283SOL     OW27307   1.794   2.804  17.080  0.1696  1.2108  0.2666
 5283SOL    HW127308   1.749   2.817  17.163  0.4368 -0.1408  0.6173
 5283SOL    HW227309   1.886   2.797  17.103  1.0327 -1.2310 -3.9223
 5284SOL     OW27310   0.539   2.682   8.831 -0.0734  0.2889 -0.5139
 5284SOL    HW127311   0.537   2.761   8.777  0.2067  0.2169 -0.6293
 5284SOL    HW227312   0.457   2.696   8.877 -0.6650 -1.6259 -0.9895
 5285SOL     OW27313   2.140   4.089  16.587  0.2594  0.3604 -0.2798
 5285SOL    HW127314   2.157   4.141  16.508  0.7686  0.6351  0.0175
 5285SOL    HW227315   2.208   4.024  16.601 -0.5268 -0.2724  0.5901
 5286SOL     OW27316   3.651   2.733   9.075  0.1162 -0.0877  0.2980
 5286SOL    HW127317   3.686   2.718   8.987 -1.7308 -1.7380 -0.1561
 5286SOL    HW227318   3.717   2.776   9.128  0.7134 -1.7409  0.9175
 5287SOL     OW27319   2.180   4.496   2.468  0.7239  0.1427 -0.2200
 5287SOL    HW127320   2.238   4.449   2.527  2.3056 -0.6131 -2.3843
 5287SOL    HW227321   2.235   4.572   2.452 -0.4110  1.6515  3.0661
 5288SOL     OW27322   3.769   1.848   1.434 -0.0213 -0.6071 -0.0049
 5288SOL    HW127323   3.836   1.846   1.503  1.1354  1.9202 -1.0657
 5288SOL    HW227324   3.797   1.770   1.385 -0.0501  0.3906 -1.5904
 5289SOL     OW27325   1.080   2.268   8.770 -0.6099  0.4394 -0.0884
 5289SOL    HW127326   1.014   2.247   8.704  0.7303  0.5266 -1.4700
 5289SOL    HW227327   1.064   2.196   8.831  0.5697  1.7506  1.7867
 5290SOL     OW27328   1.672   3.583   1.134 -0.2741 -0.5537 -0.8066
 5290SOL    HW127329   1.726   3.508   1.160  1.2475  0.6624 -0.4446
 5290SOL    HW227330   1.719   3.652   1.180 -0.5646 -0.7284 -0.2459
 5291SOL     OW27331   3.998   0.612   1.441 -0.4067  0.3856  0.1919
 5291SOL    HW127332   4.008   0.546   1.373  1.1388 -2.0011  2.7130
 5291SOL    HW227333   4.076   0.667   1.428  1.4999 -1.7320  2.7564
 5292SOL     OW27334   0.779   3.327  11.659 -0.0456 -0.0690  0.4389
 5292SOL    HW127335   0.745   3.302  11.744 -0.7780  3.2529  1.1177
 5292SOL    HW227336   0.873   3.325  11.677  0.0894  2.1807 -0.0369
 5293SOL     OW27337   0.138   0.239   3.639 -0.1562  0.4460 -0.7635
 5293SOL    HW127338   0.157   0.242   3.545 -1.2435  2.5817 -0.9169
 5293SOL    HW227339   0.120   0.145   3.642 -0.7312  0.6299  1.3600
 5294SOL     OW27340   2.359   1.945   9.331  0.0796  0.2831 -0.1513
 5294SOL    HW127341   2.398   1.977   9.250 -1.5788  1.5360 -0.4349
 5294SOL    HW227342   2.404   1.860   9.328  1.2766  0.8515  1.4776
 5295SOL     OW27343   0.299   0.825  17.283 -0.1182  0.6855  0.1586
 5295SOL    HW127344   0.357   0.767  17.233  0.1394  0.3715  0.8263
 5295SOL    HW227345   0.317   0.910  17.243 -0.2806 -0.2381 -1.9046
 5296SOL     OW27346   0.719   2.508   0.043 -0.1628 -0.7388  0.1538
 5296SOL    HW127347   0.798   2.544   0.002  0.0958  0.9614  2.1700
 5296SOL    HW227348   0.723   2.419   0.009 -0.1961 -0.1713 -1.3428
 5297SOL     OW27349   1.618   2.703   7.236 -0.0000 -0.3014  0.2810
 5297SOL    HW127350   1.618   2.785   7.186 -1.2131 -1.9382 -2.4129
 5297SOL    HW227351   1.655   2.734   7.318  0.8383  2.2308 -1.0403
 5298SOL     OW27352   1.156   4.139  17.644  0.1217 -0.2090 -0.5581
 5298SOL    HW127353   1.203   4.115  17.565  1.2007  0.0904 -0.0146
 5298SOL    HW227354   1.207   4.102   0.030  2.1822 -0.1913 -2.0038
 5299SOL     OW27355   1.216   2.193   0.241 -0.3020  0.5982  0.3596
 5299SOL    HW127356   1.306   2.171   0.263 -0.1515  0.7673 -0.0807
 5299SOL    HW227357   1.192   2.260   0.306 -0.0191  1.0371  0.0164
 5300SOL     OW27358   3.097   1.227   2.934  0.2219  0.3121  0.5674
 5300SOL    HW127359   3.019   1.263   2.977 -1.0550 -1.4112 -0.2930
 5300SOL    HW227360   3.155   1.303   2.935  1.2774 -0.4733 -0.4655
 5301SOL     OW27361   2.566   1.213   9.227  0.2782  0.6076 -0.2946
 5301SOL    HW127362   2.556   1.123   9.257 -2.6211  1.8127  2.3656
 5301SOL    HW227363   2.483   1.226   9.181  0.7511  2.1595 -0.7168
 5302SOL     OW27364   1.062   1.567   8.221  0.1925 -0.0400 -0.1386
 5302SOL    HW127365   1.130   1.572   8.288  2.0543 -0.6249 -2.0026
 5302SOL    HW227366   1.026   1.656   8.215  2.5843  1.1219  2.7183
 5303SOL     OW27367   3.777   3.285  14.416  0.7733 -0.8723  0.1369
 5303SOL    HW127368   3.763   3.368  14.462  1.5497 -1.8437  2.1042
 5303SOL    HW227369   3.872   3.276  14.414  0.7827 -0.8525  0.6102
 5304SOL     OW27370   1.519   3.216   1.120 -0.7309 -0.1414 -0.2142
 5304SOL    HW127371   1.467   3.271   1.179  1.0822  0.8779  0.4716
 5304SOL    HW227372   1.457   3.148   1.094  1.2640 -1.5731 -1.2419
 5305SOL     OW27373   3.515   3.336   7.074  0.1069 -0.6270  0.1446
 5305SOL    HW127374   3.556   3.379   7.149 -0.1818  0.5323 -0.3744
 5305SOL    HW227375   3.505   3.410   7.015  0.1033  0.4426  1.4887
 5306SOL     OW27376   1.390   4.397   3.639  0.2836  0.0273 -1.1311
 5306SOL    HW127377   1.388   4.316   3.587  3.3685  0.4003 -1.7918
 5306SOL    HW227378   1.333   4.454   3.588 -0.3829 -0.5724 -1.0742
 5307SOL     OW27379   0.099   3.878   7.965  0.2618 -0.4291  0.8340
 5307SOL    HW127380   0.164   3.902   8.030  0.6325  0.9804 -0.0643
 5307SOL    HW227381   0.150   3.866   7.885  1.9725  1.3536  1.6869
 5308SOL     OW27382   2.032   2.199   2.630  0.2615  0.0278 -0.8042
 5308SOL    HW127383   2.124   2.174   2.639  0.7409  2.7954  1.9415
 5308SOL    HW227384   2.030   2.287   2.669  2.2227 -0.0027 -0.6375
 5309SOL     OW27385   2.297   4.050   6.412  0.0982 -0.5808  0.3615
 5309SOL    HW127386   2.259   4.129   6.373 -1.1476 -1.7530 -0.8127
 5309SOL    HW227387   2.350   4.015   6.340  1.7416  0.6449  0.9774
 5310SOL     OW27388   2.663   0.498  16.806  0.0705 -0.0412  0.1967
 5310SOL    HW127389   2.583   0.473  16.852  0.4882 -0.5990  0.6288
 5310SOL    HW227390   2.717   0.421  16.823 -2.0039 -1.2972  1.1142
 5311SOL     OW27391   1.546   0.109   8.205 -0.2482  0.3917  0.4393
 5311SOL    HW127392   1.451   0.104   8.201 -0.3380  2.4626  0.0940
 5311SOL    HW227393   1.567   0.186   8.152  2.1032 -1.3729 -1.2310
 5312SOL     OW27394   3.009   3.648  10.234  0.3032  0.1750 -0.0201
 5312SOL    HW127395   2.953   3.687  10.301  0.9250  1.5208 -0.2841
 5312SOL    HW227396   3.033   3.722  10.177  0.0465  1.8731  2.0746
 5313SOL     OW27397   2.303   2.497   7.432 -0.4712  0.1424 -0.2435
 5313SOL    HW127398   2.383   2.452   7.459 -0.7905  1.9058  3.6629
 5313SOL    HW227399   2.250   2.423   7.403 -1.3253 -0.2152  2.1847
 5314SOL     OW27400   2.337   0.332  12.085 -0.3920 -0.1052 -0.6355
 5314SOL    HW127401   2.367   0.391  12.154 -1.0907 -0.5493  0.0402
 5314SOL    HW227402   2.312   0.251  12.129  0.5271  0.3892  0.7797
 5315SOL     OW27403   0.994   2.900  17.579  0.3989  0.5883 -0.4730
 5315SOL    HW127404   0.942   2.975  17.608  1.6391  1.4278 -0.4349
 5315SOL    HW227405   1.051   2.881  17.654  1.3149  2.5463 -0.6710
 5316SOL     OW27406   2.347   1.973  13.717  0.0589 -0.3656 -0.0052
 5316SOL    HW127407   2.410   1.978  13.790  0.4896 -1.0800 -0.3266
 5316SOL    HW227408   2.380   1.891  13.681  0.4523  0.2060 -0.9593
 5317SOL     OW27409   0.376   0.560   1.208 -0.5564 -0.5125 -0.0209
 5317SOL    HW127410   0.331   0.509   1.140 -1.4726  0.6098 -0.2572
 5317SOL    HW227411   0.456   0.591   1.166 -1.0407 -0.6009 -1.0117
 5318SOL     OW27412   3.552   3.304   8.786  0.1231 -0.2795 -0.5206
 5318SOL    HW127413   3.551   3.225   8.732  3.7117  0.4828 -1.6933
 5318SOL    HW227414   3.495   3.362   8.735 -2.6057 -2.1576  0.3409
 5319SOL     OW27415   4.075   1.931   7.463 -0.0929  0.1127  0.1447
 5319SOL    HW127416   4.104   1.844   7.434  1.8177  0.7394  0.1780
 5319SOL    HW227417   4.159   1.976   7.460 -0.3119  0.5543  0.7001
 5320SOL     OW27418   3.784   4.027   8.610  0.3747 -0.0601  0.6979
 5320SOL    HW127419   3.695   4.051   8.638  0.2242 -1.8387  1.7247
 5320SOL    HW227420   3.812   4.113   8.580  0.7866  0.1554  1.6878
 5321SOL     OW27421   0.461   0.534  17.367  0.3340 -0.2223  0.2417
 5321SOL    HW127422   0.384   0.563  17.415 -0.6268 -1.8940 -0.3052
 5321SOL    HW227423   0.524   0.504  17.433  1.6978  0.5710 -0.6803
 5322SOL     OW27424   4.368   1.483   5.211 -0.4877 -0.0406 -0.3417
 5322SOL    HW127425   4.342   1.575   5.218  1.6712  0.5065  0.5261
 5322SOL    HW227426   4.362   1.459   5.304 -0.2148 -0.8826 -0.5447
 5323SOL     OW27427   1.956   3.954  14.447 -0.0481 -0.4259 -0.0574
 5323SOL    HW127428   1.922   3.867  14.426 -1.5627  0.3640 -0.8569
 5323SOL    HW227429   1.989   3.938  14.535  3.2056  0.8678 -1.0127
 5324SOL     OW27430   0.033   1.629   7.996  0.1323  0.3131 -0.0705
 5324SOL    HW127431   0.043   1.642   8.090 -2.3683  0.5306  0.1888
 5324SOL    HW227432   4.671   1.581   7.993 -0.7516  1.8666 -0.4640
 5325SOL     OW27433   0.120   2.013   8.215 -0.7650 -0.3423 -0.3406
 5325SOL    HW127434   0.130   2.084   8.151 -0.3908 -1.2558 -1.2817
 5325SOL    HW227435   0.145   2.066   8.291  0.0145  1.1826 -1.6543
 5326SOL     OW27436   2.026   0.210  16.688 -0.4462  0.4486  0.2977
 5326SOL    HW127437   1.945   0.246  16.724 -0.6445  0.6639 -0.3643
 5326SOL    HW227438   2.036   0.125  16.731 -1.2449 -0.7503 -1.8586
 5327SOL     OW27439   3.576   2.047   6.081  0.0194 -0.2534  0.2446
 5327SOL    HW127440   3.535   2.074   5.998  2.6398  2.0914 -0.2821
 5327SOL    HW227441   3.546   2.118   6.138 -0.5913  0.3746 -0.8472
 5328SOL     OW27442   1.516   2.300   8.782  0.5386 -0.2414  0.0676
 5328SOL    HW127443   1.565   2.342   8.853 -1.3699  3.4965 -0.8583
 5328SOL    HW227444   1.428   2.307   8.818  0.1243  3.1715 -1.5789
 5329SOL     OW27445   2.210   2.890   1.560 -0.8973 -0.2522  0.3357
 5329SOL    HW127446   2.214   2.815   1.619 -0.3446  0.3816  1.1230
 5329SOL    HW227447   2.275   2.945   1.605 -0.4775 -1.2331  0.9449
 5330SOL     OW27448   1.685   1.669   2.208  0.0891  0.0987 -0.5336
 5330SOL    HW127449   1.756   1.687   2.146 -0.5321  1.7480 -0.7842
 5330SOL    HW227450   1.623   1.741   2.194 -2.0960 -1.9773 -1.4058
 5331SOL     OW27451   2.697   2.744   7.094  0.2522  0.2026 -0.1416
 5331SOL    HW127452   2.647   2.668   7.123  0.4612  0.4650  0.9047
 5331SOL    HW227453   2.735   2.781   7.174 -3.7229 -3.9525  3.7150
 5332SOL     OW27454   1.715   3.486   0.290 -0.4158  0.5849  0.3404
 5332SOL    HW127455   1.639   3.466   0.344 -0.3718 -0.1206  0.1402
 5332SOL    HW227456   1.712   3.411   0.231 -0.4196  0.5842  0.3416
 5333SOL     OW27457   0.043   4.055  14.031  0.5932  0.1084 -0.0149
 5333SOL    HW127458   0.066   3.963  14.047  0.0634 -0.0750 -0.2872
 5333SOL    HW227459   4.668   4.058  14.034  0.5396 -0.1683 -1.1850
 5334SOL     OW27460   3.609   3.160   9.639 -0.0990  0.2514  0.0191
 5334SOL    HW127461   3.548   3.185   9.570 -1.3080 -0.0011  0.9825
 5334SOL    HW227462   3.600   3.237   9.695 -0.9993 -0.1407  0.4265
 5335SOL     OW27463   3.427   3.094   1.125  0.0248  0.0486 -0.1174
 5335SOL    HW127464   3.471   3.012   1.149 -0.6460 -0.6414 -1.2372
 5335SOL    HW227465   3.506   3.140   1.099  0.4162 -1.8269 -2.2791
 5336SOL     OW27466   1.058   2.368   4.002  0.2304 -0.0158  0.3771
 5336SOL    HW127467   1.101   2.301   4.055 -1.3623 -2.5689 -1.5284
 5336SOL    HW227468   0.999   2.312   3.952  0.5000 -0.2205  0.2893
 5337SOL     OW27469   3.975   3.055   5.183 -0.4472  0.1863  0.5081
 5337SOL    HW127470   4.035   3.017   5.119 -1.1382  1.6857 -1.0176
 5337SOL    HW227471   3.887   3.045   5.149 -0.2195 -0.5898  0.1505
 5338SOL     OW27472   0.875   0.326   7.312  0.4628  0.1208  0.0490
 5338SOL    HW127473   0.852   0.301   7.402  3.0014  1.3499  1.0180
 5338SOL    HW227474   0.969   0.337   7.322  0.3530 -0.1656  1.4597
 5339SOL     OW27475   3.136   2.728   5.477  0.4205  0.0478 -0.0703
 5339SOL    HW127476   3.183   2.760   5.554 -0.2674  0.3366  0.2250
 5339SOL    HW227477   3.046   2.735   5.509  0.6682 -0.0080  0.6513
 5340SOL     OW27478   3.473   2.833   7.233  0.4656  0.8237 -0.6995
 5340SOL    HW127479   3.500   2.921   7.208  0.9078  0.1135 -2.7469
 5340SOL    HW227480   3.542   2.816   7.297 -1.8978 -0.2851  1.5612
 5341SOL     OW27481   4.435   3.892   2.699 -0.0412  0.3401 -0.6221
 5341SOL    HW127482   4.358   3.921   2.651 -0.7232  2.0714  1.5127
 5341SOL    HW227483   4.402   3.818   2.750  1.4958  0.5995  0.7778
 5342SOL     OW27484   0.708   4.059  10.110 -0.6294 -0.2834  0.4988
 5342SOL    HW127485   0.728   4.147  10.078  1.4008 -0.0643  2.3339
 5342SOL    HW227486   0.614   4.059  10.094 -0.5625 -0.6590  0.1068
 5343SOL     OW27487   4.056   1.123   3.208  0.0885  0.1362 -0.0659
 5343SOL    HW127488   4.095   1.051   3.258  1.7579  0.3650 -1.0395
 5343SOL    HW227489   4.139   1.161   3.180 -0.4646  1.6431  0.3233
 5344SOL     OW27490   0.537   4.459   8.489  0.4514 -0.1721  0.9607
 5344SOL    HW127491   0.572   4.396   8.426  0.5441 -0.0362  0.8750
 5344SOL    HW227492   0.616   4.484   8.538  2.0328 -0.3113 -1.4967
 5345SOL     OW27493   2.078   1.615   5.393 -0.3209 -0.2809  0.3770
 5345SOL    HW127494   2.063   1.683   5.459 -0.4955 -1.5173  1.5928
 5345SOL    HW227495   2.171   1.604   5.414  0.4763  2.1777 -1.7689
 5346SOL     OW27496   3.679   1.572   4.074  0.3740 -0.6808 -0.1777
 5346SOL    HW127497   3.774   1.579   4.063  0.4765  0.4326  1.4603
 5346SOL    HW227498   3.671   1.597   4.166 -1.7453 -1.2121 -0.2222
 5347SOL     OW27499   3.641   4.126   4.261  0.4634  0.4431 -0.3515
 5347SOL    HW127500   3.680   4.055   4.210  0.1151 -1.0558  1.4852
 5347SOL    HW227501   3.707   4.192   4.284 -2.3303  2.5507  1.6497
 5348SOL     OW27502   3.086   4.095  13.176  0.0447  0.2284 -0.3198
 5348SOL    HW127503   3.170   4.056  13.150 -1.4638 -3.1272 -0.0534
 5348SOL    HW227504   3.032   4.048  13.112 -1.6667  2.4441 -0.4850
 5349SOL     OW27505   1.746   3.229   4.685  0.1604 -0.0409  0.7060
 5349SOL    HW127506   1.755   3.169   4.611 -0.3536 -0.0734  0.6681
 5349SOL    HW227507   1.717   3.306   4.636  2.9579  1.0042  0.6994
 5350SOL     OW27508   0.259   2.124   2.146 -0.6991  0.2938 -0.5931
 5350SOL    HW127509   0.184   2.102   2.092 -0.8958 -0.4568 -0.0051
 5350SOL    HW227510   0.223   2.142   2.233  1.5875 -0.6844  0.5575
 5351SOL     OW27511   2.477   4.510   5.237  0.7019 -0.7601 -0.3534
 5351SOL    HW127512   2.531   4.443   5.280 -0.8552 -0.4692  2.0909
 5351SOL    HW227513   2.464   4.572   5.309  0.7904  0.1757 -1.1432
 5352SOL     OW27514   4.624   1.305   6.645 -0.3686  0.1932 -0.1130
 5352SOL    HW127515   4.576   1.250   6.582  3.3459 -2.6165 -0.5316
 5352SOL    HW227516   4.582   1.285   6.729  0.3030  1.1611  0.4447
 5353SOL     OW27517   0.371   1.075   8.674 -0.4016  0.3997  0.5112
 5353SOL    HW127518   0.351   1.133   8.600  1.4352 -0.0582 -0.3435
 5353SOL    HW227519   0.464   1.062   8.655 -0.9787 -1.7487 -0.8105
 5354SOL     OW27520   2.419   0.200  10.305  0.2319 -0.1270  0.2572
 5354SOL    HW127521   2.459   0.120  10.340 -0.4933 -0.8893 -0.6550
 5354SOL    HW227522   2.464   0.266  10.358  0.1542  0.9388 -1.0114
 5355SOL     OW27523   1.825   2.037   6.860  0.0028  0.0493 -0.1315
 5355SOL    HW127524   1.882   2.093   6.913  1.0071 -2.4762  1.4370
 5355SOL    HW227525   1.767   1.996   6.924 -1.9744  0.3824 -1.6846
 5356SOL     OW27526   4.030   2.674  13.721 -0.1732  0.5449  0.1454
 5356SOL    HW127527   4.006   2.745  13.660 -1.0493  2.5708  2.8624
 5356SOL    HW227528   3.993   2.708  13.802  0.7249  0.1215  0.7275
 5357SOL     OW27529   2.124   3.688   4.465  0.2746  0.1730 -0.2972
 5357SOL    HW127530   2.160   3.625   4.528 -2.4991 -0.6797  0.4782
 5357SOL    HW227531   2.187   3.760   4.467  3.0256 -2.1995 -2.2630
 5358SOL     OW27532   4.524   2.192   1.291  0.3809  0.2296  0.1536
 5358SOL    HW127533   4.460   2.125   1.265 -1.5325  1.9612  0.3714
 5358SOL    HW227534   4.590   2.187   1.222  0.0494  3.0763 -0.3581
 5359SOL     OW27535   0.076   0.833   9.212 -0.2510  0.5420 -0.7192
 5359SOL    HW127536   0.081   0.903   9.147  1.2722 -0.9544 -2.2054
 5359SOL    HW227537   0.004   0.781   9.176  0.8883 -0.2323 -1.9112
 5360SOL     OW27538   3.142   1.833   5.072 -0.4426  0.3102  0.6319
 5360SOL    HW127539   3.149   1.899   5.004 -0.5423 -0.2667  0.0661
 5360SOL    HW227540   3.057   1.799   5.046 -0.3115  0.0733  0.5140
 5361SOL     OW27541   0.117   4.114  14.386 -0.1390  0.2755  0.3082
 5361SOL    HW127542   0.124   4.018  14.385 -1.9988  0.1160  0.9114
 5361SOL    HW227543   0.211   4.129  14.391 -0.1606 -0.2445  2.3697
 5362SOL     OW27544   0.624   0.872   6.806 -0.1470  0.1801 -0.0878
 5362SOL    HW127545   0.602   0.869   6.713  0.3690  0.8581 -0.2309
 5362SOL    HW227546   0.669   0.791   6.828 -0.7316 -0.1361 -0.0559
 5363SOL     OW27547   3.493   3.504  11.322 -0.4713 -0.6620  0.2748
 5363SOL    HW127548   3.570   3.504  11.379  0.2513 -0.4023 -0.6948
 5363SOL    HW227549   3.433   3.460  11.381 -1.0882 -2.0468 -1.4051
 5364SOL     OW27550   4.324   4.010  11.996 -0.1390  0.0452 -0.3273
 5364SOL    HW127551   4.268   4.056  11.934  1.4436  0.5200 -1.4199
 5364SOL    HW227552   4.358   3.946  11.933  0.8230  1.6233 -1.4222
 5365SOL     OW27553   3.579   0.017   9.927  0.3925  0.1305  0.6609
 5365SOL    HW127554   3.541   0.100   9.897  2.4494  0.0742 -2.1083
 5365SOL    HW227555   3.623   0.037  10.009 -1.0573 -0.5854  1.6163
 5366SOL     OW27556   2.391   3.562   4.964  0.5046  0.0002  0.3834
 5366SOL    HW127557   2.450   3.538   5.036  0.1094 -0.3843  0.5829
 5366SOL    HW227558   2.355   3.474   4.949 -0.3344  0.0958  1.7966
 5367SOL     OW27559   0.289   4.373   7.210 -0.1773  0.0814 -0.8253
 5367SOL    HW127560   0.380   4.374   7.180 -0.4490 -0.1627 -1.6467
 5367SOL    HW227561   0.301   4.430   7.286 -0.2363  0.6280 -1.2239
 5368SOL     OW27562   2.085   4.012   8.749 -0.5635 -0.7604 -0.8074
 5368SOL    HW127563   2.126   3.948   8.691 -0.2399 -0.4285 -0.9430
 5368SOL    HW227564   2.054   4.078   8.688  1.3569  0.7532 -0.1375
 5369SOL     OW27565   1.687   2.299  17.194 -0.1159  0.2433 -0.1899
 5369SOL    HW127566   1.673   2.210  17.162  0.8813  0.7155 -1.9694
 5369SOL    HW227567   1.783   2.294  17.200  0.0152  0.9533 -1.5895
 5370SOL     OW27568   1.266   4.139   5.028  0.2580  0.0584 -0.7278
 5370SOL    HW127569   1.180   4.138   5.068  0.4461  1.8052 -0.3007
 5370SOL    HW227570   1.310   4.074   5.083 -0.2581  0.7562  0.4908
 5371SOL     OW27571   0.418   1.467  10.537  0.0765  0.6753 -0.2231
 5371SOL    HW127572   0.483   1.506  10.479 -1.6051  1.8686 -1.2742
 5371SOL    HW227573   0.383   1.548  10.574  0.4889  2.3088 -3.4227
 5372SOL     OW27574   1.054   3.812  17.127 -0.5086  0.1197 -0.5837
 5372SOL    HW127575   1.032   3.800  17.219  1.3422 -1.5546 -0.3774
 5372SOL    HW227576   1.002   3.890  17.108  1.9017  2.1642  1.1664
 5373SOL     OW27577   3.154   1.396  15.681  0.2991 -0.2321 -0.1888
 5373SOL    HW127578   3.196   1.325  15.633  0.3114  0.6985 -1.5567
 5373SOL    HW227579   3.125   1.339  15.752 -0.0158  0.9892  0.6663
 5374SOL     OW27580   4.091   0.687  12.781 -0.2154 -0.4848  0.0069
 5374SOL    HW127581   4.000   0.693  12.753 -0.2936 -2.0100 -0.0501
 5374SOL    HW227582   4.127   0.763  12.736 -1.0469 -0.6589 -0.9588
 5375SOL     OW27583   2.344   2.495   8.043  0.1721 -0.0094 -0.2870
 5375SOL    HW127584   2.319   2.403   8.039 -1.4833  0.4298 -0.1859
 5375SOL    HW227585   2.372   2.489   8.134 -0.8995  0.1660  0.0532
 5376SOL     OW27586   1.315   3.918   1.815 -0.6562  0.1441 -0.4126
 5376SOL    HW127587   1.338   3.992   1.757  0.2594 -0.0050 -0.2333
 5376SOL    HW227588   1.244   3.876   1.765  1.2733 -2.2104 -1.1530
 5377SOL     OW27589   3.877   4.121   6.840  0.3280  0.1563  0.0375
 5377SOL    HW127590   3.852   4.068   6.765  0.1822  0.0345  0.1728
 5377SOL    HW227591   3.957   4.078   6.870 -0.1573 -0.7163  0.0715
 5378SOL     OW27592   1.121   3.103  14.390  0.3018 -0.1358 -0.1867
 5378SOL    HW127593   1.053   3.110  14.323  1.4804  0.9461 -1.2761
 5378SOL    HW227594   1.091   3.023  14.433 -1.1477  0.5172 -0.0122
 5379SOL     OW27595   1.255   0.866   5.364 -0.2683 -0.0904 -0.1103
 5379SOL    HW127596   1.321   0.893   5.427 -0.4178 -1.4877  0.6436
 5379SOL    HW227597   1.309   0.864   5.285 -0.9965  2.0586 -0.6618
 5380SOL     OW27598   4.297   1.960   7.642  0.1642  0.6217  0.0269
 5380SOL    HW127599   4.232   1.964   7.712 -1.1046  0.0364 -1.1307
 5380SOL    HW227600   4.311   1.866   7.639 -1.2588  0.4317 -0.4042
 5381SOL     OW27601   2.511   2.060   8.409 -0.1933 -0.2388  0.4158
 5381SOL    HW127602   2.517   2.138   8.464  1.7156 -0.0846 -0.0091
 5381SOL    HW227603   2.489   1.992   8.473 -0.6151 -0.7579 -0.2780
 5382SOL     OW27604   1.290   2.232   5.492  0.4505  0.3239 -0.6368
 5382SOL    HW127605   1.289   2.137   5.503 -1.5141  0.3504 -0.4561
 5382SOL    HW227606   1.214   2.263   5.543  1.4496 -0.1435  1.1583
 5383SOL     OW27607   4.617   2.193   4.650  0.0893 -0.3952  0.2089
 5383SOL    HW127608   4.710   2.215   4.646  0.4456 -1.8250  0.3101
 5383SOL    HW227609   4.618   2.119   4.589 -0.4749  1.1143 -1.6342
 5384SOL     OW27610   1.480   3.612   4.299 -0.0631 -0.0068  0.0328
 5384SOL    HW127611   1.514   3.565   4.223  0.1336 -0.5129  0.4290
 5384SOL    HW227612   1.516   3.699   4.283 -2.0865  0.5262 -1.5134
 5385SOL     OW27613   1.666   4.512   5.062  0.1843  0.5508  0.6671
 5385SOL    HW127614   1.738   4.460   5.027  0.0032  0.0938  0.9791
 5385SOL    HW227615   1.598   4.452   5.093  0.4848 -0.3087 -0.3444
 5386SOL     OW27616   2.020   2.839   6.449 -0.6372 -0.4479 -0.6016
 5386SOL    HW127617   1.940   2.868   6.406  0.8019 -0.5487 -3.4073
 5386SOL    HW227618   2.017   2.880   6.535 -0.4228 -0.6501 -0.4951
 5387SOL     OW27619   0.402   1.766  14.938 -0.5442  0.0155  0.1328
 5387SOL    HW127620   0.461   1.774  14.863 -1.6875  1.6481 -0.5988
 5387SOL    HW227621   0.317   1.756  14.895 -0.6010 -2.7867  0.8861
 5388SOL     OW27622   1.363   1.888   4.702  0.1062  0.2415 -0.3682
 5388SOL    HW127623   1.387   1.824   4.770 -2.0378  0.8735  0.9803
 5388SOL    HW227624   1.301   1.941   4.752 -1.6984 -1.1707 -1.1623
 5389SOL     OW27625   2.722   3.412   8.180 -0.0797 -0.0392 -0.1541
 5389SOL    HW127626   2.780   3.337   8.194 -2.4651 -1.6957  0.8867
 5389SOL    HW227627   2.716   3.406   8.085  2.0657  1.6118 -0.3738
 5390SOL     OW27628   4.093   2.516   8.466 -0.0680  0.4082  0.2351
 5390SOL    HW127629   4.158   2.475   8.523  0.3665  1.9206  0.8410
 5390SOL    HW227630   4.137   2.532   8.383 -0.3470  4.4928  0.8273
 5391SOL     OW27631   2.002   1.569   9.205 -0.4970  0.1474 -0.5554
 5391SOL    HW127632   1.981   1.662   9.214  0.0297 -0.0177  2.4465
 5391SOL    HW227633   2.096   1.556   9.221 -0.5700 -0.1401 -0.3585
 5392SOL     OW27634   0.227   0.675  15.207 -0.6486 -0.0549 -0.3352
 5392SOL    HW127635   0.282   0.643  15.278 -1.7885 -0.4466  0.3799
 5392SOL    HW227636   0.220   0.768  15.231  1.4265  0.2389 -0.9129
 5393SOL     OW27637   1.207   2.256   7.050 -0.4103 -0.4842 -0.4656
 5393SOL    HW127638   1.294   2.269   7.011  0.9271 -0.9763  2.3924
 5393SOL    HW227639   1.152   2.228   6.976 -0.8698  0.6705 -0.5669
 5394SOL     OW27640   2.932   3.791   6.103  0.1183 -0.3403 -0.2238
 5394SOL    HW127641   2.945   3.697   6.098 -0.3406 -0.3857 -0.5751
 5394SOL    HW227642   2.973   3.808   6.187  0.3660  0.5164 -0.5143
 5395SOL     OW27643   3.655   1.632   8.183  0.0528 -0.0475  0.2634
 5395SOL    HW127644   3.669   1.567   8.252 -1.9240 -0.2050  0.5020
 5395SOL    HW227645   3.560   1.625   8.183  0.1456 -1.2250 -2.1195
 5396SOL     OW27646   3.814   0.616   2.818 -0.0292 -0.2125 -0.6203
 5396SOL    HW127647   3.850   0.705   2.810  0.0103 -0.1122  0.7903
 5396SOL    HW227648   3.805   0.605   2.912 -0.6750  0.9203 -0.5537
 5397SOL     OW27649   3.028   1.523  14.155  0.2567 -0.2427 -0.5390
 5397SOL    HW127650   3.067   1.530  14.068 -1.0236  0.3736 -1.0660
 5397SOL    HW227651   3.002   1.431  14.150 -0.9881  0.0645  0.2309
 5398SOL     OW27652   0.111   0.399   9.368 -0.2027  0.3633 -0.9876
 5398SOL    HW127653   0.133   0.331   9.431 -2.8430 -0.3920 -0.8925
 5398SOL    HW227654   0.119   0.344   9.289 -0.7440 -0.2503 -0.6117
 5399SOL     OW27655   3.685   4.374  10.094  0.7175 -0.3630 -0.0674
 5399SOL    HW127656   3.741   4.445  10.064  0.5606 -0.9435 -1.7441
 5399SOL    HW227657   3.735   4.322  10.157 -1.6068  0.4191  2.4214
 5400SOL     OW27658   1.746   4.657   3.257 -0.1636 -0.1667  0.5342
 5400SOL    HW127659   1.793   4.698   3.330  0.6742  0.3615 -0.3114
 5400SOL    HW227660   1.806   4.646   3.183 -1.5467 -1.0799 -0.4531
 5401SOL     OW27661   0.185   2.296   5.787 -0.6643 -0.1009  0.0290
 5401SOL    HW127662   0.267   2.345   5.792 -0.9559  0.0879  3.2805
 5401SOL    HW227663   0.141   2.357   5.728  1.3293  0.4223 -0.9265
 5402SOL     OW27664   4.235   1.315   1.588  0.0169 -0.0705  0.0660
 5402SOL    HW127665   4.283   1.339   1.667 -0.4294  0.4823  0.1793
 5402SOL    HW227666   4.201   1.230   1.614 -0.5879  0.0404 -0.3768
 5403SOL     OW27667   3.170   1.786  13.348  0.8357 -0.0968 -0.2553
 5403SOL    HW127668   3.088   1.827  13.377 -0.5812 -1.7302 -1.8736
 5403SOL    HW227669   3.188   1.725  13.420  0.7862 -1.4962 -1.4355
 5404SOL     OW27670   3.750   2.166   4.002 -0.0636 -0.4594 -0.1868
 5404SOL    HW127671   3.703   2.097   4.048 -1.4478  1.2953  1.0417
 5404SOL    HW227672   3.829   2.179   4.054 -0.6460  0.7443  0.4005
 5405SOL     OW27673   3.591   2.860  16.587  0.4011 -0.3715 -0.5895
 5405SOL    HW127674   3.679   2.851  16.551  0.4884  0.4432 -0.5845
 5405SOL    HW227675   3.575   2.774  16.625  2.8545 -0.2862  0.5904
 5406SOL     OW27676   1.248   1.988   4.443 -0.0562  0.2082 -0.6756
 5406SOL    HW127677   1.291   2.063   4.483  1.0563 -0.4971 -0.5696
 5406SOL    HW227678   1.249   1.927   4.517 -0.4034 -1.6398 -2.1995
 5407SOL     OW27679   2.794   4.709  15.526 -0.5976 -0.5963  0.5143
 5407SOL    HW127680   2.713   4.679  15.484 -0.6427  0.8975 -0.4758
 5407SOL    HW227681   2.857   4.661  15.472  1.2337  2.3824  0.0610
 5408SOL     OW27682   2.329   0.631   6.143 -0.1870  0.3638 -0.3233
 5408SOL    HW127683   2.236   0.623   6.124 -0.4244 -0.8865  1.4183
 5408SOL    HW227684   2.349   0.539   6.159  0.2778  0.4394 -0.4493
 5409SOL     OW27685   0.804   2.645   2.837 -0.3175 -0.2765 -0.0780
 5409SOL    HW127686   0.765   2.584   2.900 -0.9733  0.1309 -0.0950
 5409SOL    HW227687   0.874   2.588   2.804 -0.2565 -0.5704  0.5542
 5410SOL     OW27688   0.432   3.338   3.094  0.3859 -0.1197 -0.2174
 5410SOL    HW127689   0.358   3.378   3.141 -0.2223 -0.1979 -1.1049
 5410SOL    HW227690   0.381   3.295   3.026  0.4201 -0.8916  0.2420
 5411SOL     OW27691   0.782   0.675  17.225 -0.2535 -0.0881 -1.1127
 5411SOL    HW127692   0.754   0.584  17.216  0.6456 -0.2922 -1.8469
 5411SOL    HW227693   0.875   0.665  17.246  0.1016  2.7384 -1.3293
 5412SOL     OW27694   1.102   2.445   8.003 -0.4212  0.0731  0.2792
 5412SOL    HW127695   1.147   2.463   8.086 -0.6818  1.8010  0.0317
 5412SOL    HW227696   1.174   2.406   7.953  1.6993  1.9881  1.8238
 5413SOL     OW27697   4.698   4.571   5.302  0.4224 -1.3456  0.3758
 5413SOL    HW127698   4.717   4.577   5.396 -0.5877 -0.7250  0.5396
 5413SOL    HW227699   4.607   4.600   5.301  0.4462 -1.3837 -1.8852
 5414SOL     OW27700   1.021   1.931   6.665 -0.3973  0.0851  0.2328
 5414SOL    HW127701   1.102   1.885   6.646 -0.9304 -0.5703 -0.4748
 5414SOL    HW227702   0.988   1.953   6.578 -1.7251 -0.1844  0.6550
 5415SOL     OW27703   1.534   3.174  15.357  0.0222  0.7291 -0.0020
 5415SOL    HW127704   1.607   3.196  15.416  0.3229 -1.3031  0.3849
 5415SOL    HW227705   1.521   3.254  15.306 -3.6421 -0.0279 -0.1903
 5416SOL     OW27706   4.018   4.522   4.221  0.3041 -0.4052 -0.0374
 5416SOL    HW127707   4.103   4.477   4.224  0.5344 -0.2168 -2.8506
 5416SOL    HW227708   4.009   4.573   4.301  1.9435  0.0346 -0.1142
 5417SOL     OW27709   0.596   4.532   8.895  0.2500  0.3431  0.0932
 5417SOL    HW127710   0.624   4.441   8.883  1.2807  0.7789 -0.8044
 5417SOL    HW227711   0.512   4.528   8.941  0.4135 -0.1991  0.3445
 5418SOL     OW27712   2.523   1.747   2.199 -0.1434 -0.4461 -0.3037
 5418SOL    HW127713   2.546   1.839   2.187 -0.9062 -0.2749 -0.4080
 5418SOL    HW227714   2.541   1.740   2.293  1.8779  0.8613 -0.5896
 5419SOL     OW27715   3.317   0.615   9.894 -0.0679 -0.4669 -0.0246
 5419SOL    HW127716   3.298   0.545   9.957  1.0703 -0.2478  0.5669
 5419SOL    HW227717   3.412   0.605   9.885 -0.1309 -0.5188 -0.5983
 5420SOL     OW27718   2.785   1.159   2.793  0.5762 -0.7970  0.5665
 5420SOL    HW127719   2.764   1.167   2.699 -1.2252 -0.1732  1.0234
 5420SOL    HW227720   2.729   1.088   2.824 -1.4789  0.5900  0.0607
 5421SOL     OW27721   4.389   1.670   2.438 -0.6973  0.4733  0.3001
 5421SOL    HW127722   4.353   1.680   2.350 -0.0875 -0.0811 -0.0136
 5421SOL    HW227723   4.327   1.611   2.481 -0.2328  1.5806  2.5284
 5422SOL     OW27724   0.401   2.008   4.378  0.4207 -0.4420 -0.4002
 5422SOL    HW127725   0.433   1.959   4.302 -2.1633  1.2931 -2.6052
 5422SOL    HW227726   0.365   2.086   4.334  2.1683  1.8818  2.3060
 5423SOL     OW27727   2.674   0.741   3.277  0.3007 -0.5280  0.5143
 5423SOL    HW127728   2.745   0.772   3.221 -0.7396 -1.0476 -1.0663
 5423SOL    HW227729   2.674   0.802   3.351  1.2140  2.7173 -2.1709
 5424SOL     OW27730   3.331   2.540   1.863 -0.1838 -0.1337  0.1399
 5424SOL    HW127731   3.420   2.506   1.862 -0.8313 -1.7817 -0.7893
 5424SOL    HW227732   3.285   2.492   1.793  1.8086 -1.6035 -0.1463
 5425SOL     OW27733   3.245   0.646   4.569  0.3412 -0.7861  0.2864
 5425SOL    HW127734   3.319   0.643   4.508  0.0723  1.0221 -0.1148
 5425SOL    HW227735   3.168   0.638   4.513  0.5219  1.9940 -0.3634
 5426SOL     OW27736   0.580   1.902  12.064  0.3069  0.3889  0.0783
 5426SOL    HW127737   0.508   1.946  12.109 -0.5531 -1.5134  0.5447
 5426SOL    HW227738   0.665   1.942  12.083  0.5756 -0.6187  0.9952
 5427SOL     OW27739   4.700   4.266   7.292 -0.7809 -0.0187 -0.4605
 5427SOL    HW127740   4.697   4.298   7.383 -0.8909 -1.9915  0.2342
 5427SOL    HW227741   4.699   4.172   7.311 -1.4471  0.1090  0.1635
 5428SOL     OW27742   1.070   4.126   3.801 -0.3161 -0.4790 -0.2113
 5428SOL    HW127743   1.025   4.133   3.885  0.8300 -0.8074  0.4403
 5428SOL    HW227744   1.073   4.031   3.789  0.8761 -0.8217  2.7486
 5429SOL     OW27745   4.042   2.407  10.992  0.5722 -0.0628  0.0887
 5429SOL    HW127746   4.090   2.330  11.023  0.9126 -0.2503 -0.9172
 5429SOL    HW227747   4.069   2.409  10.900  0.5349 -0.1667  0.0755
 5430SOL     OW27748   3.925   2.902   6.170  0.5528 -0.9026 -0.0575
 5430SOL    HW127749   3.893   2.924   6.257  1.0846 -2.6590  0.5693
 5430SOL    HW227750   3.893   2.812   6.164 -0.2337 -0.4962 -2.0168
 5431SOL     OW27751   2.286   1.093   9.772 -0.5621 -0.2561 -0.1478
 5431SOL    HW127752   2.260   1.183   9.792 -0.3066 -0.1910 -0.1048
 5431SOL    HW227753   2.345   1.077   9.845 -0.0504 -0.9192 -0.7128
 5432SOL     OW27754   2.994   0.178   8.872 -0.7497 -0.4872  0.0600
 5432SOL    HW127755   3.053   0.105   8.853 -1.3557 -1.2688  1.2054
 5432SOL    HW227756   2.909   0.136   8.888 -0.6359 -0.8186 -0.2047
 5433SOL     OW27757   1.695   3.085  12.655 -0.6386 -0.3975 -0.0041
 5433SOL    HW127758   1.617   3.036  12.630 -0.9401 -1.0238  2.1104
 5433SOL    HW227759   1.735   3.093  12.569 -3.0108 -2.7937 -1.3351
 5434SOL     OW27760   2.611   1.857   0.273  0.1936  0.5117  0.1162
 5434SOL    HW127761   2.538   1.870   0.212 -0.6551  0.5922  1.1562
 5434SOL    HW227762   2.672   1.917   0.231 -0.0962 -1.4536 -3.1263
 5435SOL     OW27763   2.825   3.817   3.650 -0.5141  0.1906  0.0583
 5435SOL    HW127764   2.866   3.741   3.609  0.9291  0.5813  0.7891
 5435SOL    HW227765   2.752   3.777   3.695  0.0882 -0.1777  0.6979
 5436SOL     OW27766   2.786   2.538  16.454  0.2444 -0.2189  0.0210
 5436SOL    HW127767   2.855   2.560  16.516  0.0557 -0.5733  0.3620
 5436SOL    HW227768   2.820   2.566  16.369 -1.0006 -0.2982 -0.5049
 5437SOL     OW27769   4.363   0.630   0.342 -0.7675 -0.3361  0.2425
 5437SOL    HW127770   4.386   0.538   0.355  0.8324 -0.1747 -1.4365
 5437SOL    HW227771   4.295   0.629   0.275  0.5312  0.5949 -1.0813
 5438SOL     OW27772   0.804   2.580  13.146  0.7503  0.2117  0.0070
 5438SOL    HW127773   0.709   2.570  13.141  0.2376  3.7892  2.4625
 5438SOL    HW227774   0.818   2.544  13.234  2.4305 -2.7716 -1.4828
 5439SOL     OW27775   0.216   1.212   9.020 -0.0913 -0.6787  0.2100
 5439SOL    HW127776   0.271   1.151   9.067  2.0003  0.9068 -0.1653
 5439SOL    HW227777   0.153   1.149   8.986  0.0780  0.5177 -2.3285
 5440SOL     OW27778   2.449   3.482   5.226 -0.1721 -0.0371  0.2077
 5440SOL    HW127779   2.386   3.482   5.298 -0.3164 -1.1309  0.0735
 5440SOL    HW227780   2.525   3.453   5.277 -0.1715 -0.4687 -0.0432
 5441SOL     OW27781   0.016   1.069   6.155 -0.6246 -0.1160 -0.1391
 5441SOL    HW127782   0.043   1.160   6.160  0.1785 -0.5385  3.3922
 5441SOL    HW227783   0.088   1.035   6.102 -0.8141 -1.1515  0.2586
 5442SOL     OW27784   0.741   2.109   6.525 -0.3968 -0.2151 -0.0680
 5442SOL    HW127785   0.656   2.147   6.505 -0.3613  0.4927  1.1373
 5442SOL    HW227786   0.791   2.191   6.531  0.4837 -0.8317  1.0329
 5443SOL     OW27787   4.324   3.870   2.990 -0.1169  0.3409 -0.5152
 5443SOL    HW127788   4.272   3.814   3.048 -1.2120  1.5313 -0.3458
 5443SOL    HW227789   4.257   3.912   2.936  0.2082  3.6972  1.6817
 5444SOL     OW27790   1.193   0.557   3.070  0.1897  0.6461 -0.1683
 5444SOL    HW127791   1.159   0.472   3.044  1.4010  0.3830 -0.8691
 5444SOL    HW227792   1.279   0.560   3.029  0.0616  0.8093 -0.4274
 5445SOL     OW27793   0.918   4.063   9.669  0.0406 -0.0398  0.0840
 5445SOL    HW127794   0.856   4.073   9.596  2.8002 -1.6156 -2.4788
 5445SOL    HW227795   0.891   4.130   9.732 -0.1995  0.8246 -0.9355
 5446SOL     OW27796   3.918   1.086   0.644 -0.0115  0.2405  0.2168
 5446SOL    HW127797   3.881   1.023   0.706 -1.3190 -0.7982 -1.5847
 5446SOL    HW227798   4.012   1.082   0.658 -0.1369 -1.0427  0.7235
 5447SOL     OW27799   3.824   0.043   5.170 -0.6157  0.4281  0.1306
 5447SOL    HW127800   3.753   0.103   5.150 -0.0533  0.4363 -1.8604
 5447SOL    HW227801   3.846   0.014   5.081 -1.6536 -1.3752  0.4554
 5448SOL     OW27802   1.364   3.077   6.536  0.3456 -0.4127  0.4547
 5448SOL    HW127803   1.338   3.145   6.474  1.7622  1.5046  1.9692
 5448SOL    HW227804   1.288   3.074   6.594  0.4312 -1.8049  0.4929
 5449SOL     OW27805   0.016   1.498  15.147 -0.5894  0.6036  0.1573
 5449SOL    HW127806   0.033   1.574  15.091  0.3930  0.0690 -0.2825
 5449SOL    HW227807   0.005   1.432  15.078 -3.0458  2.3952 -1.1658
 5450SOL     OW27808   0.302   1.240   5.380 -0.8903  0.3179 -0.2529
 5450SOL    HW127809   0.245   1.235   5.304  0.7584  0.8340 -1.5144
 5450SOL    HW227810   0.240   1.264   5.449 -0.1100 -1.1920  0.9892
 5451SOL     OW27811   0.414   0.787   7.045  0.0962  0.3743 -0.0214
 5451SOL    HW127812   0.446   0.859   6.991 -0.6382  0.0883 -0.8441
 5451SOL    HW227813   0.455   0.706   7.014 -1.9590 -1.1449  1.1698
 5452SOL     OW27814   2.706   3.889   6.348  0.2812 -0.1291 -0.1753
 5452SOL    HW127815   2.742   3.974   6.372 -1.6960  0.0177  2.2760
 5452SOL    HW227816   2.737   3.877   6.258 -0.6583 -0.5441 -0.4516
 5453SOL     OW27817   3.112   4.039  14.217  0.2980  0.0782 -0.5235
 5453SOL    HW127818   3.032   4.089  14.204  0.6951  1.0668  0.7629
 5453SOL    HW227819   3.149   4.091  14.289 -0.9030 -0.3095  0.3776
 5454SOL     OW27820   2.705   1.952   1.311  0.2739 -0.2191  0.5671
 5454SOL    HW127821   2.683   1.969   1.220  0.5601  0.6461  0.6573
 5454SOL    HW227822   2.793   1.988   1.303  0.8323 -1.2830  1.8916
 5455SOL     OW27823   0.701   0.651   8.091 -0.4579 -0.1865 -0.3257
 5455SOL    HW127824   0.729   0.724   8.034 -2.4400  0.5199 -0.4050
 5455SOL    HW227825   0.665   0.696   8.167 -0.4862  0.8993 -0.9794
 5456SOL     OW27826   2.073   1.156  16.905  0.2651  0.3655 -0.1519
 5456SOL    HW127827   2.031   1.078  16.941 -0.2608  0.9770  0.5699
 5456SOL    HW227828   2.132   1.116  16.841  0.7992 -0.3824  0.8148
 5457SOL     OW27829   2.931   3.508  15.228 -0.2221  0.4817 -0.6074
 5457SOL    HW127830   2.918   3.491  15.322  4.6465  4.5076  0.7848
 5457SOL    HW227831   3.007   3.567  15.233 -0.1973  0.3858  0.2939
 5458SOL     OW27832   0.983   2.933  10.812 -1.0198 -0.0224 -1.0365
 5458SOL    HW127833   0.992   3.003  10.747 -0.9171 -0.3899 -1.4151
 5458SOL    HW227834   0.928   2.971  10.880  1.5222  0.3025  0.8512
 5459SOL     OW27835   0.625   4.366   6.396  0.1002 -0.0229 -0.1968
 5459SOL    HW127836   0.586   4.401   6.475 -0.3325 -0.8709 -0.0322
 5459SOL    HW227837   0.711   4.341   6.430 -0.2700  0.8178  1.3057
 5460SOL     OW27838   0.756   4.452  12.408  0.0296  0.4382 -0.0809
 5460SOL    HW127839   0.796   4.506  12.340 -1.8505  0.0103 -1.5353
 5460SOL    HW227840   0.837   4.414  12.442 -0.1044 -1.1937 -1.6115
 5461SOL     OW27841   0.345   1.465   4.376  0.2670 -0.1646  0.1349
 5461SOL    HW127842   0.329   1.516   4.455 -3.4756  0.4441 -0.9949
 5461SOL    HW227843   0.305   1.387   4.414 -3.7080  2.3008  1.0500
 5462SOL     OW27844   2.171   0.729   4.623 -0.3507 -0.2277  0.2665
 5462SOL    HW127845   2.099   0.666   4.634  0.3794 -0.7319  2.1400
 5462SOL    HW227846   2.117   0.807   4.616 -0.1176 -0.1408 -0.6588
 5463SOL     OW27847   3.242   0.998  16.763  0.0123  0.3488 -0.6020
 5463SOL    HW127848   3.304   1.070  16.752 -0.8616  1.3780  1.2123
 5463SOL    HW227849   3.176   1.028  16.700  0.0770  0.5148 -0.5903
 5464SOL     OW27850   4.088   3.294   3.984 -0.4394 -0.3505  0.1368
 5464SOL    HW127851   4.178   3.267   3.996 -0.1201  0.4874 -0.3657
 5464SOL    HW227852   4.056   3.245   4.060 -0.5345  1.1829  1.0776
 5465SOL     OW27853   0.916   2.308   5.408 -0.4127 -0.1687 -0.1467
 5465SOL    HW127854   0.882   2.231   5.362 -0.5362 -0.2615  0.0993
 5465SOL    HW227855   0.959   2.271   5.485 -1.2453 -2.5179 -0.8073
 5466SOL     OW27856   1.068   1.608   6.006  0.3871 -0.5736  0.9471
 5466SOL    HW127857   1.062   1.578   6.097  0.6406  2.1665  1.8729
 5466SOL    HW227858   1.041   1.535   5.950 -2.0331  1.4347 -0.4744
 5467SOL     OW27859   0.029   4.065   5.022 -0.1218  0.0192  0.4220
 5467SOL    HW127860   4.698   3.986   5.004  1.8654 -0.7376 -2.0266
 5467SOL    HW227861   0.095   4.030   5.081  0.3064  1.6398  0.8824
 5468SOL     OW27862   3.067   4.171   7.960  0.1900 -0.0028 -0.1082
 5468SOL    HW127863   3.022   4.103   8.010 -0.8792  1.0806  0.4246
 5468SOL    HW227864   3.049   4.247   8.016  1.0670 -0.3297  0.6184
 5469SOL     OW27865   0.953   2.878   2.378 -0.1595  0.2488  0.3517
 5469SOL    HW127866   1.029   2.850   2.428 -0.5201  0.5017  1.0368
 5469SOL    HW227867   0.951   2.805   2.315 -1.0422  0.3347  0.2768
 5470SOL     OW27868   3.232   0.067   4.081 -0.2485 -0.1935 -0.3619
 5470SOL    HW127869   3.254   0.150   4.123 -0.4738 -0.6066  0.5895
 5470SOL    HW227870   3.267   0.065   3.992 -3.7341  2.2963 -1.8038
 5471SOL     OW27871   4.111   1.181   8.937  0.0923  0.2678  0.1329
 5471SOL    HW127872   4.183   1.122   8.962 -0.3742  0.1838  1.2952
 5471SOL    HW227873   4.054   1.162   9.012 -0.2160  0.8086  0.0367
 5472SOL     OW27874   2.284   1.005   3.088 -0.7781  0.3916  0.3045
 5472SOL    HW127875   2.308   1.074   3.026  1.1021 -0.3273  0.2205
 5472SOL    HW227876   2.199   0.980   3.052 -1.4142  3.4796 -0.2707
 5473SOL     OW27877   2.893   2.071   6.579  0.4043 -0.0591  0.2782
 5473SOL    HW127878   2.830   2.030   6.520  2.7088 -1.0291 -1.5223
 5473SOL    HW227879   2.889   2.165   6.560 -1.0465 -0.8307 -3.2315
 5474SOL     OW27880   0.127   3.888   5.227 -0.4162 -0.6488  0.1562
 5474SOL    HW127881   0.140   3.839   5.146  1.3815 -0.4215  0.2993
 5474SOL    HW227882   0.194   3.862   5.291 -0.5181 -3.0605 -0.7267
 5475SOL     OW27883   3.672   0.104   5.582 -0.1446  0.5505  0.0117
 5475SOL    HW127884   3.701   0.017   5.554  1.3637  1.2170 -0.5254
 5475SOL    HW227885   3.641   0.129   5.495  0.5891 -0.2702 -0.4844
 5476SOL     OW27886   0.422   2.079  12.204  0.0099 -0.0048 -0.0345
 5476SOL    HW127887   0.400   2.172  12.203  1.4408  0.3303 -0.3644
 5476SOL    HW227888   0.445   2.063  12.296  2.0431  2.3071 -0.1249
 5477SOL     OW27889   2.925   2.998   8.398  0.3200  0.7544  0.1275
 5477SOL    HW127890   3.004   3.008   8.451  1.4955 -1.0743 -1.2686
 5477SOL    HW227891   2.866   2.971   8.469  1.3186 -0.1845  0.6052
 5478SOL     OW27892   1.592   2.278  11.422  0.0525  0.4894 -0.1362
 5478SOL    HW127893   1.602   2.193  11.465  0.9405  1.3175  1.3233
 5478SOL    HW227894   1.528   2.322  11.479  0.9817  1.3741  0.2412
 5479SOL     OW27895   1.681   1.317   4.149  0.0680  0.4383 -0.1746
 5479SOL    HW127896   1.764   1.361   4.132 -0.6057  2.0868  0.7763
 5479SOL    HW227897   1.684   1.239   4.093 -0.4063  0.0352  0.3572
 5480SOL     OW27898   0.756   2.487   8.378 -0.1597  0.3261 -0.6713
 5480SOL    HW127899   0.719   2.576   8.378  1.6320  1.0794  0.2048
 5480SOL    HW227900   0.846   2.505   8.406  0.2248  2.0592 -2.9637
 5481SOL     OW27901   2.348   1.423   2.683 -0.2763  0.0899 -0.3966
 5481SOL    HW127902   2.400   1.343   2.694 -2.3607 -1.3001 -0.6031
 5481SOL    HW227903   2.310   1.400   2.598 -0.6287 -2.7220  0.5104
 5482SOL     OW27904   3.644   2.035   2.855 -0.0229 -0.3728  0.7947
 5482SOL    HW127905   3.714   2.020   2.792 -1.6249  3.1168 -1.8797
 5482SOL    HW227906   3.580   2.080   2.800 -1.0738  0.3492  2.5947
 5483SOL     OW27907   3.477   4.610  14.513  0.2298  0.4199  0.0021
 5483SOL    HW127908   3.452   4.684  14.459 -2.4208  1.2372  2.3183
 5483SOL    HW227909   3.571   4.622  14.502  0.6519 -2.0571  0.9493
 5484SOL     OW27910   3.640   1.411   8.001 -1.0086  0.3455  0.0111
 5484SOL    HW127911   3.625   1.341   8.064  0.5002 -0.4031 -0.4764
 5484SOL    HW227912   3.658   1.484   8.060 -0.2772  1.0751 -1.1170
 5485SOL     OW27913   0.352   0.853   6.328  0.2893 -0.2321 -0.1747
 5485SOL    HW127914   0.424   0.874   6.269 -0.2194 -1.2429 -1.1473
 5485SOL    HW227915   0.345   0.931   6.384  0.5794  1.6969 -2.8034
 5486SOL     OW27916   1.920   1.696  13.631 -0.6200 -0.4856  0.3980
 5486SOL    HW127917   2.001   1.742  13.608 -1.4336  0.7317 -0.0195
 5486SOL    HW227918   1.932   1.671  13.723  1.0756  1.1868  0.6174
 5487SOL     OW27919   1.607   2.930   4.225  0.4956  0.1701  0.1020
 5487SOL    HW127920   1.549   2.983   4.169  1.1464  0.7814  0.0010
 5487SOL    HW227921   1.648   3.007   4.265  1.2146  0.2859 -0.8520
 5488SOL     OW27922   0.764   1.128   8.113  0.2624 -0.5933  0.1828
 5488SOL    HW127923   0.813   1.198   8.156 -3.1734  0.7797  1.8637
 5488SOL    HW227924   0.825   1.055   8.123  2.7288  1.1127 -2.5847
 5489SOL     OW27925   3.681   0.353  10.715 -0.1718  0.8006  0.1864
 5489SOL    HW127926   3.644   0.328  10.800  1.1482 -5.1482 -0.9617
 5489SOL    HW227927   3.726   0.272  10.690 -2.0010 -0.6154  1.4337
 5490SOL     OW27928   3.530   2.402  14.579  0.0493 -0.3236 -0.0632
 5490SOL    HW127929   3.478   2.459  14.522 -1.2180 -1.4437 -0.0307
 5490SOL    HW227930   3.576   2.465  14.635 -1.7257 -1.8976  3.1264
 5491SOL     OW27931   2.302   4.629  13.717  0.4521 -0.5215 -0.5537
 5491SOL    HW127932   2.258   4.626  13.802  2.1245 -2.2787  0.2440
 5491SOL    HW227933   2.378   4.682  13.743  0.7532 -1.1089 -0.2330
 5492SOL     OW27934   2.319   1.134   5.142  0.6979  0.2525 -0.4917
 5492SOL    HW127935   2.394   1.160   5.089  1.8677 -1.8280  0.1343
 5492SOL    HW227936   2.353   1.098   5.224  2.5475 -0.1741 -1.4688
 5493SOL     OW27937   0.789   1.655   6.139 -0.5838  0.1323  0.0955
 5493SOL    HW127938   0.858   1.651   6.205  1.5230  0.3489 -2.1226
 5493SOL    HW227939   0.817   1.580   6.086  2.1672  1.2838 -0.0761
 5494SOL     OW27940   0.271   3.909   7.348  0.1228  0.1817  0.9031
 5494SOL    HW127941   0.331   3.868   7.409  1.2711  0.5058 -0.0020
 5494SOL    HW227942   0.334   3.963   7.300 -0.1278 -0.7288 -0.4722
 5495SOL     OW27943   2.755   4.347   6.685 -0.4974 -0.3381  0.1672
 5495SOL    HW127944   2.792   4.416   6.630 -0.1467 -2.0145 -1.7180
 5495SOL    HW227945   2.822   4.278   6.686  0.9750  1.1431  2.6983
 5496SOL     OW27946   4.342   3.763  14.821  0.2830  0.2177 -0.3307
 5496SOL    HW127947   4.349   3.856  14.842  2.1097  0.1236 -0.5632
 5496SOL    HW227948   4.252   3.746  14.850  0.1177  0.2382 -0.8285
 5497SOL     OW27949   1.095   2.167   7.709  0.2263  0.0326 -0.2490
 5497SOL    HW127950   1.157   2.239   7.710  1.0471 -0.6705  0.6998
 5497SOL    HW227951   1.027   2.207   7.764  1.5734  2.3463 -0.2924
 5498SOL     OW27952   3.377   4.318   5.655  0.5166 -0.1836  0.4061
 5498SOL    HW127953   3.340   4.406   5.665  1.1200 -0.1069  2.0082
 5498SOL    HW227954   3.468   4.346   5.647  0.2318  0.9479  1.0959
 5499SOL     OW27955   2.368   0.539  10.757 -0.3647  0.0495 -0.0452
 5499SOL    HW127956   2.306   0.512  10.689 -2.2381  2.1370  0.8434
 5499SOL    HW227957   2.399   0.622  10.720  1.1131 -0.5627 -0.1960
 5500SOL     OW27958   4.361   3.138   3.158 -0.1063  0.2537  0.2652
 5500SOL    HW127959   4.384   3.133   3.251  0.2380 -1.0139  0.1197
 5500SOL    HW227960   4.355   3.233   3.160 -0.0240  0.2221  1.6598
 5501SOL     OW27961   2.770   2.538   8.590 -0.9815  0.0023 -0.2041
 5501SOL    HW127962   2.856   2.556   8.550 -0.5892 -3.7078 -1.0270
 5501SOL    HW227963   2.722   2.618   8.570  0.8866  1.4158  0.8697
 5502SOL     OW27964   4.325   2.716   5.947 -0.2770  0.7367 -0.0073
 5502SOL    HW127965   4.342   2.716   5.852 -1.0949  2.1645 -0.1533
 5502SOL    HW227966   4.412   2.738   5.978 -0.3473 -1.6760  1.9314
 5503SOL     OW27967   3.433   1.599  12.685  0.1778 -0.4193 -0.6409
 5503SOL    HW127968   3.492   1.607  12.760 -1.0870 -0.6191  0.3763
 5503SOL    HW227969   3.359   1.550  12.720  0.5290  1.3178  2.5770
 5504SOL     OW27970   2.581   3.423  14.767 -0.6569 -0.1373 -0.2847
 5504SOL    HW127971   2.494   3.418  14.726 -0.4772  1.8086 -0.9086
 5504SOL    HW227972   2.599   3.517  14.757  0.0644 -0.0140  2.1984
 5505SOL     OW27973   1.855   4.448   6.620 -0.2572  0.0519 -0.1422
 5505SOL    HW127974   1.941   4.406   6.614 -0.4610 -0.2132 -1.3444
 5505SOL    HW227975   1.857   4.518   6.555  3.5692 -0.2463 -0.3553
 5506SOL     OW27976   0.596   4.014   6.496 -0.5141 -0.1755 -0.7036
 5506SOL    HW127977   0.567   4.105   6.495  0.0818 -0.0396 -3.8141
 5506SOL    HW227978   0.568   3.986   6.584 -2.2927 -1.2874 -1.6225
 5507SOL     OW27979   2.277   2.917  12.701 -0.1698 -0.1351  0.7164
 5507SOL    HW127980   2.200   2.973  12.706  0.2708  0.6635 -1.4923
 5507SOL    HW227981   2.345   2.980  12.725  0.0583 -0.8880  2.0701
 5508SOL     OW27982   0.470   3.006   2.968 -0.3081  0.0790  0.5845
 5508SOL    HW127983   0.447   2.975   3.056  2.0632  2.3562  1.9854
 5508SOL    HW227984   0.547   3.054   2.997 -0.2457 -0.5788  1.5053
 5509SOL     OW27985   1.798   0.937   2.244  0.0759 -0.2699  0.1122
 5509SOL    HW127986   1.734   0.999   2.278 -1.1751 -1.6487  0.3107
 5509SOL    HW227987   1.876   0.977   2.282  1.1488 -2.0052 -0.2654
 5510SOL     OW27988   0.537   1.089   8.326 -0.0777  0.1029  0.1308
 5510SOL    HW127989   0.614   1.107   8.272  0.7000  1.2356  1.6050
 5510SOL    HW227990   0.542   0.994   8.317  0.2029 -0.0841  2.0984
 5511SOL     OW27991   0.326   4.494   1.845  0.2781 -0.0089  0.2761
 5511SOL    HW127992   0.372   4.519   1.925  0.1512  0.5379  0.1809
 5511SOL    HW227993   0.246   4.458   1.883  0.9180 -2.3148 -0.5873
 5512SOL     OW27994   0.200   0.255   7.447 -0.0363 -0.1199 -0.2130
 5512SOL    HW127995   0.127   0.242   7.387  2.1492 -0.6610 -2.7288
 5512SOL    HW227996   0.195   0.344   7.482 -1.0025 -0.2443 -0.0289
 5513SOL     OW27997   2.467   4.355  15.020 -0.4474 -0.2679  0.2762
 5513SOL    HW127998   2.422   4.392  15.096  0.5683  0.7287  0.3979
 5513SOL    HW227999   2.402   4.290  14.993  0.0023 -0.0962 -1.1947
 5514SOL     OW28000   0.419   1.897   9.561  0.0747  0.1534  0.1035
 5514SOL    HW128001   0.462   1.871   9.642  0.4716 -2.8478 -1.0930
 5514SOL    HW228002   0.448   1.988   9.553  2.0999 -0.1796  3.8891
 5515SOL     OW28003   4.568   4.037  11.154  0.4908  0.1801 -0.0703
 5515SOL    HW128004   4.550   4.051  11.061 -1.5697 -0.0825  0.2945
 5515SOL    HW228005   4.663   4.028  11.148  0.4515  0.3950 -0.9976
 5516SOL     OW28006   0.813   4.181   1.305  0.0021 -0.0387  0.1874
 5516SOL    HW128007   0.820   4.265   1.351  0.8812  0.3072 -0.5766
 5516SOL    HW228008   0.719   4.182   1.288 -0.1991 -1.3253  1.2271
 5517SOL     OW28009   1.323   0.632   9.741 -0.0117 -0.1090 -0.1773
 5517SOL    HW128010   1.355   0.677   9.819 -0.0947  0.3260 -0.3926
 5517SOL    HW228011   1.408   0.598   9.714  0.8513  1.6381  0.3441
 5518SOL     OW28012   4.252   4.552  12.173 -0.5506  0.6768  0.2598
 5518SOL    HW128013   4.168   4.541  12.217 -0.9698  2.2788 -0.1309
 5518SOL    HW228014   4.219   4.624  12.119 -0.2334  1.3298  0.9330
 5519SOL     OW28015   3.651   3.380   3.922 -0.0219  0.3807 -0.5622
 5519SOL    HW128016   3.705   3.459   3.911 -0.3604  0.3679 -2.3512
 5519SOL    HW228017   3.576   3.421   3.880 -0.0867 -1.0235 -1.8005
 5520SOL     OW28018   1.420   1.443   8.811 -0.9091  0.2751 -0.1803
 5520SOL    HW128019   1.414   1.385   8.887  2.6140 -0.6881 -0.6382
 5520SOL    HW228020   1.345   1.403   8.767 -1.4980  0.9778  0.1882
 5521SOL     OW28021   0.632   3.906   8.428  0.0646  0.1224 -0.0040
 5521SOL    HW128022   0.579   3.972   8.473  0.2588  0.1334  0.2115
 5521SOL    HW228023   0.720   3.938   8.450  0.9127 -0.7884 -2.0268
 5522SOL     OW28024   1.300   4.020   7.712  0.6493 -0.0764  1.3418
 5522SOL    HW128025   1.296   4.003   7.617 -0.9743 -0.9231  1.5664
 5522SOL    HW228026   1.319   3.934   7.751 -0.3311 -1.5273 -1.3495
 5523SOL     OW28027   1.777   4.188  14.167 -0.4263 -0.6034 -0.2250
 5523SOL    HW128028   1.840   4.241  14.118  0.3870 -0.3532  1.0712
 5523SOL    HW228029   1.705   4.178  14.105  0.0913 -0.2200 -0.8754
 5524SOL     OW28030   1.291   2.692  16.245 -0.5247  0.8833 -0.3155
 5524SOL    HW128031   1.346   2.624  16.283 -0.1836  1.9683  1.1186
 5524SOL    HW228032   1.206   2.653  16.268 -0.2560  1.8657  2.2789
 5525SOL     OW28033   3.347   0.923   5.074  0.1851  0.3742 -0.1787
 5525SOL    HW128034   3.326   0.851   5.132 -0.3341 -1.0618 -2.1358
 5525SOL    HW228035   3.437   0.949   5.095  0.8356 -2.3094  0.3408
 5526SOL     OW28036   1.649   3.248  15.004 -0.0239  0.2131 -0.2765
 5526SOL    HW128037   1.599   3.325  14.978 -1.3320 -0.6916 -0.4547
 5526SOL    HW228038   1.660   3.272  15.096 -0.2565  1.6377 -0.6233
 5527SOL     OW28039   0.632   3.612   3.166 -0.0803  0.1598 -0.4177
 5527SOL    HW128040   0.683   3.587   3.089  0.5060  2.1009 -0.6690
 5527SOL    HW228041   0.547   3.595   3.124  1.1076 -1.5674 -2.1213
 5528SOL     OW28042   3.263   0.063   4.703 -0.3697 -0.1124  0.0505
 5528SOL    HW128043   3.249   0.126   4.631  1.1662 -1.2150 -1.2171
 5528SOL    HW228044   3.295   4.714   4.646  0.2652 -0.8353  1.3140
 5529SOL     OW28045   3.810   4.428   1.978 -0.1222 -0.3691 -0.4184
 5529SOL    HW128046   3.808   4.338   1.947  3.3194 -1.1840  1.7641
 5529SOL    HW228047   3.741   4.460   1.920 -1.8945 -1.0322  1.3058
 5530SOL     OW28048   1.782   4.581   8.754  0.1244  0.7397 -0.2589
 5530SOL    HW128049   1.839   4.513   8.790  0.3339 -0.2830 -2.5672
 5530SOL    HW228050   1.851   4.647   8.742  0.5154 -0.1167 -2.6008
 5531SOL     OW28051   1.950   3.631   5.570 -0.2909 -0.1247 -0.1908
 5531SOL    HW128052   2.019   3.649   5.634 -0.5909 -2.3646  0.7544
 5531SOL    HW228053   1.896   3.708   5.585 -1.0153 -0.3585 -1.6020
 5532SOL     OW28054   2.241   2.680   8.388 -0.0668  0.2890 -0.3388
 5532SOL    HW128055   2.229   2.635   8.472 -1.4451 -1.8582 -1.6820
 5532SOL    HW228056   2.154   2.681   8.348 -0.3483 -1.1929  0.2265
 5533SOL     OW28057   2.462   3.490  17.061 -0.2600  0.3133 -0.2463
 5533SOL    HW128058   2.381   3.528  17.027 -0.5941 -0.4832 -0.3479
 5533SOL    HW228059   2.508   3.467  16.980 -2.7919 -1.0200 -1.3092
 5534SOL     OW28060   1.841   3.537  15.345 -0.0853  0.1768  0.1409
 5534SOL    HW128061   1.820   3.479  15.272  0.3809 -1.5712  1.3932
 5534SOL    HW228062   1.790   3.616  15.327  2.7261  1.1895 -3.3929
 5535SOL     OW28063   2.438   3.591  15.040 -0.3597 -0.0776  0.0508
 5535SOL    HW128064   2.351   3.562  15.068 -1.2959 -0.0989 -2.8785
 5535SOL    HW228065   2.455   3.532  14.967  1.8649  2.3254 -1.3469
 5536SOL     OW28066   2.139   0.154  11.893 -0.3874  0.1228 -0.2881
 5536SOL    HW128067   2.193   0.225  11.926 -0.1768  0.4489 -1.3436
 5536SOL    HW228068   2.150   0.163  11.798  1.2751 -0.2426 -0.1296
 5537SOL     OW28069   0.178   2.800   6.965 -0.2834  0.5578  0.0010
 5537SOL    HW128070   0.143   2.711   6.959  1.2524 -0.0846  0.5916
 5537SOL    HW228071   0.206   2.822   6.876 -1.7523 -0.1829 -0.6555
 5538SOL     OW28072   2.841   2.782   4.390  0.8068  0.1902 -0.3392
 5538SOL    HW128073   2.903   2.854   4.382  2.0957 -0.9809 -0.7813
 5538SOL    HW228074   2.876   2.747   4.471  1.7242  1.0486 -0.3622
 5539SOL     OW28075   0.900   0.311   5.561 -0.0354 -0.4871  0.1055
 5539SOL    HW128076   0.960   0.340   5.629 -0.5922  0.8112  0.0280
 5539SOL    HW228077   0.823   0.319   5.617 -0.2986  2.2023 -0.6500
 5540SOL     OW28078   4.497   2.525   8.448 -0.4271 -0.2383 -0.3730
 5540SOL    HW128079   4.452   2.528   8.364 -0.7425  2.3037 -0.1142
 5540SOL    HW228080   4.580   2.483   8.425  0.6163  2.3303 -1.3376
 5541SOL     OW28081   2.777   1.426   4.555 -0.3641 -0.2320  0.0097
 5541SOL    HW128082   2.746   1.337   4.535  0.5722 -0.7778  0.9376
 5541SOL    HW228083   2.722   1.466   4.488 -1.1656 -1.1841  0.0904
 5542SOL     OW28084   3.421   2.088   5.863  0.4283 -0.6310  0.1475
 5542SOL    HW128085   3.341   2.136   5.842  0.5693  0.0342  1.1198
 5542SOL    HW228086   3.485   2.136   5.810 -1.0069  0.9878 -0.1083
 5543SOL     OW28087   4.254   4.086   8.311 -0.3321  0.1153  0.4339
 5543SOL    HW128088   4.317   4.052   8.374  0.8704  0.5301 -0.5460
 5543SOL    HW228089   4.236   4.174   8.344  0.6716  1.1441 -1.7165
 5544SOL     OW28090   3.571   4.156   7.905  0.3832 -0.5660 -0.3301
 5544SOL    HW128091   3.632   4.229   7.913 -0.6385  0.3291 -0.6916
 5544SOL    HW228092   3.618   4.105   7.838 -1.6847  0.0082 -2.2253
 5545SOL     OW28093   0.212   0.635  15.783 -0.5894  0.3100 -0.1595
 5545SOL    HW128094   0.254   0.561  15.739  1.1208  0.1964  1.6893
 5545SOL    HW228095   0.252   0.623  15.868  0.4620 -2.3566 -1.0184
 5546SOL     OW28096   1.545   3.602   5.152  0.1183  0.5056 -0.0074
 5546SOL    HW128097   1.615   3.644   5.203  0.4130 -0.2494  0.2090
 5546SOL    HW228098   1.574   3.625   5.063 -0.6210  0.8201 -0.1649
 5547SOL     OW28099   4.713   2.680   2.450  0.4157 -1.0898  0.2661
 5547SOL    HW128100   4.619   2.681   2.467  1.0375 -0.0310  3.5181
 5547SOL    HW228101   0.023   2.591   2.465 -0.2825 -1.3693  0.0772
 5548SOL     OW28102   1.429   2.848   0.525 -0.1047  0.0429  0.0893
 5548SOL    HW128103   1.497   2.805   0.578 -0.1339 -1.9458 -1.4991
 5548SOL    HW228104   1.350   2.842   0.578 -1.2601  0.4670 -1.5889
 5549SOL     OW28105   1.170   0.642  17.253  0.2960 -0.2738 -0.4078
 5549SOL    HW128106   1.206   0.597  17.177  0.5092  0.0638 -0.5082
 5549SOL    HW228107   1.241   0.636  17.317 -1.6935 -3.1505  1.5190
 5550SOL     OW28108   1.569   0.669   0.893  0.0494 -0.3856 -0.1269
 5550SOL    HW128109   1.618   0.620   0.826  2.7045  2.8934 -0.5610
 5550SOL    HW228110   1.595   0.617   0.969 -2.3431 -2.2558 -0.5791
 5551SOL     OW28111   2.005   1.715   1.691 -0.0002  0.3976 -0.3737
 5551SOL    HW128112   2.010   1.680   1.780 -0.7459 -0.4184 -0.6473
 5551SOL    HW228113   2.098   1.733   1.681  0.2504 -0.5689  0.2200
 5552SOL     OW28114   4.540   4.508   9.341 -0.0965  0.1148 -0.1291
 5552SOL    HW128115   4.566   4.510   9.249  1.0129 -0.3386  0.1685
 5552SOL    HW228116   4.627   4.492   9.379  1.3242  0.9097 -3.0330
 5553SOL     OW28117   0.357   3.325  12.857  0.7051  0.7634  0.1225
 5553SOL    HW128118   0.319   3.337  12.944 -1.1078  0.1118 -0.5611
 5553SOL    HW228119   0.415   3.250  12.865 -0.7535 -0.4902 -0.9683
 5554SOL     OW28120   1.721   4.626   1.082  0.1856  0.4861 -0.4056
 5554SOL    HW128121   1.662   4.600   1.153  1.0688 -2.5477 -0.8136
 5554SOL    HW228122   1.803   4.635   1.129 -0.2934 -2.0815  0.8759
 5555SOL     OW28123   4.590   0.076   9.223  0.5163 -0.4160 -0.4997
 5555SOL    HW128124   4.557   4.712   9.252 -3.7498  0.4529 -2.6966
 5555SOL    HW228125   4.674   0.087   9.266 -0.9569 -0.8352  2.4946
 5556SOL     OW28126   4.642   4.326  11.899  0.0983  0.4277 -0.3608
 5556SOL    HW128127   4.568   4.352  11.954 -0.8125 -0.5703 -1.1120
 5556SOL    HW228128   4.674   4.242  11.932  0.4757  1.2373  1.3354
 5557SOL     OW28129   4.467   4.133   5.720  0.1755  0.0511  0.8601
 5557SOL    HW128130   4.425   4.074   5.782 -1.0361 -1.8474 -1.7692
 5557SOL    HW228131   4.538   4.169   5.773  1.9485 -0.3766 -1.1816
 5558SOL     OW28132   2.227   0.058  10.936 -0.7255 -0.1751 -0.1240
 5558SOL    HW128133   2.153   0.119  10.933 -2.0043 -1.8252 -1.4699
 5558SOL    HW228134   2.268   0.092  10.857  1.4156 -1.7919  0.2914
 5559SOL     OW28135   0.094   3.920   1.255 -0.0176 -0.0780  0.3095
 5559SOL    HW128136   0.031   3.981   1.293  1.4648  0.7052  1.4857
 5559SOL    HW228137   0.040   3.841   1.253 -2.2414  1.4424  0.9513
 5560SOL     OW28138   3.203   2.384   1.511 -0.3418  0.5939  0.1711
 5560SOL    HW128139   3.181   2.307   1.458  1.8473  0.0087  0.1034
 5560SOL    HW228140   3.152   2.370   1.591 -0.6566 -1.5045 -0.3898
 5561SOL     OW28141   1.664   1.750   7.491  0.1393  0.2704 -0.1096
 5561SOL    HW128142   1.598   1.721   7.554  0.8505  1.9059  1.3800
 5561SOL    HW228143   1.611   1.803   7.432  1.9117  0.7679 -1.2578
 5562SOL     OW28144   2.351   4.073   3.557 -0.0840  0.5495 -0.0958
 5562SOL    HW128145   2.364   4.168   3.554  1.8412  0.1897 -3.5624
 5562SOL    HW228146   2.264   4.066   3.517 -0.4307 -0.0687  0.7638
 5563SOL     OW28147   1.183   2.596   2.151 -0.1989 -0.1984  0.2486
 5563SOL    HW128148   1.231   2.526   2.107 -0.0634  1.7779 -2.7337
 5563SOL    HW228149   1.250   2.661   2.173  0.7377 -1.5002  1.2264
 5564SOL     OW28150   2.221   2.008   4.921  0.5974 -0.2390  0.2628
 5564SOL    HW128151   2.142   1.956   4.932  1.0875 -1.6589 -3.0488
 5564SOL    HW228152   2.278   1.988   4.995  2.5022  0.2621 -1.0752
 5565SOL     OW28153   2.026   3.703   5.320 -0.3254  0.1350 -0.5075
 5565SOL    HW128154   2.117   3.732   5.322  0.2508 -1.7086 -0.2571
 5565SOL    HW228155   2.020   3.652   5.401 -0.3254 -0.7302 -1.0593
 5566SOL     OW28156   1.617   0.261   2.139  0.0220  0.1771  0.0828
 5566SOL    HW128157   1.650   0.267   2.229 -3.9806  0.2280  1.5113
 5566SOL    HW228158   1.600   0.353   2.122  1.8808  0.6177  0.5458
 5567SOL     OW28159   1.676   1.600  10.116 -0.0357  0.0985  0.1255
 5567SOL    HW128160   1.717   1.520  10.145  0.0582  0.0843 -0.0456
 5567SOL    HW228161   1.626   1.564  10.042  0.9431 -1.1111  0.0728
 5568SOL     OW28162   3.010   0.266   9.932 -0.0756  0.4492 -0.4365
 5568SOL    HW128163   2.966   0.325   9.871 -2.1182  0.4872  1.0743
 5568SOL    HW228164   2.964   0.183   9.916  0.4739  0.4659 -2.1292
 5569SOL     OW28165   1.051   4.174   1.956  0.3031  0.4296  0.2979
 5569SOL    HW128166   1.113   4.179   1.883  0.1075 -1.4414  0.0086
 5569SOL    HW228167   0.964   4.166   1.917  0.1505  0.6569  0.5874
 5570SOL     OW28168   0.318   0.256   8.862  0.3237  0.8317  0.2584
 5570SOL    HW128169   0.241   0.200   8.870  1.3945 -0.5006  1.1748
 5570SOL    HW228170   0.373   0.210   8.925 -1.7386 -1.0192  0.7260
 5571SOL     OW28171   1.883   3.029   2.484 -0.2775 -0.4993  0.3391
 5571SOL    HW128172   1.944   3.081   2.537  2.7262 -2.4396 -1.1888
 5571SOL    HW228173   1.913   2.941   2.508  0.9935 -0.5267 -1.3344
 5572SOL     OW28174   2.180   3.898   5.533  0.1444 -0.0089  0.0957
 5572SOL    HW128175   2.097   3.910   5.486  1.5721  0.6817 -2.1948
 5572SOL    HW228176   2.236   3.876   5.459  0.1906  2.3849 -0.5586
 5573SOL     OW28177   1.833   4.012  15.829 -0.2349  0.1263 -0.0850
 5573SOL    HW128178   1.893   4.086  15.824  0.4845 -0.4971 -0.8174
 5573SOL    HW228179   1.747   4.052  15.820 -0.5282 -0.1623  1.4030
 5574SOL     OW28180   3.425   3.341  17.648 -0.6535 -0.6040  0.0366
 5574SOL    HW128181   3.370   3.385   0.027 -1.0914 -0.9190 -0.1179
 5574SOL    HW228182   3.511   3.381  17.659 -0.2632 -1.3383 -0.3864
 5575SOL     OW28183   1.639   0.535   4.670 -0.3217  0.0253 -0.3202
 5575SOL    HW128184   1.716   0.584   4.699 -0.0702 -1.0768  0.8478
 5575SOL    HW228185   1.600   0.499   4.749 -0.6929  1.6559  0.2335
 5576SOL     OW28186   3.290   4.411   3.642 -0.0854 -0.2184 -0.0918
 5576SOL    HW128187   3.321   4.498   3.620  0.4551 -0.6194 -0.9256
 5576SOL    HW228188   3.222   4.428   3.708  1.6494  1.1870  1.3291
 5577SOL     OW28189   2.295   1.153  16.200  0.0548  0.4155  0.7107
 5577SOL    HW128190   2.302   1.248  16.203  1.4883  0.3941 -2.1455
 5577SOL    HW228191   2.359   1.132  16.269  0.1687  0.5097  0.6343
 5578SOL     OW28192   1.817   1.204   4.843  0.5119  0.2563  0.1649
 5578SOL    HW128193   1.875   1.234   4.773  1.7215  1.1389  1.5435
 5578SOL    HW228194   1.879   1.150   4.893  0.0691 -1.3592 -1.0642
 5579SOL     OW28195   1.183   2.836   0.080 -0.0620  0.5535  0.3890
 5579SOL    HW128196   1.118   2.829   0.150 -2.6537  1.8091 -1.9227
 5579SOL    HW228197   1.247   2.896   0.118  0.2242  0.4631  0.0560
 5580SOL     OW28198   0.398   4.309   9.921  0.1758 -0.2554 -0.0843
 5580SOL    HW128199   0.434   4.377   9.979  0.4723 -1.1376  0.7609
 5580SOL    HW228200   0.474   4.292   9.866  1.3370 -0.0095  1.4229
 5581SOL     OW28201   2.626   3.758   6.056  0.1396  0.2215 -0.4449
 5581SOL    HW128202   2.659   3.668   6.057  0.1268  0.2153 -0.5928
 5581SOL    HW228203   2.649   3.792   5.969  1.9877  1.0998  0.3929
 5582SOL     OW28204   4.626   1.791   4.306 -0.4840 -0.3523  0.5947
 5582SOL    HW128205   4.641   1.787   4.212  0.6767  1.9810  0.6633
 5582SOL    HW228206   4.592   1.703   4.317 -0.4088 -0.2671  1.5546
 5583SOL     OW28207   3.207   1.284  17.030 -0.0163 -0.1774  0.1730
 5583SOL    HW128208   3.170   1.310  17.114  1.1211  5.4115 -1.0399
 5583SOL    HW228209   3.220   1.189  17.038  0.4023 -0.3949 -2.9245
 5584SOL     OW28210   3.458   3.006   0.791 -0.4734 -0.4697 -0.3402
 5584SOL    HW128211   3.533   3.063   0.773 -0.0733 -0.7159  0.5497
 5584SOL    HW228212   3.380   3.061   0.786 -1.3313 -1.8704 -2.3579
 5585SOL     OW28213   2.596   1.289  11.177  0.0285 -0.0366  0.3150
 5585SOL    HW128214   2.582   1.194  11.175  0.3966 -0.1019  0.7014
 5585SOL    HW228215   2.634   1.297  11.265 -0.1806  2.6438  0.1689
 5586SOL     OW28216   3.519   1.291   5.868 -0.2104 -0.0985  0.0273
 5586SOL    HW128217   3.428   1.282   5.896  0.0149 -0.0840  0.7637
 5586SOL    HW228218   3.526   1.273   5.774 -2.0761  3.0410 -0.7208
 5587SOL     OW28219   0.615   1.028   3.944  0.0912  0.2859 -0.0239
 5587SOL    HW128220   0.599   1.062   4.032  1.4089  1.6415 -0.3087
 5587SOL    HW228221   0.618   0.936   3.972 -0.8707  0.3751  0.3841
 5588SOL     OW28222   2.031   0.141   6.392 -0.3601 -0.7575 -0.5475
 5588SOL    HW128223   1.997   0.225   6.362  1.4391  0.0114 -0.4307
 5588SOL    HW228224   2.116   0.156   6.352  0.0996 -2.4468 -0.2118
 5589SOL     OW28225   2.506   0.830   9.808  0.2774  0.7372  0.1242
 5589SOL    HW128226   2.553   0.842   9.725 -0.1701 -0.0172 -0.2362
 5589SOL    HW228227   2.568   0.868   9.870  0.9244  0.3396 -0.2770
 5590SOL     OW28228   0.886   2.604   7.980  0.1439  0.4193 -0.5916
 5590SOL    HW128229   0.888   2.598   7.885 -2.3251  1.9976 -0.7154
 5590SOL    HW228230   0.972   2.564   7.995 -0.8756 -1.0977  1.2876
 5591SOL     OW28231   4.128   4.212   4.329 -0.3418 -0.3544  0.2264
 5591SOL    HW128232   4.128   4.188   4.422 -2.3481 -1.6827 -0.1341
 5591SOL    HW228233   4.191   4.147   4.298  0.9004 -0.4008  2.8309
 5592SOL     OW28234   4.516   4.479  16.210 -0.1457 -0.0623  0.0106
 5592SOL    HW128235   4.462   4.406  16.180  0.1037 -0.9708  1.7409
 5592SOL    HW228236   4.465   4.557  16.189 -1.5228 -1.1318 -0.6331
 5593SOL     OW28237   4.141   3.648  13.333 -0.1141  0.2959 -0.6096
 5593SOL    HW128238   4.214   3.586  13.343 -2.4192 -2.4570 -0.6703
 5593SOL    HW228239   4.155   3.680  13.244  0.9439  1.2315 -0.1052
 5594SOL     OW28240   4.520   3.322   9.245  0.0254  0.1696  0.0836
 5594SOL    HW128241   4.577   3.269   9.300 -0.0999 -0.3227 -0.2577
 5594SOL    HW228242   4.495   3.397   9.300  0.7772  0.8728 -0.5363
 5595SOL     OW28243   2.039   0.311  16.427  0.4109 -0.4475  0.0245
 5595SOL    HW128244   1.992   0.241  16.380 -0.3201  0.9500 -1.3278
 5595SOL    HW228245   2.049   0.273  16.514 -1.3634  1.5350  1.0972
 5596SOL     OW28246   4.034   1.096   1.477  0.3590  0.2954 -0.1130
 5596SOL    HW128247   3.952   1.058   1.447  2.0533 -1.2937 -2.7123
 5596SOL    HW228248   4.054   1.043   1.555 -0.8096 -2.0024 -1.3899
 5597SOL     OW28249   2.865   0.158   6.092  0.2462 -0.0078  0.0019
 5597SOL    HW128250   2.896   0.249   6.083 -0.7111  0.2970 -0.2177
 5597SOL    HW228251   2.913   0.122   6.166  1.5076  1.0470 -0.2939
 5598SOL     OW28252   2.216   0.677   3.961 -0.0671 -0.1052 -0.1511
 5598SOL    HW128253   2.252   0.763   3.986 -2.1031  0.0202  2.3546
 5598SOL    HW228254   2.140   0.705   3.910 -0.2596 -1.4797 -0.6050
 5599SOL     OW28255   0.505   0.268   6.964  0.3417 -0.4210  0.0257
 5599SOL    HW128256   0.430   0.226   7.006  0.6753 -2.8758 -1.7995
 5599SOL    HW228257   0.578   0.245   7.022  0.7735 -0.0170 -0.3557
 5600SOL     OW28258   1.713   3.773   0.541 -0.2298  0.1107 -0.0894
 5600SOL    HW128259   1.680   3.807   0.458 -2.0822 -0.8660  0.2345
 5600SOL    HW228260   1.718   3.857   0.586 -1.4010  1.2593 -2.1261
 5601SOL     OW28261   3.800   4.248   8.076  0.0895  0.0125  0.1535
 5601SOL    HW128262   3.738   4.247   8.149  1.1524  0.4297  1.0571
 5601SOL    HW228263   3.848   4.166   8.089  0.3452  0.0018 -0.8333
 5602SOL     OW28264   3.585   4.406  16.629 -0.0915  0.4424 -0.2914
 5602SOL    HW128265   3.558   4.329  16.680  0.3364  1.0609  0.8564
 5602SOL    HW228266   3.501   4.452  16.624  0.0253  0.6279 -0.6112
 5603SOL     OW28267   3.002   3.534   0.689  0.2573  0.1264  0.2959
 5603SOL    HW128268   2.964   3.606   0.640 -0.4725 -0.1932  0.3809
 5603SOL    HW228269   2.933   3.528   0.755  0.5965  0.3810  0.6704
 5604SOL     OW28270   4.612   4.399   7.053  0.2793  0.8311  0.3419
 5604SOL    HW128271   4.664   4.375   7.129 -2.4024 -3.9127  0.6244
 5604SOL    HW228272   4.650   4.486   7.039  0.7898  0.1920 -2.3195
 5605SOL     OW28273   3.137   2.325   0.075 -0.0970  0.2315  0.0363
 5605SOL    HW128274   3.124   2.375   0.156  0.1390  2.4688 -1.3113
 5605SOL    HW228275   3.109   2.237   0.101 -1.9047  1.2255  1.4426
 5606SOL     OW28276   4.133   4.262   5.528  0.2583 -0.5071 -0.3350
 5606SOL    HW128277   4.093   4.233   5.610 -3.4390  1.6829 -1.3392
 5606SOL    HW228278   4.106   4.184   5.479  0.7459 -0.9844  0.1659
 5607SOL     OW28279   0.438   4.156   6.116  0.2653 -0.1694 -0.3654
 5607SOL    HW128280   0.388   4.203   6.050  1.2935  3.2026  1.2454
 5607SOL    HW228281   0.374   4.148   6.187  1.3498 -2.6389  0.3505
 5608SOL     OW28282   1.728   2.880   5.966 -0.2484  0.3008  0.2253
 5608SOL    HW128283   1.673   2.803   5.983  0.8581 -0.6159 -0.3047
 5608SOL    HW228284   1.818   2.858   5.990 -0.5878 -0.3633  0.9067
 5609SOL     OW28285   2.050   4.220   7.860 -0.2616  0.1338 -0.2377
 5609SOL    HW128286   1.964   4.239   7.821  0.1315  3.0953  0.3590
 5609SOL    HW228287   2.103   4.218   7.780 -0.7733  2.7782 -0.6309
 5610SOL     OW28288   3.252   2.881   3.124  0.0287  0.3730 -0.2984
 5610SOL    HW128289   3.184   2.839   3.177 -2.6441  1.0506 -3.1677
 5610SOL    HW228290   3.266   2.816   3.055 -1.2654  0.4686 -0.6489
 5611SOL     OW28291   1.403   4.292  14.601  0.4175  0.3482  0.2718
 5611SOL    HW128292   1.432   4.209  14.562 -0.4058 -0.3404  1.1326
 5611SOL    HW228293   1.366   4.321  14.518  2.3740  0.2261 -0.6577
 5612SOL     OW28294   2.912   2.413   6.921 -0.1158 -0.0149  0.1945
 5612SOL    HW128295   2.999   2.389   6.954 -0.0625  2.1181  1.5887
 5612SOL    HW228296   2.927   2.505   6.900  1.3053 -0.4263 -0.6499
 5613SOL     OW28297   2.181   0.632  14.867 -0.3764  0.2205  0.6367
 5613SOL    HW128298   2.138   0.642  14.781  1.7098 -2.6625 -0.7224
 5613SOL    HW228299   2.109   0.656  14.925 -0.7038  1.8281 -0.4204
 5614SOL     OW28300   3.884   3.778   9.516  0.3326 -0.1940 -0.0009
 5614SOL    HW128301   3.971   3.763   9.552  0.2017 -0.2108  0.3128
 5614SOL    HW228302   3.910   3.826   9.438 -0.6053  3.1367  1.7005
 5615SOL     OW28303   1.012   3.762   7.563 -0.4403  0.6864  0.3406
 5615SOL    HW128304   1.013   3.852   7.533  0.4859  0.7430  0.5466
 5615SOL    HW228305   0.931   3.722   7.531  0.6359  1.3010 -3.0467
 5616SOL     OW28306   0.506   0.548   6.960 -0.0085 -0.5173 -0.4338
 5616SOL    HW128307   0.589   0.545   6.912 -0.3065 -0.3373 -0.9644
 5616SOL    HW228308   0.505   0.456   6.986  1.9554 -0.6492 -0.8336
 5617SOL     OW28309   1.338   1.072   4.000  0.3986  0.0454  0.0717
 5617SOL    HW128310   1.309   1.156   3.965  1.6078 -0.1422 -1.4081
 5617SOL    HW228311   1.368   1.093   4.088 -1.8508  0.1363  0.8007
 5618SOL     OW28312   0.888   0.468   2.952 -0.4106  0.3812  0.1331
 5618SOL    HW128313   0.921   0.555   2.928  2.2553 -1.2649 -2.1948
 5618SOL    HW228314   0.795   0.488   2.956 -0.2116  1.3881 -0.1143
 5619SOL     OW28315   3.003   1.941   9.307 -0.0637  0.3703  0.0112
 5619SOL    HW128316   3.023   1.997   9.381 -1.0889 -0.9283  1.2730
 5619SOL    HW228317   3.091   1.909   9.286 -0.3060 -0.5265  0.3304
 5620SOL     OW28318   2.460   4.274  14.096 -0.2822 -0.3221  0.4213
 5620SOL    HW128319   2.452   4.181  14.114  2.4713 -0.3527  1.4774
 5620SOL    HW228320   2.404   4.271  14.019 -2.7107 -0.1761  2.2050
 5621SOL     OW28321   3.198   1.109  10.135 -0.5393 -0.0852  0.5922
 5621SOL    HW128322   3.248   1.156  10.069 -0.6592  0.1913  0.7006
 5621SOL    HW228323   3.162   1.178  10.191  1.1623  1.8393 -0.6856
 5622SOL     OW28324   3.830   1.814  12.354 -0.3166  0.9454 -0.5459
 5622SOL    HW128325   3.767   1.842  12.420  0.6156 -0.1720  0.8344
 5622SOL    HW228326   3.824   1.719  12.366  0.6768  1.0495  0.8278
 5623SOL     OW28327   4.522   0.360   8.059  0.0344  0.0007  0.0794
 5623SOL    HW128328   4.492   0.278   8.021  1.8220 -1.1187  1.0421
 5623SOL    HW228329   4.611   0.365   8.024  1.5237  1.5485  4.0616
 5624SOL     OW28330   4.281   0.246  11.183 -0.6187 -0.2841 -0.2430
 5624SOL    HW128331   4.259   0.211  11.269  0.5943 -0.4272  0.0086
 5624SOL    HW228332   4.193   0.271  11.157  0.3566  3.0711 -0.3377
 5625SOL     OW28333   0.878   4.563   3.101  0.6482  0.0488 -0.0193
 5625SOL    HW128334   0.882   4.508   3.023  2.3546  1.0645 -0.6408
 5625SOL    HW228335   0.808   4.621   3.071 -0.4721 -0.4003  1.7088
 5626SOL     OW28336   3.263   4.162  12.909  0.4419  0.1067  0.3905
 5626SOL    HW128337   3.287   4.074  12.938  0.1979  0.5586  1.9082
 5626SOL    HW228338   3.192   4.150  12.845  1.5326 -1.3284 -0.5738
 5627SOL     OW28339   2.552   3.645   6.700 -0.2422 -0.5808 -0.2842
 5627SOL    HW128340   2.497   3.724   6.703 -0.2402 -0.6615  1.6842
 5627SOL    HW228341   2.499   3.591   6.759  1.5509 -1.3964  0.5715
 5628SOL     OW28342   0.020   2.248   2.862 -0.2676  0.1358  0.0999
 5628SOL    HW128343   4.692   2.221   2.785  0.2404  0.6509 -0.4061
 5628SOL    HW228344   0.012   2.168   2.913 -0.1759  0.0826  0.0296
 5629SOL     OW28345   1.546   4.668   2.756 -0.2665  0.3075 -0.5847
 5629SOL    HW128346   1.592   0.029   2.771  1.8652 -0.8333 -0.9551
 5629SOL    HW228347   1.618   4.607   2.738  0.7266  1.1687  0.4994
 5630SOL     OW28348   3.874   3.466   4.815 -0.0143 -0.3426  0.1884
 5630SOL    HW128349   3.814   3.393   4.831  0.3571 -0.5801  0.5324
 5630SOL    HW228350   3.842   3.521   4.887  3.0076 -0.1340  1.3870
 5631SOL     OW28351   3.882   4.290   3.058 -0.0061  0.3255  0.4003
 5631SOL    HW128352   3.892   4.372   3.105 -2.0852  0.2497  0.9814
 5631SOL    HW228353   3.792   4.277   3.087 -0.1424 -0.6046 -0.4355
 5632SOL     OW28354   0.746   3.638  17.599 -0.3745 -0.4619 -0.2121
 5632SOL    HW128355   0.811   3.634  17.670 -1.7496 -2.1761  0.9429
 5632SOL    HW228356   0.734   3.544  17.585 -2.9449 -0.3006  0.9803
 5633SOL     OW28357   3.674   1.824   3.491 -0.1923  0.7867 -0.1139
 5633SOL    HW128358   3.614   1.898   3.492  0.0567  0.9518  2.1647
 5633SOL    HW228359   3.652   1.771   3.414 -2.7517  1.4784  0.1628
 5634SOL     OW28360   2.737   3.268  13.116 -0.2704 -0.0540  0.1426
 5634SOL    HW128361   2.806   3.333  13.131  0.5839 -0.5638 -1.6183
 5634SOL    HW228362   2.784   3.191  13.147 -0.3729 -0.6978 -1.3277
 5635SOL     OW28363   4.549   3.968   5.520 -0.2877  0.3184 -0.5242
 5635SOL    HW128364   4.573   3.883   5.556 -1.1269  0.1659 -0.3189
 5635SOL    HW228365   4.516   4.021   5.594 -2.4111 -1.8361  0.0778
 5636SOL     OW28366   1.949   4.366   5.576 -0.2882 -0.4744  0.3727
 5636SOL    HW128367   1.942   4.271   5.587 -2.2131 -0.3009  0.7408
 5636SOL    HW228368   1.883   4.387   5.510  0.7622  2.5636  0.2784
 5637SOL     OW28369   1.259   3.371   8.702 -0.0438 -0.1800  0.2679
 5637SOL    HW128370   1.184   3.347   8.757 -0.1834  0.5854  0.4031
 5637SOL    HW228371   1.335   3.372   8.760 -0.0467 -0.3139  0.2736
 5638SOL     OW28372   0.803   2.377   5.737  0.5998 -0.0490 -0.0917
 5638SOL    HW128373   0.820   2.366   5.830 -1.5967  0.9418  0.4215
 5638SOL    HW228374   0.755   2.295   5.729 -0.0867  0.2330  1.1315
 5639SOL     OW28375   1.590   1.937   6.555  0.5682  0.0090  0.6702
 5639SOL    HW128376   1.683   1.920   6.546 -0.1767 -1.9845 -3.0569
 5639SOL    HW228377   1.589   1.982   6.640  1.7824 -0.8264  1.1251
 5640SOL     OW28378   3.067   3.355   8.095  0.6265  0.0702 -0.0678
 5640SOL    HW128379   3.007   3.309   8.154  0.0405 -0.7205 -1.2760
 5640SOL    HW228380   3.132   3.381   8.160  0.5204 -0.4131  0.2280
 5641SOL     OW28381   1.489   0.470   0.592  0.2561  0.1046 -0.2942
 5641SOL    HW128382   1.435   0.473   0.672  1.4326  1.5247  0.4377
 5641SOL    HW228383   1.575   0.480   0.632  0.3173 -0.6496 -0.2419
 5642SOL     OW28384   3.446   0.511   3.666 -0.2063  0.0429 -0.1321
 5642SOL    HW128385   3.416   0.515   3.757 -0.4307 -1.4902 -0.1444
 5642SOL    HW228386   3.525   0.458   3.664  0.5977  1.3406 -3.0234
 5643SOL     OW28387   4.099   3.928   0.391 -0.5810 -0.0322 -0.4155
 5643SOL    HW128388   4.127   3.900   0.478  0.0906  1.1450 -0.2369
 5643SOL    HW228389   4.036   3.994   0.420 -2.6594 -0.1711 -4.5308
 5644SOL     OW28390   3.196   1.736  13.067  0.1721  0.0098 -0.3970
 5644SOL    HW128391   3.224   1.825  13.042 -0.5984  0.8199  1.6720
 5644SOL    HW228392   3.156   1.742  13.153 -0.2533  1.2484 -0.6695
 5645SOL     OW28393   1.446   1.478   4.213 -0.2277 -0.4428  0.2959
 5645SOL    HW128394   1.509   1.413   4.180 -0.3809 -0.6914  0.4902
 5645SOL    HW228395   1.428   1.443   4.300  2.1050  0.1831  1.0330
 5646SOL     OW28396   1.444   3.709   1.252  0.1632  0.7140 -0.4545
 5646SOL    HW128397   1.505   3.649   1.209 -3.6249 -3.9200  0.6843
 5646SOL    HW228398   1.359   3.667   1.241  1.0543 -1.1583 -0.1296
 5647SOL     OW28399   1.935   1.717   7.186 -0.2479  0.4375  0.0464
 5647SOL    HW128400   1.955   1.630   7.220 -0.2269  0.8038  0.9579
 5647SOL    HW228401   1.954   1.777   7.258  2.0490  0.4642 -0.5860
 5648SOL     OW28402   2.009   3.012   2.208  0.6667 -0.3508  0.0110
 5648SOL    HW128403   1.953   2.971   2.274  0.0309 -1.0395 -0.9375
 5648SOL    HW228404   2.085   2.955   2.211 -0.2341 -1.4479  1.8605
 5649SOL     OW28405   1.475   1.208   8.312  1.0531  0.2999 -0.2236
 5649SOL    HW128406   1.437   1.290   8.342 -1.6317 -0.5985 -1.1597
 5649SOL    HW228407   1.559   1.200   8.358 -0.4078 -2.0841  1.9947
 5650SOL     OW28408   0.926   2.537   3.385  0.1459 -0.2376  0.1346
 5650SOL    HW128409   0.979   2.562   3.461  1.9181  0.0557 -1.1956
 5650SOL    HW228410   0.937   2.442   3.389 -0.7305 -0.4149 -1.4281
 5651SOL     OW28411   2.761   1.090   2.144  0.2694 -0.2031 -0.2564
 5651SOL    HW128412   2.832   1.038   2.105 -0.8271 -0.6313 -1.6758
 5651SOL    HW228413   2.811   1.135   2.212  0.8669  1.6511 -1.8916
 5652SOL     OW28414   0.193   3.688   9.517 -0.3001 -0.6777 -0.1409
 5652SOL    HW128415   0.232   3.663   9.602  2.0772 -0.0954 -1.0520
 5652SOL    HW228416   0.273   3.705   9.467 -1.3951  2.1175 -0.9304
 5653SOL     OW28417   1.172   1.626  11.080  0.8464 -0.1376  0.3873
 5653SOL    HW128418   1.237   1.566  11.115  1.6226  0.0848 -0.6546
 5653SOL    HW228419   1.160   1.699  11.141 -0.4961  0.2421 -0.3369
 5654SOL     OW28420   0.812   4.336   8.113 -0.5564  0.0986  0.9383
 5654SOL    HW128421   0.764   4.375   8.040 -0.0963 -0.7447  0.1903
 5654SOL    HW228422   0.868   4.273   8.067 -0.8694  0.1855  0.4306
 5655SOL     OW28423   2.827   2.426  10.038 -0.0628 -0.1328 -0.4598
 5655SOL    HW128424   2.808   2.395  10.126 -1.3314 -1.6036 -1.2477
 5655SOL    HW228425   2.922   2.429  10.043 -0.0117 -3.5201  0.2546
 5656SOL     OW28426   2.403   0.359   5.197  0.4188 -0.1677  0.4594
 5656SOL    HW128427   2.428   0.377   5.107 -1.5968 -0.3624 -0.1465
 5656SOL    HW228428   2.485   0.361   5.247 -0.4600 -1.0462  1.9573
 5657SOL     OW28429   4.050   3.704   5.277  0.5034  0.3288 -0.1908
 5657SOL    HW128430   3.987   3.763   5.319  0.7069  0.7582 -0.4806
 5657SOL    HW228431   4.133   3.745   5.304  0.1392  2.6130 -2.5020
 5658SOL     OW28432   4.230   2.751   5.145 -0.1343 -0.5368 -0.7469
 5658SOL    HW128433   4.158   2.794   5.099 -1.5017 -2.8892 -0.8165
 5658SOL    HW228434   4.203   2.660   5.134  0.9308 -0.8973 -0.3647
 5659SOL     OW28435   1.040   3.273  11.500  0.4100 -0.2496  0.1781
 5659SOL    HW128436   0.961   3.221  11.487 -0.8053  1.3347  1.3205
 5659SOL    HW228437   1.029   3.289  11.594  1.5401 -2.2398  0.6426
 5660SOL     OW28438   0.728   0.595   0.775 -0.2586  0.9396 -0.5746
 5660SOL    HW128439   0.795   0.663   0.768  0.6214  0.0551 -0.7087
 5660SOL    HW228440   0.711   0.560   0.687 -0.5314 -1.1951  0.3506
 5661SOL     OW28441   3.187   3.692   5.900  0.2601 -0.2443 -0.1447
 5661SOL    HW128442   3.269   3.658   5.936  0.9086  1.2700 -0.1755
 5661SOL    HW228443   3.141   3.710   5.982 -0.9885 -0.6302 -0.7742
 5662SOL     OW28444   1.260   3.587   5.337 -0.4919  0.2211  0.7785
 5662SOL    HW128445   1.301   3.538   5.266 -2.8156  0.7364 -0.9379
 5662SOL    HW228446   1.212   3.514   5.377 -1.4814 -0.6924 -2.0709
 5663SOL     OW28447   0.747   3.620   1.880 -0.2920  0.3437 -0.1798
 5663SOL    HW128448   0.702   3.612   1.796  1.5844 -2.5127 -0.8975
 5663SOL    HW228449   0.761   3.528   1.903  1.1612  0.8253  0.8688
 5664SOL     OW28450   0.254   4.534  10.269  0.0670 -0.6356 -0.4717
 5664SOL    HW128451   0.296   4.453  10.295 -0.9965 -1.4852 -1.3719
 5664SOL    HW228452   0.273   4.593  10.342 -1.0083  0.9806 -1.4817
 5665SOL     OW28453   3.265   0.348   0.576  1.1249 -0.2281  0.1206
 5665SOL    HW128454   3.341   0.400   0.602  1.0820 -0.6323  1.0517
 5665SOL    HW228455   3.265   0.308   0.663  1.7595  0.1080  0.2724
 5666SOL     OW28456   2.195   1.193   7.670 -0.3471  0.2402  0.4374
 5666SOL    HW128457   2.238   1.125   7.722  1.5197 -0.1541 -1.6552
 5666SOL    HW228458   2.263   1.257   7.648 -1.3583  0.9040 -0.7460
 5667SOL     OW28459   1.252   3.081  14.099 -0.4034 -0.3319 -0.2864
 5667SOL    HW128460   1.323   3.145  14.093 -2.0352  1.3032 -2.2016
 5667SOL    HW228461   1.244   3.057  14.191 -1.4974 -0.6224 -0.4606
 5668SOL     OW28462   0.391   4.197   6.590  0.1013  0.0929 -0.6104
 5668SOL    HW128463   0.429   4.284   6.603  1.5099 -0.7191  0.7258
 5668SOL    HW228464   0.312   4.209   6.644 -0.4165 -1.1582 -1.1037
 5669SOL     OW28465   1.266   0.596   6.061 -0.2604  0.2380  0.0752
 5669SOL    HW128466   1.272   0.542   5.982 -1.5685  1.1569 -0.6520
 5669SOL    HW228467   1.265   0.684   6.023 -1.0195  0.8354  1.4746
 5670SOL     OW28468   2.787   2.824   1.295  0.1568 -0.4516  0.4386
 5670SOL    HW128469   2.692   2.826   1.311  0.0864  0.2765 -0.0574
 5670SOL    HW228470   2.801   2.915   1.268 -1.0942 -0.3401  0.1400
 5671SOL     OW28471   2.703   1.008   3.166  0.1051 -0.1000  0.0515
 5671SOL    HW128472   2.708   1.060   3.246 -1.2118 -1.7121  1.1675
 5671SOL    HW228473   2.792   1.018   3.131  0.8445  0.2667  1.9938
 5672SOL     OW28474   0.309   3.641   2.142 -0.1385  0.6309 -0.1977
 5672SOL    HW128475   0.247   3.637   2.069  1.0114 -2.9233 -0.9617
 5672SOL    HW228476   0.346   3.553   2.150  1.7534  1.4529  0.0483
 5673SOL     OW28477   2.035   3.385   6.469  0.1099 -0.3274 -0.4077
 5673SOL    HW128478   1.982   3.428   6.401  0.9891  2.7670  0.8847
 5673SOL    HW228479   1.974   3.317   6.500 -0.1635  0.7922  1.5219
 5674SOL     OW28480   4.563   1.295  16.346  0.3995 -0.5773 -0.3713
 5674SOL    HW128481   4.507   1.372  16.338 -1.5112 -1.8537  0.8579
 5674SOL    HW228482   4.647   1.335  16.370 -0.0277  0.0497  0.0727
 5675SOL     OW28483   3.902   0.395  10.447 -0.0985 -0.1685  0.0505
 5675SOL    HW128484   3.815   0.385  10.408 -0.1308 -0.5535  0.2203
 5675SOL    HW228485   3.946   0.425  10.368  0.7895 -1.5864  0.0218
 5676SOL     OW28486   3.316   3.144  17.471 -0.1359  0.0720 -0.0163
 5676SOL    HW128487   3.336   3.187  17.555  0.6914  2.5473 -1.4718
 5676SOL    HW228488   3.396   3.163  17.422  1.1578 -1.6654  1.4114
 5677SOL     OW28489   4.509   0.028   2.735  0.6445 -0.7739  0.0701
 5677SOL    HW128490   4.473   4.673   2.690 -0.3488 -0.8167  0.9350
 5677SOL    HW228491   4.473   0.011   2.822 -1.4567  3.1660  0.0091
 5678SOL     OW28492   4.405   1.110  11.810 -0.2248 -0.0284 -0.3117
 5678SOL    HW128493   4.451   1.119  11.893 -0.9375 -1.2963  0.2102
 5678SOL    HW228494   4.461   1.047  11.766  1.0276  0.2372  0.8877
 5679SOL     OW28495   0.356   0.206   8.326  0.0062  0.0124  0.1266
 5679SOL    HW128496   0.400   0.237   8.405 -0.0932  1.0206 -0.2101
 5679SOL    HW228497   0.424   0.158   8.280 -0.5749 -0.7845  0.0973
 5680SOL     OW28498   2.612   2.767   3.918 -0.4966  0.0741  0.0758
 5680SOL    HW128499   2.586   2.767   3.825 -3.0100  0.7680  0.7742
 5680SOL    HW228500   2.645   2.855   3.931  1.0917 -0.4989 -0.1146
 5681SOL     OW28501   0.947   3.005  14.220 -0.6364 -0.1412 -0.0255
 5681SOL    HW128502   0.944   2.983  14.126  0.1383  0.8126 -0.2694
 5681SOL    HW228503   0.862   2.967  14.244  0.2062 -1.0027  1.5641
 5682SOL     OW28504   4.134   1.745   9.131 -0.4767 -0.2669  0.0864
 5682SOL    HW128505   4.109   1.834   9.106  1.5399  0.1968 -0.2895
 5682SOL    HW228506   4.136   1.751   9.227  1.8030 -1.4463  0.1091
 5683SOL     OW28507   3.014   3.398  10.147 -0.4546  0.2004 -0.0622
 5683SOL    HW128508   3.105   3.374  10.163  0.0880  3.1119  1.2035
 5683SOL    HW228509   3.008   3.493  10.140 -2.4724  0.0016 -1.1458
 5684SOL     OW28510   1.019   3.243   9.422 -0.3496 -0.2530  0.3310
 5684SOL    HW128511   1.101   3.275   9.385 -1.1189  0.7538 -0.5083
 5684SOL    HW228512   1.029   3.152   9.396 -1.3004 -0.0485 -0.7074
 5685SOL     OW28513   3.794   4.451  14.778 -0.0002  0.5075 -0.3303
 5685SOL    HW128514   3.730   4.511  14.816 -0.4654  0.6411 -1.3157
 5685SOL    HW228515   3.873   4.462  14.831  0.8588  0.2108 -1.5487
 5686SOL     OW28516   3.896   2.976   9.894 -0.1608 -0.3304 -0.1769
 5686SOL    HW128517   3.858   2.902   9.941 -0.7838  1.3682  2.0030
 5686SOL    HW228518   3.838   3.049   9.917  1.7067  0.2315  2.7575
 5687SOL     OW28519   0.833   1.104  11.402  0.1716 -0.1765  0.4820
 5687SOL    HW128520   0.772   1.040  11.366 -2.2255  1.7096  1.1618
 5687SOL    HW228521   0.777   1.168  11.447 -0.0287 -0.0445  0.0397
 5688SOL     OW28522   0.023   3.137   5.428  0.1215  0.0172  0.2655
 5688SOL    HW128523   0.029   3.049   5.391  0.7357 -0.0383  0.4855
 5688SOL    HW228524   0.088   3.188   5.380  1.2475 -1.6747 -0.0110
 5689SOL     OW28525   3.299   1.093   6.322 -0.5074  0.3652  0.1464
 5689SOL    HW128526   3.257   1.168   6.365  0.4905  1.4085 -0.6703
 5689SOL    HW228527   3.372   1.085   6.383 -1.1403 -1.5514  0.6311
 5690SOL     OW28528   4.652   3.527  17.572 -0.0927  0.4847 -0.0518
 5690SOL    HW128529   4.703   3.452  17.603  1.3090  1.6557  0.4976
 5690SOL    HW228530   4.580   3.487  17.524 -1.2760  1.6764  0.7435
 5691SOL     OW28531   2.034   2.151   5.159 -0.6845 -0.1780  0.6785
 5691SOL    HW128532   2.047   2.165   5.253  3.9187  1.8145 -0.2508
 5691SOL    HW228533   2.012   2.233   5.115 -1.2270 -0.3822  0.5762
 5692SOL     OW28534   4.224   0.413  15.257  0.0326  0.2834 -0.3358
 5692SOL    HW128535   4.139   0.371  15.270 -0.5106  1.9494  1.5330
 5692SOL    HW228536   4.281   0.345  15.221  1.3808 -0.2664  2.8379
 5693SOL     OW28537   1.818   3.326   4.260 -0.3212  0.2451  0.4262
 5693SOL    HW128538   1.878   3.400   4.269 -1.3524  0.7149  3.3840
 5693SOL    HW228539   1.819   3.325   4.164  0.5909 -3.0739  0.4613
 5694SOL     OW28540   3.378   4.712   7.252 -0.4085 -0.0027  0.3537
 5694SOL    HW128541   3.299   0.037   7.281 -0.4026 -0.3205  0.8849
 5694SOL    HW228542   3.432   4.702   7.331  1.3209  1.3001 -0.6945
 5695SOL     OW28543   1.702   0.200  16.522 -0.3676  0.2300  0.2162
 5695SOL    HW128544   1.750   0.171  16.444  1.5512  0.5281  1.2775
 5695SOL    HW228545   1.642   0.126  16.519  0.9734 -0.6968 -3.1787
 5696SOL     OW28546   4.018   0.849   6.258 -0.0082  0.6719 -0.5271
 5696SOL    HW128547   3.994   0.891   6.340  0.4741  0.3787 -0.2369
 5696SOL    HW228548   3.935   0.845   6.210  0.5298  0.7845 -1.4558
 5697SOL     OW28549   3.012   0.345   6.284  0.0849 -0.3265 -0.1602
 5697SOL    HW128550   3.007   0.369   6.376 -2.6989 -0.4176 -0.2889
 5697SOL    HW228551   3.033   0.252   6.291  0.2913 -0.2695 -0.0333
 5698SOL     OW28552   0.074   4.103  14.744 -0.3185  0.5680 -0.0235
 5698SOL    HW128553   0.083   4.153  14.825 -0.2461 -2.6319  1.9311
 5698SOL    HW228554   0.165   4.084  14.719 -0.5361  1.2771 -1.3898
 5699SOL     OW28555   2.597   2.228   0.128 -0.1108  0.1970  0.1143
 5699SOL    HW128556   2.524   2.265   0.178  0.2374 -0.2369  0.9498
 5699SOL    HW228557   2.610   2.292   0.058  1.7822 -0.2616  0.0491
 5700SOL     OW28558   2.169   0.063  16.970  0.2166 -0.0685 -0.6978
 5700SOL    HW128559   2.090   0.027  16.929 -0.3895  0.5585 -0.0741
 5700SOL    HW228560   2.135   0.098  17.052  2.3939 -0.7954  0.4995
 5701SOL     OW28561   1.524   1.761   8.852  0.1011 -0.1952 -0.1768
 5701SOL    HW128562   1.458   1.808   8.903 -0.3295 -2.5922  1.4699
 5701SOL    HW228563   1.584   1.723   8.916 -0.6346 -1.6090 -0.3191
 5702SOL     OW28564   2.854   2.393   4.639 -0.1347 -0.1503  0.3378
 5702SOL    HW128565   2.874   2.484   4.617  1.0905 -0.6205 -0.5638
 5702SOL    HW228566   2.939   2.372   4.679 -1.0699 -0.0947  2.3076
 5703SOL     OW28567   4.390   3.605   7.946 -0.4158 -0.1365  0.1676
 5703SOL    HW128568   4.330   3.661   7.897  0.7070  0.7413 -0.2133
 5703SOL    HW228569   4.336   3.526   7.951 -2.5475  1.5114  3.8061
 5704SOL     OW28570   1.129   1.283   9.555 -0.1108  0.3159  0.1949
 5704SOL    HW128571   1.133   1.203   9.503 -1.4510 -0.2217  0.9172
 5704SOL    HW228572   1.045   1.324   9.537 -0.0776 -0.4294 -1.6259
 5705SOL     OW28573   2.460   2.496   2.837 -0.2752  0.1724 -0.2118
 5705SOL    HW128574   2.476   2.589   2.852  0.3292 -0.3381  2.3226
 5705SOL    HW228575   2.527   2.469   2.774  1.4362  1.0454  1.2184
 5706SOL     OW28576   3.655   2.011   8.932 -0.0077 -0.1044 -0.2138
 5706SOL    HW128577   3.585   1.989   8.994 -0.5301  0.9683 -0.4291
 5706SOL    HW228578   3.661   2.105   8.951  0.0674 -0.5384  1.9603
 5707SOL     OW28579   2.808   2.214   5.918  0.9254 -0.0533 -0.1215
 5707SOL    HW128580   2.875   2.148   5.902  1.3185 -0.1179  1.8163
 5707SOL    HW228581   2.812   2.231   6.012  0.3331 -0.1784 -0.0740
 5708SOL     OW28582   2.734   2.068   2.736  0.4040 -0.0604  0.1519
 5708SOL    HW128583   2.705   1.978   2.750  0.7504 -0.1823  0.1018
 5708SOL    HW228584   2.830   2.064   2.739  0.3318 -0.5213  1.7479
 5709SOL     OW28585   3.289   1.640   2.731 -0.5992 -0.4479 -0.0938
 5709SOL    HW128586   3.365   1.583   2.744  1.6721  2.7345  0.7899
 5709SOL    HW228587   3.316   1.707   2.795 -2.7373  0.0553  0.2611
 5710SOL     OW28588   3.720   4.599   3.674  0.3261  0.0490 -0.2176
 5710SOL    HW128589   3.764   4.577   3.592 -0.2112 -1.7658 -0.0071
 5710SOL    HW228590   3.661   4.668   3.644  0.2485  0.4192  0.7703
 5711SOL     OW28591   2.579   2.558   5.701 -0.3638  0.4218 -0.2593
 5711SOL    HW128592   2.506   2.593   5.650 -0.8969  1.5860  1.3361
 5711SOL    HW228593   2.639   2.522   5.635 -0.2871 -0.3249  0.2121
 5712SOL     OW28594   0.719   3.066   2.799 -0.4149 -0.2929 -0.7067
 5712SOL    HW128595   0.638   3.017   2.813  0.5000 -1.3522  0.8763
 5712SOL    HW228596   0.785   3.019   2.747 -1.7075 -2.9486  0.0694
 5713SOL     OW28597   1.964   2.050   8.573  0.0293 -0.1866 -0.2405
 5713SOL    HW128598   2.045   2.038   8.622 -0.9004 -1.2344  1.0214
 5713SOL    HW228599   1.902   2.039   8.645  1.0168 -1.2791  0.4312
 5714SOL     OW28600   3.148   3.599  15.721  0.1718  0.2511 -0.3157
 5714SOL    HW128601   3.185   3.511  15.723 -0.0405  0.1618 -0.3211
 5714SOL    HW228602   3.118   3.605  15.812 -0.8752  0.2886 -0.6622
 5715SOL     OW28603   2.500   1.097  13.663 -0.4645  0.3350 -0.0098
 5715SOL    HW128604   2.514   1.186  13.695  0.7006  0.1194  0.1038
 5715SOL    HW228605   2.419   1.071  13.706  0.5810 -1.2734  0.9508
 5716SOL     OW28606   0.176   4.149   6.787 -0.1164 -0.7157 -0.5612
 5716SOL    HW128607   0.112   4.189   6.729 -0.5051 -0.4190  0.0779
 5716SOL    HW228608   0.146   4.164   6.877  0.6958  0.8617 -0.5554
 5717SOL     OW28609   1.239   2.525   0.081  0.3393 -0.0765 -0.0228
 5717SOL    HW128610   1.264   2.610   0.044  2.4742  0.3328  2.3704
 5717SOL    HW228611   1.257   2.538   0.174  0.8709  0.5336 -0.2157
 5718SOL     OW28612   4.435   0.212   6.182  0.1268 -0.4930 -0.1869
 5718SOL    HW128613   4.494   0.244   6.114  0.4410  0.8322  0.7019
 5718SOL    HW228614   4.497   0.197   6.254  1.5224  0.1880 -1.2572
 5719SOL     OW28615   0.802   0.178   7.841  0.3819 -0.2445 -0.4999
 5719SOL    HW128616   0.792   0.111   7.909  0.5917 -1.4630 -1.6718
 5719SOL    HW228617   0.792   0.259   7.890 -2.4188 -0.8706 -0.0404
 5720SOL     OW28618   3.301   3.419   5.919  0.2686  0.2156  0.0930
 5720SOL    HW128619   3.287   3.338   5.967 -0.5389  0.9160  1.0535
 5720SOL    HW228620   3.300   3.405   5.825 -3.0916  0.1420  0.1695
 5721SOL     OW28621   3.626   0.306   3.686  0.4237 -0.3039  0.3966
 5721SOL    HW128622   3.718   0.287   3.665  0.2036 -1.4372  0.4780
 5721SOL    HW228623   3.605   0.215   3.709  0.8554 -0.1389  1.4295
 5722SOL     OW28624   3.828   0.203   9.084  0.0646  0.1689 -0.3291
 5722SOL    HW128625   3.734   0.184   9.081 -0.2907  2.1079 -1.2810
 5722SOL    HW228626   3.855   0.184   9.174  0.4988  1.1907 -0.2356
 5723SOL     OW28627   1.742   3.432   6.565 -0.2325  0.7456 -0.0320
 5723SOL    HW128628   1.749   3.489   6.641 -1.1585 -1.7208  1.8972
 5723SOL    HW228629   1.823   3.381   6.565 -1.1255 -0.6737 -0.0095
 5724SOL     OW28630   3.043   0.174  12.996  0.4463  0.4565 -0.3870
 5724SOL    HW128631   3.037   0.081  12.973  1.5253  0.3004 -0.0393
 5724SOL    HW228632   3.107   0.167  13.067  0.8068  0.6236 -0.6940
 5725SOL     OW28633   3.412   3.321  12.505 -0.0905  0.0439  0.5491
 5725SOL    HW128634   3.362   3.364  12.436  1.8781  2.1147  0.4125
 5725SOL    HW228635   3.501   3.334  12.475  0.8457 -1.2430  2.7213
 5726SOL     OW28636   1.850   3.700   8.730 -0.8892 -0.1956 -0.7001
 5726SOL    HW128637   1.862   3.611   8.764  2.1770  0.5461  0.0763
 5726SOL    HW228638   1.898   3.749   8.796 -0.4790 -1.2456 -0.2127
 5727SOL     OW28639   4.008   0.673   5.240  0.2334 -0.5039 -0.4228
 5727SOL    HW128640   4.101   0.665   5.218  0.6120 -1.7386  1.6279
 5727SOL    HW228641   3.978   0.583   5.255  0.4163 -0.4551  0.2267
 5728SOL     OW28642   1.176   4.680   4.235 -0.2381 -0.0842  0.3614
 5728SOL    HW128643   1.088   4.713   4.252 -0.1383 -0.4440  1.6230
 5728SOL    HW228644   1.203   0.015   4.162  1.6022 -0.7630  0.5263
 5729SOL     OW28645   0.387   0.420   9.120 -0.1036  0.1833  0.1403
 5729SOL    HW128646   0.331   0.359   9.169 -2.1109  1.0033 -1.1554
 5729SOL    HW228647   0.319   0.450   9.061 -0.4213 -0.4646  0.1716
 5730SOL     OW28648   2.094   3.922   9.620 -0.3607  0.5380  0.0086
 5730SOL    HW128649   2.116   3.872   9.698 -3.2161  0.5851  0.8602
 5730SOL    HW228650   2.179   3.960   9.598  0.3716 -2.1872 -1.9364
 5731SOL     OW28651   0.034   3.519   1.677 -0.0246 -0.5077  0.1383
 5731SOL    HW128652   0.050   3.610   1.701  1.8346 -0.7075 -0.3158
 5731SOL    HW228653   0.022   3.473   1.760  0.0860  0.6178  0.7779
 5732SOL     OW28654   3.228   3.906  12.979 -0.1943  0.1193 -0.6121
 5732SOL    HW128655   3.259   3.838  12.918 -0.8808 -0.7849  0.0400
 5732SOL    HW228656   3.140   3.870  12.991  0.1258 -0.7214 -0.7628
 5733SOL     OW28657   2.653   3.492   6.219 -0.2665  0.6827 -0.5489
 5733SOL    HW128658   2.702   3.523   6.295  1.7254 -1.8768 -0.7931
 5733SOL    HW228659   2.560   3.494   6.243  0.2162 -0.4867  1.3903
 5734SOL     OW28660   2.237   0.782   5.760  0.9888  0.5963 -0.4958
 5734SOL    HW128661   2.216   0.875   5.774 -2.4323 -0.5495  1.6751
 5734SOL    HW228662   2.319   0.777   5.810  1.2004 -1.1924 -1.0352
 5735SOL     OW28663   1.695   3.916   6.164  0.2372 -0.3008  0.1465
 5735SOL    HW128664   1.634   3.842   6.160 -0.0765 -0.1013  1.3682
 5735SOL    HW228665   1.776   3.868   6.182 -1.0228 -3.0063 -1.4258
 5736SOL     OW28666   3.309   2.745   3.759  0.1167 -0.1752  0.4107
 5736SOL    HW128667   3.281   2.672   3.815  3.2176 -1.7358 -0.0866
 5736SOL    HW228668   3.256   2.820   3.787  0.2143  0.3897 -0.9065
 5737SOL     OW28669   1.963   2.966  17.264  0.5537 -0.5853  0.2074
 5737SOL    HW128670   1.941   3.058  17.279 -1.1224 -0.2835 -4.1247
 5737SOL    HW228671   2.015   2.974  17.184 -0.9495 -0.8911 -0.7921
 5738SOL     OW28672   1.741   3.731  15.632  1.0429  0.4723  0.0896
 5738SOL    HW128673   1.808   3.668  15.659  1.0627  0.5582  0.2451
 5738SOL    HW228674   1.798   3.804  15.606 -0.5481  1.0902 -1.6623
 5739SOL     OW28675   3.969   2.296  15.402  0.0969  0.6462 -0.5340
 5739SOL    HW128676   4.012   2.297  15.316  1.5016 -0.6994  0.1562
 5739SOL    HW228677   3.877   2.275  15.389  0.6474 -2.0589 -0.0116
 5740SOL     OW28678   1.632   0.497   5.920  0.2876 -0.4327 -0.5147
 5740SOL    HW128679   1.692   0.492   5.845  0.6958 -1.4288 -0.1167
 5740SOL    HW228680   1.557   0.545   5.882  2.4882  1.5947 -2.3266
 5741SOL     OW28681   4.541   0.649   6.260 -0.8447  0.2077 -0.2710
 5741SOL    HW128682   4.632   0.660   6.289 -0.5205 -1.2094 -0.7541
 5741SOL    HW228683   4.518   0.739   6.237 -1.0370 -0.5563 -3.1354
 5742SOL     OW28684   3.317   3.151   7.488 -0.3677  0.0063  0.1090
 5742SOL    HW128685   3.394   3.172   7.434 -0.8409  1.6298  0.0684
 5742SOL    HW228686   3.334   3.201   7.568 -2.6530 -1.4424  1.4934
 5743SOL     OW28687   2.927   0.396   5.871 -0.3442 -0.2362  0.4275
 5743SOL    HW128688   2.856   0.360   5.818  0.4779 -0.9212 -0.1940
 5743SOL    HW228689   2.896   0.484   5.893 -0.1599 -0.3184  1.0233
 5744SOL     OW28690   3.342   1.241  11.616 -0.2361 -0.0833 -0.2383
 5744SOL    HW128691   3.430   1.231  11.580 -0.0363 -0.3244  0.3163
 5744SOL    HW228692   3.301   1.162  11.580  1.1696 -0.9944  0.1655
 5745SOL     OW28693   3.278   0.084   7.573 -0.1362 -0.2407  0.2931
 5745SOL    HW128694   3.370   0.076   7.597 -0.1127  2.1011  1.0604
 5745SOL    HW228695   3.239   0.006   7.611  0.1298 -0.6781 -0.3397
 5746SOL     OW28696   0.383   2.672   5.593  0.2477  0.2624 -0.2178
 5746SOL    HW128697   0.325   2.701   5.523 -0.6669 -0.4054  0.2572
 5746SOL    HW228698   0.473   2.696   5.572  0.7263 -0.5169  0.9065
 5747SOL     OW28699   2.109   1.175   4.146 -0.7784 -0.2007  0.3192
 5747SOL    HW128700   2.060   1.238   4.093  0.1745  2.8404  3.0889
 5747SOL    HW228701   2.153   1.235   4.206 -0.5594  2.1375 -2.1874
 5748SOL     OW28702   0.785   3.553   6.136  0.2662 -0.4132 -0.6530
 5748SOL    HW128703   0.690   3.558   6.125 -0.1613 -0.6294  2.7938
 5748SOL    HW228704   0.800   3.644   6.162  1.0420 -0.7643  0.1145
 5749SOL     OW28705   2.540   3.169   7.811 -0.2101  0.2861 -0.2246
 5749SOL    HW128706   2.445   3.158   7.818 -0.1467 -0.2427 -0.1959
 5749SOL    HW228707   2.548   3.141   7.719  1.4393  0.3086 -0.0929
 5750SOL     OW28708   3.630   3.555   9.212 -0.0948  0.2347 -0.4786
 5750SOL    HW128709   3.651   3.477   9.160 -0.2928  1.4389 -2.3698
 5750SOL    HW228710   3.544   3.587   9.184 -0.6274  0.5289  1.5007
 5751SOL     OW28711   3.015   2.765   2.505 -0.2135 -0.2186  0.1191
 5751SOL    HW128712   3.061   2.790   2.425  0.2621  1.0050  0.7772
 5751SOL    HW228713   3.060   2.687   2.538 -0.8810  0.4605  2.6888
 5752SOL     OW28714   4.370   1.926   2.892  0.6300  0.2119  0.4388
 5752SOL    HW128715   4.352   1.959   2.980 -2.2894  1.4997 -0.6706
 5752SOL    HW228716   4.337   1.838   2.912  0.6514 -0.1566 -1.1359
 5753SOL     OW28717   2.091   0.958  11.342  0.4048 -0.3603  0.7082
 5753SOL    HW128718   2.092   0.870  11.305 -3.8243 -0.0591 -0.1348
 5753SOL    HW228719   2.009   0.991  11.305  2.1266  1.4876 -1.4178
 5754SOL     OW28720   0.922   4.427   4.109  0.2322 -0.1273 -0.6316
 5754SOL    HW128721   1.016   4.424   4.092  0.1939 -4.9138 -0.2092
 5754SOL    HW228722   0.892   4.517   4.107 -0.3695 -0.3199 -0.1128
 5755SOL     OW28723   2.903   2.159  14.947  0.0226  0.2347  0.3048
 5755SOL    HW128724   2.988   2.118  14.967 -1.6201 -2.7707  1.0937
 5755SOL    HW228725   2.918   2.193  14.859  1.0802 -1.7795 -0.2863
 5756SOL     OW28726   4.053   1.204   7.839 -0.4238  0.6163 -0.4753
 5756SOL    HW128727   4.016   1.152   7.768  1.1480 -0.3371 -0.5880
 5756SOL    HW228728   3.994   1.279   7.836  0.7424  1.5300 -0.7135
 5757SOL     OW28729   2.546   2.808   3.633 -0.2738 -0.2368 -0.2557
 5757SOL    HW128730   2.585   2.890   3.602  0.7366 -0.2876  0.8661
 5757SOL    HW228731   2.471   2.792   3.576  0.4108  0.3245 -1.3109
 5758SOL     OW28732   3.676   0.544   6.491  0.1144  0.1037 -0.1038
 5758SOL    HW128733   3.642   0.603   6.424 -0.9565  1.1429  1.3582
 5758SOL    HW228734   3.769   0.563   6.475 -0.2221 -0.2916 -2.5840
 5759SOL     OW28735   0.161   2.073   4.059  0.3702 -0.5110 -0.2167
 5759SOL    HW128736   0.180   2.166   4.069  0.5147 -0.5353 -0.2679
 5759SOL    HW228737   0.250   2.038   4.062  0.2991 -0.5835  1.2156
 5760SOL     OW28738   1.831   1.559   3.309  0.2745  0.0567  0.2096
 5760SOL    HW128739   1.920   1.528   3.328  0.2129  0.8011  1.7111
 5760SOL    HW228740   1.774   1.490   3.342  0.0286  0.6656  1.0612
 5761SOL     OW28741   2.488   0.233   3.344 -0.1595 -0.2571  0.7379
 5761SOL    HW128742   2.470   0.326   3.329  1.3712  0.1848  1.6008
 5761SOL    HW228743   2.583   0.228   3.352 -0.1618  0.2196  1.0149
 5762SOL     OW28744   3.254   2.673   2.105 -0.1857  0.3450  0.2090
 5762SOL    HW128745   3.274   2.628   2.022  0.9520 -0.6053  0.9988
 5762SOL    HW228746   3.160   2.669   2.122 -0.0447 -0.0464  0.8941
 5763SOL     OW28747   3.894   1.997   7.884 -0.0653 -0.0001  0.2569
 5763SOL    HW128748   3.891   2.093   7.888 -0.5978  0.0733 -2.0657
 5763SOL    HW228749   3.816   1.973   7.934  0.5715  0.1479  1.3282
 5764SOL     OW28750   2.449   2.156   7.894 -0.3317 -0.0781  0.1533
 5764SOL    HW128751   2.533   2.198   7.876  0.5826 -3.0433 -2.3039
 5764SOL    HW228752   2.464   2.107   7.975 -0.8723  1.4523  1.1797
 5765SOL     OW28753   3.720   0.521   0.751 -0.1873  0.1665  0.1216
 5765SOL    HW128754   3.630   0.518   0.720 -0.6242  1.2098  1.2641
 5765SOL    HW228755   3.749   0.435   0.720 -0.9276 -0.7601  1.9896
 5766SOL     OW28756   1.819   3.049   8.890 -0.3151  0.5518 -0.4141
 5766SOL    HW128757   1.737   3.014   8.855 -0.2129  0.7595 -0.8618
 5766SOL    HW228758   1.878   3.060   8.815 -3.4374 -1.5448 -3.1958
 5767SOL     OW28759   4.115   2.137   5.178 -0.1613 -0.0328 -0.1595
 5767SOL    HW128760   4.048   2.128   5.109  1.7528  1.0730 -2.1686
 5767SOL    HW228761   4.086   2.211   5.231 -2.5435 -0.3232 -1.0564
 5768SOL     OW28762   3.669   2.790   1.612  0.2260 -0.8498 -0.6683
 5768SOL    HW128763   3.715   2.841   1.545  0.4282  0.5930  0.5678
 5768SOL    HW228764   3.610   2.742   1.553 -1.0067 -0.0688 -0.0796
 5769SOL     OW28765   4.094   0.294   1.780 -0.1815 -0.3058  0.0696
 5769SOL    HW128766   4.088   0.285   1.875 -0.4236 -0.4098  0.0446
 5769SOL    HW228767   4.137   0.219   1.739 -0.5080  0.0476 -0.9367
 5770SOL     OW28768   1.079   0.060   4.937  0.0962 -0.2771  0.3798
 5770SOL    HW128769   1.136   0.012   4.877  0.6378 -0.4450  1.0459
 5770SOL    HW228770   0.999   0.010   4.916  0.5799 -1.1483  0.6450
 5771SOL     OW28771   4.346   1.950   9.260 -0.4203 -0.1406  0.0683
 5771SOL    HW128772   4.268   1.989   9.220  1.4549  2.0141 -1.4902
 5771SOL    HW228773   4.319   1.859   9.249  0.6611 -0.3652 -0.7140
 5772SOL     OW28774   3.695   3.996   0.035 -0.0750 -0.2906  0.1660
 5772SOL    HW128775   3.721   3.978   0.125 -2.2853  0.9641  1.0498
 5772SOL    HW228776   3.656   4.083   0.049  1.2601  0.4471 -0.6937
 5773SOL     OW28777   2.890   1.614  15.632  0.5485  0.2096  0.1148
 5773SOL    HW128778   2.832   1.665  15.688  1.9913 -0.1204  1.9175
 5773SOL    HW228779   2.878   1.653  15.545 -1.2604 -0.7839 -0.0842
 5774SOL     OW28780   3.305   4.531   5.171 -0.0685 -0.4824  0.7932
 5774SOL    HW128781   3.271   4.499   5.088 -0.2383  1.3446  0.1426
 5774SOL    HW228782   3.371   4.469   5.201  0.1544 -0.7558 -0.2756
 5775SOL     OW28783   0.712   2.471   1.253  0.1285  0.2548 -0.3324
 5775SOL    HW128784   0.697   2.401   1.188 -0.9334  0.1817 -0.0151
 5775SOL    HW228785   0.732   2.416   1.329 -1.9463  0.1444  0.1335
 5776SOL     OW28786   1.371   2.310  16.161 -0.0568  0.4035  0.4954
 5776SOL    HW128787   1.382   2.384  16.221 -0.3864  0.4145  0.5401
 5776SOL    HW228788   1.330   2.261  16.232  0.6350  0.6849  1.0972
 5777SOL     OW28789   1.552   1.664  16.374 -0.4076 -0.6033 -0.2582
 5777SOL    HW128790   1.630   1.635  16.421 -1.2609 -3.1084 -0.4040
 5777SOL    HW228791   1.525   1.728  16.440 -1.0514 -0.7306 -0.3903
 5778SOL     OW28792   1.176   4.480   3.002 -0.1399  0.5546 -0.0650
 5778SOL    HW128793   1.186   4.513   2.912  2.4068  1.9374  0.7223
 5778SOL    HW228794   1.085   4.456   2.987 -0.3315  1.1324  0.1958
 5779SOL     OW28795   2.343   2.380   2.096 -0.3339  0.1029  0.5855
 5779SOL    HW128796   2.437   2.397   2.104 -0.3646  2.3909 -3.8599
 5779SOL    HW228797   2.330   2.300   2.146  0.8500  0.0801  0.8479
 5780SOL     OW28798   2.321   4.360  11.773 -0.1829  0.1400 -0.8339
 5780SOL    HW128799   2.316   4.275  11.817  1.2975  0.5349  0.0810
 5780SOL    HW228800   2.376   4.342  11.697  1.0077 -1.5154  0.4317
 5781SOL     OW28801   1.272   3.596   2.458  0.1396  0.3296 -0.0193
 5781SOL    HW128802   1.315   3.515   2.431 -0.9357 -1.2734  3.0753
 5781SOL    HW228803   1.253   3.630   2.370 -1.0359 -2.4027 -0.8151
 5782SOL     OW28804   3.600   3.193   8.071  0.1117  0.1348 -0.0181
 5782SOL    HW128805   3.515   3.175   8.110 -0.1461  0.9233 -0.2239
 5782SOL    HW228806   3.611   3.287   8.084 -1.9285  0.1751  1.2905
 5783SOL     OW28807   3.965   2.642   3.521  0.0211 -0.2555 -0.2763
 5783SOL    HW128808   3.968   2.727   3.477  0.9934  0.7836  1.8129
 5783SOL    HW228809   3.872   2.633   3.543  0.4073  0.8405  1.7384
 5784SOL     OW28810   4.081   2.247   6.319  0.8327 -0.0519  0.3896
 5784SOL    HW128811   4.005   2.189   6.324  0.3317  0.5563 -0.2012
 5784SOL    HW228812   4.131   2.192   6.259 -0.5941 -0.1934 -0.6634
 5785SOL     OW28813   1.670   0.572  15.787 -0.3842  0.1328 -0.3342
 5785SOL    HW128814   1.757   0.601  15.760 -0.4689  1.9198  1.3101
 5785SOL    HW228815   1.670   0.494  15.732  1.7599  0.8986 -1.4211
 5786SOL     OW28816   1.412   1.021   5.535  0.2680  0.2442  0.3514
 5786SOL    HW128817   1.360   1.016   5.615  1.9322 -0.2181  1.4174
 5786SOL    HW228818   1.432   1.113   5.519  1.1035  0.0593  0.3115
 5787SOL     OW28819   2.507   1.597  13.423  0.0843  0.3555  0.0509
 5787SOL    HW128820   2.439   1.632  13.365 -1.1290 -0.8594  0.7497
 5787SOL    HW228821   2.577   1.659  13.401 -2.3630  2.6886 -1.1840
 5788SOL     OW28822   4.106   3.591  10.509  0.0142  0.1694 -0.2270
 5788SOL    HW128823   4.021   3.567  10.546 -0.0999  0.2005 -0.4680
 5788SOL    HW228824   4.158   3.578  10.588 -0.6896 -1.7145 -0.0766
 5789SOL     OW28825   1.397   0.721   6.302  0.1367  0.4181  0.8351
 5789SOL    HW128826   1.472   0.671   6.268 -0.0084  0.5234  0.3637
 5789SOL    HW228827   1.326   0.695   6.243  0.1785  4.7414 -1.0997
 5790SOL     OW28828   3.762   2.994   1.471 -0.5599  0.4062  0.1863
 5790SOL    HW128829   3.796   3.004   1.382 -0.0332  0.2907  0.3695
 5790SOL    HW228830   3.741   3.084   1.495  2.9233  0.8822  1.5524
 5791SOL     OW28831   2.994   3.145   3.231  0.1188  0.7169 -0.2283
 5791SOL    HW128832   3.072   3.152   3.177 -0.2482  0.8961 -0.7385
 5791SOL    HW228833   2.944   3.109   3.158 -1.1595  1.4686  0.2790
 5792SOL     OW28834   2.840   0.797   6.292  0.6921  0.3086 -0.2996
 5792SOL    HW128835   2.804   0.868   6.238 -0.0871  1.0041  1.1531
 5792SOL    HW228836   2.776   0.727   6.275  0.7223  0.0438  0.6651
 5793SOL     OW28837   3.119   3.703  10.781 -0.0806  0.2924  0.8001
 5793SOL    HW128838   3.139   3.755  10.859 -4.1992  0.2361  1.8548
 5793SOL    HW228839   3.024   3.707  10.777 -0.2701 -2.4589  1.9432
 5794SOL     OW28840   4.558   0.435  16.680 -0.0702 -0.3930  0.3963
 5794SOL    HW128841   4.583   0.393  16.598  1.5049  2.4558 -0.5743
 5794SOL    HW228842   4.593   0.380  16.750  2.4562 -0.4175 -0.9178
 5795SOL     OW28843   0.914   0.770   0.706 -0.1583  0.4093  0.0616
 5795SOL    HW128844   0.961   0.780   0.788 -0.6229  1.0403  0.2475
 5795SOL    HW228845   0.896   0.863   0.691  0.6429  0.6433  0.5763
 5796SOL     OW28846   1.047   4.085   5.159  0.0427  0.5358  0.1219
 5796SOL    HW128847   1.062   3.997   5.194  2.0177 -0.0625 -2.2419
 5796SOL    HW228848   0.954   4.098   5.174 -0.1641  0.2537 -0.9585
 5797SOL     OW28849   0.157   2.517  12.720  0.0482 -0.0692 -0.3609
 5797SOL    HW128850   0.108   2.444  12.758 -0.0483 -0.5599 -1.4534
 5797SOL    HW228851   0.110   2.528  12.638 -0.2065 -2.2999 -0.5318
 5798SOL     OW28852   0.242   3.427   1.348  0.0479  0.1603  0.6081
 5798SOL    HW128853   0.263   3.350   1.295  0.2220  0.7642 -0.2027
 5798SOL    HW228854   0.253   3.491   1.277  1.8448  0.0915  0.8165
 5799SOL     OW28855   0.748   2.768   6.863 -0.3055  0.2925  0.5738
 5799SOL    HW128856   0.824   2.790   6.917  1.5214  1.5830 -2.5240
 5799SOL    HW228857   0.682   2.835   6.882  0.6029  1.5302 -0.5653
 5800SOL     OW28858   3.363   3.500   3.603 -0.3239  0.0622 -0.3683
 5800SOL    HW128859   3.296   3.557   3.566 -0.6148  0.1346  0.2729
 5800SOL    HW228860   3.449   3.529   3.570  0.4478 -1.5475  0.1867
 5801SOL     OW28861   1.517   0.473   4.889 -0.1225  0.4559 -0.4658
 5801SOL    HW128862   1.540   0.495   4.979  0.4469  0.5455 -0.6314
 5801SOL    HW228863   1.437   0.523   4.870 -1.5950 -1.7098 -0.0143
 5802SOL     OW28864   0.760   2.983  12.283 -0.2331  0.0127  0.1001
 5802SOL    HW128865   0.664   2.987  12.293 -0.2957  1.9750 -1.3227
 5802SOL    HW228866   0.789   2.930  12.357  3.1735  1.3861 -0.2900
 5803SOL     OW28867   3.734   0.240  16.787 -0.0310  0.4380  0.1209
 5803SOL    HW128868   3.677   0.309  16.822 -0.0820  0.1471  0.6127
 5803SOL    HW228869   3.743   0.178  16.859 -1.7209 -0.2908 -0.2818
 5804SOL     OW28870   1.435   1.322   2.489  0.3640  0.2502  0.8253
 5804SOL    HW128871   1.410   1.234   2.460 -0.0536  1.3894 -2.1715
 5804SOL    HW228872   1.379   1.375   2.433  2.5250  0.5795 -0.9956
 5805SOL     OW28873   1.591   4.635   3.588  0.3941 -0.4159  0.3181
 5805SOL    HW128874   1.556   4.679   3.510  0.7194  1.7203  1.3544
 5805SOL    HW228875   1.507   4.632   3.635  0.0626 -0.4084 -0.2723
 5806SOL     OW28876   4.301   4.640   6.968 -0.2792  0.2899 -0.4046
 5806SOL    HW128877   4.385   4.641   6.920  1.4394  1.1805  2.6377
 5806SOL    HW228878   4.239   4.652   6.896 -0.3667  0.6004 -0.2785
 5807SOL     OW28879   0.831   4.249   6.190 -0.2891 -0.2258  0.4360
 5807SOL    HW128880   0.843   4.286   6.277 -2.4405  0.9182  0.2484
 5807SOL    HW228881   0.797   4.165   6.220  2.1983 -2.0895 -1.9306
 5808SOL     OW28882   3.169   0.140   3.486 -0.1982 -0.0827 -0.4569
 5808SOL    HW128883   3.219   0.059   3.474 -2.3264 -1.4031 -0.5493
 5808SOL    HW228884   3.232   0.211   3.475 -0.2516  0.1058  0.5442
 5809SOL     OW28885   2.501   4.531   6.363  0.0245 -0.6484  0.1980
 5809SOL    HW128886   2.466   4.477   6.292 -2.5995  0.6962  0.4666
 5809SOL    HW228887   2.595   4.519   6.350 -0.2847  1.0812 -3.7735
 5810SOL     OW28888   1.774   3.103   4.463  0.0369 -0.5063 -0.4510
 5810SOL    HW128889   1.786   3.163   4.389  0.2347  2.1570  1.7634
 5810SOL    HW228890   1.820   3.024   4.433 -1.8971 -1.9088  0.2456
 5811SOL     OW28891   3.314   3.824   8.440 -0.2425  0.0377 -0.1391
 5811SOL    HW128892   3.378   3.871   8.388 -0.5904  1.2681  0.5526
 5811SOL    HW228893   3.372   3.787   8.507 -1.4790 -1.0256  0.3541
 5812SOL     OW28894   1.082   2.535   3.118  0.1898  0.1038 -0.0462
 5812SOL    HW128895   1.107   2.627   3.117 -0.9261  0.4099 -0.4586
 5812SOL    HW228896   1.031   2.539   3.199  0.3421  2.6029 -0.0737
 5813SOL     OW28897   0.253   2.419   2.624 -0.3591 -0.0015 -0.4826
 5813SOL    HW128898   0.285   2.485   2.685  0.1788  2.1021 -2.9967
 5813SOL    HW228899   0.229   2.345   2.679  0.8411  1.0513  1.4389
 5814SOL     OW28900   0.399   2.965   4.214 -0.0397 -0.0241 -0.1388
 5814SOL    HW128901   0.304   2.958   4.220 -0.2056  0.4774 -2.2397
 5814SOL    HW228902   0.421   3.002   4.300 -2.3615 -1.1884  0.9575
 5815SOL     OW28903   4.058   4.470   5.827  0.0093  0.5293  0.5530
 5815SOL    HW128904   4.096   4.392   5.787  0.8925  1.1907  0.0888
 5815SOL    HW228905   4.075   4.450   5.919  0.7028 -0.7486  0.1517
 5816SOL     OW28906   0.664   0.362  11.724 -0.4975 -0.2965 -0.2191
 5816SOL    HW128907   0.734   0.371  11.660 -0.0518 -1.2382  0.1288
 5816SOL    HW228908   0.588   0.405  11.685 -0.3123 -1.2947 -1.6799
 5817SOL     OW28909   3.707   3.102  12.377  0.0738 -0.3682 -0.5021
 5817SOL    HW128910   3.795   3.103  12.340 -0.1779  1.3251 -1.0591
 5817SOL    HW228911   3.702   3.184  12.428  1.4681 -1.0876  0.7738
 5818SOL     OW28912   3.060   1.223   3.505 -0.3516  0.0913 -0.1487
 5818SOL    HW128913   3.067   1.172   3.424  0.2074  0.6986 -0.4791
 5818SOL    HW228914   3.146   1.215   3.545 -0.6731 -1.7496  0.1634
 5819SOL     OW28915   1.668   1.114  16.902 -0.0811  0.0142  0.4625
 5819SOL    HW128916   1.697   1.170  16.974 -0.7272  1.1929 -0.1945
 5819SOL    HW228917   1.572   1.117  16.892  0.1234  0.4761 -1.4358
 5820SOL     OW28918   2.179   0.843   9.327 -0.4917  0.2072 -0.0993
 5820SOL    HW128919   2.180   0.796   9.244 -0.0259  1.1887 -0.6397
 5820SOL    HW228920   2.142   0.771   9.379 -0.6710  0.2892 -0.1121
 5821SOL     OW28921   3.184   0.128   9.454 -0.1138  0.2063  0.1422
 5821SOL    HW128922   3.232   0.209   9.471 -0.2813  0.3303  0.0234
 5821SOL    HW228923   3.138   0.160   9.376  0.3589 -0.2304 -0.3172
 5822SOL     OW28924   4.552   1.677   1.924  0.2267  0.6382  0.3507
 5822SOL    HW128925   4.603   1.732   1.865 -2.3797  3.0644  0.3521
 5822SOL    HW228926   4.500   1.622   1.866  2.2681  0.6495 -1.4869
 5823SOL     OW28927   3.334   0.917  16.067 -0.1814 -0.2636 -0.1030
 5823SOL    HW128928   3.365   0.908  16.157 -1.7930  1.5790  0.6578
 5823SOL    HW228929   3.267   0.849  16.055 -0.2827 -0.4216  1.2702
 5824SOL     OW28930   1.763   0.133   2.521 -0.3009  0.1899 -0.0553
 5824SOL    HW128931   1.803   0.046   2.526  1.3488  0.8036 -2.2355
 5824SOL    HW228932   1.824   0.173   2.460 -1.7197  0.0381 -1.5846
 5825SOL     OW28933   4.638   1.647   4.963 -0.0915  0.4255 -0.5200
 5825SOL    HW128934   4.704   1.657   5.032  2.5285  3.3178 -3.4283
 5825SOL    HW228935   4.665   1.560   4.934  0.3794 -0.4063  2.3555
 5826SOL     OW28936   2.048   3.165   8.997 -0.4935 -0.0408 -0.7013
 5826SOL    HW128937   2.063   3.204   9.083  1.2644 -2.0870 -0.0953
 5826SOL    HW228938   1.953   3.163   9.000 -0.4481 -0.1712  0.7082
 5827SOL     OW28939   2.168   3.453   6.709 -0.5838  0.2870  0.7425
 5827SOL    HW128940   2.261   3.433   6.697 -0.5654 -0.0992  1.5519
 5827SOL    HW228941   2.127   3.443   6.623  1.4023 -0.3164 -0.1333
 5828SOL     OW28942   1.268   2.460   4.924  0.0043  0.1377  0.2706
 5828SOL    HW128943   1.251   2.542   4.877 -0.4665 -0.1577 -0.0750
 5828SOL    HW228944   1.314   2.481   5.005  1.4104 -2.9644  0.2870
 5829SOL     OW28945   2.445   0.238  16.174 -0.3682 -0.2371 -0.2528
 5829SOL    HW128946   2.417   0.276  16.091 -1.0640  1.6745  0.8674
 5829SOL    HW228947   2.516   0.293  16.207 -0.8127  0.1899 -0.0114
 5830SOL     OW28948   2.604   1.755  13.876 -0.3334  0.6167 -0.3752
 5830SOL    HW128949   2.598   1.838  13.830  1.1768  1.4602  0.9716
 5830SOL    HW228950   2.539   1.763  13.946 -0.5955 -1.7470 -0.3354
 5831SOL     OW28951   0.546   2.639   3.229 -0.1479  0.3708 -0.8994
 5831SOL    HW128952   0.628   2.682   3.253 -0.3198  0.4382 -0.4391
 5831SOL    HW228953   0.494   2.715   3.202  1.4203  1.4989 -0.7246
 5832SOL     OW28954   2.977   2.241  17.275  0.5863 -0.6862 -0.0157
 5832SOL    HW128955   2.955   2.211  17.363  0.2770 -1.8310 -0.4784
 5832SOL    HW228956   2.959   2.334  17.288 -1.8915 -1.4224  1.8271
 5833SOL     OW28957   1.355   1.605   7.955  0.2700 -0.1102  0.4172
 5833SOL    HW128958   1.393   1.587   7.869 -2.6943 -0.4786 -0.8105
 5833SOL    HW228959   1.261   1.591   7.943  0.3260  0.1929 -0.4059
 5834SOL     OW28960   1.114   2.408  14.867 -0.5390  0.6728  0.5474
 5834SOL    HW128961   1.172   2.345  14.910 -2.6212 -1.2742  0.4747
 5834SOL    HW228962   1.182   2.475  14.854 -0.7991  0.2697 -2.7665
 5835SOL     OW28963   2.138   1.324  10.519  0.8342  0.4437 -0.2616
 5835SOL    HW128964   2.193   1.386  10.473 -0.7010  2.0227  0.0198
 5835SOL    HW228965   2.094   1.292  10.440  2.2210  0.5242 -1.0489
 5836SOL     OW28966   0.694   2.667  10.129  0.0041  0.4556 -0.3943
 5836SOL    HW128967   0.695   2.678  10.224  0.6918 -0.4181 -0.2989
 5836SOL    HW228968   0.758   2.597  10.119 -1.7260 -0.7503 -2.9385
 5837SOL     OW28969   0.707   1.170  13.151 -0.2180  0.1042 -0.0826
 5837SOL    HW128970   0.790   1.212  13.171 -1.2445  1.6863  0.8060
 5837SOL    HW228971   0.725   1.076  13.144  0.6374  0.1841  1.0460
 5838SOL     OW28972   2.251   2.533   9.173 -0.1627  0.1119 -0.0762
 5838SOL    HW128973   2.260   2.624   9.200  2.1631 -0.7237  1.9562
 5838SOL    HW228974   2.270   2.489   9.256 -0.1178 -1.8959 -1.1358
 5839SOL     OW28975   2.906   1.628   3.423 -0.7604 -0.2137 -0.8941
 5839SOL    HW128976   2.946   1.636   3.337  2.6613 -1.9532  0.5585
 5839SOL    HW228977   2.895   1.719   3.454 -2.5007 -0.7865  0.2189
 5840SOL     OW28978   3.864   2.919   3.754  0.2138 -0.0429  0.3420
 5840SOL    HW128979   3.863   3.004   3.798  0.1316  0.3749 -0.4681
 5840SOL    HW228980   3.796   2.924   3.687  0.1585  1.6781  0.5362
 5841SOL     OW28981   0.840   3.186   7.891  0.6778 -0.1366 -0.3209
 5841SOL    HW128982   0.792   3.252   7.942  0.3405 -1.4947  1.1365
 5841SOL    HW228983   0.890   3.143   7.960 -0.3671  0.0476  0.5611
 5842SOL     OW28984   3.705   2.849   2.266 -0.1271 -0.0379  0.1606
 5842SOL    HW128985   3.715   2.790   2.191  1.3945  0.0623  0.2801
 5842SOL    HW228986   3.771   2.917   2.250  1.1979 -1.2417  0.5043
 5843SOL     OW28987   2.400   2.885   8.800  0.2192 -0.1908 -0.8804
 5843SOL    HW128988   2.435   2.910   8.715  1.1430  0.5171 -0.2893
 5843SOL    HW228989   2.389   2.790   8.795 -0.8467 -0.1724  0.7300
 5844SOL     OW28990   2.060   3.987   4.577  0.3635  0.0599  0.4086
 5844SOL    HW128991   2.036   3.988   4.485 -0.4489 -0.2326  0.6158
 5844SOL    HW228992   2.135   4.045   4.564  0.2684 -0.4215 -2.1563
 5845SOL     OW28993   1.772   2.523   3.074 -0.4092  0.1327 -0.0872
 5845SOL    HW128994   1.745   2.493   2.988  1.2417 -0.1488 -0.5047
 5845SOL    HW228995   1.693   2.499   3.123 -0.3329  0.7601  0.3435
 5846SOL     OW28996   1.899   0.658  14.934  0.1848  1.0512  0.1476
 5846SOL    HW128997   1.880   0.669  15.028  0.7618  0.8211  0.2925
 5846SOL    HW228998   1.852   0.579  14.909 -0.7410  1.4500  0.6311
 5847SOL     OW28999   1.981   3.282   7.718 -0.6319 -0.3778 -0.2460
 5847SOL    HW129000   1.902   3.337   7.720  0.2978  0.9084  1.2838
 5847SOL    HW229001   1.951   3.216   7.780 -0.7799 -0.0980 -0.0149
 5848SOL     OW29002   2.316   1.003   7.835  0.1677 -0.1946  0.8650
 5848SOL    HW129003   2.354   0.979   7.751  2.9341 -0.2354  2.1424
 5848SOL    HW229004   2.397   1.036   7.874 -0.5005 -1.3800  3.2996
 5849SOL     OW29005   2.937   4.231   4.586 -0.6916 -0.1941  0.2346
 5849SOL    HW129006   2.848   4.241   4.618 -0.7611 -0.4390  0.1138
 5849SOL    HW229007   2.971   4.155   4.634  1.8100  1.3357  0.9212
 5850SOL     OW29008   1.220   3.508   4.998 -0.0550  0.1063  0.1712
 5850SOL    HW129009   1.192   3.595   4.967  0.8807 -0.0502 -1.0811
 5850SOL    HW229010   1.270   3.492   4.918  0.2152 -0.8248  0.5306
 5851SOL     OW29011   2.115   1.464   8.694 -0.4200  0.2673  0.1068
 5851SOL    HW129012   2.021   1.449   8.707 -0.4845  0.5446 -0.0408
 5851SOL    HW229013   2.128   1.538   8.754 -0.4760  1.3434 -1.2252
 5852SOL     OW29014   1.274   0.089   8.302 -0.0478  0.3309  0.4100
 5852SOL    HW129015   1.232   0.156   8.357 -0.3509 -1.1044  1.9358
 5852SOL    HW229016   1.305   0.030   8.371  1.1440  1.6673  1.0018
 5853SOL     OW29017   2.035   3.844  16.527 -0.0677  0.9013 -0.4246
 5853SOL    HW129018   2.082   3.834  16.444 -2.1458  2.6626 -1.8405
 5853SOL    HW229019   2.038   3.939  16.519 -0.4888  0.8531 -1.2559
 5854SOL     OW29020   3.978   1.877   5.286  0.3249  0.3559  0.2200
 5854SOL    HW129021   3.931   1.814   5.231  1.1027  0.0676 -0.1142
 5854SOL    HW229022   3.999   1.952   5.231  0.4021 -0.8017 -1.3375
 5855SOL     OW29023   0.844   1.282   7.216 -0.1827 -0.0293  0.7088
 5855SOL    HW129024   0.826   1.366   7.175  1.7089  0.4219  0.7991
 5855SOL    HW229025   0.823   1.223   7.143  3.6795 -1.2890  0.6447
 5856SOL     OW29026   4.669   2.167   9.097  0.0318  0.7431  0.5557
 5856SOL    HW129027   4.610   2.153   9.023 -1.0572  1.9575  1.2012
 5856SOL    HW229028   0.023   2.116   9.065 -0.5955 -0.4363  0.9440
 5857SOL     OW29029   1.935   3.503   0.893 -0.4726  0.0580  0.3860
 5857SOL    HW129030   1.919   3.557   0.816  0.5667 -0.2739 -0.0555
 5857SOL    HW229031   1.940   3.414   0.860  1.0957 -0.3373  1.7172
 5858SOL     OW29032   2.217   2.684   0.526  0.0031 -0.0700  0.0389
 5858SOL    HW129033   2.253   2.610   0.574  1.0008  1.2524  1.3251
 5858SOL    HW229034   2.131   2.690   0.566 -0.1809  1.5961 -0.6066
 5859SOL     OW29035   0.473   2.789   2.007  0.2393 -0.4407  0.3533
 5859SOL    HW129036   0.403   2.751   2.060 -0.9445  0.4967 -0.5468
 5859SOL    HW229037   0.517   2.715   1.965 -1.9473 -0.2252 -2.3026
 5860SOL     OW29038   4.230   0.733   8.949 -0.1250  0.1739  0.4961
 5860SOL    HW129039   4.147   0.696   8.918  1.0990 -0.8865 -1.4469
 5860SOL    HW229040   4.275   0.660   8.992  1.5199  0.9526  0.0759
 5861SOL     OW29041   3.753   3.416   6.751 -0.1578  0.0092 -0.0945
 5861SOL    HW129042   3.822   3.453   6.695  1.2191 -2.4791 -0.0361
 5861SOL    HW229043   3.755   3.475   6.826 -1.7534  0.8137 -0.6970
 5862SOL     OW29044   2.210   3.385   7.563  0.1011  0.3810  0.8914
 5862SOL    HW129045   2.132   3.348   7.604  0.2343  0.3604  1.1305
 5862SOL    HW229046   2.228   3.312   7.505  1.9906  0.8547  0.8567
 5863SOL     OW29047   0.607   3.583   0.620  0.6412 -0.0708 -0.0420
 5863SOL    HW129048   0.586   3.660   0.673  1.5779  1.0525 -1.3066
 5863SOL    HW229049   0.590   3.625   0.536  0.6236  0.2004  0.0985
 5864SOL     OW29050   3.522   3.625   8.007  0.2207 -0.8553 -0.0393
 5864SOL    HW129051   3.465   3.594   7.937 -2.7673  3.3878  0.5762
 5864SOL    HW229052   3.496   3.717   8.009 -0.8058 -1.1750  1.2587
 5865SOL     OW29053   0.131   2.176   2.395 -0.3340  0.0934  0.0061
 5865SOL    HW129054   0.049   2.128   2.383 -1.4048  1.2511  2.7590
 5865SOL    HW229055   0.100   2.260   2.361  0.8325  0.0778 -1.1145
 5866SOL     OW29056   1.407   3.038  13.327  0.2541  0.4378  0.0753
 5866SOL    HW129057   1.373   3.093  13.398 -1.2742 -1.1110  0.5169
 5866SOL    HW229058   1.469   3.095  13.281  0.0841 -0.0657 -0.7566
 5867SOL     OW29059   3.076   0.142   4.889  0.2930 -0.1343  0.4075
 5867SOL    HW129060   3.144   0.203   4.916 -1.6383  1.9791  0.5293
 5867SOL    HW229061   3.136   0.101   4.827 -0.5574 -1.7554  0.6488
 5868SOL     OW29062   1.608   1.824   4.273 -0.3634 -0.2317 -0.2358
 5868SOL    HW129063   1.521   1.829   4.233 -0.5458 -2.5524 -0.1335
 5868SOL    HW229064   1.593   1.857   4.361 -0.2227  1.4737 -0.8537
 5869SOL     OW29065   2.850   3.552   3.517 -0.2536 -0.5230 -0.2000
 5869SOL    HW129066   2.881   3.474   3.471 -0.1636 -1.1595  0.9518
 5869SOL    HW229067   2.771   3.567   3.465  0.0647  0.2255 -0.4658
 5870SOL     OW29068   2.999   3.930   0.290  0.3441 -0.6886 -0.0870
 5870SOL    HW129069   2.987   3.990   0.364 -3.0641 -0.5165 -0.8014
 5870SOL    HW229070   2.928   3.950   0.229  0.1835  2.0395  0.9767
 5871SOL     OW29071   1.117   1.760   4.369  0.6555 -0.4190  0.1605
 5871SOL    HW129072   1.119   1.856   4.375  0.9730 -0.2696 -2.2302
 5871SOL    HW229073   1.028   1.738   4.339  0.7163  1.5730 -1.4936
 5872SOL     OW29074   0.994   3.398   9.650  0.5486  0.0658 -0.3735
 5872SOL    HW129075   1.012   3.337   9.721  0.5001 -0.3631 -0.7256
 5872SOL    HW229076   0.996   3.337   9.576  0.6516 -0.4316  0.0379
 5873SOL     OW29077   1.785   3.054  14.885 -0.1472  0.3415  0.2358
 5873SOL    HW129078   1.737   3.122  14.932 -0.7364  0.8529 -1.0910
 5873SOL    HW229079   1.754   2.977  14.931  1.1936 -0.5383 -0.3382
 5874SOL     OW29080   2.408   1.687   4.941  0.5118  0.5388  0.1283
 5874SOL    HW129081   2.429   1.641   5.022 -1.3116 -0.8020 -0.1494
 5874SOL    HW229082   2.376   1.775   4.963 -1.1838  0.5491 -2.3319
 5875SOL     OW29083   1.570   3.379   5.782 -0.7209 -0.3495  0.6280
 5875SOL    HW129084   1.607   3.456   5.825 -0.2019 -0.2215 -0.0447
 5875SOL    HW229085   1.501   3.428   5.737  0.2165  0.4841  0.0792
 5876SOL     OW29086   1.688   4.064  17.320  0.1286 -0.5966  0.2018
 5876SOL    HW129087   1.724   4.026  17.240  1.7103 -2.5269  1.8251
 5876SOL    HW229088   1.771   4.088  17.361  0.4676 -1.5493  0.0789
 5877SOL     OW29089   2.037   4.040   4.326  0.0847  0.0402 -0.5982
 5877SOL    HW129090   2.074   3.973   4.269 -0.5896 -0.7082 -0.1511
 5877SOL    HW229091   1.964   4.082   4.281 -0.7543  1.5547  2.2122
 5878SOL     OW29092   0.045   1.035   7.369 -0.4209 -0.5145 -0.3930
 5878SOL    HW129093   0.042   1.044   7.464  1.6284 -0.7205 -0.3024
 5878SOL    HW229094   0.138   1.052   7.354 -0.1400 -1.3510  0.3826
 5879SOL     OW29095   2.354   1.967   3.771 -0.0022 -0.0076  0.3547
 5879SOL    HW129096   2.292   1.939   3.838 -0.8661  1.3894  0.1434
 5879SOL    HW229097   2.339   2.062   3.771  1.7460  0.2572  2.5360
 5880SOL     OW29098   2.144   3.144   1.975  0.1130 -0.9292 -0.1581
 5880SOL    HW129099   2.222   3.118   1.924 -1.0015 -2.0559 -1.2801
 5880SOL    HW229100   2.154   3.101   2.060 -0.8224  0.5069  0.6629
 5881SOL     OW29101   4.632   3.042   6.307  0.2940 -0.1709 -0.4318
 5881SOL    HW129102   0.005   3.033   6.316  0.5458  1.4234 -1.4067
 5881SOL    HW229103   4.599   2.954   6.290  1.1307 -0.8826  1.5872
 5882SOL     OW29104   0.726   4.594  16.330  0.2804 -0.4819  0.3682
 5882SOL    HW129105   0.751   4.684  16.353 -1.6399  0.7023 -2.1449
 5882SOL    HW229106   0.670   4.575  16.405  0.8435  0.4655  1.0327
 5883SOL     OW29107   3.706   0.596  17.624 -0.6866 -0.1250  0.6546
 5883SOL    HW129108   3.757   0.567  17.548 -2.2954  1.8237 -1.1864
 5883SOL    HW229109   3.703   0.689  17.598 -3.3465 -0.6279 -0.8877
 5884SOL     OW29110   1.028   0.139  14.486 -0.7075 -0.6195 -0.4236
 5884SOL    HW129111   1.089   0.197  14.440  0.2447 -2.2167 -1.1435
 5884SOL    HW229112   0.970   0.202  14.530  2.4417  1.4699  0.7890
 5885SOL     OW29113   3.626   2.540   7.037  0.6327 -0.2362  0.1385
 5885SOL    HW129114   3.660   2.474   7.098 -3.2394 -0.2842  2.2248
 5885SOL    HW229115   3.666   2.505   6.957 -0.2500  0.3662 -0.5671
 5886SOL     OW29116   3.566   2.059   7.107  0.4041 -0.0707  0.3869
 5886SOL    HW129117   3.654   2.029   7.131 -0.0564 -0.6100  1.4263
 5886SOL    HW229118   3.543   1.990   7.045  2.2725  1.0094 -1.5038
 5887SOL     OW29119   0.341   1.079   9.227  0.0590  0.1565  0.0969
 5887SOL    HW129120   0.372   0.991   9.248  2.5031  1.2847  1.2282
 5887SOL    HW229121   0.365   1.124   9.308 -1.9724  0.9968  0.2320
 5888SOL     OW29122   2.149   2.500   2.532 -0.0864 -0.2096  0.0785
 5888SOL    HW129123   2.224   2.559   2.536 -1.2019  1.2236 -0.3306
 5888SOL    HW229124   2.161   2.457   2.617  2.5744  1.7191  0.6839
 5889SOL     OW29125   1.128   3.352  17.607  0.6497  0.6547 -0.0717
 5889SOL    HW129126   1.201   3.294  17.629  0.9839  0.9093 -0.5006
 5889SOL    HW229127   1.161   3.436  17.639  0.6036  0.1410  1.3001
 5890SOL     OW29128   3.540   4.555  11.881  0.1886 -0.2562  0.2736
 5890SOL    HW129129   3.484   4.587  11.951 -0.2771 -0.3333 -0.0615
 5890SOL    HW229130   3.526   4.461  11.884  0.2770 -0.2864 -0.2275
 5891SOL     OW29131   1.192   3.570   8.015  0.7136  0.4342  0.3078
 5891SOL    HW129132   1.187   3.560   7.920 -0.7093  0.8120  0.3350
 5891SOL    HW229133   1.285   3.557   8.033  0.4518  0.0590  1.3444
 5892SOL     OW29134   4.624   0.579  12.756  0.1627 -0.3306 -0.0119
 5892SOL    HW129135   4.567   0.580  12.832 -1.6821 -0.2304 -1.3952
 5892SOL    HW229136   4.613   0.489  12.724 -1.5130 -0.5948  1.3231
 5893SOL     OW29137   3.003   2.360   6.533  0.5601 -0.2687  0.4876
 5893SOL    HW129138   3.033   2.450   6.546 -1.0157  0.3211  0.0964
 5893SOL    HW229139   2.918   2.369   6.576  0.6801  0.5818  0.5387
 5894SOL     OW29140   2.191   1.296   5.435 -0.0735 -0.3571 -0.7188
 5894SOL    HW129141   2.149   1.375   5.399 -1.2416 -0.9295 -0.6173
 5894SOL    HW229142   2.116   1.246   5.466  0.5689  0.3575  1.9817
 5895SOL     OW29143   3.758   3.438   7.938 -0.4870  0.3475  0.1613
 5895SOL    HW129144   3.668   3.450   7.967  0.1095 -0.0186  2.2157
 5895SOL    HW229145   3.749   3.462   7.846  0.7098  0.1095 -0.0223
 5896SOL     OW29146   3.807   3.472  12.670 -0.1665  0.1174  0.0101
 5896SOL    HW129147   3.758   3.554  12.662  1.0868  0.5538 -2.9363
 5896SOL    HW229148   3.873   3.483  12.602 -0.6681  0.8143 -0.3675
 5897SOL     OW29149   0.942   0.786   5.466  0.1635 -0.2744  0.2853
 5897SOL    HW129150   1.033   0.759   5.477  0.3833 -0.2091 -1.3939
 5897SOL    HW229151   0.938   0.785   5.371 -2.1497  1.6586  0.3717
 5898SOL     OW29152   3.373   0.337   3.444 -0.2043  0.2126 -0.1467
 5898SOL    HW129153   3.454   0.302   3.407 -1.1029 -1.6148 -0.3889
 5898SOL    HW229154   3.403   0.413   3.495 -0.3508  1.1852 -1.5210
 5899SOL     OW29155   3.214   2.765  11.350  0.0232  0.2176  0.3281
 5899SOL    HW129156   3.259   2.806  11.276 -0.4409 -0.3799 -0.2755
 5899SOL    HW229157   3.130   2.742  11.311 -0.6308  0.5059  1.5532
 5900SOL     OW29158   2.875   0.441   0.049  0.8736  0.1123  0.1855
 5900SOL    HW129159   2.929   0.371   0.085 -0.1801 -0.2748  1.0198
 5900SOL    HW229160   2.900   0.507   0.114 -1.7658 -0.4391  1.7907
 5901SOL     OW29161   1.446   3.265   6.224 -0.5095  0.2797 -0.0893
 5901SOL    HW129162   1.372   3.290   6.279 -0.9927  1.2848 -1.1889
 5901SOL    HW229163   1.502   3.342   6.240 -0.2580 -0.4613  2.5630
 5902SOL     OW29164   3.185   1.146   5.005  0.1651 -0.3587 -0.1124
 5902SOL    HW129165   3.230   1.069   5.040 -1.0068 -1.4684 -1.0518
 5902SOL    HW229166   3.171   1.206   5.078  1.0774  0.7991 -0.8862
 5903SOL     OW29167   0.534   4.671  16.145 -0.5318 -0.1185 -0.4297
 5903SOL    HW129168   0.606   4.642  16.201 -1.0601 -1.8688 -0.6611
 5903SOL    HW229169   0.519   4.589  16.098 -0.8368 -0.6935  0.6617
 5904SOL     OW29170   3.071   0.288  13.476 -0.1508  0.1831 -0.0430
 5904SOL    HW129171   3.153   0.243  13.495  0.3839  1.1636 -0.0054
 5904SOL    HW229172   3.093   0.328  13.392  1.3575  0.3783  0.4312
 5905SOL     OW29173   3.834   4.144  13.909  0.2261 -0.1784  0.3833
 5905SOL    HW129174   3.839   4.197  13.830 -0.6155  1.4781  1.4480
 5905SOL    HW229175   3.916   4.163  13.955 -0.1152 -2.5526  2.0096
 5906SOL     OW29176   3.641   2.373   2.675  0.7495  0.5236  0.2511
 5906SOL    HW129177   3.667   2.308   2.611 -4.0126 -0.6358 -0.5151
 5906SOL    HW229178   3.605   2.441   2.618  2.2028  0.0317 -1.2507
 5907SOL     OW29179   2.853   1.299   9.443 -0.0743 -0.0464  0.0982
 5907SOL    HW129180   2.766   1.313   9.480 -0.2151 -0.2354 -0.1636
 5907SOL    HW229181   2.891   1.250   9.516  0.9664 -1.9585 -1.7214
 5908SOL     OW29182   0.543   0.600   3.737 -0.5806  0.1295  0.0456
 5908SOL    HW129183   0.478   0.530   3.728 -1.1935  0.9414 -2.0044
 5908SOL    HW229184   0.560   0.614   3.830  0.7390 -0.2070 -0.1425
 5909SOL     OW29185   1.383   4.677   8.530  0.2852 -0.1722  0.4741
 5909SOL    HW129186   1.466   4.677   8.482  0.6254  0.7238  1.0676
 5909SOL    HW229187   1.419   4.712   8.611 -1.4539 -0.1627  1.2265
 5910SOL     OW29188   1.844   0.708   4.764 -0.2691 -0.3278  0.1971
 5910SOL    HW129189   1.867   0.677   4.851 -0.2266  1.0850  0.6811
 5910SOL    HW229190   1.881   0.796   4.762 -0.4443 -0.2452  0.8875
 5911SOL     OW29191   3.767   3.154   0.614 -0.2103 -0.0516 -0.4279
 5911SOL    HW129192   3.740   3.137   0.524  0.4471  0.1415 -0.6603
 5911SOL    HW229193   3.716   3.234   0.629  0.8951  0.8094 -1.2759
 5912SOL     OW29194   3.476   4.081  10.008  0.4823  0.2374  0.0148
 5912SOL    HW129195   3.477   4.036  10.093  1.4720 -1.1719 -0.7543
 5912SOL    HW229196   3.435   4.160  10.043 -1.0927 -0.6543  0.1827
 5913SOL     OW29197   3.096   2.813   2.815  0.7207 -0.3924 -0.6809
 5913SOL    HW129198   3.090   2.765   2.733  0.6391  1.2601 -1.6526
 5913SOL    HW229199   3.100   2.906   2.790 -2.1640  0.9097  3.5388
 5914SOL     OW29200   0.000   3.146   5.692 -0.5166  0.2853 -0.3056
 5914SOL    HW129201   4.663   3.213   5.729 -0.8817 -0.6767  0.8908
 5914SOL    HW229202   4.721   3.157   5.597  0.1858 -2.4782 -0.6261
 5915SOL     OW29203   0.584   4.509   5.251  0.8508 -0.8536  1.1574
 5915SOL    HW129204   0.563   4.552   5.168  0.5107 -0.9092  1.2123
 5915SOL    HW229205   0.537   4.428   5.230 -1.0026  0.1798  1.2678
 5916SOL     OW29206   3.578   1.039  13.024 -0.3328  0.0549 -0.1261
 5916SOL    HW129207   3.527   1.039  13.105 -1.0993 -0.4575 -0.6003
 5916SOL    HW229208   3.607   1.130  13.022  0.4816 -0.2660 -2.2536
 5917SOL     OW29209   0.402   3.507   3.895  0.0290 -0.3989  0.6230
 5917SOL    HW129210   0.431   3.505   3.804  2.1244 -0.3534  1.2897
 5917SOL    HW229211   0.412   3.600   3.915 -1.7087  0.4249 -2.3804
 5918SOL     OW29212   2.403   0.267   0.319 -0.5373 -0.2988 -0.1271
 5918SOL    HW129213   2.477   0.244   0.375  0.1689 -1.1381 -1.3879
 5918SOL    HW229214   2.437   0.344   0.275 -1.3347 -1.2553 -2.4406
 5919SOL     OW29215   2.935   0.869  11.617 -0.0308 -0.4476  0.0381
 5919SOL    HW129216   2.973   0.782  11.627 -0.1079 -0.6363 -1.3496
 5919SOL    HW229217   2.862   0.841  11.562 -1.4195  2.8973  0.1581
 5920SOL     OW29218   3.166   3.264   5.287 -0.0460  0.0460  0.3264
 5920SOL    HW129219   3.121   3.183   5.265 -1.5688  0.3898  2.1109
 5920SOL    HW229220   3.225   3.252   5.362 -0.7122 -1.7697  0.5468
 5921SOL     OW29221   3.555   1.413   7.139 -0.1534  0.1985 -0.4062
 5921SOL    HW129222   3.562   1.494   7.090 -0.8302 -0.7030 -1.9794
 5921SOL    HW229223   3.508   1.450   7.214  1.8166  1.1187  0.3824
 5922SOL     OW29224   1.206   3.603  11.535  0.0025  0.3657  0.6459
 5922SOL    HW129225   1.282   3.594  11.593  0.2206  0.3347  0.3563
 5922SOL    HW229226   1.243   3.571  11.453  0.0962  0.8872  0.4880
 5923SOL     OW29227   4.203   0.451   6.042  0.3214 -0.2929  0.0435
 5923SOL    HW129228   4.206   0.530   6.096  1.9501  0.6058 -1.3431
 5923SOL    HW229229   4.292   0.450   6.007  1.0491  1.6697  1.7952
 5924SOL     OW29230   4.046   4.256   7.790  0.4822 -0.1833 -0.4077
 5924SOL    HW129231   4.086   4.298   7.714  1.0059  1.2637  0.6735
 5924SOL    HW229232   4.069   4.304   7.869 -0.1441  0.6201 -0.7133
 5925SOL     OW29233   3.644   2.822   2.533 -0.3299 -0.1761 -0.5019
 5925SOL    HW129234   3.648   2.836   2.439  0.4762  0.1032 -0.4263
 5925SOL    HW229235   3.735   2.838   2.559 -0.1106 -2.9546  0.4201
 5926SOL     OW29236   1.263   0.890   8.772 -0.3687  0.3048  0.4423
 5926SOL    HW129237   1.174   0.922   8.784  0.6576  2.4446  2.3932
 5926SOL    HW229238   1.285   0.934   8.690 -1.9090 -1.8669 -1.1216
 5927SOL     OW29239   3.722   3.559   2.946 -0.0480  0.2435 -0.5671
 5927SOL    HW129240   3.738   3.512   2.865  0.5920 -3.1747  1.5672
 5927SOL    HW229241   3.637   3.518   2.958  1.1810 -1.9995  0.3394
 5928SOL     OW29242   0.723   2.965   3.167 -0.2280  0.1856 -0.8660
 5928SOL    HW129243   0.794   2.939   3.108  2.1922  1.7868  1.3169
 5928SOL    HW229244   0.743   2.896   3.229  2.6805  0.1084 -1.8732
 5929SOL     OW29245   1.266   3.557   3.745  0.3820  0.1627  0.3295
 5929SOL    HW129246   1.214   3.507   3.808 -1.3998  2.7515  0.9470
 5929SOL    HW229247   1.307   3.620   3.805  0.9386 -0.5876  0.7249
 5930SOL     OW29248   4.583   2.279   3.240  0.2028 -0.4430  0.0160
 5930SOL    HW129249   4.544   2.201   3.202  1.0279 -1.7596  1.8615
 5930SOL    HW229250   4.507   2.325   3.278 -0.4086 -1.1990 -0.3089
 5931SOL     OW29251   3.288   0.992   2.728 -0.2324 -0.4019  0.1326
 5931SOL    HW129252   3.297   0.964   2.637  1.0580 -1.0877  0.4779
 5931SOL    HW229253   3.356   0.935   2.763 -0.0248 -0.3896 -0.2512
 5932SOL     OW29254   3.007   3.589   2.503  0.6723 -0.0915  0.2792
 5932SOL    HW129255   3.050   3.536   2.571 -0.0492 -1.3839 -0.2628
 5932SOL    HW229256   3.079   3.651   2.491 -0.7520  1.4341 -0.2211
 5933SOL     OW29257   3.208   1.123  10.545 -0.2489  0.0788 -0.3229
 5933SOL    HW129258   3.173   1.078  10.622 -0.2366 -1.6046 -1.2895
 5933SOL    HW229259   3.138   1.188  10.544  0.5100  0.8938  0.9234
 5934SOL     OW29260   2.520   4.673   3.233 -0.5888  0.5212 -0.4494
 5934SOL    HW129261   2.430   4.688   3.205  0.6470  2.0163 -3.6867
 5934SOL    HW229262   2.525   4.712   3.320  0.9083 -0.1896 -0.2062
 5935SOL     OW29263   2.855   3.746   0.636  0.7643  0.5558  0.5805
 5935SOL    HW129264   2.893   3.822   0.593 -0.3816  0.5236 -0.4819
 5935SOL    HW229265   2.823   3.778   0.720 -0.1048 -0.7112  0.7281
 5936SOL     OW29266   3.410   0.106   0.417  0.1102 -0.2289  0.1847
 5936SOL    HW129267   3.487   0.105   0.360 -0.3403  1.0228 -0.4506
 5936SOL    HW229268   3.450   0.076   0.498  2.3572  0.6053 -0.5921
 5937SOL     OW29269   2.380   3.123  14.285 -0.3531 -0.3685  0.1637
 5937SOL    HW129270   2.351   3.186  14.219  2.2158  0.8823  0.2091
 5937SOL    HW229271   2.369   3.044  14.232 -0.4187  0.0216 -0.3927
 5938SOL     OW29272   3.404   1.874   5.078 -0.0881 -0.5374  0.0225
 5938SOL    HW129273   3.447   1.863   5.163 -0.6512  0.9549  0.5147
 5938SOL    HW229274   3.316   1.847   5.102 -0.0636  0.2917  1.0805
 5939SOL     OW29275   2.155   3.725  16.290  0.3483 -0.0181 -0.6363
 5939SOL    HW129276   2.141   3.725  16.195  0.1559  0.9772 -0.6115
 5939SOL    HW229277   2.149   3.635  16.322  0.4722  0.6861  1.3596
 5940SOL     OW29278   0.956   0.370   8.539  0.9277  0.4423  0.1860
 5940SOL    HW129279   0.943   0.407   8.626 -0.3642  1.9365 -0.6551
 5940SOL    HW229280   1.002   0.287   8.553 -1.8452 -1.2208 -0.7106
 5941SOL     OW29281   2.836   0.812   2.061  0.4749 -0.2215  0.0679
 5941SOL    HW129282   2.786   0.874   2.008 -0.2642 -1.1919 -0.3788
 5941SOL    HW229283   2.803   0.729   2.027 -1.2319  0.6849 -0.4530
 5942SOL     OW29284   1.175   0.329   0.380 -0.2366 -0.5840  0.1458
 5942SOL    HW129285   1.180   0.422   0.357 -0.5697 -1.1206 -2.1201
 5942SOL    HW229286   1.131   0.329   0.465 -3.7584  0.8931 -1.6725
 5943SOL     OW29287   3.440   4.059   8.292  0.0750 -0.1083 -0.0286
 5943SOL    HW129288   3.491   4.140   8.291  0.9274 -0.6694 -1.2969
 5943SOL    HW229289   3.400   4.057   8.205  1.1846 -1.9924 -0.5083
 5944SOL     OW29290   1.902   3.962   0.731 -0.5477  0.0888  0.1990
 5944SOL    HW129291   1.814   3.989   0.706 -0.3032 -0.3794 -1.1723
 5944SOL    HW229292   1.930   4.031   0.791 -2.2672  0.3973  0.6347
 5945SOL     OW29293   2.650   4.449  14.142  0.8195  0.0197  0.2314
 5945SOL    HW129294   2.591   4.524  14.157  0.2126 -0.1921 -1.0761
 5945SOL    HW229295   2.590   4.378  14.119  0.8552 -0.4011  1.4190
 5946SOL     OW29296   1.887   3.302  15.206 -0.6241 -0.2025  0.8601
 5946SOL    HW129297   1.968   3.288  15.255 -0.2041 -0.3127  0.1418
 5946SOL    HW229298   1.909   3.253  15.126 -0.9650  0.4150  0.3880
 5947SOL     OW29299   0.681   3.283   4.564 -0.4738  0.1416 -0.1933
 5947SOL    HW129300   0.677   3.208   4.623  2.9478  0.0451 -0.0880
 5947SOL    HW229301   0.765   3.269   4.521  0.6475 -0.0483  2.0204
 5948SOL     OW29302   0.606   1.019   2.692  0.0175 -0.2853 -0.2902
 5948SOL    HW129303   0.512   1.000   2.682 -0.1419  0.2946  0.1025
 5948SOL    HW229304   0.641   0.952   2.634 -0.6766 -0.9328  0.0439
 5949SOL     OW29305   2.640   0.658   7.003 -0.2139  0.2481 -0.1797
 5949SOL    HW129306   2.674   0.719   7.068 -0.1546  1.1320 -1.0368
 5949SOL    HW229307   2.553   0.634   7.034  0.1373 -0.3177  0.3783
 5950SOL     OW29308   1.661   2.789  14.958  0.2498  0.3597  0.1057
 5950SOL    HW129309   1.611   2.809  14.879 -0.4336 -2.1437 -0.1038
 5950SOL    HW229310   1.649   2.694  14.967  0.2930  0.5454  2.0220
 5951SOL     OW29311   3.799   1.379   5.473  0.0858 -0.0605 -0.2407
 5951SOL    HW129312   3.829   1.407   5.559  2.3275  1.1760 -1.4329
 5951SOL    HW229313   3.882   1.362   5.429  1.5992  1.1989  2.1279
 5952SOL     OW29314   4.123   4.699   5.698 -0.3671 -0.3319 -0.3139
 5952SOL    HW129315   4.085   4.611   5.696  0.6708 -0.7668 -0.8372
 5952SOL    HW229316   4.166   4.699   5.784 -0.6278  1.0327 -0.1814
 5953SOL     OW29317   4.274   1.742   4.127  0.1664  0.6203 -0.0433
 5953SOL    HW129318   4.250   1.820   4.177 -0.2174  0.9220 -0.6994
 5953SOL    HW229319   4.336   1.772   4.060  0.4886 -2.1316 -0.9764
 5954SOL     OW29320   3.853   0.599  10.919  0.5448  0.1588  0.3743
 5954SOL    HW129321   3.908   0.613  10.842 -0.1539  0.0712 -0.1356
 5954SOL    HW229322   3.769   0.635  10.891  1.2734 -0.7661 -2.9660
 5955SOL     OW29323   2.948   0.269   3.610  0.4607 -0.3720 -0.1142
 5955SOL    HW129324   2.950   0.217   3.690 -1.1735 -0.3514 -0.0716
 5955SOL    HW229325   3.014   0.225   3.556  0.0831  0.4239 -1.2431
 5956SOL     OW29326   2.321   3.817   5.312  0.0556 -0.8248  0.1206
 5956SOL    HW129327   2.315   3.824   5.217  1.9578 -1.6913 -0.0537
 5956SOL    HW229328   2.416   3.825   5.311  0.1666 -2.1262  0.3094
 5957SOL     OW29329   1.186   2.939   7.818  0.2842 -0.2386  0.4339
 5957SOL    HW129330   1.163   2.950   7.726  0.1030 -1.5301  0.3310
 5957SOL    HW229331   1.279   2.960   7.816  0.3442 -0.6535 -1.0684
 5958SOL     OW29332   0.736   0.601   8.451  0.3666  0.1405 -0.2150
 5958SOL    HW129333   0.663   0.541   8.441  2.0896 -1.6181 -2.2678
 5958SOL    HW229334   0.741   0.611   8.546  0.4553  1.3100 -0.3447
 5959SOL     OW29335   0.809   3.976   5.989 -0.1486 -0.6130  0.2008
 5959SOL    HW129336   0.724   3.944   5.959  0.0599 -2.0013  1.1064
 5959SOL    HW229337   0.788   4.009   6.076 -0.8201 -0.0901 -0.1525
 5960SOL     OW29338   4.321   0.532   9.101 -0.0804  0.2511  0.2077
 5960SOL    HW129339   4.291   0.523   9.192 -0.8506  0.2417 -0.0425
 5960SOL    HW229340   4.270   0.456   9.072 -2.0781  2.1899 -1.4236
 5961SOL     OW29341   1.862   2.322   9.876  0.1546 -0.3826  0.3451
 5961SOL    HW129342   1.787   2.276   9.838  0.1753 -1.5684  1.7221
 5961SOL    HW229343   1.848   2.305   9.970 -0.5764 -0.9667  0.1337
 5962SOL     OW29344   3.962   1.314   1.098 -0.1067 -0.3861  0.2321
 5962SOL    HW129345   4.023   1.321   1.172  1.0060  0.4802 -0.7702
 5962SOL    HW229346   4.020   1.286   1.027  0.0907 -1.1893  0.7094
 5963SOL     OW29347   4.676   0.804   6.925 -0.1474  0.2607 -0.2536
 5963SOL    HW129348   4.689   0.897   6.908  0.0657  0.3386  0.3135
 5963SOL    HW229349   0.027   0.789   6.987 -0.9651 -0.7031  0.4746
 5964SOL     OW29350   3.476   0.990   6.110 -0.2558 -0.4395  0.0834
 5964SOL    HW129351   3.432   1.035   6.181  0.2433 -0.3665  0.3451
 5964SOL    HW229352   3.565   1.026   6.107 -0.0372 -0.8578  1.6611
 5965SOL     OW29353   1.821   0.673  15.207  0.4597  0.2724 -0.1375
 5965SOL    HW129354   1.857   0.637  15.288 -0.9269 -0.0832  0.3097
 5965SOL    HW229355   1.807   0.763  15.235  0.0444  0.4510 -0.8995
 5966SOL     OW29356   2.821   0.232  10.430  0.2303 -0.0371  0.1709
 5966SOL    HW129357   2.866   0.293  10.489  0.4511 -0.8345  0.8284
 5966SOL    HW229358   2.887   0.226  10.361  0.0551 -0.8162  0.0772
 5967SOL     OW29359   1.689   1.176   8.496 -0.2603 -0.2158 -0.0332
 5967SOL    HW129360   1.782   1.183   8.519  0.2527 -2.2741 -1.5158
 5967SOL    HW229361   1.652   1.212   8.576 -0.5401  0.1453 -0.3256
 5968SOL     OW29362   0.928   1.418  14.864 -0.3236 -0.1549 -0.1766
 5968SOL    HW129363   0.883   1.359  14.924  0.2191 -0.8372 -0.4357
 5968SOL    HW229364   0.868   1.439  14.793  0.0865  0.7362 -0.2615
 5969SOL     OW29365   1.709   2.242   8.552  0.0519 -0.8367  0.0964
 5969SOL    HW129366   1.653   2.290   8.614  0.6301  1.3102 -1.0253
 5969SOL    HW229367   1.682   2.156   8.584 -0.2078 -0.1029  1.8374
 5970SOL     OW29368   3.904   4.451   2.297  0.4458  0.6844 -0.1100
 5970SOL    HW129369   3.910   4.542   2.268  0.0121  1.3817  1.9858
 5970SOL    HW229370   3.992   4.424   2.270  0.9083  0.9144  1.1616
 5971SOL     OW29371   1.311   0.692   7.640  0.5844 -0.1840 -0.1822
 5971SOL    HW129372   1.262   0.706   7.722  0.7203  1.1263 -0.3336
 5971SOL    HW229373   1.381   0.754   7.657 -0.1827  0.2438  1.4575
 5972SOL     OW29374   4.456   3.425  17.413 -0.5376  0.0868 -0.0420
 5972SOL    HW129375   4.456   3.368  17.336  2.0390  0.4632 -0.3105
 5972SOL    HW229376   4.370   3.415  17.455 -0.9950 -0.7211 -1.1682
 5973SOL     OW29377   2.612   1.979   3.103  0.2303  0.4699  0.4963
 5973SOL    HW129378   2.560   1.919   3.156  1.2800 -1.6651 -0.8953
 5973SOL    HW229379   2.553   2.054   3.101 -1.4206 -0.8681 -1.1835
 5974SOL     OW29380   1.200   1.280  11.977  0.5128 -0.1407 -0.0569
 5974SOL    HW129381   1.178   1.354  12.033  0.2650  0.3563 -0.8048
 5974SOL    HW229382   1.122   1.283  11.922  0.5690 -0.6965 -0.1672
 5975SOL     OW29383   4.611   3.447   3.371 -0.0915  0.0361 -0.1613
 5975SOL    HW129384   4.682   3.431   3.433 -0.5633  1.7086  0.8089
 5975SOL    HW229385   4.614   3.543   3.379 -2.7677  0.0649  0.4131
 5976SOL     OW29386   4.446   3.423   7.059 -0.0906 -0.7399  0.7783
 5976SOL    HW129387   4.537   3.432   7.089  0.2207 -1.9399  0.1992
 5976SOL    HW229388   4.400   3.456   7.136  0.5763  1.5459  0.1754
 5977SOL     OW29389   0.525   3.873   1.796 -0.0318  0.1055  0.1509
 5977SOL    HW129390   0.442   3.922   1.799  0.1869  0.7684 -4.3602
 5977SOL    HW229391   0.539   3.862   1.890  0.9834 -0.8385 -0.1227
 5978SOL     OW29392   3.639   3.770   8.792 -0.2279  0.0287 -0.8026
 5978SOL    HW129393   3.582   3.842   8.765 -2.3367 -0.7556  1.5902
 5978SOL    HW229394   3.603   3.703   8.734 -1.9272 -2.8611  3.7038
 5979SOL     OW29395   1.689   3.541   9.024 -0.4365  0.4388  0.0538
 5979SOL    HW129396   1.728   3.626   9.003 -0.6059  0.6170  0.4796
 5979SOL    HW229397   1.686   3.547   9.119 -0.5472 -2.0098  0.1921
 5980SOL     OW29398   0.180   0.976   8.894  0.4303 -0.1623  0.3588
 5980SOL    HW129399   0.186   1.002   8.802  0.1564 -0.1020  0.3584
 5980SOL    HW229400   0.188   0.880   8.896  1.3152 -0.0043  4.3806
 5981SOL     OW29401   0.275   4.220   4.524 -0.3418 -0.2912  0.3702
 5981SOL    HW129402   0.207   4.155   4.544  0.6880 -1.8244 -1.1687
 5981SOL    HW229403   0.244   4.300   4.567 -1.8671 -0.9982  0.5777
 5982SOL     OW29404   2.458   4.623   4.653 -0.4979  0.5781 -0.2240
 5982SOL    HW129405   2.493   4.574   4.579  0.2621 -0.2947  0.7136
 5982SOL    HW229406   2.505   4.706   4.648 -0.0405  0.4310  1.5668
 5983SOL     OW29407   3.765   2.919  14.833 -0.2297  0.1011 -0.4057
 5983SOL    HW129408   3.757   2.932  14.738 -2.4719  0.3326 -0.2040
 5983SOL    HW229409   3.766   3.013  14.854 -1.4828  0.7271 -3.0856
 5984SOL     OW29410   3.590   1.972   0.939  0.2299 -0.4144 -0.0424
 5984SOL    HW129411   3.661   1.917   0.971  0.7852  0.5365  0.3591
 5984SOL    HW229412   3.538   1.917   0.881 -0.2816  0.9931 -0.9036
 5985SOL     OW29413   2.331   0.053   3.000 -0.3865 -0.5251 -0.4950
 5985SOL    HW129414   2.385   0.131   3.010  0.2257 -1.2762  2.1056
 5985SOL    HW229415   2.345   0.029   2.908  2.0400 -1.4026  0.0724
 5986SOL     OW29416   4.681   4.595   3.118  0.5018  0.1902  0.3243
 5986SOL    HW129417   4.663   4.531   3.049  1.5446  0.3466 -0.0966
 5986SOL    HW229418   4.604   4.652   3.123  0.8246  0.5897  0.6819
 5987SOL     OW29419   1.422   2.224  12.494  0.9119 -0.5466  0.2892
 5987SOL    HW129420   1.452   2.197  12.407  0.9410 -0.6476  0.3306
 5987SOL    HW229421   1.329   2.202  12.487  1.2625 -2.0579  0.2878
 5988SOL     OW29422   0.447   2.278   5.260 -0.1782 -0.0651 -0.3789
 5988SOL    HW129423   0.481   2.193   5.287  2.5914  1.2940  0.3791
 5988SOL    HW229424   0.387   2.304   5.330 -0.7297 -1.2165 -0.4278
 5989SOL     OW29425   4.013   3.374  13.397 -0.6548  0.0289 -0.2599
 5989SOL    HW129426   4.048   3.362  13.309  1.7135  1.1828  0.5129
 5989SOL    HW229427   3.957   3.447  13.372  1.6719  1.7898 -0.3359
 5990SOL     OW29428   4.242   2.760   7.008  0.0544  0.2246 -0.2715
 5990SOL    HW129429   4.331   2.780   7.039 -0.7410  0.4403  1.8058
 5990SOL    HW229430   4.211   2.690   7.065 -2.2297  2.2401  0.9350
 5991SOL     OW29431   0.869   1.741   3.574 -0.2157 -0.3114  0.2126
 5991SOL    HW129432   0.893   1.803   3.505  1.1374 -0.3025  0.6773
 5991SOL    HW229433   0.959   1.717   3.596 -0.3620 -0.9945  0.0718
 5992SOL     OW29434   3.634   3.747  16.160 -0.5034  0.0702  0.2088
 5992SOL    HW129435   3.542   3.724  16.142 -0.6900 -0.4263  1.8105
 5992SOL    HW229436   3.646   3.834  16.121  2.5769 -1.4613 -2.2093
 5993SOL     OW29437   2.948   0.191   7.827 -0.6914 -0.0473  0.1688
 5993SOL    HW129438   2.912   0.275   7.853 -2.7953 -0.9196  0.0388
 5993SOL    HW229439   2.881   0.155   7.769 -0.0313 -1.7127  0.4301
 5994SOL     OW29440   2.778   3.104  15.255  0.0419  0.8781 -0.2253
 5994SOL    HW129441   2.814   3.022  15.222  0.3242  1.3913 -1.2027
 5994SOL    HW229442   2.857   3.153  15.280 -0.5040  1.7476 -0.1875
 5995SOL     OW29443   1.600   2.293   0.877 -0.0546 -0.0355 -0.1581
 5995SOL    HW129444   1.614   2.198   0.881 -0.3106 -0.1580 -2.3523
 5995SOL    HW229445   1.545   2.311   0.953  0.4979  2.1268 -0.2639
 5996SOL     OW29446   2.555   2.191   2.202 -0.5321  0.2266  0.3364
 5996SOL    HW129447   2.609   2.124   2.159  0.5174  0.6389  1.0127
 5996SOL    HW229448   2.591   2.270   2.162 -1.9516 -0.2211 -1.8224
 5997SOL     OW29449   0.854   4.354   9.457  0.1986 -0.6406 -0.3851
 5997SOL    HW129450   0.871   4.447   9.468 -1.1012 -0.4575 -0.0069
 5997SOL    HW229451   0.765   4.364   9.423  0.4336 -1.4113 -1.2694
 5998SOL     OW29452   2.495   4.706   6.036  0.6656 -0.2399  0.0768
 5998SOL    HW129453   2.417   4.669   5.994  0.4053  0.5524 -0.1299
 5998SOL    HW229454   2.478   4.676   6.126 -0.0377  0.1671  0.0789
 5999SOL     OW29455   2.843   4.587   4.694 -0.6210 -0.2806  0.7298
 5999SOL    HW129456   2.905   4.659   4.682 -0.0553 -0.8922 -0.0446
 5999SOL    HW229457   2.789   4.583   4.616  1.3698  1.1017 -0.6968
 6000SOL     OW29458   0.211   3.981   7.710  0.5586  0.2816 -0.1477
 6000SOL    HW129459   0.300   3.961   7.737  0.4482  0.6764  0.5046
 6000SOL    HW229460   0.226   4.056   7.653 -1.6686  1.3856  0.7234
 6001SOL     OW29461   1.410   4.270   1.150 -0.1367  0.0069  0.2229
 6001SOL    HW129462   1.460   4.194   1.181 -0.0366 -0.1699 -0.3795
 6001SOL    HW229463   1.386   4.242   1.062 -0.4046  1.5418 -0.1716
 6002SOL     OW29464   4.706   1.069   3.901  0.4155  0.2231 -0.0710
 6002SOL    HW129465   4.649   1.132   3.857  0.1652 -0.9815 -1.4712
 6002SOL    HW229466   0.067   1.117   3.886  0.2194  1.1123  1.6925
 6003SOL     OW29467   3.856   3.823   3.007 -0.6587 -0.1969  0.2423
 6003SOL    HW129468   3.830   3.816   2.915  0.5052 -2.6236  0.1105
 6003SOL    HW229469   3.926   3.888   3.003 -1.1093  0.2597 -0.0749
 6004SOL     OW29470   0.464   1.615   3.620 -0.0546  0.3719 -0.4247
 6004SOL    HW129471   0.494   1.622   3.710  1.0735 -1.1800 -0.6716
 6004SOL    HW229472   0.431   1.702   3.599 -3.0540 -1.2681 -2.5665
 6005SOL     OW29473   2.459   1.502   9.098 -0.1767  0.1142  0.3004
 6005SOL    HW129474   2.458   1.408   9.080 -0.1017  0.5817 -2.1758
 6005SOL    HW229475   2.538   1.509   9.151  0.2654  3.1073 -0.7284
 6006SOL     OW29476   0.070   3.954   2.454  0.2037 -0.4401  0.8918
 6006SOL    HW129477   0.031   3.903   2.383 -1.2198  0.1918  1.2164
 6006SOL    HW229478   0.160   3.933   2.430  0.1388 -1.7357  1.8242
 6007SOL     OW29479   2.229   1.867   8.127  0.4376 -0.0929  0.2988
 6007SOL    HW129480   2.227   1.771   8.121 -2.9694  0.1541 -2.6039
 6007SOL    HW229481   2.198   1.873   8.217  0.5827 -0.1815  0.3537
 6008SOL     OW29482   4.019   0.372   2.297  0.2987  0.0426 -0.0422
 6008SOL    HW129483   4.015   0.302   2.362  3.2049 -1.5628 -1.5943
 6008SOL    HW229484   4.073   0.440   2.338  1.0629 -0.1794 -0.6834
 6009SOL     OW29485   3.013   4.069   9.019 -0.2922 -0.3951  0.0911
 6009SOL    HW129486   3.068   4.120   9.078  0.4123  0.4011 -1.2670
 6009SOL    HW229487   2.951   4.141   9.008 -0.2654 -0.4487 -0.4451
 6010SOL     OW29488   4.618   4.176   5.992 -0.2174 -0.0600  0.2534
 6010SOL    HW129489   4.617   4.270   6.007  0.3141  0.2905 -1.9233
 6010SOL    HW229490   4.706   4.169   5.954 -1.1163  1.5440 -2.1419
 6011SOL     OW29491   3.211   3.826  15.975 -0.3469 -0.3767 -0.3930
 6011SOL    HW129492   3.146   3.759  15.998 -0.3092 -0.6237 -1.0007
 6011SOL    HW229493   3.241   3.793  15.890  1.2124  1.1750 -0.4408
 6012SOL     OW29494   1.282   3.055   1.130  0.4327  0.0547 -0.1722
 6012SOL    HW129495   1.199   3.099   1.111 -0.8452 -1.5027  1.7789
 6012SOL    HW229496   1.275   2.969   1.088  0.9287  0.3944 -0.9392
 6013SOL     OW29497   2.554   4.019   5.079  0.5592  0.0126  0.6109
 6013SOL    HW129498   2.507   4.054   5.155  0.1751 -0.8431  0.7797
 6013SOL    HW229499   2.481   3.972   5.039 -0.4294  1.1220  1.1281
 6014SOL     OW29500   1.187   2.908   0.663  0.0485  0.7610  0.3821
 6014SOL    HW129501   1.182   3.002   0.681 -1.6369  1.1560 -2.1397
 6014SOL    HW229502   1.134   2.868   0.732 -1.0395 -2.6349 -2.3938
 6015SOL     OW29503   3.102   4.395  14.661 -0.3403  0.3784  0.1772
 6015SOL    HW129504   3.194   4.416  14.677 -0.8299  2.1467  0.6103
 6015SOL    HW229505   3.067   4.364  14.744 -1.2831 -1.6630 -0.9703
 6016SOL     OW29506   1.614   3.777  13.312 -0.1615 -0.2853  0.2207
 6016SOL    HW129507   1.656   3.726  13.242  0.5089  1.5314 -0.7093
 6016SOL    HW229508   1.677   3.844  13.336 -0.2270 -0.1693  0.0696
 6017SOL     OW29509   3.903   3.609   3.568 -1.1481  0.2264 -0.5210
 6017SOL    HW129510   3.890   3.698   3.534 -0.8297 -0.9582 -3.7717
 6017SOL    HW229511   3.932   3.619   3.658 -1.2966 -0.3959 -0.4080
 6018SOL     OW29512   0.810   3.702   8.784 -0.1389  0.1994 -0.3952
 6018SOL    HW129513   0.845   3.790   8.769  1.4321 -0.5846 -1.3386
 6018SOL    HW229514   0.741   3.689   8.719  0.6480  0.9768 -1.3810
 6019SOL     OW29515   2.653   0.003   7.083 -0.2450 -0.0122  0.2734
 6019SOL    HW129516   2.691   4.707   7.170  0.9975  3.1078  0.3362
 6019SOL    HW229517   2.671   4.638   7.047  1.3989  0.1852  0.6127
 6020SOL     OW29518   4.602   0.157  16.282  0.2994 -0.9975  0.3106
 6020SOL    HW129519   4.670   0.124  16.224  1.0927 -1.7526  1.6764
 6020SOL    HW229520   4.534   0.096  16.253  0.9907 -0.8499 -1.6158
 6021SOL     OW29521   1.447   0.074   1.180 -0.9011 -0.4061  0.1259
 6021SOL    HW129522   1.401   4.718   1.213 -4.4181  0.1533 -3.6356
 6021SOL    HW229523   1.477   0.029   1.101  0.1300  1.0079 -0.2984
 6022SOL     OW29524   0.237   4.638   3.086 -0.8684 -0.0397 -0.3603
 6022SOL    HW129525   0.143   4.623   3.099 -1.2755  1.0196 -2.1479
 6022SOL    HW229526   0.260   4.675   3.172 -2.4911 -1.3752  0.6584
 6023SOL     OW29527   3.258   0.770   7.506  0.8299 -0.4965 -0.3493
 6023SOL    HW129528   3.209   0.704   7.554 -0.0391  1.2044  1.0763
 6023SOL    HW229529   3.212   0.848   7.535 -2.6911 -2.6254 -0.3149
 6024SOL     OW29530   1.936   3.069   7.933  0.1199  0.5250  0.2181
 6024SOL    HW129531   1.997   3.015   7.984  0.1701  0.5149  0.1479
 6024SOL    HW229532   1.902   3.122   8.005  2.3981  2.6733 -0.2709
 6025SOL     OW29533   0.940   2.661  10.702  0.0648  0.3448  0.2485
 6025SOL    HW129534   0.912   2.664  10.610  0.4113 -1.7508  0.0796
 6025SOL    HW229535   0.965   2.752  10.719 -0.0154  0.5627 -0.7849
 6026SOL     OW29536   2.566   3.177   9.963  0.9315 -0.1145  0.1945
 6026SOL    HW129537   2.523   3.262   9.958  0.9126 -0.0818  0.9622
 6026SOL    HW229538   2.629   3.202  10.031  0.5249  3.0167 -0.5659
 6027SOL     OW29539   1.811   1.511  14.682  0.2753 -0.5171 -0.2900
 6027SOL    HW129540   1.809   1.418  14.703 -2.0539  0.0317  1.8140
 6027SOL    HW229541   1.722   1.541  14.662  0.4427  0.6569  0.7277
 6028SOL     OW29542   3.162   2.529   7.465 -0.4106 -0.3772 -0.0569
 6028SOL    HW129543   3.208   2.567   7.391 -0.4085 -0.7307 -0.2352
 6028SOL    HW229544   3.108   2.606   7.484  2.3337  1.1947  1.3726
 6029SOL     OW29545   1.965   3.420   3.816  0.1325  0.2596 -0.0294
 6029SOL    HW129546   1.902   3.444   3.748  0.9647 -2.5818 -1.7532
 6029SOL    HW229547   2.039   3.480   3.806  0.2942  0.4452  2.1911
 6030SOL     OW29548   0.341   1.267   9.459 -0.0464  0.2134 -0.0602
 6030SOL    HW129549   0.269   1.283   9.520  0.9996  0.5671  1.0980
 6030SOL    HW229550   0.412   1.302   9.513 -1.0352  1.6791  0.3011
 6031SOL     OW29551   0.608   2.755  13.352  0.3074  0.0368  0.6377
 6031SOL    HW129552   0.560   2.675  13.331 -0.9628  0.7409  0.8008
 6031SOL    HW229553   0.653   2.723  13.430 -1.0751 -2.7795  0.2767
 6032SOL     OW29554   1.776   4.596   5.594 -0.0551 -0.4115 -0.1415
 6032SOL    HW129555   1.783   4.617   5.501 -1.4950  0.7140  0.0113
 6032SOL    HW229556   1.868   4.599   5.620  0.1146 -0.0252 -0.7870
 6033SOL     OW29557   3.214   3.960  12.392 -0.0015 -0.5605 -0.4812
 6033SOL    HW129558   3.153   3.918  12.452  0.4801  0.2368  0.5650
 6033SOL    HW229559   3.256   4.033  12.436 -2.2919  0.6308 -0.2851
 6034SOL     OW29560   3.544   1.601   5.751 -0.4139  0.1562  0.1771
 6034SOL    HW129561   3.449   1.608   5.739 -0.6153  1.5720  2.7390
 6034SOL    HW229562   3.559   1.595   5.656  2.7358 -3.3209  0.8785
 6035SOL     OW29563   4.211   3.068  10.329  0.0226  0.3157 -0.6123
 6035SOL    HW129564   4.303   3.080  10.305  0.5767 -1.7418  0.4818
 6035SOL    HW229565   4.214   3.064  10.425 -1.1627  0.5849 -0.5681
 6036SOL     OW29566   1.614   2.979   5.331 -0.1170  0.3736 -0.0919
 6036SOL    HW129567   1.628   2.885   5.339 -0.5046  0.0883 -2.6994
 6036SOL    HW229568   1.520   2.982   5.311 -0.7505  2.3735  3.1463
 6037SOL     OW29569   0.319   3.304  17.617  0.8223 -0.1218 -0.4422
 6037SOL    HW129570   0.379   3.306  17.542 -0.5161  1.5703 -1.4484
 6037SOL    HW229571   0.362   3.252  17.686 -0.8447 -1.6400 -0.5501
 6038SOL     OW29572   1.946   2.917   4.372 -0.1089 -0.6483 -0.3241
 6038SOL    HW129573   2.011   2.977   4.334 -0.1548 -0.2603  0.2041
 6038SOL    HW229574   2.001   2.839   4.362  2.3510  1.0641 -0.2654
 6039SOL     OW29575   2.251   4.690  15.906 -0.6098  0.1321 -0.1977
 6039SOL    HW129576   2.191   4.616  15.895 -0.3984 -0.0164 -0.3561
 6039SOL    HW229577   2.195   0.030  15.858 -1.1889 -0.4693 -0.3007
 6040SOL     OW29578   2.593   3.258   0.482  0.0209  0.3165  0.2691
 6040SOL    HW129579   2.532   3.242   0.554 -0.0583  2.3284  0.6477
 6040SOL    HW229580   2.647   3.180   0.491 -0.9324 -0.3058  0.6477
 6041SOL     OW29581   1.215   4.184   8.246 -0.8688 -0.1946  0.3244
 6041SOL    HW129582   1.175   4.258   8.292  1.8242  1.5943 -0.2024
 6041SOL    HW229583   1.244   4.131   8.319 -0.3025 -0.5484 -0.1602
 6042SOL     OW29584   3.935   3.181  17.454 -0.2734 -0.0117  0.5170
 6042SOL    HW129585   3.954   3.273  17.473  2.3845 -0.4078 -0.2013
 6042SOL    HW229586   3.842   3.190  17.474  0.2480  2.1582  1.9531
 6043SOL     OW29587   2.961   3.787  13.934 -0.3473 -0.5769  0.0295
 6043SOL    HW129588   2.886   3.840  13.959  1.0524  1.3940  0.0211
 6043SOL    HW229589   2.927   3.700  13.913 -1.1449  0.0985 -1.5136
 6044SOL     OW29590   2.320   0.667  13.930 -0.4205  0.5914 -0.2743
 6044SOL    HW129591   2.324   0.731  14.002  0.3447  0.3128 -0.0782
 6044SOL    HW229592   2.229   0.637  13.925  0.6117 -2.9447  2.5243
 6045SOL     OW29593   3.892   3.599   1.987  0.1195  0.3318 -0.2139
 6045SOL    HW129594   3.982   3.631   1.985  1.4288 -3.3973 -1.1843
 6045SOL    HW229595   3.899   3.549   1.906  2.1912  1.7043 -0.8807
 6046SOL     OW29596   3.875   1.029   3.904 -0.3713  0.2854 -0.1622
 6046SOL    HW129597   3.780   1.013   3.905 -0.2118 -0.6376 -0.1675
 6046SOL    HW229598   3.879   1.083   3.825 -0.8973  0.1760 -0.2635
 6047SOL     OW29599   2.551   1.458  14.324 -0.9144 -0.0526  0.1621
 6047SOL    HW129600   2.619   1.489  14.383 -1.3855 -1.1878  1.2754
 6047SOL    HW229601   2.590   1.374  14.299  2.6970  1.7069 -0.1327
 6048SOL     OW29602   2.439   0.597   7.686 -0.3059 -0.0648  0.1798
 6048SOL    HW129603   2.506   0.662   7.706 -0.6274  0.1146  0.6834
 6048SOL    HW229604   2.496   0.523   7.669 -0.5646 -0.0630 -0.6486
 6049SOL     OW29605   3.243   1.742  12.290 -0.2827 -0.3196  0.1094
 6049SOL    HW129606   3.309   1.800  12.254 -2.4902  0.8924 -2.0248
 6049SOL    HW229607   3.255   1.757  12.384  0.3619  0.7186 -0.1402
 6050SOL     OW29608   3.733   2.815   8.140  0.1064  0.2626  0.3057
 6050SOL    HW129609   3.769   2.763   8.212 -0.5545 -2.4485 -1.3275
 6050SOL    HW229610   3.807   2.824   8.080  0.4271 -1.6700  0.4129
 6051SOL     OW29611   0.995   0.603   6.374  0.3061 -0.1300 -0.1661
 6051SOL    HW129612   1.013   0.553   6.453  0.6276 -1.8100 -1.2968
 6051SOL    HW229613   1.008   0.533   6.310  0.2743 -0.2604 -0.0287
 6052SOL     OW29614   3.395   3.668   4.329 -0.1278  0.3207  0.3303
 6052SOL    HW129615   3.440   3.717   4.260  1.2044 -0.9347  0.3165
 6052SOL    HW229616   3.420   3.724   4.403 -0.2664  0.9091 -0.0678
 6053SOL     OW29617   4.253   3.843   9.670 -0.2227 -0.0875 -0.2996
 6053SOL    HW129618   4.295   3.795   9.599 -1.9051  0.9593 -2.0073
 6053SOL    HW229619   4.234   3.771   9.730  1.6292 -0.5449 -0.2612
 6054SOL     OW29620   1.967   0.034   8.748  0.5066  0.8248  0.0477
 6054SOL    HW129621   2.019   0.107   8.716 -1.7979  2.0942 -0.7316
 6054SOL    HW229622   2.033   0.002   8.810 -0.6497 -1.9082 -0.1124
 6055SOL     OW29623   3.264   0.833   9.357 -0.2571  0.3238 -0.3757
 6055SOL    HW129624   3.242   0.747   9.320  1.2804 -0.0825 -0.3043
 6055SOL    HW229625   3.223   0.882   9.286  1.9188  0.5886 -1.4430
 6056SOL     OW29626   0.914   4.290   6.494 -0.2967 -0.3106  0.1122
 6056SOL    HW129627   0.898   4.378   6.527 -2.4982 -0.3435 -0.9067
 6056SOL    HW229628   1.008   4.282   6.476 -0.0275  1.5531  0.7848
 6057SOL     OW29629   4.013   4.495   5.427 -0.7610 -0.0019 -0.0386
 6057SOL    HW129630   4.033   4.448   5.347  1.0170  0.3486  0.2004
 6057SOL    HW229631   4.063   4.431   5.478  1.2799 -0.3241 -2.4646
 6058SOL     OW29632   2.790   2.655   8.006 -0.0640 -0.4365 -0.3339
 6058SOL    HW129633   2.797   2.585   8.071  1.0632 -0.2858 -0.3024
 6058SOL    HW229634   2.781   2.608   7.923  2.2194  0.2012 -0.9226
 6059SOL     OW29635   4.248   0.403   3.116 -0.1504 -0.7140 -0.9846
 6059SOL    HW129636   4.204   0.475   3.071  1.5590 -0.0523 -1.6038
 6059SOL    HW229637   4.327   0.405   3.062  0.5031 -1.0122 -0.0395
 6060SOL     OW29638   1.723   1.647   7.019  0.0634 -0.9419  0.0633
 6060SOL    HW129639   1.799   1.690   7.057 -0.7065  0.3742  0.1245
 6060SOL    HW229640   1.681   1.622   7.102 -0.3108  0.8562  0.4002
 6061SOL     OW29641   1.543   2.198   8.172 -0.4364  0.7632  0.5576
 6061SOL    HW129642   1.638   2.212   8.166 -0.2094 -0.6472  0.9079
 6061SOL    HW229643   1.506   2.271   8.122  1.1403  1.8339  0.9489
 6062SOL     OW29644   4.317   3.972   6.631  0.4634  0.3592  0.3824
 6062SOL    HW129645   4.296   3.910   6.702  0.7918  1.2138  1.2310
 6062SOL    HW229646   4.313   4.053   6.683 -2.5544 -0.6471  1.7749
 6063SOL     OW29647   0.415   2.553  13.382  0.1663 -0.1133  0.4835
 6063SOL    HW129648   0.321   2.539  13.372  0.3507 -1.1067  0.0867
 6063SOL    HW229649   0.448   2.463  13.373 -1.0127 -0.2376 -2.5641
 6064SOL     OW29650   0.507   3.797   1.319  0.3734 -0.2238 -0.5181
 6064SOL    HW129651   0.550   3.749   1.389  0.1190 -0.1424 -0.3050
 6064SOL    HW229652   0.501   3.728   1.253 -0.8932 -2.2221  1.6680
 6065SOL     OW29653   1.280   0.569   0.821 -0.6049 -0.6581  0.1111
 6065SOL    HW129654   1.328   0.652   0.829 -0.2765 -0.8678  0.2805
 6065SOL    HW229655   1.187   0.592   0.821 -0.6618 -0.9022  0.9450
 6066SOL     OW29656   1.112   1.316   1.289  0.0207  0.0214 -0.5663
 6066SOL    HW129657   1.205   1.331   1.273  0.4501 -0.0892  1.9110
 6066SOL    HW229658   1.081   1.404   1.267  1.2343  0.6927  0.4145
 6067SOL     OW29659   4.438   2.867   5.250  0.6283  0.3143  0.1493
 6067SOL    HW129660   4.374   2.801   5.221  0.8787 -0.5400  1.5319
 6067SOL    HW229661   4.396   2.870   5.336 -0.3315  0.2840 -0.3097
 6068SOL     OW29662   4.465   3.189  10.325 -0.0384  0.3653  0.0114
 6068SOL    HW129663   4.508   3.119  10.374  0.0990  1.3491  1.3293
 6068SOL    HW229664   4.501   3.265  10.372  0.8140 -0.5248  0.8103
 6069SOL     OW29665   1.415   0.247   4.510  0.2004  0.2239  0.9070
 6069SOL    HW129666   1.438   0.242   4.603  2.0691 -0.0930  0.4407
 6069SOL    HW229667   1.494   0.287   4.472  0.3731 -1.3505 -0.3693
 6070SOL     OW29668   3.670   2.901  12.034 -0.2857 -0.1871 -0.1006
 6070SOL    HW129669   3.582   2.911  11.998 -1.8982  2.9402  4.7336
 6070SOL    HW229670   3.654   2.859  12.119  0.9033  0.0488  0.2364
 6071SOL     OW29671   3.445   1.164  11.888 -0.3954  0.5324  0.5386
 6071SOL    HW129672   3.414   1.254  11.884  0.5005  0.8886  1.8064
 6071SOL    HW229673   3.485   1.146  11.803 -3.2271 -0.7851 -0.5106
 6072SOL     OW29674   2.017   0.144   4.881  0.2306 -0.2709  0.0918
 6072SOL    HW129675   1.936   0.173   4.840 -0.0658  1.7952  2.1014
 6072SOL    HW229676   2.045   0.064   4.837 -0.1081 -0.0555 -0.5202
 6073SOL     OW29677   2.593   2.987  16.085  0.3025  0.4241 -0.2187
 6073SOL    HW129678   2.638   2.914  16.128  1.5717 -0.5421 -3.1424
 6073SOL    HW229679   2.522   2.943  16.038  1.5011  1.6639 -3.1798
 6074SOL     OW29680   2.677   3.308   6.521  0.3348 -0.3116 -0.8722
 6074SOL    HW129681   2.589   3.320   6.558  1.1328  2.5624  0.1034
 6074SOL    HW229682   2.705   3.399   6.516  0.8443 -0.5728 -2.5705
 6075SOL     OW29683   2.276   2.899   6.364  0.4851 -0.5024  0.1630
 6075SOL    HW129684   2.194   2.852   6.377 -0.3054  0.8015 -0.1467
 6075SOL    HW229685   2.258   2.948   6.284  1.5666  0.2341  0.3620
 6076SOL     OW29686   3.096   4.580   5.358 -0.4155  0.1002  0.3084
 6076SOL    HW129687   3.030   4.595   5.290  0.7687  0.5068 -0.7634
 6076SOL    HW229688   3.167   4.588   5.294 -0.2738 -0.7626  0.3595
 6077SOL     OW29689   3.906   0.892  17.110  0.4275 -0.6324  0.0399
 6077SOL    HW129690   3.902   0.823  17.044 -1.3781 -0.2084 -0.2900
 6077SOL    HW229691   3.978   0.946  17.076  0.9731 -2.0508 -1.0586
 6078SOL     OW29692   1.569   4.344   8.493 -0.3804 -0.1363 -0.6510
 6078SOL    HW129693   1.535   4.261   8.527  1.3257 -0.0781  1.2341
 6078SOL    HW229694   1.586   4.386   8.578 -1.4739  0.4463 -0.7259
 6079SOL     OW29695   1.759   0.195   4.800  0.1952 -0.3725 -0.0583
 6079SOL    HW129696   1.730   0.213   4.710  0.5161 -0.1711 -0.1214
 6079SOL    HW229697   1.705   0.119   4.823 -0.7905  0.7628  1.3649
 6080SOL     OW29698   3.630   4.387   6.538  0.4459  0.6087  0.4216
 6080SOL    HW129699   3.701   4.403   6.475 -1.4459  0.4308 -1.7416
 6080SOL    HW229700   3.637   4.292   6.548 -0.7105  0.8659  3.8129
 6081SOL     OW29701   1.993   4.313   3.333  0.0584  0.1342 -0.1368
 6081SOL    HW129702   1.953   4.275   3.254  2.5995  0.1025 -1.4100
 6081SOL    HW229703   1.918   4.357   3.374  1.6147  0.8430  1.9517
 6082SOL     OW29704   2.088   0.304   3.589 -0.2421  0.1597 -0.1783
 6082SOL    HW129705   2.128   0.256   3.516 -0.2101  2.6021 -1.7860
 6082SOL    HW229706   2.140   0.384   3.593 -1.3990  0.9212 -0.1656
 6083SOL     OW29707   4.142   2.486  17.555  0.2035 -0.0127 -0.0851
 6083SOL    HW129708   4.147   2.482  17.650  0.1663  0.1065 -0.0781
 6083SOL    HW229709   4.047   2.473  17.548  0.1887 -0.4662  0.9650
 6084SOL     OW29710   2.720   4.678   3.065  0.2486 -0.5760 -0.3777
 6084SOL    HW129711   2.735   0.051   3.059  3.0700 -0.9391  1.0672
 6084SOL    HW229712   2.656   4.673   3.136 -2.9849  2.7866 -3.0559
 6085SOL     OW29713   2.477   4.445   8.187  0.7906 -0.5463 -0.1691
 6085SOL    HW129714   2.524   4.525   8.163  0.1824 -0.1232  0.0506
 6085SOL    HW229715   2.501   4.430   8.278 -1.7281  1.3118  0.7892
 6086SOL     OW29716   3.591   0.681   7.771  0.1299 -0.0116 -0.0577
 6086SOL    HW129717   3.527   0.732   7.820  1.2867  2.0786 -0.7104
 6086SOL    HW229718   3.664   0.711   7.826  1.6105 -1.3496 -1.2650
 6087SOL     OW29719   2.833   0.026   3.966  0.1094  0.1952 -0.0036
 6087SOL    HW129720   2.893   4.695   4.020  0.5686  0.6776 -0.0543
 6087SOL    HW229721   2.894   0.033   3.893  0.1836  3.1281  0.3567
 6088SOL     OW29722   0.493   0.207  12.636  0.1506  0.1841  0.1229
 6088SOL    HW129723   0.416   0.252  12.601  0.5900  0.1209 -0.9234
 6088SOL    HW229724   0.454   0.180  12.719 -0.9255  1.2634 -0.0348
 6089SOL     OW29725   2.082   1.934  13.645  0.1279 -0.6133 -0.6505
 6089SOL    HW129726   2.170   1.930  13.684 -0.3668 -0.9671  0.4392
 6089SOL    HW229727   2.108   1.901  13.559  0.6575  0.4773 -0.9084
 6090SOL     OW29728   0.652   1.933   7.362  0.9180  0.0221 -0.2797
 6090SOL    HW129729   0.656   1.843   7.395 -1.5894 -0.2220 -0.6712
 6090SOL    HW229730   0.728   1.970   7.408 -0.0782  1.4439  0.2104
 6091SOL     OW29731   3.896   3.773   8.668  0.3636 -0.0728  0.1201
 6091SOL    HW129732   3.860   3.829   8.600 -3.1269 -0.5857  1.5518
 6091SOL    HW229733   3.831   3.780   8.737  0.4802 -2.0988  0.4582
 6092SOL     OW29734   2.065   3.848  10.708  0.3900  0.2596  0.1004
 6092SOL    HW129735   1.985   3.802  10.733  1.2944 -0.4926  1.5969
 6092SOL    HW229736   2.034   3.922  10.655 -2.9008 -2.3994 -1.6687
 6093SOL     OW29737   1.000   1.305   7.862  0.4741  0.3777 -0.0127
 6093SOL    HW129738   0.999   1.218   7.821 -0.0208  0.4305 -0.1172
 6093SOL    HW229739   0.907   1.323   7.846  0.4975  0.6912  0.1974
 6094SOL     OW29740   3.972   3.415  10.844  0.6018 -0.2351  0.2997
 6094SOL    HW129741   3.944   3.382  10.759 -0.1183 -2.4202  1.3804
 6094SOL    HW229742   4.038   3.474  10.809  0.5790 -0.6721 -0.4816
 6095SOL     OW29743   0.933   1.052   6.752  0.0701  0.3585 -0.1579
 6095SOL    HW129744   0.882   1.077   6.829 -2.1557  1.5193 -2.0224
 6095SOL    HW229745   1.014   1.049   6.803 -0.1392 -0.0764  0.1463
 6096SOL     OW29746   2.592   3.821   7.346  0.3256  0.2658 -0.3937
 6096SOL    HW129747   2.610   3.779   7.430 -0.4402  1.9647  0.5971
 6096SOL    HW229748   2.623   3.749   7.290 -0.1110 -1.0128  1.0084
 6097SOL     OW29749   0.586   1.141   6.796  0.0274 -0.3485  0.4694
 6097SOL    HW129750   0.596   1.046   6.791 -1.9883 -0.5909  1.3719
 6097SOL    HW229751   0.573   1.157   6.702  0.4834  0.9635  0.6319
 6098SOL     OW29752   3.178   0.334   3.234  0.2856 -0.0096  0.3044
 6098SOL    HW129753   3.236   0.317   3.309  0.0997 -1.3222  0.1550
 6098SOL    HW229754   3.157   0.425   3.254  0.2502 -0.4985  2.5390
 6099SOL     OW29755   2.747   4.401   6.303  0.8654  0.1970 -0.7101
 6099SOL    HW129756   2.771   4.490   6.324 -0.7372  0.4984 -0.1319
 6099SOL    HW229757   2.804   4.348   6.358  0.7540  0.6334 -0.1742
 6100SOL     OW29758   3.027   1.632   1.246 -0.1647 -0.3215  0.0244
 6100SOL    HW129759   3.044   1.539   1.231 -0.7982 -0.8131  2.2871
 6100SOL    HW229760   2.988   1.658   1.163 -0.3076  2.7988  1.0597
 6101SOL     OW29761   4.165   1.027   5.086 -0.2177 -0.5977  0.5791
 6101SOL    HW129762   4.200   1.028   4.997 -2.4800 -1.2351 -0.3197
 6101SOL    HW229763   4.143   1.120   5.094 -1.9567 -1.2325  3.2643
 6102SOL     OW29764   3.611   0.635   4.623  0.2698 -0.5964  0.4649
 6102SOL    HW129765   3.563   0.652   4.542  0.3460  0.0206  0.5496
 6102SOL    HW229766   3.698   0.638   4.584  0.2141 -1.2879  0.2966
 6103SOL     OW29767   3.027   2.186   8.547 -0.1530 -0.2933  0.1116
 6103SOL    HW129768   3.022   2.214   8.638  1.8800  0.9828 -0.1723
 6103SOL    HW229769   3.075   2.103   8.547  0.2046 -0.0756  1.1722
 6104SOL     OW29770   3.969   0.794   3.263  0.1137 -0.0920 -0.0281
 6104SOL    HW129771   3.994   0.779   3.171  1.0611 -1.9185  0.5406
 6104SOL    HW229772   4.056   0.808   3.299  0.3832 -0.5701 -0.4950
 6105SOL     OW29773   0.417   2.427   4.410 -0.4521 -0.0317 -0.3911
 6105SOL    HW129774   0.352   2.492   4.433 -0.3148  0.3371 -1.0474
 6105SOL    HW229775   0.486   2.438   4.475 -1.0644  3.8329 -0.4381
 6106SOL     OW29776   1.055   3.824  10.283  0.4457 -0.0547 -0.1598
 6106SOL    HW129777   1.130   3.787  10.330  0.5513  0.3093 -0.0415
 6106SOL    HW229778   1.017   3.750  10.235 -0.8724  0.4470  0.1071
 6107SOL     OW29779   1.875   4.664  12.645  0.0010 -0.2567  0.8116
 6107SOL    HW129780   1.928   4.630  12.573  0.0484 -0.5466  0.9796
 6107SOL    HW229781   1.860   4.585  12.697 -3.4687 -0.5166 -0.5806
 6108SOL     OW29782   2.247   1.260  13.973 -0.0597  0.0472  0.6037
 6108SOL    HW129783   2.211   1.308  14.048  0.8743  2.4813 -0.5082
 6108SOL    HW229784   2.340   1.277  13.990 -0.0146 -0.0156  0.4206
 6109SOL     OW29785   4.587   3.487   5.194 -0.9751  0.1161 -0.3901
 6109SOL    HW129786   4.682   3.481   5.190 -0.8334  1.1688  1.1444
 6109SOL    HW229787   4.583   3.566   5.247  1.2836 -1.0764  1.5624
 6110SOL     OW29788   0.207   1.321   2.676  0.2396  0.2681 -0.1055
 6110SOL    HW129789   0.293   1.337   2.636  0.1262  1.8187  0.2896
 6110SOL    HW229790   0.227   1.338   2.768 -1.6420 -0.9868  0.5331
 6111SOL     OW29791   0.949   1.931   2.656  0.3683  0.2210 -0.0995
 6111SOL    HW129792   0.986   2.017   2.636  1.9524 -0.4764 -0.2134
 6111SOL    HW229793   0.957   1.888   2.570 -0.7883  0.9566 -0.5646
 6112SOL     OW29794   2.168   1.156   6.976  0.2908 -0.5198  0.2811
 6112SOL    HW129795   2.205   1.223   6.918 -0.5614 -1.1586 -0.9953
 6112SOL    HW229796   2.129   1.204   7.049 -0.5833 -0.0533 -0.4871
 6113SOL     OW29797   3.283   2.656   0.273  0.0254  0.4261 -0.3932
 6113SOL    HW129798   3.274   2.728   0.336  1.4679  0.4379 -0.1828
 6113SOL    HW229799   3.263   2.706   0.194  0.2065 -1.0065 -1.3410
 6114SOL     OW29800   1.083   3.059   2.808 -0.1076 -0.3283 -0.1588
 6114SOL    HW129801   1.127   3.130   2.854 -0.0036 -0.4373 -0.0895
 6114SOL    HW229802   1.078   3.079   2.714  0.0777  1.5840  0.2377
 6115SOL     OW29803   0.509   2.151   3.787  0.9616  0.1259 -0.0348
 6115SOL    HW129804   0.574   2.129   3.720  0.0012  1.1160 -1.2872
 6115SOL    HW229805   0.464   2.220   3.738  1.0133  0.5201  0.4693
 6116SOL     OW29806   3.026   0.232   0.920  0.4214 -0.6322 -0.0579
 6116SOL    HW129807   3.075   0.280   0.987  0.1414 -0.1964 -0.1627
 6116SOL    HW229808   3.072   0.150   0.937 -0.9224 -1.2346  0.6385
 6117SOL     OW29809   0.521   2.722   6.574  0.4023  0.0319  0.3105
 6117SOL    HW129810   0.446   2.775   6.603 -0.4130 -0.6325 -0.5880
 6117SOL    HW229811   0.547   2.771   6.497 -2.8787 -0.5338 -1.1806
 6118SOL     OW29812   2.766   1.917   7.469 -0.3112 -0.0377  0.0450
 6118SOL    HW129813   2.693   1.971   7.438 -0.8100 -0.0380  1.2421
 6118SOL    HW229814   2.846   1.969   7.467  0.5213 -1.1671  4.2173
 6119SOL     OW29815   2.667   1.274   0.858 -0.0942  0.3575  0.5968
 6119SOL    HW129816   2.750   1.319   0.868  0.0423  0.0503  0.8426
 6119SOL    HW229817   2.636   1.245   0.944  0.4131 -1.6679  0.1016
 6120SOL     OW29818   0.927   4.066   0.295 -0.0750  0.8933  0.0721
 6120SOL    HW129819   0.896   3.977   0.314  2.1345  0.0702 -0.1495
 6120SOL    HW229820   1.017   4.051   0.267 -0.0692  0.6111  0.2357
 6121SOL     OW29821   3.004   0.886   7.956 -1.0721  0.5505 -0.5691
 6121SOL    HW129822   3.063   0.928   7.893 -1.8276 -0.8929 -2.2335
 6121SOL    HW229823   3.050   0.883   8.040 -1.0061  0.1966 -0.6170
 6122SOL     OW29824   4.356   1.394  15.773 -0.8068 -0.3586  0.1188
 6122SOL    HW129825   4.338   1.415  15.864 -1.1470 -0.9476  0.1914
 6122SOL    HW229826   4.324   1.472  15.728  0.5754  0.0507 -0.1538
 6123SOL     OW29827   1.147   3.960   2.585 -0.2503  0.3738 -0.1470
 6123SOL    HW129828   1.226   3.909   2.606 -0.7410 -0.2128  0.2777
 6123SOL    HW229829   1.121   3.991   2.671 -0.7202 -1.5951  0.4126
 6124SOL     OW29830   4.166   4.699   6.716  0.1294  0.3408 -0.5550
 6124SOL    HW129831   4.244   4.648   6.694 -0.1977 -0.1480 -0.5779
 6124SOL    HW229832   4.116   4.718   6.637 -0.2587  2.3189  0.1514
 6125SOL     OW29833   2.704   3.220  12.851  0.0026  0.6152  0.0234
 6125SOL    HW129834   2.726   3.243  12.941 -0.9158  1.4107  0.0509
 6125SOL    HW229835   2.790   3.243  12.816  1.0363 -3.3758 -0.0370
 6126SOL     OW29836   2.494   1.425   4.848  0.7139 -0.0727  0.0056
 6126SOL    HW129837   2.449   1.445   4.766 -0.5742  2.5289  1.3517
 6126SOL    HW229838   2.504   1.510   4.891 -0.5283  0.5189 -0.9019
 6127SOL     OW29839   2.122   3.763   7.194 -0.4126 -0.6078  0.4039
 6127SOL    HW129840   2.215   3.784   7.185 -0.5910  1.1160  2.4128
 6127SOL    HW229841   2.091   3.826   7.259  1.0029  1.5953 -1.0660
 6128SOL     OW29842   3.274   0.076  10.995  0.0796  0.9082  0.0564
 6128SOL    HW129843   3.228   0.041  10.918 -1.4493  1.5634  0.6808
 6128SOL    HW229844   3.243   0.016  11.063 -0.7488 -0.1792 -1.2589
 6129SOL     OW29845   1.452   0.968   6.445  0.0736  0.0982  0.1797
 6129SOL    HW129846   1.493   0.944   6.529  0.6257  1.5174  0.3142
 6129SOL    HW229847   1.437   0.882   6.406  2.0710  0.8534 -2.2449
 6130SOL     OW29848   2.890   3.345   0.484  0.6454 -0.0482  0.0390
 6130SOL    HW129849   2.970   3.304   0.451 -0.4001 -1.0733 -1.2345
 6130SOL    HW229850   2.926   3.413   0.540 -1.2777  2.4079 -1.7324
 6131SOL     OW29851   4.665   3.898   8.208  0.3210 -0.0238 -0.3255
 6131SOL    HW129852   4.583   3.880   8.162 -0.4774  0.9048  0.7350
 6131SOL    HW229853   0.004   3.874   8.138  0.6633  1.3986 -0.5197
 6132SOL     OW29854   4.486   1.741  14.762 -0.2100 -0.0790  0.1733
 6132SOL    HW129855   4.455   1.782  14.842 -1.3091  0.8278 -0.7286
 6132SOL    HW229856   4.491   1.809  14.695  0.2059  1.5230  1.8445
 6133SOL     OW29857   0.995   2.934  12.671 -0.3404 -0.1287  0.1167
 6133SOL    HW129858   1.063   2.919  12.737  1.0168  3.4529 -0.4422
 6133SOL    HW229859   1.046   2.979  12.604  1.0234 -3.6816 -1.2048
 6134SOL     OW29860   2.095   2.878  15.705  0.5753 -0.6378  0.1508
 6134SOL    HW129861   2.087   2.973  15.717  0.4619 -0.6357  0.0616
 6134SOL    HW229862   2.092   2.872  15.609  0.5982 -0.2911  0.1287
 6135SOL     OW29863   0.066   0.584   8.249  0.2075  0.2610 -0.1679
 6135SOL    HW129864   0.079   0.489   8.248  1.5786  0.4724 -1.5177
 6135SOL    HW229865   4.699   0.583   8.288 -0.3957 -0.0225 -1.5331
 6136SOL     OW29866   0.487   0.489   8.385 -0.0814 -0.0833  0.0803
 6136SOL    HW129867   0.448   0.486   8.472  1.4226  0.0093  0.7397
 6136SOL    HW229868   0.416   0.529   8.334 -0.5761 -1.2629 -0.1689
 6137SOL     OW29869   4.072   4.346   8.254 -0.8546 -0.4856  0.3340
 6137SOL    HW129870   4.140   4.403   8.292  0.4729 -1.2704 -0.8608
 6137SOL    HW229871   4.117   4.352   8.170  0.7152  0.5387  1.2385
 6138SOL     OW29872   0.676   2.325   7.350 -0.4366 -0.1753  0.0681
 6138SOL    HW129873   0.601   2.316   7.291 -0.9460 -1.9862  0.9912
 6138SOL    HW229874   0.748   2.302   7.292 -0.3748  2.6861 -1.0321
 6139SOL     OW29875   1.149   2.604   6.029  0.2191  0.1096 -0.2075
 6139SOL    HW129876   1.104   2.537   6.081  1.6482 -0.1993  0.6178
 6139SOL    HW229877   1.132   2.574   5.940  2.7305 -1.6568 -0.0957
 6140SOL     OW29878   1.529   0.077  14.803  0.3597 -0.2368 -0.0973
 6140SOL    HW129879   1.503   0.166  14.777  1.1221  0.5213  1.7510
 6140SOL    HW229880   1.480   0.013  14.751 -0.1677  2.9618 -3.5835
 6141SOL     OW29881   4.211   3.951   9.338 -0.4496 -0.3409  0.6019
 6141SOL    HW129882   4.291   3.903   9.316 -2.2402 -3.6606  1.3045
 6141SOL    HW229883   4.242   3.993   9.419 -0.4107  0.0985  0.3545
 6142SOL     OW29884   4.521   3.210   3.930  0.7365  0.1742 -0.0901
 6142SOL    HW129885   4.584   3.282   3.931  0.3265  0.5159  1.1860
 6142SOL    HW229886   4.456   3.245   3.991 -0.0955 -1.3762 -0.0912
 6143SOL     OW29887   0.382   3.386   7.625 -0.3401 -0.5109 -0.4713
 6143SOL    HW129888   0.298   3.387   7.670 -1.2977  0.3728 -2.3141
 6143SOL    HW229889   0.407   3.295   7.643 -2.8110 -1.7528 -3.3389
 6144SOL     OW29890   4.099   3.766   2.726  0.2765 -0.1942 -0.7607
 6144SOL    HW129891   4.014   3.804   2.703  1.5791  3.2550  0.1194
 6144SOL    HW229892   4.160   3.816   2.672  1.3139  0.8313  1.3919
 6145SOL     OW29893   1.829   2.471   1.404 -0.6149 -0.1209  0.1130
 6145SOL    HW129894   1.800   2.550   1.450  1.1462 -0.5343  1.9463
 6145SOL    HW229895   1.830   2.495   1.312 -4.0406  0.8610  0.3346
 6146SOL     OW29896   3.353   4.269   6.368 -0.3320 -0.4353  0.2002
 6146SOL    HW129897   3.381   4.340   6.426 -0.5681 -0.6220  0.5362
 6146SOL    HW229898   3.430   4.260   6.311 -0.2502  0.1520  0.2104
 6147SOL     OW29899   1.213   4.601   1.003  0.1938  0.1290  0.1467
 6147SOL    HW129900   1.223   4.597   1.098  1.1421  2.1438  0.1308
 6147SOL    HW229901   1.118   4.612   1.007  0.0467 -0.3392 -2.4194
 6148SOL     OW29902   1.545   4.197   8.772  0.2262 -0.3869  0.3100
 6148SOL    HW129903   1.525   4.261   8.840 -1.0913 -0.0145 -0.4200
 6148SOL    HW229904   1.635   4.173   8.792  0.9525  2.2129  0.1794
 6149SOL     OW29905   2.388   2.900   8.019  0.1602  0.1448 -0.1910
 6149SOL    HW129906   2.480   2.906   8.046 -0.7164  1.6461  2.4969
 6149SOL    HW229907   2.361   2.924   8.108 -1.6959 -0.0209 -0.7008
 6150SOL     OW29908   3.844   1.927   0.756 -0.6302  0.4620  0.4512
 6150SOL    HW129909   3.894   1.870   0.814 -1.4523 -1.1998 -0.4773
 6150SOL    HW229910   3.878   2.016   0.770 -1.1420  0.7064  0.1742
 6151SOL     OW29911   3.604   1.017  15.999 -0.2049 -0.0470  0.4996
 6151SOL    HW129912   3.516   0.981  16.002 -0.3749  0.4482  1.6325
 6151SOL    HW229913   3.625   1.041  15.909  2.5139  1.6647  1.5649
 6152SOL     OW29914   1.767   3.058  15.670  0.4149 -0.5529 -0.0957
 6152SOL    HW129915   1.741   3.122  15.604  0.2212 -0.2348  0.2878
 6152SOL    HW229916   1.853   3.093  15.691  0.4057 -1.9725  2.3666
 6153SOL     OW29917   2.780   4.350   6.014 -0.0794  0.9388  0.0312
 6153SOL    HW129918   2.771   4.386   6.102 -0.1343  1.7779 -0.3206
 6153SOL    HW229919   2.791   4.259   6.042  2.1666  1.4029  0.7031
 6154SOL     OW29920   1.996   3.573   3.025 -0.0436 -0.1219  0.3789
 6154SOL    HW129921   2.000   3.620   2.942 -1.5327 -0.7706 -0.0683
 6154SOL    HW229922   2.066   3.608   3.080  0.2765 -1.2449  0.6871
 6155SOL     OW29923   0.824   2.907  13.265  0.1830 -0.5168  0.4516
 6155SOL    HW129924   0.801   2.954  13.185 -1.3027  1.5638  2.1079
 6155SOL    HW229925   0.748   2.852  13.281  0.0445 -1.3984 -3.1019
 6156SOL     OW29926   4.295   1.545  12.477 -0.2423 -0.0808 -0.9185
 6156SOL    HW129927   4.380   1.588  12.480 -1.2700  1.8213  0.2783
 6156SOL    HW229928   4.289   1.513  12.567 -0.5668  2.9514  0.1362
 6157SOL     OW29929   2.373   2.365  16.775  0.0925  0.4047  0.0225
 6157SOL    HW129930   2.464   2.381  16.800 -0.4650  0.0227  2.3296
 6157SOL    HW229931   2.334   2.451  16.784 -1.1864 -0.3497  1.7113
 6158SOL     OW29932   2.741   3.204  16.221 -0.0090 -0.2686  0.5435
 6158SOL    HW129933   2.683   3.255  16.278  2.0893 -0.8804  3.2436
 6158SOL    HW229934   2.683   3.145  16.174  0.2938  1.0156 -1.4492
 6159SOL     OW29935   1.449   4.355  15.706 -0.8380 -0.2202  0.0209
 6159SOL    HW129936   1.531   4.321  15.742  0.2674  1.1709 -1.1672
 6159SOL    HW229937   1.380   4.290  15.717  1.0962 -2.2378  0.2551
 6160SOL     OW29938   1.494   3.525   2.753 -0.1178  0.0890 -0.2089
 6160SOL    HW129939   1.482   3.501   2.661  0.1628  2.0976 -0.7629
 6160SOL    HW229940   1.490   3.620   2.750 -1.1712  0.0620  0.4753
 6161SOL     OW29941   0.222   1.224   8.487 -0.1738  0.0665  0.2747
 6161SOL    HW129942   0.232   1.299   8.546 -1.0501  0.7587 -0.4598
 6161SOL    HW229943   0.138   1.184   8.508 -0.4832  0.1573 -0.7947
 6162SOL     OW29944   1.595   2.453   9.055  0.2404  0.6690  0.2989
 6162SOL    HW129945   1.570   2.438   9.146  2.3323 -1.7443  0.4975
 6162SOL    HW229946   1.683   2.417   9.044 -0.6760 -1.3716 -0.5136
 6163SOL     OW29947   0.753   3.467   7.608  0.5193 -0.2883  0.1901
 6163SOL    HW129948   0.730   3.412   7.533 -2.4128  3.0117 -1.3441
 6163SOL    HW229949   0.673   3.485   7.656 -0.3116 -1.7855 -0.6292
 6164SOL     OW29950   1.738   4.104   2.347 -0.1260  0.3072 -0.3983
 6164SOL    HW129951   1.828   4.135   2.350  0.0299 -0.0860 -0.9393
 6164SOL    HW229952   1.714   4.113   2.255 -1.4574 -1.4356 -0.2410
 6165SOL     OW29953   0.078   3.417   7.696  0.4755  0.1196 -0.1342
 6165SOL    HW129954   4.715   3.463   7.704  0.1833 -0.4934  0.3100
 6165SOL    HW229955   0.044   3.331   7.673  0.2709 -0.2772  1.6394
 6166SOL     OW29956   0.074   3.767   1.741  0.9463 -0.2154  0.2122
 6166SOL    HW129957   0.030   3.823   1.805  0.2900  0.3249 -0.7045
 6166SOL    HW229958   0.125   3.836   1.698  0.8285 -0.3729 -0.1845
 6167SOL     OW29959   2.182   3.185   9.248  0.6123 -0.7837 -0.8238
 6167SOL    HW129960   2.197   3.268   9.292 -1.3239 -0.5643 -0.6065
 6167SOL    HW229961   2.218   3.120   9.308  1.2721  0.7737  0.4454
 6168SOL     OW29962   0.604   1.941   2.354 -0.5608 -0.3694  0.2457
 6168SOL    HW129963   0.661   1.869   2.383 -0.8249 -1.4963 -2.0669
 6168SOL    HW229964   0.594   1.988   2.437 -2.4995  1.2878 -0.9373
 6169SOL     OW29965   4.577   2.817   3.498 -0.3152  0.1160 -0.1469
 6169SOL    HW129966   4.493   2.772   3.493 -1.4152  2.4225 -2.2616
 6169SOL    HW229967   4.628   2.764   3.437 -1.1791 -1.0474  0.1446
 6170SOL     OW29968   0.506   3.457   7.407  0.5513  0.6468  0.8319
 6170SOL    HW129969   0.564   3.381   7.415  0.0111  0.3529  1.8303
 6170SOL    HW229970   0.464   3.448   7.492 -0.9594  1.5005  0.1593
 6171SOL     OW29971   0.481   3.112   4.453  0.0383 -0.2663  0.3070
 6171SOL    HW129972   0.474   3.201   4.420 -1.8454 -1.2625 -2.0072
 6171SOL    HW229973   0.576   3.099   4.450 -0.2669 -2.4085 -0.3676
 6172SOL     OW29974   4.083   0.769  15.462  0.2027 -0.0795  0.0207
 6172SOL    HW129975   3.993   0.769  15.430  1.2181  0.6591 -2.8548
 6172SOL    HW229976   4.132   0.713  15.401  2.2459  0.9215  0.7443
 6173SOL     OW29977   3.633   3.596   5.260 -0.3462 -0.2827  0.2178
 6173SOL    HW129978   3.716   3.603   5.214 -0.6120  0.4238 -0.1704
 6173SOL    HW229979   3.646   3.514   5.307 -2.2089  0.9115  2.8500
 6174SOL     OW29980   2.073   4.266   6.072  0.1295  0.0691  0.2294
 6174SOL    HW129981   2.144   4.215   6.034 -0.3056 -0.6992  0.4537
 6174SOL    HW229982   2.014   4.263   5.997 -0.5475  0.7787  0.7314
 6175SOL     OW29983   0.051   3.488   8.729  0.7642 -0.5132  0.4998
 6175SOL    HW129984   4.718   3.560   8.762 -0.7502 -0.7721 -1.4718
 6175SOL    HW229985   0.035   3.412   8.785 -3.2098  0.0018  0.0346
 6176SOL     OW29986   3.903   1.821  11.550 -0.1122  0.2800 -0.1495
 6176SOL    HW129987   3.937   1.864  11.629  0.1781  2.5196 -1.5119
 6176SOL    HW229988   3.925   1.890  11.488  1.4562 -0.6945 -0.6838
 6177SOL     OW29989   2.969   1.644   3.135 -0.0989 -0.0306 -0.4319
 6177SOL    HW129990   3.063   1.649   3.115  0.2580 -2.8952  0.6604
 6177SOL    HW229991   2.952   1.560   3.094  1.6370  0.2438 -1.7152
 6178SOL     OW29992   4.282   2.487   9.182  0.0722 -0.1215  0.0337
 6178SOL    HW129993   4.296   2.397   9.155  0.2133 -0.8837  2.6420
 6178SOL    HW229994   4.210   2.465   9.240 -0.2975 -1.7507 -1.0720
 6179SOL     OW29995   4.188   1.674   2.018  0.4563  0.1176  0.3598
 6179SOL    HW129996   4.110   1.716   1.982  0.3437 -1.0738 -0.7981
 6179SOL    HW229997   4.227   1.643   1.936  1.3796  1.4698  0.2803
 6180SOL     OW29998   4.205   4.589   4.585 -0.4073  0.6925  0.2678
 6180SOL    HW129999   4.264   4.663   4.599 -1.1886  0.8495  2.6335
 6180SOL    HW230000   4.276   4.532   4.556 -0.6327  0.5992 -0.1097
 6181SOL     OW30001   0.027   1.006  11.964  1.2192  0.0147  0.4158
 6181SOL    HW130002   4.711   1.093  11.972 -0.0384 -0.4438 -0.4114
 6181SOL    HW230003   0.087   1.013  11.890 -0.2836  0.6593 -0.7268
 6182SOL     OW30004   4.220   2.919   0.830  0.1763 -0.2380  0.1345
 6182SOL    HW130005   4.139   2.967   0.846  1.2781  1.3109  1.1792
 6182SOL    HW230006   4.202   2.851   0.894  0.0683  1.3275  1.7722
 6183SOL     OW30007   2.712   0.115   3.578  0.2701 -0.4065  0.0004
 6183SOL    HW130008   2.708   0.172   3.655  3.0955 -0.2091 -0.0178
 6183SOL    HW230009   2.751   0.172   3.512  1.3634  0.9391  1.8240
 6184SOL     OW30010   2.040   0.598  11.998  0.5186 -0.4334 -0.3722
 6184SOL    HW130011   2.069   0.525  12.052 -2.0654 -1.5601 -0.4813
 6184SOL    HW230012   2.115   0.657  12.003  0.7929 -0.8827  0.8053
 6185SOL     OW30013   0.594   2.770   9.551 -0.5115 -0.0019  0.6211
 6185SOL    HW130014   0.509   2.815   9.552 -0.0121  1.0316 -3.8690
 6185SOL    HW230015   0.647   2.840   9.512  1.0655 -0.3720  2.0777
 6186SOL     OW30016   3.742   1.684  10.912 -0.4625 -0.0784 -0.4661
 6186SOL    HW130017   3.727   1.592  10.892 -0.6282 -1.1045  4.4082
 6186SOL    HW230018   3.740   1.714  10.821 -0.4947 -1.7675 -1.0233
 6187SOL     OW30019   2.410   4.114   5.282 -0.1389 -0.0748 -0.6679
 6187SOL    HW130020   2.400   4.149   5.370 -1.7721 -1.4710 -0.2861
 6187SOL    HW230021   2.317   4.109   5.257  0.3921  2.2224 -3.1769
 6188SOL     OW30022   2.040   3.594   9.204 -0.6656  0.4509 -0.0442
 6188SOL    HW130023   2.105   3.553   9.260 -0.6194 -0.0477 -0.4657
 6188SOL    HW230024   1.973   3.528   9.221  0.0765 -0.1452  0.5509
 6189SOL     OW30025   2.805   0.446   8.321 -0.2439 -0.0252  0.1010
 6189SOL    HW130026   2.834   0.372   8.375  1.4674 -0.1485 -0.9959
 6189SOL    HW230027   2.749   0.393   8.264 -3.1564  2.5485  0.5897
 6190SOL     OW30028   1.329   4.237   6.043 -0.1267 -0.0022 -0.1291
 6190SOL    HW130029   1.417   4.251   6.079 -0.4030 -0.4680  0.7287
 6190SOL    HW230030   1.267   4.232   6.115  1.1409  3.0432  1.1576
 6191SOL     OW30031   4.197   1.789   6.006 -0.1206 -0.0232  0.0122
 6191SOL    HW130032   4.264   1.815   5.943  0.4457 -2.8989 -0.5608
 6191SOL    HW230033   4.198   1.694   6.001 -0.9679 -0.0178 -0.3432
 6192SOL     OW30034   1.200   2.387  10.593  0.8848 -0.3797 -0.1701
 6192SOL    HW130035   1.198   2.463  10.534 -2.0950 -0.7762 -0.5790
 6192SOL    HW230036   1.111   2.368  10.624 -0.0492  2.4060 -1.1294
 6193SOL     OW30037   2.837   0.647   5.986  0.3675  0.3596  0.2041
 6193SOL    HW130038   2.855   0.591   6.061 -2.4768  0.2541  0.8165
 6193SOL    HW230039   2.857   0.726   6.037  0.9091  0.3669 -0.0214
 6194SOL     OW30040   2.309   1.472  10.367  0.7037  0.2862 -0.5584
 6194SOL    HW130041   2.363   1.549  10.384  0.3102  0.5714 -0.5921
 6194SOL    HW230042   2.339   1.438  10.283 -0.7944  1.6418 -1.6457
 6195SOL     OW30043   1.764   2.795  11.449  0.2017  0.2489  0.5313
 6195SOL    HW130044   1.709   2.722  11.477  1.2898 -1.1530 -1.0409
 6195SOL    HW230045   1.851   2.757  11.459  0.8027  1.6034  0.5216
 6196SOL     OW30046   0.996   2.168   6.829  0.6183 -0.1411  0.3376
 6196SOL    HW130047   0.998   2.240   6.766 -0.2700  1.7952  2.4683
 6196SOL    HW230048   1.014   2.091   6.776 -0.2146  1.7407 -2.6957
 6197SOL     OW30049   0.202   3.315   5.312 -0.3759  0.5360 -0.2723
 6197SOL    HW130050   0.262   3.369   5.363 -1.6016  1.8793 -0.2519
 6197SOL    HW230051   0.259   3.307   5.236 -0.8533  0.2154 -0.6003
 6198SOL     OW30052   0.799   0.609   5.642 -0.2632 -0.6588  0.3972
 6198SOL    HW130053   0.817   0.657   5.562  0.5997 -2.1853 -0.3185
 6198SOL    HW230054   0.707   0.628   5.663  0.0236  2.6619 -1.3076
 6199SOL     OW30055   3.986   2.557  13.089  0.7351 -0.2270 -0.3337
 6199SOL    HW130056   4.015   2.619  13.156 -0.8325  1.4186 -1.1842
 6199SOL    HW230057   3.894   2.560  13.116  0.8283 -1.2400  0.0939
 6200SOL     OW30058   2.039   3.749  16.822 -0.3797  0.4800  0.0559
 6200SOL    HW130059   1.953   3.721  16.854 -1.0630  1.0559 -1.2601
 6200SOL    HW230060   2.004   3.817  16.764 -0.8892  0.4486  0.3235
 6201SOL     OW30061   3.717   2.303   7.195  0.5384 -0.5926 -0.8533
 6201SOL    HW130062   3.678   2.216   7.184  0.7140 -0.7838  0.0763
 6201SOL    HW230063   3.802   2.288   7.236  0.8007  0.8558 -0.8647
 6202SOL     OW30064   3.884   0.791  13.969  0.0505  0.2503 -0.9593
 6202SOL    HW130065   3.864   0.865  14.025  0.6145 -0.1156 -0.2762
 6202SOL    HW230066   3.975   0.772  13.991 -0.7245 -3.2393 -0.7755
 6203SOL     OW30067   4.456   2.806   4.897  0.1233 -0.5925  0.1076
 6203SOL    HW130068   4.549   2.811   4.919  0.7027  0.5441 -2.6513
 6203SOL    HW230069   4.409   2.820   4.980  0.0994  1.6781 -0.2812
 6204SOL     OW30070   3.649   4.466   2.383  0.4527  0.6009  0.4146
 6204SOL    HW130071   3.743   4.468   2.363 -0.1655 -1.7976 -2.7439
 6204SOL    HW230072   3.613   4.522   2.314 -0.6716 -0.2541  0.3110
 6205SOL     OW30073   4.598   1.498   6.440  0.1079 -0.4106 -0.3831
 6205SOL    HW130074   4.622   1.472   6.529  1.9280  2.6420  0.0287
 6205SOL    HW230075   4.530   1.562   6.460  0.6545  1.1848 -3.6901
 6206SOL     OW30076   2.213   2.015   8.666  0.5596 -0.3537 -0.4468
 6206SOL    HW130077   2.270   1.952   8.710 -0.7284 -0.4904  1.0445
 6206SOL    HW230078   2.256   2.098   8.688  0.9979  0.0797 -2.9325
 6207SOL     OW30079   2.916   4.560   6.591  0.0217  0.5393 -0.8405
 6207SOL    HW130080   3.003   4.598   6.581  0.1689  0.0066 -1.5743
 6207SOL    HW230081   2.909   4.548   6.685 -1.8061 -2.7876 -1.3687
 6208SOL     OW30082   1.201   3.126   5.746 -0.5426 -0.2413 -0.4553
 6208SOL    HW130083   1.136   3.105   5.814 -0.7294  0.1938 -0.4987
 6208SOL    HW230084   1.284   3.133   5.793 -0.1341 -1.1158 -1.0668
 6209SOL     OW30085   2.756   3.471   3.789  0.4886 -1.2922 -0.3701
 6209SOL    HW130086   2.699   3.545   3.807  2.8574 -0.1353  2.3368
 6209SOL    HW230087   2.811   3.508   3.721  0.3045 -0.9090 -0.3090
 6210SOL     OW30088   0.387   0.479  13.179 -0.7629  0.5139  0.6793
 6210SOL    HW130089   0.319   0.412  13.189  0.5571 -1.0243 -0.6620
 6210SOL    HW230090   0.355   0.529  13.104  1.3541 -0.9186 -1.1624
 6211SOL     OW30091   3.465   0.597   4.394  0.1756 -0.8277 -0.1140
 6211SOL    HW130092   3.445   0.634   4.308 -1.4607  1.4206  1.2332
 6211SOL    HW230093   3.475   0.503   4.379 -1.5102 -0.8957 -0.8329
 6212SOL     OW30094   4.231   2.832   8.354 -0.0711 -0.0905 -0.0640
 6212SOL    HW130095   4.293   2.904   8.367  0.1111 -0.2701  0.0601
 6212SOL    HW230096   4.281   2.752   8.368  2.1123  1.1130 -0.8493
 6213SOL     OW30097   4.253   3.826   6.848  0.2274  0.2392  0.5467
 6213SOL    HW130098   4.313   3.862   6.914  1.6929 -0.3912 -0.4537
 6213SOL    HW230099   4.173   3.820   6.901  0.4109  1.5274  0.9790
 6214SOL     OW30100   2.655   1.585   2.437  0.0318  0.0450 -0.1508
 6214SOL    HW130101   2.684   1.658   2.491  0.6761 -0.4428  0.1626
 6214SOL    HW230102   2.716   1.514   2.458  1.7213  1.7434  0.6700
 6215SOL     OW30103   1.451   0.640   2.965 -0.0659  0.0445  0.2556
 6215SOL    HW130104   1.542   0.625   2.938  0.1198  0.3993  0.6749
 6215SOL    HW230105   1.465   0.698   3.040 -2.0312 -0.5078  1.0436
 6216SOL     OW30106   1.317   3.113   4.415 -0.0930 -0.2710 -0.7151
 6216SOL    HW130107   1.405   3.127   4.382  0.4342 -1.8392  0.0061
 6216SOL    HW230108   1.275   3.198   4.409 -2.5018 -1.1939  3.2491
 6217SOL     OW30109   0.639   3.240   0.347 -0.4151  0.4268  0.6186
 6217SOL    HW130110   0.717   3.294   0.331 -0.2504  0.0761  0.2215
 6217SOL    HW230111   0.673   3.166   0.397 -1.6241 -1.0066 -0.6417
 6218SOL     OW30112   1.398   2.306  14.949  0.4097  0.1172 -0.2552
 6218SOL    HW130113   1.394   2.241  15.019  0.1724  0.7731  0.3286
 6218SOL    HW230114   1.484   2.341  14.973  0.3589  0.5023 -0.6273
 6219SOL     OW30115   3.684   0.320  10.307  0.4292 -0.2383  0.3988
 6219SOL    HW130116   3.664   0.229  10.285 -3.2768  0.0693  2.3399
 6219SOL    HW230117   3.641   0.364  10.234  1.5800 -0.3573 -0.3515
 6220SOL     OW30118   0.447   4.172  15.835  0.5004 -0.0709 -0.5325
 6220SOL    HW130119   0.401   4.233  15.777  0.8931  1.0558  0.3419
 6220SOL    HW230120   0.379   4.164  15.902  0.0620  1.4649 -0.8095
 6221SOL     OW30121   3.165   4.019   3.172  0.0133 -0.4360 -0.0221
 6221SOL    HW130122   3.097   4.069   3.128  1.3112  1.6698  0.3957
 6221SOL    HW230123   3.238   4.081   3.173 -0.6347  0.3263  1.2237
 6222SOL     OW30124   2.462   3.049   0.946 -0.5188 -0.6091 -0.0787
 6222SOL    HW130125   2.488   3.116   1.009  0.3143 -0.7970 -0.2233
 6222SOL    HW230126   2.368   3.034   0.956 -0.4643 -0.5980  0.4408
 6223SOL     OW30127   0.288   0.023   9.595  0.3313 -0.0648  0.0006
 6223SOL    HW130128   0.353   0.024   9.525  0.9818 -1.7873  0.6010
 6223SOL    HW230129   0.266   4.652   9.607 -1.1252  0.6867  3.0673
 6224SOL     OW30130   3.062   1.122  11.459  0.2999  0.1324 -0.2407
 6224SOL    HW130131   3.018   1.056  11.512 -0.9080  0.5406 -0.7237
 6224SOL    HW230132   3.146   1.080  11.446  0.9804  1.0467  1.1095
 6225SOL     OW30133   2.237   2.223   8.031 -0.1972 -0.1105 -0.2010
 6225SOL    HW130134   2.278   2.235   8.117 -0.6032  1.4896 -0.2303
 6225SOL    HW230135   2.315   2.213   7.976  0.8641  1.0133  1.0932
 6226SOL     OW30136   1.631   3.049   6.184 -0.2212 -0.2223  0.2941
 6226SOL    HW130137   1.564   3.114   6.204  0.3573  0.4318  0.1010
 6226SOL    HW230138   1.705   3.108   6.192 -0.9106  0.7235 -0.2705
 6227SOL     OW30139   2.085   3.852   4.132  0.0926 -0.6774 -0.8323
 6227SOL    HW130140   1.992   3.868   4.114  0.3462  1.7649  0.0728
 6227SOL    HW230141   2.113   3.804   4.054 -0.9915 -0.9399 -1.0576
 6228SOL     OW30142   1.948   1.876   1.454 -0.4275 -0.2740 -0.1026
 6228SOL    HW130143   1.933   1.828   1.536 -1.6510  0.7969  0.3008
 6228SOL    HW230144   1.994   1.808   1.406 -0.0547  0.2940 -0.5470
 6229SOL     OW30145   1.091   0.761  15.356 -0.3486  0.5143 -0.1622
 6229SOL    HW130146   1.013   0.803  15.392 -3.5079 -1.8675 -4.1328
 6229SOL    HW230147   1.107   0.837  15.300  1.0340  0.2420 -0.1409
 6230SOL     OW30148   3.607   0.365   4.394 -0.6670 -0.6187 -0.3691
 6230SOL    HW130149   3.627   0.344   4.302 -0.0767 -2.2086  0.1303
 6230SOL    HW230150   3.695   0.382   4.426 -0.5673  0.4221 -1.1704
 6231SOL     OW30151   0.899   0.782   4.807 -0.5022 -0.1688  0.2968
 6231SOL    HW130152   0.952   0.702   4.811  0.7500  0.6302 -0.5581
 6231SOL    HW230153   0.954   0.842   4.757  0.3167 -0.8609  0.3572
 6232SOL     OW30154   2.972   0.811   9.744  0.6579  0.1443 -0.3779
 6232SOL    HW130155   3.022   0.743   9.699  1.2623  0.0726  0.4146
 6232SOL    HW230156   3.025   0.809   9.823 -0.6920  1.8907  0.5784
 6233SOL     OW30157   0.954   3.822   6.228 -0.0532 -0.3491  0.0410
 6233SOL    HW130158   0.981   3.908   6.195 -0.9312 -0.3230 -0.6007
 6233SOL    HW230159   1.032   3.773   6.201 -0.8033 -1.4188 -0.1826
 6234SOL     OW30160   4.200   3.884   4.790  0.3290 -0.1497 -0.2558
 6234SOL    HW130161   4.141   3.813   4.763  0.4234 -0.7143  1.0316
 6234SOL    HW230162   4.139   3.939   4.838  0.0504 -1.0332  0.4162
 6235SOL     OW30163   1.846   0.751  10.813 -0.6337  0.0573 -0.1752
 6235SOL    HW130164   1.767   0.786  10.772 -0.3157  0.8991 -0.0608
 6235SOL    HW230165   1.922   0.804  10.788  0.2772 -2.3602 -2.5983
 6236SOL     OW30166   2.319   3.211  10.253 -0.3758 -0.2777 -0.4659
 6236SOL    HW130167   2.226   3.216  10.271 -0.4483 -0.5079 -0.7885
 6236SOL    HW230168   2.341   3.119  10.266 -0.7616 -0.6793 -2.6517
 6237SOL     OW30169   1.962   0.346  15.083  0.5055  0.4104 -0.4900
 6237SOL    HW130170   2.014   0.293  15.022 -2.9583 -1.6353 -1.6575
 6237SOL    HW230171   2.032   0.387  15.133  0.5963 -2.1800  1.5052
 6238SOL     OW30172   0.004   3.735   2.260 -0.0262 -0.0472  0.3250
 6238SOL    HW130173   4.653   3.730   2.322  0.0191  0.8042  0.4524
 6238SOL    HW230174   0.042   3.651   2.283  2.7203  1.8970  2.9441
 6239SOL     OW30175   3.140   1.826   7.747  0.0641 -0.1726 -0.2655
 6239SOL    HW130176   3.168   1.822   7.656 -0.8320 -0.6688 -0.5186
 6239SOL    HW230177   3.199   1.893   7.780  1.1184 -0.5299 -1.4726
 6240SOL     OW30178   1.084   1.341   2.240 -0.5707  0.7209  0.3028
 6240SOL    HW130179   1.006   1.395   2.230  0.1874  1.6863 -0.2961
 6240SOL    HW230180   1.059   1.297   2.322 -0.4879 -0.1281 -0.1231
 6241SOL     OW30181   0.515   1.696   3.881 -0.2526  0.0521  0.0771
 6241SOL    HW130182   0.579   1.649   3.934 -0.5836 -2.4133 -1.7017
 6241SOL    HW230183   0.563   1.778   3.871 -2.2623  1.3366  0.8469
 6242SOL     OW30184   1.721   4.167   5.519  0.1022  0.0647 -0.1541
 6242SOL    HW130185   1.644   4.180   5.463 -0.1448  1.6041  0.5686
 6242SOL    HW230186   1.782   4.152   5.447 -0.3327 -1.9144 -0.1130
 6243SOL     OW30187   1.480   1.312   2.001  0.0379  0.2391  0.1604
 6243SOL    HW130188   1.477   1.352   2.088  2.1357 -0.2949  0.4699
 6243SOL    HW230189   1.427   1.378   1.956 -0.8220 -1.0094 -0.6627
 6244SOL     OW30190   1.817   1.131   5.403  0.5136 -0.1295  0.6380
 6244SOL    HW130191   1.857   1.218   5.408 -1.9344  1.0194  0.1540
 6244SOL    HW230192   1.878   1.090   5.341  0.2882 -1.0534  1.0198
 6245SOL     OW30193   0.704   3.594   0.912 -0.5154 -0.0617 -0.1364
 6245SOL    HW130194   0.785   3.567   0.868 -0.1129 -1.7106  1.6292
 6245SOL    HW230195   0.695   3.681   0.872  0.5137  0.0200 -0.2039
 6246SOL     OW30196   0.796   2.386   8.121  0.1556 -0.9595  0.1970
 6246SOL    HW130197   0.810   2.452   8.053 -0.2967 -0.5348  0.5194
 6246SOL    HW230198   0.760   2.441   8.191 -0.9949 -0.5241 -0.7418
 6247SOL     OW30199   3.151   3.673  15.160  0.0461 -0.0229  0.1133
 6247SOL    HW130200   3.224   3.732  15.140  1.2970 -1.6094 -0.0230
 6247SOL    HW230201   3.099   3.742  15.201 -1.3011 -1.5925  1.0466
 6248SOL     OW30202   4.021   1.624   6.455  0.3592  0.1045  0.0546
 6248SOL    HW130203   4.070   1.659   6.380 -2.5085  0.9821 -1.4438
 6248SOL    HW230204   4.093   1.564   6.473  0.2739  0.3141  1.0548
 6249SOL     OW30205   1.507   3.665   6.461  0.7272  0.4851  0.1002
 6249SOL    HW130206   1.455   3.587   6.480  0.1644  0.7525 -0.3206
 6249SOL    HW230207   1.504   3.698   6.550  2.0385  1.3407 -0.1861
 6250SOL     OW30208   1.892   0.981   5.030  0.3710 -0.0905 -0.2016
 6250SOL    HW130209   1.944   1.002   5.108 -0.3747 -1.5627  0.6907
 6250SOL    HW230210   1.899   0.887   5.017  0.7304  0.0520 -1.0725
 6251SOL     OW30211   0.747   3.861  10.325  0.1834 -0.0866 -0.8445
 6251SOL    HW130212   0.706   3.916  10.259  1.2141  0.8718 -0.6821
 6251SOL    HW230213   0.836   3.865  10.293  1.4064 -0.3860  2.4903
 6252SOL     OW30214   4.638   3.080   8.282 -0.3520 -0.2311 -0.5783
 6252SOL    HW130215   4.584   3.034   8.346  0.8768 -1.2295 -0.2529
 6252SOL    HW230216   4.636   3.174   8.299  0.7493 -0.3835  0.4220
 6253SOL     OW30217   3.763   3.110  10.637  0.2636  0.0304 -0.0514
 6253SOL    HW130218   3.762   3.130  10.731  1.6427  0.8562 -0.2046
 6253SOL    HW230219   3.837   3.049  10.640  0.7931  0.7507  1.6731
 6254SOL     OW30220   4.212   0.551   2.850 -0.3446  0.3541 -0.6365
 6254SOL    HW130221   4.286   0.522   2.796 -1.1097 -1.2080 -0.8269
 6254SOL    HW230222   4.138   0.545   2.790 -0.9050  0.4770  0.0435
 6255SOL     OW30223   0.314   1.432  10.263  0.0660  0.5495  0.0657
 6255SOL    HW130224   0.371   1.426  10.340  1.3203 -0.8043 -0.9477
 6255SOL    HW230225   0.327   1.526  10.247 -2.1599  0.3251 -2.9759
 6256SOL     OW30226   3.803   1.698   0.068  0.0238 -0.2395  0.0865
 6256SOL    HW130227   3.754   1.705   0.150 -1.7347 -1.1894 -0.8811
 6256SOL    HW230228   3.877   1.645   0.097  1.3767  1.0853 -0.9360
 6257SOL     OW30229   4.293   1.824   2.228 -0.1355 -0.5836  0.1473
 6257SOL    HW130230   4.250   1.780   2.154  1.3395 -0.8289 -0.5583
 6257SOL    HW230231   4.221   1.877   2.262 -0.2133 -0.2373 -0.5501
 6258SOL     OW30232   3.190   2.491   3.873  0.8693  0.0435 -0.1340
 6258SOL    HW130233   3.242   2.514   3.950  1.4775 -0.3911 -0.4122
 6258SOL    HW230234   3.166   2.400   3.894  0.4631 -0.6813 -3.7209
 6259SOL     OW30235   3.268   3.958   7.292  0.2881 -0.8014 -0.3653
 6259SOL    HW130236   3.207   4.021   7.254  0.8707 -0.3342 -0.5344
 6259SOL    HW230237   3.332   3.953   7.221  0.1043 -1.0859 -0.5093
 6260SOL     OW30238   3.194   0.436  10.088 -0.0498  0.2434  0.5199
 6260SOL    HW130239   3.150   0.379  10.025  0.6556  0.0875  0.1677
 6260SOL    HW230240   3.237   0.384  10.157 -0.1508  0.1874  0.5402
 6261SOL     OW30241   2.386   2.926   5.405 -0.3154 -0.2109 -0.0283
 6261SOL    HW130242   2.395   3.019   5.426  1.1204 -0.1387 -0.9728
 6261SOL    HW230243   2.355   2.899   5.491  2.1486 -1.0603  0.5623
 6262SOL     OW30244   0.363   1.089   6.452  0.4401  0.6324 -0.5128
 6262SOL    HW130245   0.446   1.129   6.479 -0.9056  1.9729  1.5399
 6262SOL    HW230246   0.311   1.165   6.424 -0.5823  0.8676  2.0543
 6263SOL     OW30247   0.480   0.084  12.367 -0.0261  0.8239 -0.0051
 6263SOL    HW130248   0.411   0.097  12.302  0.8685  1.4887 -0.8019
 6263SOL    HW230249   0.422   0.046  12.434 -0.6776  2.0703  0.1301
 6264SOL     OW30250   0.651   3.277   1.220 -0.7358  0.1544  0.7411
 6264SOL    HW130251   0.676   3.293   1.129 -1.4403 -1.4634  0.2699
 6264SOL    HW230252   0.557   3.290   1.215 -0.8961 -0.4025  2.3418
 6265SOL     OW30253   4.435   3.790   7.282  0.0968  0.2187 -0.0620
 6265SOL    HW130254   4.396   3.703   7.288  0.0634  0.0193 -2.9740
 6265SOL    HW230255   4.508   3.775   7.342 -0.7033  1.8965  1.3256
 6266SOL     OW30256   2.414   3.478   1.239 -0.1572  0.7118  0.0730
 6266SOL    HW130257   2.340   3.525   1.277  1.3741  3.0513  0.1310
 6266SOL    HW230258   2.487   3.521   1.283  0.8327 -0.1962 -0.6611
 6267SOL     OW30259   3.803   4.515  16.738 -0.4698 -0.1493 -0.5016
 6267SOL    HW130260   3.729   4.492  16.683 -0.9721 -1.0614  0.5565
 6267SOL    HW230261   3.816   4.429  16.778  0.7402 -0.7330 -2.1813
 6268SOL     OW30262   3.092   3.329   0.872 -0.1880 -0.7149 -0.3386
 6268SOL    HW130263   3.023   3.265   0.856  0.9007 -2.1767  0.7642
 6268SOL    HW230264   3.055   3.416   0.883 -0.9387 -1.3973  2.5601
 6269SOL     OW30265   0.267   2.327   8.884  0.0941  0.2422 -0.1286
 6269SOL    HW130266   0.310   2.378   8.952  2.2100 -1.2675 -0.3246
 6269SOL    HW230267   0.313   2.243   8.887  0.3606  0.4228  0.7345
 6270SOL     OW30268   0.722   1.277   9.489  0.4301 -0.1000 -0.7956
 6270SOL    HW130269   0.782   1.343   9.524  0.4351  0.2842 -1.5400
 6270SOL    HW230270   0.666   1.254   9.564  0.8286 -0.9641 -0.7595
 6271SOL     OW30271   2.663   1.683   7.878 -0.3344 -0.3570 -0.1196
 6271SOL    HW130272   2.702   1.695   7.791  0.1155  0.3162  0.1802
 6271SOL    HW230273   2.585   1.738   7.883 -0.6446 -0.7186 -0.9068
 6272SOL     OW30274   2.246   3.966  14.370  0.1052 -0.7158  0.4646
 6272SOL    HW130275   2.265   3.889  14.423  1.8258  0.2113  1.1726
 6272SOL    HW230276   2.318   3.972  14.307 -0.2646 -0.8370  0.0250
 6273SOL     OW30277   2.499   1.674   5.264 -0.3045 -0.2914 -0.0581
 6273SOL    HW130278   2.545   1.590   5.257  2.6444  1.4203 -1.2007
 6273SOL    HW230279   2.577   1.728   5.252 -0.5223 -0.0537 -0.4153
 6274SOL     OW30280   3.925   2.770  12.746  0.4706 -0.6762 -0.3412
 6274SOL    HW130281   3.865   2.725  12.805 -0.0567  0.8578  0.2996
 6274SOL    HW230282   3.866   2.801  12.678  0.4078  0.8146  0.3950
 6275SOL     OW30283   3.885   3.194   5.811  0.3891 -0.0130  0.2924
 6275SOL    HW130284   3.855   3.119   5.862  0.6872 -0.3932 -0.0938
 6275SOL    HW230285   3.978   3.198   5.834  0.6096 -0.8553 -0.4689
 6276SOL     OW30286   2.645   0.922  13.484  0.2417 -0.0866  0.4472
 6276SOL    HW130287   2.648   0.955  13.394 -0.1713 -0.8154  0.1730
 6276SOL    HW230288   2.583   0.984  13.522 -1.0912 -0.6899 -0.7534
 6277SOL     OW30289   0.256   0.302   3.360 -0.0739 -0.6362  0.6000
 6277SOL    HW130290   0.234   0.287   3.268  2.5397 -2.7141  0.3289
 6277SOL    HW230291   0.348   0.328   3.360  0.2596 -1.7844 -1.6921
 6278SOL     OW30292   3.596   2.871  11.277  0.1161 -0.3653  0.4371
 6278SOL    HW130293   3.515   2.843  11.234 -0.3916 -1.1267  1.8696
 6278SOL    HW230294   3.603   2.786  11.321  0.9484 -1.0586 -1.0485
 6279SOL     OW30295   0.549   2.340  17.034  0.1712  0.5072 -0.2150
 6279SOL    HW130296   0.620   2.339  16.969  0.2991  2.7920 -0.1070
 6279SOL    HW230297   0.515   2.417  16.988 -0.1675  0.7972  0.5398
 6280SOL     OW30298   0.048   0.187   5.126 -0.0293  0.4332 -0.1861
 6280SOL    HW130299   0.102   0.229   5.058  1.5411  2.4797  2.3215
 6280SOL    HW230300   0.103   0.198   5.203  1.9873  0.4366 -1.6284
 6281SOL     OW30301   4.641   3.702  12.775 -0.0311 -0.4121  0.3062
 6281SOL    HW130302   4.645   3.648  12.854  0.0021 -0.6312  0.1544
 6281SOL    HW230303   4.595   3.780  12.805 -0.2964 -0.8011  0.9230
 6282SOL     OW30304   3.469   4.517  10.013 -0.3534 -0.0948  0.8490
 6282SOL    HW130305   3.507   4.583   9.956 -1.9776 -0.1681 -0.3303
 6282SOL    HW230306   3.543   4.458  10.031 -0.2729 -0.2417  0.0532
 6283SOL     OW30307   2.874   1.860   8.383  0.3630 -0.1105 -0.3342
 6283SOL    HW130308   2.791   1.829   8.348  0.7588 -0.9482 -0.5533
 6283SOL    HW230309   2.923   1.777   8.387  0.9868  0.3386  1.2928
 6284SOL     OW30310   1.944   2.345  13.435  0.0582 -0.4044  0.2491
 6284SOL    HW130311   1.856   2.381  13.443  0.6917  0.7895  1.7497
 6284SOL    HW230312   1.928   2.255  13.463  2.6400 -0.9052  0.1136
 6285SOL     OW30313   4.412   2.574   3.852 -0.4298  0.2104 -0.4009
 6285SOL    HW130314   4.333   2.533   3.815 -0.3574 -2.3570  2.2679
 6285SOL    HW230315   4.466   2.498   3.874  1.7588  2.6040  2.5012
 6286SOL     OW30316   3.953   1.095   4.869  0.1709 -0.6652  0.6200
 6286SOL    HW130317   3.865   1.062   4.890  0.3051 -0.7801  1.0075
 6286SOL    HW230318   4.012   1.021   4.883  0.3390 -0.7290 -0.4648
 6287SOL     OW30319   4.509   2.981   4.213 -0.1116  0.1689  0.2299
 6287SOL    HW130320   4.479   2.913   4.153 -0.6094  2.1102 -1.7093
 6287SOL    HW230321   4.424   3.004   4.250  0.0505 -0.9583  1.2808
 6288SOL     OW30322   2.804   2.489   7.807 -0.2498 -0.0485  0.0441
 6288SOL    HW130323   2.828   2.405   7.768  0.5563 -0.0936  0.6372
 6288SOL    HW230324   2.709   2.477   7.805 -0.3886  1.1380 -0.1303
 6289SOL     OW30325   3.221   2.638   1.445 -0.0158  0.4839  0.0291
 6289SOL    HW130326   3.154   2.640   1.377  1.5304  1.3334 -1.4884
 6289SOL    HW230327   3.239   2.545   1.458 -1.0751  0.5194  1.6935
 6290SOL     OW30328   3.687   3.191  10.886  0.4128 -0.1410 -0.2516
 6290SOL    HW130329   3.601   3.205  10.846  0.1765 -0.9280 -0.0271
 6290SOL    HW230330   3.664   3.233  10.968  1.3228  0.4741 -0.3126
 6291SOL     OW30331   1.805   2.346  11.832 -0.1565  0.0901 -0.4460
 6291SOL    HW130332   1.810   2.441  11.841 -1.5142 -0.0429  1.7325
 6291SOL    HW230333   1.821   2.338  11.738  1.0934  2.9270 -0.4768
 6292SOL     OW30334   0.854   0.525   6.031  0.6506  0.4660 -0.3625
 6292SOL    HW130335   0.815   0.453   5.982  1.0821  0.1223 -0.1968
 6292SOL    HW230336   0.928   0.486   6.078  0.8391  2.3777  0.9130
 6293SOL     OW30337   2.480   0.875   9.078 -0.4033  0.7848 -0.3865
 6293SOL    HW130338   2.459   0.935   9.007  1.1171 -0.5311 -1.9517
 6293SOL    HW230339   2.569   0.861   9.046  0.9897  0.1068  3.7501
 6294SOL     OW30340   4.410   2.948   8.005 -0.0024  0.0142 -0.3276
 6294SOL    HW130341   4.503   2.958   7.985 -0.0454  1.9145  0.3472
 6294SOL    HW230342   4.382   3.019   8.064 -0.1101  1.5340 -2.2117
 6295SOL     OW30343   2.970   0.356  16.660 -0.7137 -0.3448 -0.2737
 6295SOL    HW130344   2.912   0.282  16.676  1.1406 -1.9466 -0.8293
 6295SOL    HW230345   2.995   0.362  16.752 -0.1941 -1.8828 -0.3011
 6296SOL     OW30346   4.445   4.030   4.541  0.2407 -0.1730  0.0279
 6296SOL    HW130347   4.422   3.969   4.470 -0.6487  0.0241  0.1522
 6296SOL    HW230348   4.369   4.084   4.564  1.1642  0.8513  0.6557
 6297SOL     OW30349   1.483   0.019   5.037  0.2117 -0.2751 -0.3608
 6297SOL    HW130350   1.558   4.680   5.038 -0.7978 -1.5683 -0.8788
 6297SOL    HW230351   1.443   4.711   4.955 -3.0146  0.4873  0.9029
 6298SOL     OW30352   4.315   2.701   3.505 -0.2027 -0.3182  0.3720
 6298SOL    HW130353   4.273   2.748   3.577  1.5973  1.0369  0.5270
 6298SOL    HW230354   4.262   2.621   3.506 -0.4286 -0.1685  0.5028
 6299SOL     OW30355   3.596   0.253   7.762 -0.1721  0.3958 -0.5448
 6299SOL    HW130356   3.635   0.229   7.678 -0.2646  0.5577 -0.6337
 6299SOL    HW230357   3.522   0.293   7.717 -0.3787 -0.3990 -0.9001
 6300SOL     OW30358   2.309   4.345   5.086 -0.2252 -0.0811  0.4631
 6300SOL    HW130359   2.378   4.369   5.148 -0.3327  3.6286 -0.8545
 6300SOL    HW230360   2.260   4.425   5.066 -0.3247  0.3213  2.2858
 6301SOL     OW30361   1.545   3.637   7.308 -0.2602 -0.3903 -0.0455
 6301SOL    HW130362   1.579   3.571   7.247 -0.0309 -0.3499  0.0363
 6301SOL    HW230363   1.539   3.591   7.391  0.6474 -0.7641 -0.1805
 6302SOL     OW30364   1.191   0.545   7.163  0.5477 -0.4440  0.1521
 6302SOL    HW130365   1.101   0.579   7.165  0.1269 -1.6837  2.0542
 6302SOL    HW230366   1.223   0.580   7.246  3.1794 -0.3809 -0.8858
 6303SOL     OW30367   1.542   1.837  16.568 -0.5711  0.6979  0.1580
 6303SOL    HW130368   1.621   1.869  16.611 -0.9962 -0.3384  1.7083
 6303SOL    HW230369   1.487   1.913  16.585  1.4630  2.4268 -0.9621
 6304SOL     OW30370   0.462   4.229   5.491  0.5413  0.6548  0.1189
 6304SOL    HW130371   0.546   4.224   5.537 -0.5705  0.2016  2.0784
 6304SOL    HW230372   0.467   4.155   5.431 -1.2940  0.2883  0.4342
 6305SOL     OW30373   1.249   1.185  14.712 -0.0223  0.2691  0.5085
 6305SOL    HW130374   1.231   1.274  14.682  1.4716 -0.9541 -4.0803
 6305SOL    HW230375   1.342   1.181  14.688 -0.5053  2.1064 -1.6578
 6306SOL     OW30376   0.748   2.416   4.030  0.2657 -0.0064  0.3216
 6306SOL    HW130377   0.755   2.404   4.125 -2.5484 -0.7157  0.4448
 6306SOL    HW230378   0.676   2.479   4.024  0.2752  0.0601  0.8586
 6307SOL     OW30379   0.873   0.443   8.785 -0.1398 -0.1379 -0.0164
 6307SOL    HW130380   0.913   0.529   8.772  1.9189 -1.0191  0.5866
 6307SOL    HW230381   0.858   0.448   8.879 -4.8101  1.0038 -0.8012
 6308SOL     OW30382   2.006   2.168   3.276  0.1250 -0.1834  0.3464
 6308SOL    HW130383   1.982   2.164   3.183  0.4334 -1.0025  0.3001
 6308SOL    HW230384   2.086   2.221   3.272  1.4448 -2.0838  1.3214
 6309SOL     OW30385   2.908   2.655  10.258  0.0378  1.0003 -0.1974
 6309SOL    HW130386   2.976   2.590  10.241 -1.9134 -1.0049 -0.3203
 6309SOL    HW230387   2.869   2.666  10.171 -1.8802 -0.0782  0.5390
 6310SOL     OW30388   1.657   1.304   5.781  0.3487 -0.3092  0.3916
 6310SOL    HW130389   1.672   1.396   5.802  3.6627 -0.7820  0.1352
 6310SOL    HW230390   1.655   1.270   5.870  0.3495 -2.2581 -0.3441
 6311SOL     OW30391   4.261   0.997   4.805  0.0886  0.0620  0.1313
 6311SOL    HW130392   4.304   1.074   4.767 -3.0885  1.4151 -0.7105
 6311SOL    HW230393   4.207   0.974   4.729 -0.1483  5.7024 -1.4231
 6312SOL     OW30394   0.404   2.430  10.042 -0.3284  0.4901 -0.0406
 6312SOL    HW130395   0.329   2.416  10.100 -0.1681 -0.9636 -0.1862
 6312SOL    HW230396   0.477   2.382  10.081 -0.9158 -0.6764 -0.3945
 6313SOL     OW30397   2.037   2.874  16.985  0.4543 -0.8968  0.2519
 6313SOL    HW130398   2.078   2.960  16.971  0.8146 -0.9404  1.0727
 6313SOL    HW230399   2.011   2.864  16.893  0.9427 -3.5565  0.4168
 6314SOL     OW30400   2.421   2.580   5.477 -0.0778 -0.4523  0.3234
 6314SOL    HW130401   2.427   2.505   5.418  0.9394  1.1408 -1.5710
 6314SOL    HW230402   2.327   2.579   5.494 -0.2506  0.3738 -0.6532
 6315SOL     OW30403   3.577   0.794   5.748  0.0256  0.6154 -0.0646
 6315SOL    HW130404   3.533   0.776   5.666 -1.4951  1.8250  0.4947
 6315SOL    HW230405   3.638   0.721   5.759  0.3722  0.8088 -0.7034
 6316SOL     OW30406   0.617   1.345   4.298 -0.2941 -0.1232  0.2724
 6316SOL    HW130407   0.666   1.427   4.301 -1.4969  0.6403 -0.6941
 6316SOL    HW230408   0.529   1.377   4.320  0.3057  0.9427  1.1471
 6317SOL     OW30409   4.597   0.520   4.597  0.7544  0.3330  0.7501
 6317SOL    HW130410   4.632   0.481   4.517  1.8874  0.4772  1.1879
 6317SOL    HW230411   4.663   0.588   4.602  1.0646  0.1401 -0.5277
 6318SOL     OW30412   4.413   0.945   6.591 -0.0324  0.4955  0.2304
 6318SOL    HW130413   4.350   0.875   6.569  1.6903 -1.1198  0.4529
 6318SOL    HW230414   4.354   1.011   6.628 -1.8155  1.1608 -3.7730
 6319SOL     OW30415   3.292   1.966   4.649 -0.6958  0.9220 -0.7618
 6319SOL    HW130416   3.299   1.871   4.639  1.5170  0.9462  0.5532
 6319SOL    HW230417   3.231   1.993   4.580  1.4936  2.9290 -1.9733
 6320SOL     OW30418   2.952   1.352   7.812 -0.3854 -0.4298 -0.0428
 6320SOL    HW130419   2.900   1.336   7.891  0.6118  2.8907  1.2751
 6320SOL    HW230420   3.009   1.423   7.842 -0.1563 -0.5899 -0.0998
 6321SOL     OW30421   1.705   0.187  15.149 -0.5673  0.1031  0.5815
 6321SOL    HW130422   1.664   0.106  15.118  2.0380 -1.0674  0.1265
 6321SOL    HW230423   1.793   0.152  15.163 -0.3448  0.7236  0.7044
 6322SOL     OW30424   0.719   2.003   4.669 -0.1746 -0.0845 -0.0701
 6322SOL    HW130425   0.700   2.058   4.745 -0.3513 -0.6081  0.2662
 6322SOL    HW230426   0.741   2.075   4.609  2.8009 -0.4633  0.5357
 6323SOL     OW30427   4.475   0.914   3.721  0.5795 -0.3770  1.1426
 6323SOL    HW130428   4.536   0.954   3.659 -0.8072  1.5623  1.0576
 6323SOL    HW230429   4.520   0.837   3.756  1.5037  0.2870  1.3897
 6324SOL     OW30430   3.667   2.514   3.656 -0.0346  0.1441  0.5092
 6324SOL    HW130431   3.575   2.526   3.632  0.0025 -0.1107  0.2417
 6324SOL    HW230432   3.658   2.443   3.720  1.1042 -0.7233 -0.2914
 6325SOL     OW30433   3.924   2.057   6.886  0.1948 -0.0349 -0.1230
 6325SOL    HW130434   3.891   1.980   6.839  1.2980 -0.4116 -0.2821
 6325SOL    HW230435   3.873   2.122   6.838  1.2031 -0.4432 -1.7473
 6326SOL     OW30436   0.765   2.640  12.298  0.6617 -0.2404 -0.0676
 6326SOL    HW130437   0.773   2.716  12.356  1.6086 -0.3851 -0.0199
 6326SOL    HW230438   0.817   2.673  12.225  1.2310 -0.4815  0.2323
 6327SOL     OW30439   4.109   1.292   5.474 -0.3537 -0.3025  0.0038
 6327SOL    HW130440   4.054   1.217   5.451 -0.1796  0.1659 -1.8784
 6327SOL    HW230441   4.132   1.267   5.564  1.3443 -0.4567 -0.4813
 6328SOL     OW30442   3.176   1.298   5.568 -0.0297 -0.7019  0.0139
 6328SOL    HW130443   3.206   1.229   5.627 -0.2671 -1.1742 -0.4197
 6328SOL    HW230444   3.103   1.342   5.610  0.2500 -0.0056 -0.2250
 6329SOL     OW30445   2.841   3.318   9.820  0.4219 -0.9206  0.0356
 6329SOL    HW130446   2.867   3.250   9.882  0.0284 -1.7342 -0.6970
 6329SOL    HW230447   2.918   3.348   9.772 -0.6266 -0.3160 -1.2675
 6330SOL     OW30448   0.009   0.961   3.532  0.2125  0.1603  0.1088
 6330SOL    HW130449   0.099   0.959   3.566  0.4172 -0.2385 -0.4776
 6330SOL    HW230450   0.010   0.870   3.504 -1.2769 -0.1203  0.9830
 6331SOL     OW30451   1.180   2.583   6.433  0.4798  0.0653  0.2253
 6331SOL    HW130452   1.159   2.673   6.409 -0.2555 -0.7298 -2.0586
 6331SOL    HW230453   1.104   2.532   6.404  0.2814  0.4750  0.0253
 6332SOL     OW30454   3.225   1.777   3.626 -0.5377  0.1324  0.5256
 6332SOL    HW130455   3.272   1.745   3.703 -1.2685 -2.5660 -0.1720
 6332SOL    HW230456   3.203   1.692   3.589  2.2170  0.0044 -0.7810
 6333SOL     OW30457   0.124   2.647   5.886  0.6164 -0.0318  0.1277
 6333SOL    HW130458   0.037   2.677   5.913  0.9931 -0.6815  2.0973
 6333SOL    HW230459   0.170   2.730   5.898 -0.7808  0.7345  0.1088
 6334SOL     OW30460   2.527   3.225   1.137 -0.2773  0.2253  0.9850
 6334SOL    HW130461   2.606   3.244   1.086  0.7377  2.8612  3.5414
 6334SOL    HW230462   2.512   3.308   1.183 -1.6509  0.5122  0.0240
 6335SOL     OW30463   3.359   3.913  11.283  0.1142 -0.1576  0.2502
 6335SOL    HW130464   3.362   4.007  11.300 -2.2063  0.2428 -1.4931
 6335SOL    HW230465   3.266   3.898  11.303  0.1891 -1.8612 -0.7223
 6336SOL     OW30466   1.079   0.627   0.554  0.7546 -0.7314 -0.9800
 6336SOL    HW130467   1.137   0.694   0.518 -0.0047 -0.2749 -1.3526
 6336SOL    HW230468   1.017   0.682   0.601  1.5500  1.1634 -2.1363
 6337SOL     OW30469   0.836   2.698   4.520  0.3120 -0.1657 -0.1342
 6337SOL    HW130470   0.911   2.737   4.477  0.2426 -2.4971 -2.3394
 6337SOL    HW230471   0.864   2.694   4.612 -1.2011  2.8570  0.4521
 6338SOL     OW30472   2.299   2.745   1.283  0.1355  0.1985  0.1353
 6338SOL    HW130473   2.280   2.838   1.276 -0.2574  0.1056 -0.0315
 6338SOL    HW230474   2.384   2.745   1.328 -0.6287  0.3053  1.5822
 6339SOL     OW30475   4.371   3.279   0.896  0.0164  0.2429 -0.1622
 6339SOL    HW130476   4.290   3.251   0.853  0.7759 -1.1399 -0.7107
 6339SOL    HW230477   4.417   3.300   0.815  0.8537 -1.0309 -0.0161
 6340SOL     OW30478   1.583   3.687  14.347  0.1819  0.1033 -0.2540
 6340SOL    HW130479   1.529   3.700  14.425  1.1496  0.4160  0.3618
 6340SOL    HW230480   1.609   3.775  14.319  1.9393  0.1546  1.5502
 6341SOL     OW30481   3.473   2.993  11.502  0.2522  0.2227  0.0028
 6341SOL    HW130482   3.480   3.088  11.497 -1.5010  0.2948 -1.3730
 6341SOL    HW230483   3.523   2.965  11.425 -0.6238  1.0492 -0.8641
 6342SOL     OW30484   1.854   0.399  13.740  0.4847 -0.4052  0.0363
 6342SOL    HW130485   1.828   0.481  13.783  1.3370 -0.3971  0.5358
 6342SOL    HW230486   1.767   0.364  13.719 -0.8937  2.5696  0.6631
 6343SOL     OW30487   1.384   0.262   1.379 -0.1576  0.3262 -0.0214
 6343SOL    HW130488   1.443   0.278   1.452 -0.8625  1.3455  0.3268
 6343SOL    HW230489   1.435   0.200   1.327  0.4089  0.0739  0.8502
 6344SOL     OW30490   2.733   2.227   6.851 -0.0563 -0.0139  0.2920
 6344SOL    HW130491   2.652   2.245   6.898  0.2055  2.4688 -0.1811
 6344SOL    HW230492   2.798   2.287   6.887 -0.4668  0.3510  0.4259
 6345SOL     OW30493   0.111   1.577  10.747  0.0651 -0.4271 -0.3008
 6345SOL    HW130494   0.123   1.483  10.736 -0.0688 -0.2767 -1.7532
 6345SOL    HW230495   0.029   1.605  10.705  0.9733  1.8057 -0.5971
 6346SOL     OW30496   3.632   0.881   7.321  0.2687 -0.0238 -0.5892
 6346SOL    HW130497   3.636   0.948   7.390  0.4614 -0.2419 -0.3864
 6346SOL    HW230498   3.654   0.806   7.377  0.4404 -1.2702 -2.3451
 6347SOL     OW30499   4.587   4.624   7.753 -0.6527  0.0338 -0.1590
 6347SOL    HW130500   4.608   4.711   7.785  0.7690 -0.2142 -0.3931
 6347SOL    HW230501   4.613   4.629   7.661  1.4581 -0.9488  0.3707
 6348SOL     OW30502   1.921   3.189  17.683  0.1675 -0.4912  0.0784
 6348SOL    HW130503   1.855   3.258   0.004  1.7932  1.2373 -1.4211
 6348SOL    HW230504   1.873   3.120   0.041 -2.0720  1.2076  0.3049
 6349SOL     OW30505   1.607   2.079   9.011  0.6903 -0.1693 -0.0879
 6349SOL    HW130506   1.580   2.048   9.098  0.1091 -1.8174 -0.8541
 6349SOL    HW230507   1.677   2.142   9.028  0.7244 -0.8098  2.2088
 6350SOL     OW30508   2.844   2.872  15.674  0.6159  0.1742 -0.0742
 6350SOL    HW130509   2.928   2.835  15.701  0.9607  0.1782 -1.1349
 6350SOL    HW230510   2.785   2.810  15.718 -0.7056  0.7679 -0.9863
 6351SOL     OW30511   1.405   2.176   5.991  0.0695 -0.2592 -0.1607
 6351SOL    HW130512   1.360   2.256   5.961 -1.1265 -1.0718 -0.5746
 6351SOL    HW230513   1.493   2.206   6.011 -0.3430  1.0055 -0.1994
 6352SOL     OW30514   2.421   0.090  13.528  0.1478  0.0566  0.4219
 6352SOL    HW130515   2.447   0.082  13.620 -3.5292 -2.1638  1.2499
 6352SOL    HW230516   2.400   4.719  13.513 -0.9822  0.2424  0.8724
 6353SOL     OW30517   2.270   0.721   1.447 -0.7363  0.1802 -0.0389
 6353SOL    HW130518   2.177   0.736   1.467 -0.9833 -0.2008 -0.8974
 6353SOL    HW230519   2.306   0.737   1.534 -0.2000 -0.8762 -0.0655
 6354SOL     OW30520   1.441   1.783   7.256  0.2040 -0.1688 -0.3569
 6354SOL    HW130521   1.444   1.878   7.268 -0.4831 -0.5702  2.7694
 6354SOL    HW230522   1.354   1.781   7.215 -0.4328 -1.0774  1.0668
 6355SOL     OW30523   2.573   2.305  12.063 -0.4789  0.2043  0.2404
 6355SOL    HW130524   2.540   2.229  12.015 -1.6572  0.9851 -0.1910
 6355SOL    HW230525   2.633   2.345  12.000 -0.2726 -2.5239 -1.2933
 6356SOL     OW30526   3.657   1.310   8.710 -0.6668 -0.2527  0.0283
 6356SOL    HW130527   3.695   1.376   8.651  0.9696 -0.4834  0.8165
 6356SOL    HW230528   3.739   1.294   8.756 -0.2034  2.6509  0.1942
 6357SOL     OW30529   4.409   0.262   4.335 -0.4072  0.2475 -0.3647
 6357SOL    HW130530   4.442   0.344   4.296  0.8694  0.9284  2.1912
 6357SOL    HW230531   4.340   0.250   4.270  0.3695 -2.8414 -0.6232
 6358SOL     OW30532   2.994   1.852   6.916  0.0256 -0.0099  0.2101
 6358SOL    HW130533   2.903   1.831   6.892  0.5488 -2.0844  0.0958
 6358SOL    HW230534   3.034   1.878   6.833 -0.7550  0.7237  0.0523
 6359SOL     OW30535   0.302   3.618   2.607  0.4345  0.0240  0.5608
 6359SOL    HW130536   0.295   3.587   2.517  2.8371 -0.5279  0.5637
 6359SOL    HW230537   0.210   3.608   2.631 -0.5196  0.7066 -2.7371
 6360SOL     OW30538   2.702   1.288   6.128 -0.2571  0.2215 -0.1992
 6360SOL    HW130539   2.747   1.240   6.059  0.6536  1.4719 -0.4626
 6360SOL    HW230540   2.625   1.324   6.084 -1.0147 -0.2706  0.7184
 6361SOL     OW30541   2.244   0.311   2.732  0.2079 -0.2798 -0.0052
 6361SOL    HW130542   2.302   0.283   2.661 -1.2287  2.0627 -2.1070
 6361SOL    HW230543   2.255   0.404   2.716  2.4593 -0.5344  0.0093
 6362SOL     OW30544   1.384   3.241  12.408  0.4652  0.0417  0.7308
 6362SOL    HW130545   1.443   3.212  12.339 -1.2626  1.3950 -1.3221
 6362SOL    HW230546   1.395   3.336  12.404 -2.5213  0.4967  3.0361
 6363SOL     OW30547   3.160   3.150   2.325 -0.1372 -0.0897  0.1238
 6363SOL    HW130548   3.080   3.181   2.368 -1.5670 -1.8721 -1.2510
 6363SOL    HW230549   3.213   3.218   2.367  0.1950 -0.7762  0.8345
 6364SOL     OW30550   0.670   1.043  17.185  0.1283  0.0091 -0.1503
 6364SOL    HW130551   0.623   0.963  17.166 -1.3093  1.4169 -2.4729
 6364SOL    HW230552   0.700   1.035  17.276 -0.7970  0.8420  0.2299
 6365SOL     OW30553   2.619   4.024   2.042  0.1902 -0.7298  0.3997
 6365SOL    HW130554   2.654   4.083   2.109 -0.9576 -0.3634  0.6894
 6365SOL    HW230555   2.629   4.070   1.959 -1.3166 -0.3619  0.4126
 6366SOL     OW30556   0.421   2.879  17.114  0.3168  0.5403 -0.8363
 6366SOL    HW130557   0.459   2.875  17.202 -0.1212 -0.6963 -0.7090
 6366SOL    HW230558   0.479   2.853  17.044  0.6661 -2.1119  0.4669
 6367SOL     OW30559   3.700   1.900   5.793  0.2001  0.3234 -0.1467
 6367SOL    HW130560   3.744   1.860   5.717 -0.8068  0.3055 -0.7111
 6367SOL    HW230561   3.620   1.920   5.745 -0.1210  1.1002  0.7152
 6368SOL     OW30562   4.140   2.795   3.722  0.5015  0.4256  0.0486
 6368SOL    HW130563   4.104   2.815   3.809  1.9414 -1.9599  1.2194
 6368SOL    HW230564   4.059   2.759   3.686 -0.4941  2.6149  0.1054
 6369SOL     OW30565   2.241   2.985   4.452  0.2192  0.1917  1.0480
 6369SOL    HW130566   2.211   3.044   4.383 -1.4049  0.3460  1.8813
 6369SOL    HW230567   2.308   3.041   4.493  0.1419  1.0298  0.0102
 6370SOL     OW30568   0.201   2.014   3.457  0.5932 -0.0778  0.0136
 6370SOL    HW130569   0.167   2.044   3.373  0.2792  0.3532  0.2961
 6370SOL    HW230570   0.169   2.075   3.523 -1.1748 -1.7120  0.6665
 6371SOL     OW30571   0.269   3.487   3.323 -0.4335 -0.2866  0.5351
 6371SOL    HW130572   0.232   3.407   3.361  1.9034 -1.9858 -0.7867
 6371SOL    HW230573   0.342   3.502   3.383  0.5839 -1.7247 -0.3152
 6372SOL     OW30574   0.410   2.372  12.212  0.0303 -0.7563 -0.0063
 6372SOL    HW130575   0.436   2.420  12.290 -1.6155  0.3512 -0.1374
 6372SOL    HW230576   0.495   2.385  12.170 -0.5813  1.9165 -0.3605
 6373SOL     OW30577   2.403   3.736   4.764  0.9051  0.1242  0.5115
 6373SOL    HW130578   2.445   3.667   4.711 -2.5968 -1.1485 -0.6552
 6373SOL    HW230579   2.398   3.680   4.842  2.1715 -2.2124 -1.0604
 6374SOL     OW30580   1.421   3.478  17.541 -0.2149 -0.4748  0.4414
 6374SOL    HW130581   1.409   3.389  17.573 -0.2973 -0.8596 -0.6295
 6374SOL    HW230582   1.348   3.515  17.589  0.6021  2.4101 -0.5419
 6375SOL     OW30583   1.944   1.328  14.135 -0.2839  0.3189 -0.2299
 6375SOL    HW130584   1.925   1.321  14.042  0.2649 -0.3051 -0.2944
 6375SOL    HW230585   2.036   1.355  14.137 -0.5134  1.1599 -1.0676
 6376SOL     OW30586   0.950   1.336   8.135  0.3378  0.1871  0.2211
 6376SOL    HW130587   0.993   1.318   8.051 -3.9215  1.1278 -2.1669
 6376SOL    HW230588   0.999   1.412   8.168  0.2520  1.4538 -2.5413
 6377SOL     OW30589   2.856   4.336   1.560  0.2878 -0.0427 -0.0362
 6377SOL    HW130590   2.824   4.404   1.501  0.6341  0.8634  0.8187
 6377SOL    HW230591   2.776   4.282   1.559  0.3770 -0.1797  0.1944
 6378SOL     OW30592   0.829   1.856   0.954 -0.0802 -0.0220 -0.1507
 6378SOL    HW130593   0.878   1.823   0.878  1.0338  0.5823  0.3114
 6378SOL    HW230594   0.905   1.859   1.011 -0.4410  2.0152  0.2152
 6379SOL     OW30595   1.182   3.840   6.737 -0.0024 -0.4967  0.6606
 6379SOL    HW130596   1.256   3.779   6.733  0.5247  0.3020 -1.9898
 6379SOL    HW230597   1.140   3.825   6.652 -0.1345  0.0377  0.6303
 6380SOL     OW30598   0.536   3.200  13.229  0.3549 -0.5181  0.0236
 6380SOL    HW130599   0.578   3.213  13.314 -1.4287  0.8327  0.6893
 6380SOL    HW230600   0.587   3.127  13.195  1.8105  1.3490 -1.8201
 6381SOL     OW30601   3.245   0.315  14.823  0.8119  0.0730  0.2797
 6381SOL    HW130602   3.229   0.381  14.889 -0.6816 -0.5958  0.5912
 6381SOL    HW230603   3.298   0.354  14.753 -0.5882 -0.9713 -1.3741
 6382SOL     OW30604   1.381   3.076   7.504  0.2147 -0.0285 -0.7243
 6382SOL    HW130605   1.289   3.049   7.508  0.4034 -0.3132  1.6949
 6382SOL    HW230606   1.404   3.059   7.595 -2.5297 -3.4333 -0.6390
 6383SOL     OW30607   4.431   3.501   9.415 -0.0301 -0.1439 -0.1967
 6383SOL    HW130608   4.504   3.521   9.473 -1.4667 -1.8559  2.1785
 6383SOL    HW230609   4.361   3.483   9.478  0.3224 -1.2630 -0.1315
 6384SOL     OW30610   3.897   1.273  15.083 -0.1718 -0.1996 -0.3395
 6384SOL    HW130611   3.877   1.180  15.076  2.7763 -0.7288 -1.9843
 6384SOL    HW230612   3.812   1.303  15.050 -0.6091 -2.3231 -1.1453
 6385SOL     OW30613   0.256   0.715   3.023 -0.6361  0.7484  0.2952
 6385SOL    HW130614   0.318   0.648   3.051  0.6463  1.9611  0.3704
 6385SOL    HW230615   0.300   0.796   3.048  0.2181  0.0954  0.8950
 6386SOL     OW30616   0.656   4.516  15.345 -0.2642  0.6352  0.0337
 6386SOL    HW130617   0.638   4.571  15.421 -0.6783 -0.6301  0.8490
 6386SOL    HW230618   0.700   4.447  15.395  0.7619  1.0488 -0.3052
 6387SOL     OW30619   4.239   0.521   4.356 -0.0613  0.0418  1.0097
 6387SOL    HW130620   4.226   0.489   4.445  1.3437  1.3651  1.6932
 6387SOL    HW230621   4.301   0.593   4.372  1.1763 -0.3438 -1.9586
 6388SOL     OW30622   2.649   3.661  17.357  0.5446  0.3954  0.3257
 6388SOL    HW130623   2.592   3.737  17.373  1.7236  1.2929  0.3003
 6388SOL    HW230624   2.634   3.626  17.445  0.3205 -0.0817  0.0935
 6389SOL     OW30625   4.357   4.510   6.623 -0.2781  0.3108 -0.3849
 6389SOL    HW130626   4.272   4.472   6.601 -0.5274  1.5245 -1.5468
 6389SOL    HW230627   4.401   4.448   6.681 -0.5332 -1.1395 -1.7603
 6390SOL     OW30628   3.959   1.712   4.139  0.1210 -0.3162  0.6255
 6390SOL    HW130629   3.939   1.758   4.057  2.5304  2.7751  1.7941
 6390SOL    HW230630   4.050   1.686   4.121 -0.1015 -0.6115 -0.0689
 6391SOL     OW30631   0.978   3.517   6.942 -0.2255 -0.3300  0.1259
 6391SOL    HW130632   1.021   3.582   6.997  1.7308 -1.7678  0.2871
 6391SOL    HW230633   1.024   3.525   6.858  0.6047  0.4938  0.6658
 6392SOL     OW30634   1.797   1.523   6.555  0.5447  0.3636 -0.0534
 6392SOL    HW130635   1.752   1.444   6.528 -0.6767  2.2897 -3.6181
 6392SOL    HW230636   1.718   1.535   6.609  0.2784 -2.5670  0.1721
 6393SOL     OW30637   4.635   4.212   4.815 -0.2477  0.0849 -0.7060
 6393SOL    HW130638   4.569   4.147   4.839  1.9069 -2.2090 -1.0264
 6393SOL    HW230639   4.702   4.201   4.882 -1.0470  0.5099  0.1647
 6394SOL     OW30640   3.347   4.353  12.105  0.4092 -0.2366  0.3690
 6394SOL    HW130641   3.282   4.422  12.122 -0.1361 -0.8449  0.8078
 6394SOL    HW230642   3.339   4.307  12.189 -0.0242  0.4158  0.6929
 6395SOL     OW30643   0.400   3.243   9.055 -0.3951  0.5962  0.0195
 6395SOL    HW130644   0.359   3.192   8.985  0.3943 -0.4240  0.3091
 6395SOL    HW230645   0.492   3.245   9.030 -0.0239 -0.7697  1.2730
 6396SOL     OW30646   2.426   0.241   3.879 -0.0838 -0.1110 -0.6993
 6396SOL    HW130647   2.376   0.179   3.826 -0.5692 -0.3848  0.0895
 6396SOL    HW230648   2.506   0.240   3.826 -0.3757  0.6729 -1.1650
 6397SOL     OW30649   3.337   2.637   2.352  0.3123 -0.4118 -0.5965
 6397SOL    HW130650   3.302   2.726   2.359 -0.0673 -0.7660  1.8193
 6397SOL    HW230651   3.312   2.624   2.260  1.5364  1.8396 -1.2456
 6398SOL     OW30652   2.968   1.549  14.941  0.2953 -0.6145 -0.2142
 6398SOL    HW130653   2.928   1.464  14.958  3.2117 -2.0795 -0.7303
 6398SOL    HW230654   2.883   1.592  14.936  0.6104 -0.1083 -1.1907
 6399SOL     OW30655   4.247   2.512  13.764 -0.2325 -0.4351 -0.0008
 6399SOL    HW130656   4.318   2.571  13.742 -0.0098 -0.2920  1.0840
 6399SOL    HW230657   4.177   2.571  13.736  0.1297  0.4883  1.0205
 6400SOL     OW30658   2.831   2.569   3.935  0.6486 -0.1421 -0.0949
 6400SOL    HW130659   2.800   2.544   4.022  2.5281 -1.3088  0.2468
 6400SOL    HW230660   2.771   2.641   3.919 -2.0323 -1.7204  2.8103
 6401SOL     OW30661   3.979   3.465  11.135 -0.3820 -0.2164 -0.2697
 6401SOL    HW130662   4.074   3.475  11.148 -0.6733  2.3547 -0.1861
 6401SOL    HW230663   3.970   3.469  11.040 -0.0824  1.0986 -0.2449
 6402SOL     OW30664   3.813   2.043   1.236 -0.1592  0.3943 -0.3032
 6402SOL    HW130665   3.771   1.985   1.172  0.5086  1.3047 -1.5690
 6402SOL    HW230666   3.808   1.982   1.310 -0.6984  1.9033  0.9033
 6403SOL     OW30667   0.763   4.592   1.234 -0.1462  0.4733 -0.0132
 6403SOL    HW130668   0.673   4.567   1.217  0.3859 -0.5758 -1.3318
 6403SOL    HW230669   0.771   4.678   1.193 -1.0144  0.8426  0.5947
 6404SOL     OW30670   2.987   2.120   0.312  0.2833  0.3226 -0.4804
 6404SOL    HW130671   2.913   2.104   0.254 -2.9076  0.4548  3.5173
 6404SOL    HW230672   3.049   2.052   0.287  0.4288 -0.0729  0.9379
 6405SOL     OW30673   2.490   4.438   4.450  0.4386 -0.1378 -0.1523
 6405SOL    HW130674   2.520   4.347   4.457 -2.9041 -1.1954  0.3067
 6405SOL    HW230675   2.518   4.456   4.360  0.8605 -2.3424 -0.4728
 6406SOL     OW30676   1.459   3.135   7.257 -0.6824 -0.1443 -0.0992
 6406SOL    HW130677   1.386   3.190   7.231  1.2709  1.8937 -1.3321
 6406SOL    HW230678   1.438   3.087   7.337  0.4597 -0.3598  0.0776
 6407SOL     OW30679   0.628   0.260  11.994  0.3053  0.5772 -0.0681
 6407SOL    HW130680   0.720   0.272  12.016  0.1410 -0.5910  1.2707
 6407SOL    HW230681   0.622   0.294  11.905  0.2653 -0.6128 -0.5183
 6408SOL     OW30682   0.233   1.232   4.849  0.4620 -0.0457 -0.0684
 6408SOL    HW130683   0.328   1.249   4.846  0.6604 -0.9213  1.1950
 6408SOL    HW230684   0.215   1.214   4.942  1.1386  2.1406  0.4799
 6409SOL     OW30685   4.086   1.348   1.370  0.2646 -0.3185 -0.0596
 6409SOL    HW130686   4.024   1.282   1.399  1.3768 -1.1457  0.4246
 6409SOL    HW230687   4.146   1.342   1.444  1.2620  1.0450 -0.7679
 6410SOL     OW30688   1.865   4.084   7.480 -0.3072  0.0379 -0.2009
 6410SOL    HW130689   1.867   4.134   7.561  0.3995  0.6957 -0.6150
 6410SOL    HW230690   1.807   4.135   7.423  0.2485  0.6929 -0.1846
 6411SOL     OW30691   4.386   2.820  15.582  0.8659  0.7645 -0.1662
 6411SOL    HW130692   4.451   2.889  15.567 -0.9358  2.3336 -0.7678
 6411SOL    HW230693   4.329   2.865  15.644 -0.6611  1.0264 -1.7458
 6412SOL     OW30694   1.443   0.228   0.442  0.2310 -0.1040 -0.4722
 6412SOL    HW130695   1.462   0.298   0.505  0.9294 -1.2205  0.5605
 6412SOL    HW230696   1.357   0.255   0.410 -0.1661  0.1909  0.8412
 6413SOL     OW30697   0.745   0.216   7.097  0.3252 -0.1647  0.1657
 6413SOL    HW130698   0.800   0.275   7.148  0.2119 -0.6749  0.8753
 6413SOL    HW230699   0.812   0.171   7.046 -1.1617 -1.7760 -0.3785
 6414SOL     OW30700   2.715   3.396   3.109  0.4062 -0.0137 -0.4446
 6414SOL    HW130701   2.739   3.388   3.016 -0.6051  3.2030 -1.0055
 6414SOL    HW230702   2.630   3.353   3.107  0.8720 -1.0536  2.2385
 6415SOL     OW30703   2.301   0.221   2.163  0.0766  0.4657 -0.0049
 6415SOL    HW130704   2.351   0.302   2.169  1.8664 -0.6895  0.3334
 6415SOL    HW230705   2.210   0.251   2.168  0.2911  0.7094  2.4328
 6416SOL     OW30706   0.175   3.107   9.672 -0.0062  0.2885 -0.3351
 6416SOL    HW130707   0.090   3.063   9.666 -0.5174  1.5158 -2.2553
 6416SOL    HW230708   0.179   3.130   9.764  0.8561 -1.9074  0.1923
 6417SOL     OW30709   0.812   3.799   6.653  0.4208  0.7494  0.0422
 6417SOL    HW130710   0.723   3.816   6.681  0.2829  0.0244  0.0384
 6417SOL    HW230711   0.843   3.878   6.609  2.0504  1.2951  2.1588
 6418SOL     OW30712   1.768   0.918   3.348  0.1882  0.0036 -0.2444
 6418SOL    HW130713   1.839   0.896   3.288  0.4029 -0.2172  0.0903
 6418SOL    HW230714   1.822   0.964   3.413  0.5044 -0.3513 -0.2568
 6419SOL     OW30715   4.487   4.549   5.758  0.3210  0.1032 -0.6796
 6419SOL    HW130716   4.397   4.575   5.775  0.8358  0.8140  0.9647
 6419SOL    HW230717   4.475   4.473   5.701 -0.4557  1.7916 -2.7567
 6420SOL     OW30718   4.623   2.246  16.079  0.5307  0.3050 -0.5436
 6420SOL    HW130719   4.613   2.151  16.077 -0.4096  0.3958 -0.1832
 6420SOL    HW230720   4.702   2.264  16.131  0.0663  2.6074 -0.6510
 6421SOL     OW30721   1.697   2.670   2.790  1.0868  0.0564 -0.0215
 6421SOL    HW130722   1.616   2.703   2.830  0.7511  0.2920 -0.8944
 6421SOL    HW230723   1.704   2.580   2.820  2.8678  0.7448  1.6583
 6422SOL     OW30724   3.488   2.693   2.775  0.3476  0.7398 -0.2121
 6422SOL    HW130725   3.507   2.758   2.843  0.5996  0.9727 -0.5042
 6422SOL    HW230726   3.548   2.723   2.706  0.5108 -0.5605 -0.6303
 6423SOL     OW30727   2.759   2.442   5.491  0.0091  0.0714  0.0138
 6423SOL    HW130728   2.808   2.436   5.409 -1.8648  1.2709 -1.1735
 6423SOL    HW230729   2.698   2.369   5.489 -0.1383  0.2268 -0.9886
 6424SOL     OW30730   2.417   1.420   6.322  0.2121 -0.0850 -0.2427
 6424SOL    HW130731   2.386   1.346   6.376 -0.2435 -1.6720 -2.6778
 6424SOL    HW230732   2.510   1.429   6.342 -0.1625  0.7891  1.1254
 6425SOL     OW30733   0.497   3.140  12.102 -0.2582  0.1144 -0.2014
 6425SOL    HW130734   0.402   3.150  12.095 -0.2150  0.2936 -0.5513
 6425SOL    HW230735   0.496   3.107  12.192 -2.6039 -1.9993 -1.0119
 6426SOL     OW30736   3.735   2.466   6.815 -0.6542  0.5497 -1.0028
 6426SOL    HW130737   3.714   2.372   6.820  2.4394  0.0254  2.8578
 6426SOL    HW230738   3.819   2.476   6.770  0.7807 -3.9476  0.6106
 6427SOL     OW30739   1.608   3.214  12.190 -0.1736  0.3461  0.1577
 6427SOL    HW130740   1.543   3.169  12.136  0.3191  0.0839 -0.2147
 6427SOL    HW230741   1.594   3.300  12.151  2.9696  0.0833 -1.5544
 6428SOL     OW30742   3.395   3.465   4.749 -0.1605  1.0755 -0.0842
 6428SOL    HW130743   3.436   3.476   4.664  1.2431 -2.4271  0.1337
 6428SOL    HW230744   3.467   3.480   4.810  0.5059 -3.9133  0.3984
 6429SOL     OW30745   4.709   0.386   4.364  0.0284 -0.0026 -0.2480
 6429SOL    HW130746   0.053   0.358   4.300  2.0087  0.3776  1.5753
 6429SOL    HW230747   4.709   0.304   4.414 -0.4594 -0.4972 -1.0639
 6430SOL     OW30748   3.769   3.985   0.312  0.2638 -0.5655 -0.2333
 6430SOL    HW130749   3.727   3.917   0.365  0.2382 -0.0628  0.4018
 6430SOL    HW230750   3.838   4.023   0.367  0.5635  0.9171 -1.6380
 6431SOL     OW30751   3.368   4.649   9.542  0.6243 -0.2911  0.6448
 6431SOL    HW130752   3.351   4.718   9.606 -2.3216  0.7813 -1.3017
 6431SOL    HW230753   3.316   4.684   9.470 -1.1536 -0.6378  1.7876
 6432SOL     OW30754   3.543   1.916  12.872  0.1788  0.1565  0.1882
 6432SOL    HW130755   3.472   1.940  12.932 -0.8030  1.0993 -1.3583
 6432SOL    HW230756   3.616   1.954  12.920 -0.3722  2.6055 -0.9314
 6433SOL     OW30757   4.257   4.262   8.800 -0.1786 -0.0112  0.4914
 6433SOL    HW130758   4.333   4.218   8.763  0.3723  1.2557  0.0999
 6433SOL    HW230759   4.296   4.279   8.885  0.5224 -0.4527  0.2555
 6434SOL     OW30760   1.782   4.247  16.551  0.0113  0.4499  0.5434
 6434SOL    HW130761   1.747   4.319  16.498 -0.1973 -0.2896 -0.3226
 6434SOL    HW230762   1.781   4.178  16.485  0.8644  0.1563  0.8309
 6435SOL     OW30763   3.595   2.431   7.466  0.3891 -0.0337 -0.5224
 6435SOL    HW130764   3.558   2.373   7.399 -1.8644  2.0880 -1.1027
 6435SOL    HW230765   3.589   2.375   7.543 -0.1218 -1.9369 -1.9368
 6436SOL     OW30766   4.044   1.591   7.824  0.1498  0.2791  0.1441
 6436SOL    HW130767   4.109   1.569   7.757  0.3381  1.6247 -0.1251
 6436SOL    HW230768   4.010   1.508   7.856 -0.9525  1.4637  2.0671
 6437SOL     OW30769   0.805   2.671  10.433 -0.1265  0.8225  0.0829
 6437SOL    HW130770   0.840   2.587  10.403  3.0107  1.2428  2.6368
 6437SOL    HW230771   0.723   2.640  10.472  1.4186 -0.2563  2.4863
 6438SOL     OW30772   1.815   1.108   0.134 -0.3279 -0.9053  0.3963
 6438SOL    HW130773   1.877   1.066   0.075 -0.5233 -2.9190  1.6284
 6438SOL    HW230774   1.802   1.040   0.199 -2.2513 -1.1788 -0.2713
 6439SOL     OW30775   2.297   2.225  13.536 -0.4865 -0.0666 -0.9362
 6439SOL    HW130776   2.312   2.167  13.610 -0.1670 -0.5448 -1.3780
 6439SOL    HW230777   2.361   2.186  13.477  0.3117  0.4857 -0.4462
 6440SOL     OW30778   2.435   0.685   4.556 -0.2168 -0.0650  0.2220
 6440SOL    HW130779   2.447   0.605   4.609 -0.9125  0.5635  1.3179
 6440SOL    HW230780   2.354   0.714   4.596  1.1938 -0.3048  3.2756
 6441SOL     OW30781   2.483   1.314  16.559 -0.1075  0.2217  0.0992
 6441SOL    HW130782   2.500   1.261  16.482  0.6559 -0.3800  0.6834
 6441SOL    HW230783   2.391   1.330  16.536 -0.3071 -2.5407 -1.0025
 6442SOL     OW30784   4.620   0.197   7.686 -0.3969 -0.4521 -0.0106
 6442SOL    HW130785   4.537   0.244   7.697 -0.2979 -0.3024  0.0779
 6442SOL    HW230786   4.684   0.264   7.661 -0.2081 -0.5621  0.1877
 6443SOL     OW30787   0.091   3.368   5.860  0.2031  0.1332  0.3717
 6443SOL    HW130788   0.044   3.448   5.882  2.6615  1.2852  1.4162
 6443SOL    HW230789   0.178   3.400   5.837  0.1984 -0.8404 -0.9939
 6444SOL     OW30790   0.904   3.157   0.012 -0.2313 -0.0410 -0.1880
 6444SOL    HW130791   0.972   3.225   0.012  0.8351 -1.1118 -1.2036
 6444SOL    HW230792   0.837   3.193  17.640 -2.3034 -1.5861  1.2531
 6445SOL     OW30793   1.670   3.642   7.934  0.4937 -0.1880 -0.2534
 6445SOL    HW130794   1.676   3.572   7.869 -1.3126  0.5340 -1.1874
 6445SOL    HW230795   1.760   3.667   7.957  0.2658  0.6392 -0.2448
 6446SOL     OW30796   1.247   3.634   0.304 -0.2253 -0.6096  0.7165
 6446SOL    HW130797   1.170   3.652   0.357  0.4974 -0.4460  1.7059
 6446SOL    HW230798   1.303   3.698   0.350  1.0621 -0.3661 -1.1804
 6447SOL     OW30799   0.224   0.635   5.973 -0.6659 -0.4218 -0.0571
 6447SOL    HW130800   0.147   0.689   5.956 -0.4709 -0.2393 -0.3533
 6447SOL    HW230801   0.223   0.620   6.068 -0.8098 -1.7344 -0.2708
 6448SOL     OW30802   0.487   0.498   5.938  0.7487  0.1459  0.0235
 6448SOL    HW130803   0.400   0.529   5.961  0.7758 -0.1838  0.5651
 6448SOL    HW230804   0.488   0.407   5.968  0.6150  0.2072  0.2103
 6449SOL     OW30805   2.793   3.640   0.306  0.2167 -0.7594  0.2809
 6449SOL    HW130806   2.888   3.649   0.309  0.4359 -2.6772 -1.1272
 6449SOL    HW230807   2.757   3.729   0.309 -0.2446 -0.8921 -1.3561
 6450SOL     OW30808   4.295   3.399  16.703 -0.0886 -0.5285 -0.3492
 6450SOL    HW130809   4.262   3.488  16.714 -1.0459 -0.7027 -1.8621
 6450SOL    HW230810   4.266   3.381  16.614  0.6613  2.7666 -1.2673
 6451SOL     OW30811   0.881   0.435   6.739 -0.2346 -0.1271 -0.1898
 6451SOL    HW130812   0.955   0.465   6.685 -1.6508  2.1266 -0.8815
 6451SOL    HW230813   0.906   0.344   6.757 -0.8287 -0.2200  0.1428
 6452SOL     OW30814   1.775   4.479   6.996 -0.5941  0.5379 -0.2050
 6452SOL    HW130815   1.766   4.494   6.901  2.3157 -1.2580 -0.7599
 6452SOL    HW230816   1.864   4.509   7.014 -0.8555 -1.2221  4.0090
 6453SOL     OW30817   0.715   1.024  13.690 -0.4278 -0.1054  0.4466
 6453SOL    HW130818   0.808   1.044  13.698 -0.3294 -1.2212  2.2569
 6453SOL    HW230819   0.710   0.929  13.705 -2.2059 -0.3116 -1.4152
 6454SOL     OW30820   2.992   0.112   3.276 -0.2474 -0.1129 -0.3075
 6454SOL    HW130821   3.056   0.093   3.345  1.0310 -1.2926 -1.8240
 6454SOL    HW230822   3.031   0.184   3.227 -2.2999  0.9499 -0.3809
 6455SOL     OW30823   3.455   2.170   5.155 -0.1556  0.0037 -0.4935
 6455SOL    HW130824   3.397   2.105   5.117 -2.2127  1.1681  0.6231
 6455SOL    HW230825   3.410   2.250   5.126  0.0523  0.1168 -0.5059
 6456SOL     OW30826   1.311   2.681   7.806 -0.0169 -0.8722 -0.3701
 6456SOL    HW130827   1.257   2.755   7.780 -0.9229 -1.5174 -0.3200
 6456SOL    HW230828   1.395   2.718   7.779 -0.4432  1.2338  1.2121
 6457SOL     OW30829   1.815   4.064  13.164  0.1746 -0.0473 -0.1909
 6457SOL    HW130830   1.726   4.065  13.128  0.3326  1.6729 -0.5247
 6457SOL    HW230831   1.813   4.017  13.247 -0.2147 -0.0850 -0.2230
 6458SOL     OW30832   1.220   0.061  15.096 -0.7726  0.3288 -0.4600
 6458SOL    HW130833   1.196   0.090  15.007  0.5125 -0.3102 -1.0025
 6458SOL    HW230834   1.253   0.146  15.125  1.9901  0.5525 -4.2389
 6459SOL     OW30835   0.229   3.812  14.394  0.8374 -0.2248 -0.5367
 6459SOL    HW130836   0.309   3.859  14.372 -0.4820  2.1139 -0.3326
 6459SOL    HW230837   0.241   3.786  14.485  1.1781  0.4901 -0.3808
 6460SOL     OW30838   4.065   0.085   7.723 -0.0217 -0.1703  0.5314
 6460SOL    HW130839   4.066   0.168   7.770  1.1462  1.4942 -2.4728
 6460SOL    HW230840   4.085   0.027   7.797 -1.9631  0.4050  1.5053
 6461SOL     OW30841   2.707   3.270  13.908  0.0091  0.3364 -0.0337
 6461SOL    HW130842   2.692   3.230  13.994  1.2493  2.1788  1.0338
 6461SOL    HW230843   2.622   3.266  13.866  0.3531  0.2691 -0.7246
 6462SOL     OW30844   2.530   1.243   2.517 -0.3994 -0.2589 -0.2653
 6462SOL    HW130845   2.573   1.320   2.554 -2.4191  0.9736 -0.4525
 6462SOL    HW230846   2.613   1.197   2.514 -0.7813 -0.8950 -1.1538
 6463SOL     OW30847   2.694   2.502   3.186 -0.3424 -0.5317 -0.3040
 6463SOL    HW130848   2.781   2.475   3.216  0.0119 -0.6135 -1.3776
 6463SOL    HW230849   2.682   2.587   3.227  2.0108 -0.4521  0.2457
 6464SOL     OW30850   4.111   2.774   6.715 -0.1922 -0.1380  0.3435
 6464SOL    HW130851   4.162   2.759   6.795  0.9595  0.8050 -0.2355
 6464SOL    HW230852   4.026   2.781   6.760  0.2542 -3.1031  1.6933
 6465SOL     OW30853   4.691   4.032  15.084  0.1372 -0.3374 -0.6806
 6465SOL    HW130854   4.622   3.976  15.120 -1.2617  0.9835 -1.2885
 6465SOL    HW230855   0.034   3.966  15.059 -1.6831 -2.0637 -0.7976
 6466SOL     OW30856   4.716   0.015   8.184  0.1607 -0.0547  0.0601
 6466SOL    HW130857   0.042   4.666   8.139  0.9497  0.9438 -0.6640
 6466SOL    HW230858   0.044   0.016   8.266 -0.4685 -1.0098  0.4504
 6467SOL     OW30859   0.291   3.767  10.601  0.0868  0.2968 -0.0024
 6467SOL    HW130860   0.232   3.813  10.660  1.2413 -0.1449  1.4945
 6467SOL    HW230861   0.356   3.836  10.590 -0.2502  0.8443  1.4048
 6468SOL     OW30862   0.326   4.204  16.101  0.1236 -0.3526  0.4685
 6468SOL    HW130863   0.389   4.157  16.155  0.8818 -0.3454 -0.4104
 6468SOL    HW230864   0.255   4.141  16.089 -0.2587  0.1102  0.3168
 6469SOL     OW30865   0.215   1.937   6.704  0.0924 -0.6497  0.2133
 6469SOL    HW130866   0.136   1.943   6.651 -0.5993 -0.9824  1.2110
 6469SOL    HW230867   0.245   2.027   6.687  0.0720 -0.8364 -0.8329
 6470SOL     OW30868   2.292   2.205   3.219  0.0958  0.6860 -0.3094
 6470SOL    HW130869   2.363   2.206   3.283  0.1292 -0.7264 -0.3281
 6470SOL    HW230870   2.306   2.290   3.176  0.1559  0.7957 -0.0766
 6471SOL     OW30871   0.516   1.625   1.281 -0.1345  0.5038 -0.1708
 6471SOL    HW130872   0.471   1.579   1.211  0.6659  1.9096 -1.6278
 6471SOL    HW230873   0.444   1.659   1.333  0.1089  0.3269  0.2872
 6472SOL     OW30874   2.471   4.023  13.746  0.2328 -0.2482 -0.1821
 6472SOL    HW130875   2.538   4.083  13.712  0.5348 -0.3623  0.2177
 6472SOL    HW230876   2.415   4.075  13.802 -0.2373 -1.1507  0.1788
 6473SOL     OW30877   3.435   1.805   8.472  0.3182  0.3654 -0.0497
 6473SOL    HW130878   3.424   1.723   8.423  0.2637  0.4317 -0.1496
 6473SOL    HW230879   3.377   1.789   8.546 -0.6196  0.6802 -0.7136
 6474SOL     OW30880   0.331   3.271   1.866  0.1855  0.0001 -0.0784
 6474SOL    HW130881   0.265   3.268   1.797  1.5978  3.6309 -1.6064
 6474SOL    HW230882   0.357   3.181   1.883  0.0740  0.0495  0.3567
 6475SOL     OW30883   3.633   0.224   6.886  0.3114 -0.4188 -0.2074
 6475SOL    HW130884   3.564   0.290   6.887  2.9088  2.3048  0.7738
 6475SOL    HW230885   3.689   0.259   6.817  0.7681 -1.0023 -0.1418
 6476SOL     OW30886   4.133   0.084   3.731  0.2069  0.2181 -0.0854
 6476SOL    HW130887   4.121   0.067   3.824 -0.5093  3.1201  0.3702
 6476SOL    HW230888   4.229   0.085   3.730  0.2130 -0.7642 -0.6830
 6477SOL     OW30889   2.830   2.902  16.294 -0.6355  0.1156 -0.2566
 6477SOL    HW130890   2.783   2.983  16.314 -0.9088 -0.4789  1.5117
 6477SOL    HW230891   2.842   2.872  16.384 -1.1442  2.2428  0.5288
 6478SOL     OW30892   2.038   4.606  11.939 -0.0913 -0.3019  0.0472
 6478SOL    HW130893   2.061   4.698  11.947 -2.4157  0.2444  0.2515
 6478SOL    HW230894   2.037   4.584  12.032 -0.5595  1.7013  0.5030
 6479SOL     OW30895   3.277   4.350  17.181  0.6289  0.6382  0.5329
 6479SOL    HW130896   3.372   4.349  17.168  0.4537 -0.7294 -0.6162
 6479SOL    HW230897   3.248   4.259  17.190 -1.0208  0.7812 -3.3986
 6480SOL     OW30898   2.566   1.589  14.745  0.4442 -0.9750  0.2901
 6480SOL    HW130899   2.625   1.553  14.678  0.1922  2.1226 -1.5667
 6480SOL    HW230900   2.490   1.576  14.689  2.4244 -0.5103 -2.5394
 6481SOL     OW30901   1.918   0.641   1.027 -0.2383  0.3410  0.1356
 6481SOL    HW130902   1.879   0.729   1.025  1.8053  1.2106 -1.2035
 6481SOL    HW230903   1.840   0.585   1.031  0.7562 -0.9877  0.6404
 6482SOL     OW30904   4.107   2.390   4.557 -0.7982 -0.1914 -0.3051
 6482SOL    HW130905   4.092   2.443   4.635 -1.1471 -0.2871 -0.3092
 6482SOL    HW230906   4.062   2.309   4.579  0.4640 -0.8268 -0.0445
 6483SOL     OW30907   1.521   4.297   2.845  0.4520  0.4295 -0.2784
 6483SOL    HW130908   1.551   4.217   2.802 -0.0831 -0.9467  1.9247
 6483SOL    HW230909   1.482   4.341   2.769  0.8097  2.1425  0.5151
 6484SOL     OW30910   2.661   1.980  16.663 -0.0737 -0.0215  0.3521
 6484SOL    HW130911   2.717   2.049  16.628  0.8181 -0.7809  0.2721
 6484SOL    HW230912   2.602   1.954  16.591  0.7252  1.6034 -0.8912
 6485SOL     OW30913   1.919   2.891  10.405 -0.1682 -0.5415  0.4805
 6485SOL    HW130914   2.010   2.876  10.381 -0.3878 -2.0701  0.6078
 6485SOL    HW230915   1.870   2.892  10.323  1.8359  1.4094 -0.6695
 6486SOL     OW30916   2.601   2.791   7.666 -0.0545 -0.0967 -0.2194
 6486SOL    HW130917   2.526   2.847   7.648 -0.3077 -0.3610 -0.0024
 6486SOL    HW230918   2.549   2.716   7.694  0.4454 -0.5531 -0.4989
 6487SOL     OW30919   1.827   0.027  13.338 -0.7166 -0.8122  0.8497
 6487SOL    HW130920   1.850   4.670  13.389  1.7871 -0.2703  0.5818
 6487SOL    HW230921   1.890   0.090  13.374  1.0832 -2.2819  0.2849
 6488SOL     OW30922   2.501   2.015   5.529 -0.1586 -0.1686  1.0458
 6488SOL    HW130923   2.437   2.016   5.600 -0.0250  0.3732  1.1558
 6488SOL    HW230924   2.548   1.934   5.548  1.4916  0.4776 -0.3392
 6489SOL     OW30925   1.155   0.625   7.880  0.3066  0.8132  0.5561
 6489SOL    HW130926   1.105   0.546   7.856  1.0286  0.8489 -1.0448
 6489SOL    HW230927   1.127   0.651   7.968 -0.2284  1.2692  0.2479
 6490SOL     OW30928   0.190   2.747  17.155  0.0519  0.3115 -0.8624
 6490SOL    HW130929   0.164   2.689  17.083  3.1704  0.2111 -1.9213
 6490SOL    HW230930   0.259   2.799  17.114 -0.5350  1.7986  0.0658
 6491SOL     OW30931   2.000   1.704  14.685 -0.1445  0.4915 -0.0579
 6491SOL    HW130932   1.971   1.749  14.605 -0.8281 -1.9993 -1.1941
 6491SOL    HW230933   1.923   1.649  14.702 -0.1628  0.7737  0.8120
 6492SOL     OW30934   1.935   1.319   4.012  0.2553  0.0959  0.4064
 6492SOL    HW130935   1.956   1.400   3.965  2.3610 -0.7702 -0.1600
 6492SOL    HW230936   1.898   1.261   3.945  1.6767 -0.9377  0.5253
 6493SOL     OW30937   1.219   0.019   6.289  0.8778 -0.1329  0.1661
 6493SOL    HW130938   1.240   0.004   6.381  0.6155  0.6657  0.3495
 6493SOL    HW230939   1.183   4.652   6.274  0.0003  0.2813 -0.1496
 6494SOL     OW30940   1.949   0.025   1.923 -0.5854 -0.3724 -1.0742
 6494SOL    HW130941   1.918   0.009   2.013 -0.9593 -2.4519 -1.5923
 6494SOL    HW230942   1.875   0.071   1.884 -0.6436 -0.3955 -0.9927
 6495SOL     OW30943   1.700   3.964   5.248 -0.7193  0.8701 -0.3298
 6495SOL    HW130944   1.609   3.935   5.256 -0.0005 -1.1884  0.6214
 6495SOL    HW230945   1.686   4.052   5.282 -1.1216 -0.3813  2.7890
 6496SOL     OW30946   2.381   3.772   7.151 -0.0996 -0.1582 -0.0678
 6496SOL    HW130947   2.470   3.782   7.185 -0.9119  0.1796  1.9574
 6496SOL    HW230948   2.392   3.693   7.099 -0.5265  1.0457 -2.0288
 6497SOL     OW30949   3.954   2.189   3.421  0.0155 -0.0182 -0.1780
 6497SOL    HW130950   3.858   2.193   3.416 -0.3464 -2.9706  4.3161
 6497SOL    HW230951   3.979   2.107   3.379  1.6403  1.0232 -1.2409
 6498SOL     OW30952   0.639   0.040   2.623 -0.2350 -0.3160 -0.1313
 6498SOL    HW130953   0.604   4.702   2.556 -0.0138 -0.1747 -0.3686
 6498SOL    HW230954   0.626   4.704   2.699  0.3688  0.5328  0.6071
 6499SOL     OW30955   2.156   3.039   6.162 -0.6349 -0.0650  0.7942
 6499SOL    HW130956   2.163   2.986   6.083  0.3824  1.8761 -0.4016
 6499SOL    HW230957   2.083   3.096   6.137  1.9708  3.1522  0.6474
 6500SOL     OW30958   2.555   4.429   5.862  0.0802 -0.1315  0.0014
 6500SOL    HW130959   2.621   4.393   5.921 -0.1650 -0.5200  0.0372
 6500SOL    HW230960   2.608   4.426   5.782  1.6029 -1.1073  1.0424
 6501SOL     OW30961   0.814   1.274   6.958  0.7220  0.5511  0.0072
 6501SOL    HW130962   0.862   1.342   6.911  1.4097 -0.0390 -0.1482
 6501SOL    HW230963   0.743   1.253   6.898  1.4454  1.3963 -1.1544
 6502SOL     OW30964   2.333   2.426   3.077 -0.3449 -0.5062  0.0761
 6502SOL    HW130965   2.363   2.488   3.143 -2.6506  0.6032  0.0948
 6502SOL    HW230966   2.402   2.440   3.012 -0.7124 -0.8536 -0.3954
 6503SOL     OW30967   0.426   1.205   3.361  0.1580 -0.5544  0.0547
 6503SOL    HW130968   0.482   1.279   3.386 -1.3268  0.5435  0.0961
 6503SOL    HW230969   0.468   1.158   3.289 -2.3100  1.4766 -2.7357
 6504SOL     OW30970   0.822   2.013  17.310  0.3219  0.2814  0.1735
 6504SOL    HW130971   0.881   2.065  17.365 -0.2671 -1.7901  2.7637
 6504SOL    HW230972   0.782   2.083  17.259 -0.2790 -1.1719 -1.3489
 6505SOL     OW30973   3.874   2.504   7.447 -0.8339  0.2567 -0.1093
 6505SOL    HW130974   3.791   2.476   7.485 -0.8725 -0.8498 -1.0040
 6505SOL    HW230975   3.902   2.433   7.388  0.0436  0.2455  0.3256
 6506SOL     OW30976   2.975   1.633  13.838 -0.3388 -0.3013 -0.1496
 6506SOL    HW130977   2.895   1.582  13.832 -0.6018 -0.1251  1.8719
 6506SOL    HW230978   2.954   1.714  13.885  2.3933 -0.2468  0.9867
 6507SOL     OW30979   2.322   4.661   8.563  0.5297 -0.0829 -0.0813
 6507SOL    HW130980   2.282   4.574   8.555  0.4997 -0.0097 -0.7058
 6507SOL    HW230981   2.271   4.702   8.494  2.4449 -0.2458 -1.6132
 6508SOL     OW30982   0.173   1.253   7.054  0.1132 -0.3108 -0.2466
 6508SOL    HW130983   0.263   1.264   7.084  0.0398  1.7955 -0.7748
 6508SOL    HW230984   0.130   1.254   7.140  1.2698 -0.0669  0.3293
 6509SOL     OW30985   2.304   3.277  15.586  0.1883  0.1494  0.2757
 6509SOL    HW130986   2.313   3.372  15.599 -0.4238  0.2552 -0.0516
 6509SOL    HW230987   2.388   3.250  15.623 -0.0567  0.1376  0.8326
 6510SOL     OW30988   0.115   4.419   3.853  0.6965  0.1361 -0.3820
 6510SOL    HW130989   0.045   4.485   3.849 -0.3894 -0.9649  0.4215
 6510SOL    HW230990   0.113   4.396   3.946 -2.2635  1.5129 -0.0766
 6511SOL     OW30991   3.407   2.441   8.294 -0.7037  0.1269 -0.6950
 6511SOL    HW130992   3.364   2.357   8.314  1.5604 -0.4177  1.9010
 6511SOL    HW230993   3.424   2.483   8.378 -0.6363  0.9006 -1.1030
 6512SOL     OW30994   1.428   1.616  15.909 -0.1266  0.8076 -0.0380
 6512SOL    HW130995   1.448   1.529  15.943 -1.0753  0.2131 -0.9759
 6512SOL    HW230996   1.479   1.682  15.956 -0.8613 -0.0364  1.9320
 6513SOL     OW30997   2.290   0.383  10.994  0.0196 -0.6866  0.5312
 6513SOL    HW130998   2.208   0.342  10.970 -0.2471  1.6416 -2.5436
 6513SOL    HW230999   2.334   0.370  10.910 -0.3910 -0.2652  0.2513
 6514SOL     OW31000   0.065   3.618   6.793  0.5475  0.2234 -0.5463
 6514SOL    HW131001   0.031   3.671   6.865  0.5686  0.4455 -0.7027
 6514SOL    HW231002   0.055   3.677   6.719 -0.5232 -1.8222 -2.0068
 6515SOL     OW31003   2.341   3.546  15.433 -0.4140 -0.4273  0.2142
 6515SOL    HW131004   2.260   3.584  15.399 -0.1397  0.0736  0.1254
 6515SOL    HW231005   2.320   3.576  15.521  0.9370 -1.5437  0.9103
 6516SOL     OW31006   2.847   3.914   4.391  1.0312 -0.3900  0.2000
 6516SOL    HW131007   2.856   3.911   4.486  0.0307  0.5484  0.3312
 6516SOL    HW231008   2.785   3.842   4.381  0.6756 -0.0240 -0.2268
 6517SOL     OW31009   1.947   2.222   4.359 -0.0696 -0.4312  0.2137
 6517SOL    HW131010   1.907   2.161   4.298  2.2176 -1.2619 -0.4566
 6517SOL    HW231011   2.019   2.170   4.395 -1.0808 -0.8128  1.6999
 6518SOL     OW31012   0.354   3.121   2.430 -0.7952 -0.4487 -0.2074
 6518SOL    HW131013   0.378   3.191   2.370  1.5575 -2.2600 -1.3817
 6518SOL    HW231014   0.409   3.143   2.505 -0.9553 -0.2697 -0.1437
 6519SOL     OW31015   2.534   0.892   3.673  0.1321 -0.1076  0.0519
 6519SOL    HW131016   2.472   0.844   3.727  0.8557  0.2081  1.1728
 6519SOL    HW231017   2.506   0.984   3.679  2.0814  0.5462 -0.7716
 6520SOL     OW31018   4.260   2.387  11.394  0.7550 -0.4519  0.1700
 6520SOL    HW131019   4.183   2.346  11.354  0.2649  0.4829  0.1589
 6520SOL    HW231020   4.317   2.379  11.318  0.1754 -1.3829 -0.1791
 6521SOL     OW31021   2.685   3.587   9.027  0.1757 -0.3369 -0.0641
 6521SOL    HW131022   2.766   3.609   8.980  0.6009  0.9556  1.2638
 6521SOL    HW231023   2.691   3.647   9.101 -1.1358 -0.5742  0.2234
 6522SOL     OW31024   3.295   2.856   7.501  0.0752 -0.3590 -0.3171
 6522SOL    HW131025   3.371   2.820   7.546  1.9427  1.5280 -1.9898
 6522SOL    HW231026   3.331   2.941   7.475 -1.8618  0.2866 -0.8492
 6523SOL     OW31027   1.353   0.580   7.414  0.1160  0.0066 -0.3024
 6523SOL    HW131028   1.408   0.512   7.453  0.3245  0.3485 -0.0020
 6523SOL    HW231029   1.317   0.618   7.495  0.4307  0.4770 -0.3840
 6524SOL     OW31030   4.483   2.344   2.191  0.1041 -0.0211  0.0511
 6524SOL    HW131031   4.476   2.409   2.260  4.2197 -1.2955  1.6563
 6524SOL    HW231032   4.506   2.262   2.233 -1.7023 -2.1182 -3.0134
 6525SOL     OW31033   2.778   2.042   0.170 -0.6007  0.4292  0.1444
 6525SOL    HW131034   2.706   2.099   0.143  0.0068  1.3033  0.3668
 6525SOL    HW231035   2.810   2.017   0.084 -2.2670  1.5051 -0.8035
 6526SOL     OW31036   2.849   3.817   7.285 -0.7504 -0.4173  0.0120
 6526SOL    HW131037   2.774   3.845   7.338 -2.2421 -0.5735 -2.0091
 6526SOL    HW231038   2.909   3.784   7.352 -0.3542  2.4277  1.0576
 6527SOL     OW31039   4.698   3.528   7.159  0.1082 -0.4477  0.0673
 6527SOL    HW131040   4.719   3.531   7.253  2.0225  2.0264 -0.4461
 6527SOL    HW231041   0.042   3.468   7.122 -0.5004 -0.0156 -1.6709
 6528SOL     OW31042   4.523   2.326   3.923  0.0335  0.1620 -0.2147
 6528SOL    HW131043   4.470   2.252   3.952 -0.4349  1.2516  1.6722
 6528SOL    HW231044   4.577   2.284   3.855  2.4269  3.7562 -0.5614
 6529SOL     OW31045   3.189   4.188   5.109 -0.3708 -0.4057  0.3327
 6529SOL    HW131046   3.104   4.204   5.151  0.2722  3.4918  0.1853
 6529SOL    HW231047   3.165   4.105   5.067 -1.0813 -0.5419  1.0063
 6530SOL     OW31048   4.511   3.225  15.004 -0.3953  0.2863 -0.1079
 6530SOL    HW131049   4.441   3.248  14.944 -1.1687  0.5290  0.8914
 6530SOL    HW231050   4.573   3.295  14.984  0.0219 -0.0810 -0.1264
 6531SOL     OW31051   3.535   2.046   3.547  0.0960  0.5532 -0.7337
 6531SOL    HW131052   3.529   2.033   3.641 -1.5891 -1.8078 -1.1542
 6531SOL    HW231053   3.444   2.059   3.521  0.0726  2.1101  0.1301
 6532SOL     OW31054   1.026   4.444   2.038 -0.0907  0.0984 -0.0003
 6532SOL    HW131055   0.966   4.453   1.965 -0.2940 -2.3070 -0.1314
 6532SOL    HW231056   1.064   4.364   2.002 -0.7989  0.0308 -0.5856
 6533SOL     OW31057   0.793   4.617   6.325 -0.5104  0.4874  0.2538
 6533SOL    HW131058   0.710   4.655   6.352  0.0771  1.2314  1.0241
 6533SOL    HW231059   0.759   4.579   6.244 -2.1417 -0.9392  1.6250
 6534SOL     OW31060   3.708   2.283   9.463  0.1049  0.1598 -0.0363
 6534SOL    HW131061   3.703   2.377   9.446 -0.3483 -0.0953 -1.3513
 6534SOL    HW231062   3.802   2.278   9.447  0.4116 -1.1286  2.1570
 6535SOL     OW31063   3.372   1.936   8.788  0.2265  0.4420 -0.1399
 6535SOL    HW131064   3.468   1.931   8.783  0.3083  2.0593  0.0037
 6535SOL    HW231065   3.352   1.960   8.878  0.6887  0.6971 -0.1071
 6536SOL     OW31066   1.842   2.272   2.455 -0.3825  0.5260 -0.2654
 6536SOL    HW131067   1.901   2.233   2.518 -1.3686 -1.4416 -0.5465
 6536SOL    HW231068   1.863   2.225   2.374  0.2507 -1.2131  0.9025
 6537SOL     OW31069   3.132   1.992   8.102  0.1700  0.3226  0.0236
 6537SOL    HW131070   3.042   2.025   8.106 -0.6423 -1.9040  0.2523
 6537SOL    HW231071   3.161   2.034   8.021  2.2721  1.6413  1.4680
 6538SOL     OW31072   0.459   3.803   3.839 -0.5804 -0.3485  0.3015
 6538SOL    HW131073   0.389   3.799   3.773 -0.3794  0.0254  0.0639
 6538SOL    HW231074   0.517   3.854   3.783 -1.8933 -0.4891 -1.2068
 6539SOL     OW31075   1.967   4.153   8.113 -0.8760  0.2253 -0.2725
 6539SOL    HW131076   2.052   4.129   8.150  0.1200  0.8633 -2.1316
 6539SOL    HW231077   2.010   4.174   8.030 -1.0071  2.1186  0.1472
 6540SOL     OW31078   2.431   2.738   0.973 -0.2660 -0.3395  0.7771
 6540SOL    HW131079   2.355   2.795   0.963  1.4765  1.4841 -1.9491
 6540SOL    HW231080   2.463   2.781   1.053 -1.2910  0.9193  0.5163
 6541SOL     OW31081   3.498   3.948   6.376  0.2779 -0.5392  0.0345
 6541SOL    HW131082   3.553   3.927   6.300  1.8349 -2.6408  1.7651
 6541SOL    HW231083   3.440   4.011   6.332  0.9849 -1.0419 -1.6364
 6542SOL     OW31084   2.047   2.594   0.286 -0.5056 -0.8046  0.4391
 6542SOL    HW131085   2.109   2.579   0.357 -0.3878 -3.0089 -0.1279
 6542SOL    HW231086   1.996   2.513   0.281 -1.4786 -0.1721  0.0353
 6543SOL     OW31087   2.600   1.288   5.646 -0.0787 -0.7205  0.7801
 6543SOL    HW131088   2.629   1.226   5.580  1.1414  0.1759  0.4680
 6543SOL    HW231089   2.505   1.294   5.637 -0.0113 -0.7398  0.0349
 6544SOL     OW31090   0.949   2.021   9.902  0.0730  0.3236 -0.2390
 6544SOL    HW131091   0.910   1.956   9.960 -0.2051  0.1160 -0.6675
 6544SOL    HW231092   1.040   1.993   9.908  0.7997  3.0167  1.5576
 6545SOL     OW31093   0.741   3.225  12.649 -0.2474  0.4887 -0.7385
 6545SOL    HW131094   0.778   3.235  12.562  0.9355 -0.3620 -0.3347
 6545SOL    HW231095   0.812   3.258  12.704 -1.3960  1.7932 -0.0313
 6546SOL     OW31096   1.610   1.140   7.047  0.2027  0.2175 -0.0057
 6546SOL    HW131097   1.573   1.178   7.126 -0.0852  0.6090 -0.3317
 6546SOL    HW231098   1.538   1.160   6.988 -0.4490 -0.5204  0.5397
 6547SOL     OW31099   2.610   1.341   9.617 -0.8507 -0.1656 -0.1647
 6547SOL    HW131100   2.602   1.406   9.687 -0.1967  1.4550 -1.6015
 6547SOL    HW231101   2.529   1.351   9.567 -0.0248 -0.8123 -1.6350
 6548SOL     OW31102   4.223   2.505  12.979 -0.0660 -0.4416 -0.2924
 6548SOL    HW131103   4.128   2.499  12.990  0.0115 -1.1216  0.0310
 6548SOL    HW231104   4.228   2.589  13.025 -1.1711 -1.8133  2.3449
 6549SOL     OW31105   1.060   2.473  16.544  0.2406 -0.0852 -0.5178
 6549SOL    HW131106   1.069   2.430  16.629 -3.1186 -0.2956 -0.2779
 6549SOL    HW231107   0.965   2.468  16.542  0.1690  0.9173  0.6026
 6550SOL     OW31108   1.733   3.112   5.827 -0.4216 -0.0762  0.8675
 6550SOL    HW131109   1.804   3.154   5.876  0.2847 -0.4700  0.1680
 6550SOL    HW231110   1.703   3.048   5.891 -0.8952 -0.6312  0.0750
 6551SOL     OW31111   0.591   3.289   6.064  0.2092 -0.7758  0.5100
 6551SOL    HW131112   0.535   3.288   5.986 -0.1050 -0.5773  0.7312
 6551SOL    HW231113   0.579   3.383   6.082 -0.4094 -0.4627 -1.5390
 6552SOL     OW31114   1.101   2.927  11.338 -0.3232 -0.2307 -0.2392
 6552SOL    HW131115   1.012   2.925  11.303  0.5389  0.6794 -2.5534
 6552SOL    HW231116   1.090   2.846  11.389  0.6824 -1.0844 -1.3645
 6553SOL     OW31117   0.709   4.436   5.525  0.5358 -0.1293 -0.2454
 6553SOL    HW131118   0.795   4.465   5.496  0.7464  0.7815  1.2830
 6553SOL    HW231119   0.658   4.490   5.465 -0.4215 -1.0119 -0.2339
 6554SOL     OW31120   2.572   2.030   5.966 -0.6820 -0.4759  0.3880
 6554SOL    HW131121   2.621   1.970   5.910 -1.2349 -0.5436 -0.0194
 6554SOL    HW231122   2.639   2.098   5.978  0.7311 -1.8909  0.4691
 6555SOL     OW31123   3.548   2.615   0.248  0.3720  0.0725  0.0328
 6555SOL    HW131124   3.452   2.620   0.246  0.3845  0.7755  1.0764
 6555SOL    HW231125   3.575   2.539   0.299 -1.0602  0.6602  1.6614
 6556SOL     OW31126   4.706   4.215   7.670  0.0514  0.6255 -0.0188
 6556SOL    HW131127   4.674   4.297   7.634 -1.1095 -0.1379 -0.7042
 6556SOL    HW231128   0.048   4.185   7.604 -0.4532 -3.4932  1.3624
 6557SOL     OW31129   1.730   1.620   5.796  0.1647 -0.2115  0.5297
 6557SOL    HW131130   1.801   1.580   5.747  0.0384  2.0958 -1.5336
 6557SOL    HW231131   1.679   1.667   5.730  0.8784  0.9812  0.8118
 6558SOL     OW31132   1.483   1.675   2.976  0.0703  0.0328 -0.5518
 6558SOL    HW131133   1.525   1.715   3.052 -1.1672 -0.9967  0.6758
 6558SOL    HW231134   1.559   1.621   2.955  0.7940  0.5622  0.6683
 6559SOL     OW31135   3.941   3.880   6.274  0.5413 -0.0977 -0.9998
 6559SOL    HW131136   3.953   3.886   6.369 -2.2746 -1.9575 -0.5321
 6559SOL    HW231137   4.028   3.846   6.253  0.2696  0.4316 -2.9950
 6560SOL     OW31138   3.097   0.348  16.306  0.8169 -0.8941 -0.1352
 6560SOL    HW131139   3.170   0.318  16.252 -0.6655 -3.0030 -0.9578
 6560SOL    HW231140   3.150   0.395  16.371  0.1587 -0.7498  0.3006
 6561SOL     OW31141   3.565   3.343   2.843 -0.2255  0.1939 -0.2012
 6561SOL    HW131142   3.541   3.335   2.935 -0.9066 -0.8024 -0.4667
 6561SOL    HW231143   3.597   3.255   2.826  1.9218  0.3961  2.6761
 6562SOL     OW31144   0.547   2.506  12.389 -0.1398 -0.2776  0.3037
 6562SOL    HW131145   0.551   2.563  12.466 -0.4977 -1.5927  1.2809
 6562SOL    HW231146   0.616   2.543  12.335 -0.2559  2.4252  1.9955
 6563SOL     OW31147   1.370   2.289   1.685  0.3195  0.3762  0.0893
 6563SOL    HW131148   1.465   2.298   1.688  0.3946 -0.7373  1.3736
 6563SOL    HW231149   1.339   2.366   1.639  0.6517  0.6953  0.3989
 6564SOL     OW31150   4.229   2.163   0.751 -0.1296 -0.0199 -0.0629
 6564SOL    HW131151   4.286   2.113   0.692  1.5615  1.3396  0.4519
 6564SOL    HW231152   4.274   2.145   0.833  0.2765 -0.8753 -0.4657
 6565SOL     OW31153   0.663   0.700   3.015 -0.5251 -0.2092 -0.3841
 6565SOL    HW131154   0.614   0.679   3.095  1.0988 -1.4719  0.2982
 6565SOL    HW231155   0.635   0.625   2.962 -2.3776  1.0308 -1.1597
 6566SOL     OW31156   1.704   1.992   7.828 -0.1400 -0.1736  0.4029
 6566SOL    HW131157   1.783   1.969   7.779 -0.1917 -2.0353  1.1736
 6566SOL    HW231158   1.735   1.963   7.914  1.8433  3.3843  0.9024
 6567SOL     OW31159   3.402   2.928   6.737  0.6618 -0.5351  0.6403
 6567SOL    HW131160   3.456   2.882   6.802  2.8833  1.5198  0.2295
 6567SOL    HW231161   3.326   2.944   6.793  2.6139  2.1865  2.4806
 6568SOL     OW31162   0.880   0.940  16.151  0.1118 -0.4606  0.2110
 6568SOL    HW131163   0.854   0.994  16.076  0.6267 -0.2664  0.1698
 6568SOL    HW231164   0.805   0.964  16.205 -0.0765 -1.8433  0.5752
 6569SOL     OW31165   2.377   2.570   3.667 -0.4083  0.4793  0.0521
 6569SOL    HW131166   2.306   2.633   3.652 -1.4681 -0.3704  1.4862
 6569SOL    HW231167   2.404   2.605   3.752 -1.8498 -0.1302  0.7732
 6570SOL     OW31168   4.661   3.524   1.418  0.2919  0.6284 -0.3194
 6570SOL    HW131169   4.682   3.502   1.509  0.5946 -1.0215 -0.7977
 6570SOL    HW231170   0.029   3.556   1.400  0.3743 -0.1203 -1.2426
 6571SOL     OW31171   0.664   0.725   4.954 -0.1199 -0.5191  0.3735
 6571SOL    HW131172   0.739   0.748   4.899 -1.3216 -0.6227 -1.3358
 6571SOL    HW231173   0.707   0.662   5.012  1.4186  0.4637  0.2917
 6572SOL     OW31174   2.271   0.104   3.491  0.0191  0.0064 -0.0627
 6572SOL    HW131175   2.313   0.175   3.442  1.7235 -1.0653 -0.1660
 6572SOL    HW231176   2.348   0.047   3.496 -1.7864 -2.4724 -0.8800
 6573SOL     OW31177   0.123   4.647   4.445 -0.2724  0.3840 -0.7886
 6573SOL    HW131178   0.042   4.625   4.400 -1.5746  3.2001  0.1784
 6573SOL    HW231179   0.182   4.575   4.421 -2.4789 -1.3127 -1.0378
 6574SOL     OW31180   2.980   0.687   2.848  0.0465 -0.1148  0.0978
 6574SOL    HW131181   2.993   0.766   2.796 -0.8773  0.0197  0.0790
 6574SOL    HW231182   3.037   0.629   2.797  0.9118 -1.2363  2.3715
 6575SOL     OW31183   0.637   3.040   4.749  0.3531  0.0815  0.3168
 6575SOL    HW131184   0.661   2.976   4.815  1.2264 -1.3435 -1.3956
 6575SOL    HW231185   0.543   3.034   4.764  0.2174  0.8890 -0.2103
 6576SOL     OW31186   2.985   3.187  11.009 -0.8808  0.1491 -0.7593
 6576SOL    HW131187   3.046   3.212  11.078 -1.6122  2.0143 -0.7891
 6576SOL    HW231188   2.956   3.099  11.031  1.3852 -0.1288  1.0498
 6577SOL     OW31189   4.272   3.436  10.358 -0.4265  0.3572  0.0197
 6577SOL    HW131190   4.235   3.513  10.400 -0.9047  1.2655 -2.1005
 6577SOL    HW231191   4.323   3.399  10.431 -0.0263  0.3824 -0.2510
 6578SOL     OW31192   4.096   1.914   7.042 -0.1097  0.4184  0.4709
 6578SOL    HW131193   4.039   1.973   6.993  0.1523  0.3638  0.1000
 6578SOL    HW231194   4.175   1.968   7.037  1.6811 -2.3365 -0.8204
 6579SOL     OW31195   4.532   3.165   2.907 -0.2947 -0.0786  0.9889
 6579SOL    HW131196   4.557   3.207   2.989  1.2007  0.1238  0.4365
 6579SOL    HW231197   4.488   3.085   2.937 -0.6473 -0.0227  0.6270
 6580SOL     OW31198   3.615   0.393   9.172 -0.8120  0.4458 -0.2429
 6580SOL    HW131199   3.601   0.298   9.173  2.0451 -0.0111 -1.5370
 6580SOL    HW231200   3.539   0.407   9.116 -1.0486  0.6783  0.1401
 6581SOL     OW31201   2.941   0.769  10.789 -0.0780 -0.1702 -0.7894
 6581SOL    HW131202   2.993   0.691  10.770  1.5651  0.0628  2.6379
 6581SOL    HW231203   2.892   0.737  10.865 -0.6078 -1.8100 -1.8093
 6582SOL     OW31204   3.926   2.973  16.367  0.1384 -0.3661 -0.2463
 6582SOL    HW131205   3.936   3.065  16.343 -0.8751  0.0252  0.8191
 6582SOL    HW231206   4.009   2.940  16.333  0.3746 -1.2599  1.2349
 6583SOL     OW31207   2.201   4.442   0.004 -0.1353  0.6373  0.0482
 6583SOL    HW131208   2.163   4.487   0.079 -2.0417  0.0947 -0.5751
 6583SOL    HW231209   2.284   4.488   0.002 -0.6737  1.6114  0.0525
 6584SOL     OW31210   0.505   1.831   6.495 -0.3098  0.0266  0.3684
 6584SOL    HW131211   0.498   1.921   6.525  1.1113 -0.0323  0.8781
 6584SOL    HW231212   0.600   1.829   6.482 -0.3903  0.2410 -0.2650
 6585SOL     OW31213   2.665   1.525  15.869  0.3703 -0.3910  0.4271
 6585SOL    HW131214   2.637   1.536  15.960  0.9311 -1.0232  0.6748
 6585SOL    HW231215   2.643   1.611  15.831  2.2947 -0.0337  0.0975
 6586SOL     OW31216   1.406   2.594   5.147 -0.2882 -0.3032  0.0549
 6586SOL    HW131217   1.365   2.654   5.208  0.6707  0.2753  0.1267
 6586SOL    HW231218   1.489   2.635   5.121 -0.2305 -1.6334 -1.8607
 6587SOL     OW31219   1.123   1.659   5.635  0.2994  0.1716  0.2602
 6587SOL    HW131220   1.056   1.593   5.615 -0.2464  1.3749 -1.8520
 6587SOL    HW231221   1.179   1.593   5.676 -1.1854 -1.2989 -0.0242
 6588SOL     OW31222   2.900   2.135  15.401  0.1470 -0.3009 -0.0980
 6588SOL    HW131223   2.960   2.203  15.432 -2.5340  1.1747  1.8400
 6588SOL    HW231224   2.820   2.185  15.383  0.9653  0.2893 -2.0856
 6589SOL     OW31225   2.380   2.929   5.717  0.4439 -0.6086 -0.1671
 6589SOL    HW131226   2.397   2.933   5.811 -1.4621 -0.7496  0.1958
 6589SOL    HW231227   2.459   2.961   5.674  1.0117  0.7737  1.9162
 6590SOL     OW31228   2.635   3.958  11.527  0.0911 -0.1305 -0.1711
 6590SOL    HW131229   2.697   3.919  11.466 -0.3510  0.0442 -0.7301
 6590SOL    HW231230   2.583   3.883  11.556 -0.5955  0.9298  1.4034
 6591SOL     OW31231   1.513   3.524   3.608 -0.1521 -0.3233 -0.0831
 6591SOL    HW131232   1.434   3.567   3.640  0.3045 -0.0229  0.6381
 6591SOL    HW231233   1.508   3.531   3.513 -0.4874  2.9884  0.1846
 6592SOL     OW31234   2.745   1.007   0.181 -0.0884  0.0897  0.6422
 6592SOL    HW131235   2.813   1.066   0.149  0.5923  0.8600  3.5922
 6592SOL    HW231236   2.752   1.023   0.275 -1.2702  0.5347  0.6642
 6593SOL     OW31237   2.963   0.583  13.647  0.1896 -0.1961 -0.5425
 6593SOL    HW131238   2.912   0.597  13.567 -1.8039 -1.8468  0.4296
 6593SOL    HW231239   3.041   0.544  13.608 -1.3823 -2.1841 -1.6759
 6594SOL     OW31240   1.396   0.826   5.140 -0.2275 -0.2803 -0.8336
 6594SOL    HW131241   1.371   0.736   5.117  1.2316 -1.6057  2.8511
 6594SOL    HW231242   1.480   0.828   5.095  0.5354 -0.0688  0.6209
 6595SOL     OW31243   0.102   3.988   4.431 -0.0246 -0.2332 -0.2850
 6595SOL    HW131244   0.020   3.971   4.477 -0.7191  2.0323 -0.6646
 6595SOL    HW231245   0.152   3.928   4.486 -1.3995 -1.8529 -0.8222
 6596SOL     OW31246   3.458   3.847  11.543  0.2193 -0.0174  0.3390
 6596SOL    HW131247   3.450   3.942  11.533  0.9439 -0.0515 -0.5546
 6596SOL    HW231248   3.450   3.823  11.451 -1.8342  2.2959 -0.0744
 6597SOL     OW31249   0.004   2.224   8.509 -0.2071  0.4944  0.0503
 6597SOL    HW131250   0.099   2.218   8.505 -0.2445 -0.7137  0.7294
 6597SOL    HW231251   4.707   2.234   8.603 -1.2892 -3.1834  0.2444
 6598SOL     OW31252   4.545   3.280  14.679 -0.3332  0.0056 -0.3800
 6598SOL    HW131253   4.458   3.283  14.720 -1.7971  0.2401 -3.4597
 6598SOL    HW231254   4.579   3.360  14.719 -0.3658 -0.0014 -0.3385
 6599SOL     OW31255   0.517   4.495   1.497  0.4047 -0.2106 -0.2816
 6599SOL    HW131256   0.470   4.562   1.448  0.0767  0.7511  1.3324
 6599SOL    HW231257   0.527   4.421   1.437  0.0983  0.1464 -0.7652
 6600SOL     OW31258   0.558   4.231  16.540  0.5472 -0.0346 -0.0692
 6600SOL    HW131259   0.557   4.319  16.576 -0.7806  0.7506 -2.0318
 6600SOL    HW231260   0.651   4.207  16.544  0.1953 -1.1860  1.1465
 6601SOL     OW31261   0.139   2.615   7.850 -0.4434 -0.0448  0.4036
 6601SOL    HW131262   0.227   2.590   7.877 -0.2715 -0.4006 -0.4848
 6601SOL    HW231263   0.133   2.702   7.891  2.1820 -0.1891  1.1433
 6602SOL     OW31264   4.606   4.649   6.593  0.5858  0.5579 -0.0995
 6602SOL    HW131265   4.612   4.679   6.684  0.3227  1.3944 -0.3556
 6602SOL    HW231266   4.516   4.616   6.593  0.3084  1.4034 -4.4625
 6603SOL     OW31267   1.416   2.684   2.630  0.1394 -0.1631 -0.2785
 6603SOL    HW131268   1.440   2.776   2.615 -0.0203  0.7619  5.1550
 6603SOL    HW231269   1.429   2.686   2.724  2.8463 -1.2613 -0.6319
 6604SOL     OW31270   0.227   0.414   5.751 -0.3711  0.1608 -0.6337
 6604SOL    HW131271   0.182   0.482   5.801  2.1785  1.9950 -0.8291
 6604SOL    HW231272   0.249   0.360   5.826 -0.1900 -0.9095 -1.4605
 6605SOL     OW31273   1.242   3.355   7.668 -0.0146  0.0631 -0.1960
 6605SOL    HW131274   1.248   3.449   7.687  0.2415 -0.7177  3.4405
 6605SOL    HW231275   1.148   3.344   7.676  0.1285 -0.9075  0.1212
 6606SOL     OW31276   3.813   0.989   9.614  0.4804  0.0600  0.1580
 6606SOL    HW131277   3.761   0.916   9.646 -0.2777  0.7867  0.6069
 6606SOL    HW231278   3.884   0.943   9.570 -1.2013 -1.2764 -1.1863
 6607SOL     OW31279   1.878   0.368   7.927 -0.2716  0.0836  0.5494
 6607SOL    HW131280   1.934   0.422   7.982  0.1277  0.8264 -0.5815
 6607SOL    HW231281   1.915   0.397   7.843  0.2841  0.6291  0.9841
 6608SOL     OW31282   1.560   1.819   0.709 -0.3320  0.3941  0.0100
 6608SOL    HW131283   1.474   1.811   0.667  0.6419 -0.8681 -1.7287
 6608SOL    HW231284   1.543   1.885   0.776  2.1889  0.8240  0.2235
 6609SOL     OW31285   1.830   2.192   3.911  0.1070  0.2224  0.5737
 6609SOL    HW131286   1.868   2.273   3.878  0.5350 -0.6234 -1.0070
 6609SOL    HW231287   1.881   2.184   3.992 -0.7865  0.4477  1.1638
 6610SOL     OW31288   4.071   2.560   7.117  0.0770  0.7170 -0.2945
 6610SOL    HW131289   4.045   2.481   7.069  2.4192 -0.9665  1.1677
 6610SOL    HW231290   4.006   2.623   7.086 -1.0919 -0.9431 -1.2349
 6611SOL     OW31291   1.160   3.361   3.285 -0.3181  0.3767 -0.3588
 6611SOL    HW131292   1.069   3.343   3.260  0.5648 -3.3104 -0.9458
 6611SOL    HW231293   1.148   3.409   3.367  0.7829 -1.1775  0.6953
 6612SOL     OW31294   4.572   0.011   6.856 -0.4587  0.3678 -0.4084
 6612SOL    HW131295   4.533   0.099   6.859 -2.2849 -0.4796  0.3994
 6612SOL    HW231296   4.651   0.036   6.904  0.1302 -1.2911 -0.5394
 6613SOL     OW31297   3.721   3.735   1.820  0.4409 -0.0898  0.0839
 6613SOL    HW131298   3.754   3.782   1.897  0.3563 -0.0905  0.1199
 6613SOL    HW231299   3.669   3.661   1.852  1.5333 -1.9556 -2.4472
 6614SOL     OW31300   2.155   1.395   4.485  0.2795 -0.1623 -0.3241
 6614SOL    HW131301   2.080   1.454   4.492 -0.4557 -1.1990  0.5768
 6614SOL    HW231302   2.177   1.410   4.393  1.8492  1.1212  0.2642
 6615SOL     OW31303   1.039   0.084   2.150 -0.5688 -0.0824  0.1420
 6615SOL    HW131304   1.107   0.062   2.087 -0.9288  2.0947 -0.9911
 6615SOL    HW231305   0.974   0.122   2.091 -0.2473 -0.9952 -0.8003
 6616SOL     OW31306   1.534   2.552   5.881 -0.0263 -0.0237 -0.7015
 6616SOL    HW131307   1.618   2.506   5.879 -0.8883 -1.6779  1.0581
 6616SOL    HW231308   1.526   2.594   5.966  1.1379  0.4055 -0.8028
 6617SOL     OW31309   2.777   0.989   0.438 -0.1567 -0.2540  0.2955
 6617SOL    HW131310   2.832   0.936   0.495  2.2146  1.6261 -0.2571
 6617SOL    HW231311   2.740   1.045   0.507  0.5573 -0.2246  0.6471
 6618SOL     OW31312   2.615   0.523   2.394 -0.0969  0.5094 -0.3396
 6618SOL    HW131313   2.697   0.496   2.436 -0.4096  0.6322  0.3416
 6618SOL    HW231314   2.604   0.597   2.454 -0.8505  0.1942 -0.0932
 6619SOL     OW31315   1.242   3.042  11.145  0.4436  0.1296  0.2290
 6619SOL    HW131316   1.186   3.120  11.139 -1.1241 -1.0255 -0.2044
 6619SOL    HW231317   1.202   2.999  11.221  0.6376  0.1597  0.3474
 6620SOL     OW31318   0.682   1.524   5.723 -0.0223 -0.1671  0.0433
 6620SOL    HW131319   0.603   1.481   5.755  0.0015  0.4463  0.9209
 6620SOL    HW231320   0.667   1.611   5.760  1.0271  0.4397 -0.9525
 6621SOL     OW31321   0.161   4.243   1.893 -0.0867 -0.3510 -0.4449
 6621SOL    HW131322   0.172   4.233   1.988  0.7551 -1.4394 -0.6529
 6621SOL    HW231323   0.085   4.188   1.875 -0.8400  1.0079 -1.4177
 6622SOL     OW31324   4.145   1.333   7.128 -0.4440  0.6136  0.3053
 6622SOL    HW131325   4.117   1.250   7.089  2.6638  0.1120 -0.8714
 6622SOL    HW231326   4.054   1.363   7.127 -0.6772 -0.0823  0.3956
 6623SOL     OW31327   2.236   3.011   6.842 -0.5984  0.2522 -0.2376
 6623SOL    HW131328   2.266   3.072   6.909  0.2734 -0.7767  0.3090
 6623SOL    HW231329   2.274   3.036   6.758  0.2146  0.2497  0.1222
 6624SOL     OW31330   1.521   4.064  16.394  0.0290 -0.2425  0.1693
 6624SOL    HW131331   1.538   4.006  16.468 -0.8786 -0.6949  0.0141
 6624SOL    HW231332   1.613   4.073  16.369  0.0939  3.7703  1.8121
 6625SOL     OW31333   3.617   4.596   1.868  0.0784  0.4580 -0.8081
 6625SOL    HW131334   3.613   4.551   1.783  2.8318 -0.4698 -0.4321
 6625SOL    HW231335   3.658   4.678   1.843 -1.1065  1.1313 -0.5672
 6626SOL     OW31336   3.423   2.720   6.452  0.2787  0.0132 -0.4350
 6626SOL    HW131337   3.362   2.789   6.479 -1.0107 -1.3433  0.1111
 6626SOL    HW231338   3.473   2.712   6.534 -1.8824  0.4317  0.9264
 6627SOL     OW31339   4.375   0.117   4.566  0.6898 -0.6215 -0.1335
 6627SOL    HW131340   4.386   0.174   4.491 -0.3466  2.0154  1.7217
 6627SOL    HW231341   4.433   0.052   4.526  0.8014 -1.0050  0.6488
 6628SOL     OW31342   2.386   1.365   7.635  0.1608 -0.2041  0.0081
 6628SOL    HW131343   2.445   1.439   7.620  1.1533 -0.8188  0.8943
 6628SOL    HW231344   2.436   1.309   7.574  1.1722  0.4006  0.2817
 6629SOL     OW31345   2.767   0.878   9.940  0.0403  0.0316  0.1837
 6629SOL    HW131346   2.822   0.810   9.901 -1.4061 -1.0158 -0.0733
 6629SOL    HW231347   2.751   0.921   9.856  2.2344 -0.0412 -0.2729
 6630SOL     OW31348   1.772   0.267   6.011  0.0646 -0.4798  0.0508
 6630SOL    HW131349   1.730   0.341   5.968  2.0772  1.1427  0.8563
 6630SOL    HW231350   1.856   0.304   6.039  1.1201 -1.7702 -1.4562
 6631SOL     OW31351   3.876   2.417   8.582 -0.0112  0.3817  0.4746
 6631SOL    HW131352   3.939   2.472   8.535 -0.4027 -1.2422 -1.9430
 6631SOL    HW231353   3.918   2.401   8.666 -1.5072 -2.0561  0.7595
 6632SOL     OW31354   4.259   4.458   3.135 -0.0084 -0.3381  0.3804
 6632SOL    HW131355   4.253   4.552   3.154 -0.3706  0.2899 -2.9230
 6632SOL    HW231356   4.343   4.419   3.159  0.3520  0.5943  0.6691
 6633SOL     OW31357   0.579   3.894   5.814 -0.1408  0.2512 -0.2964
 6633SOL    HW131358   0.501   3.841   5.799 -0.2447  0.3587 -0.1341
 6633SOL    HW231359   0.545   3.975   5.778 -0.0850  0.8559  1.0010
 6634SOL     OW31360   2.560   1.223   8.740 -0.0304  0.9148 -0.4743
 6634SOL    HW131361   2.504   1.298   8.756  0.5139  1.4849 -1.2120
 6634SOL    HW231362   2.620   1.221   8.815  1.1212  1.2766 -1.3762
 6635SOL     OW31363   0.962   4.003   6.530  0.2193 -0.7385 -0.2753
 6635SOL    HW131364   0.988   4.044   6.613 -0.7025  0.5785 -0.6320
 6635SOL    HW231365   0.937   4.076   6.473  0.6712 -1.2103 -1.0734
 6636SOL     OW31366   0.446   3.709   7.790 -0.4522  0.4384 -0.0904
 6636SOL    HW131367   0.515   3.686   7.852 -0.2987 -0.1720 -0.4882
 6636SOL    HW231368   0.384   3.640   7.815 -0.7360  1.0053  0.7998
 6637SOL     OW31369   4.333   0.033  13.048 -0.8087 -0.1731 -0.0350
 6637SOL    HW131370   4.280   4.691  12.998  1.6332 -1.5576 -0.8606
 6637SOL    HW231371   4.418   4.710  13.043 -0.2129  0.9844  0.0020
 6638SOL     OW31372   0.865   3.047  11.483 -0.3943  0.0434 -0.2826
 6638SOL    HW131373   0.805   3.085  11.419  1.8881  0.6274 -2.1085
 6638SOL    HW231374   0.820   2.963  11.496  1.9634 -1.2047 -0.1249
 6639SOL     OW31375   3.760   3.458  11.471 -0.2063  0.5432 -0.2358
 6639SOL    HW131376   3.850   3.447  11.443 -0.0460  0.9150  0.1242
 6639SOL    HW231377   3.740   3.396  11.542 -0.7139  0.6478 -0.2887
 6640SOL     OW31378   2.319   3.922  11.489  1.0480 -0.1560 -0.4812
 6640SOL    HW131379   2.350   3.936  11.578  0.1824 -0.0553 -0.1962
 6640SOL    HW231380   2.398   3.941  11.438  1.1048 -2.9553 -1.4345
 6641SOL     OW31381   1.132   1.711  15.923  0.1416 -0.2538  0.3095
 6641SOL    HW131382   1.189   1.669  15.859 -1.6077 -1.0664 -0.7331
 6641SOL    HW231383   1.179   1.702  16.006 -0.1088  0.8002  0.5729
 6642SOL     OW31384   2.393   2.949  10.201  0.5831  0.5414  0.1148
 6642SOL    HW131385   2.478   2.953  10.158  0.1396 -2.5149 -1.0114
 6642SOL    HW231386   2.337   2.935  10.125 -0.8555 -0.4226  1.3445
 6643SOL     OW31387   0.164   2.654  16.886 -0.0968 -0.4520 -0.3553
 6643SOL    HW131388   0.199   2.743  16.877  0.1917 -0.5680 -0.3758
 6643SOL    HW231389   0.100   2.649  16.815  2.1370 -0.6612 -2.3708
 6644SOL     OW31390   4.181   2.182   1.617  0.1411  0.0341  0.3163
 6644SOL    HW131391   4.265   2.228   1.618  1.0896 -1.6677 -1.3036
 6644SOL    HW231392   4.189   2.131   1.698 -0.9970  1.0679  1.0635
 6645SOL     OW31393   2.518   3.565   1.494 -0.3128 -0.1467 -0.3488
 6645SOL    HW131394   2.608   3.549   1.465  0.1062  0.1124  0.8042
 6645SOL    HW231395   2.537   3.619   1.571  3.2449 -3.7921  1.3283
 6646SOL     OW31396   3.421   1.079   5.527  0.4455 -0.0354  0.1301
 6646SOL    HW131397   3.371   1.097   5.607  0.5816 -0.1996  0.2538
 6646SOL    HW231398   3.510   1.103   5.551 -0.2610  0.8291  1.8718
 6647SOL     OW31399   2.289   0.269   9.858  0.3836 -0.1326  0.1109
 6647SOL    HW131400   2.282   0.295   9.950  0.4377  1.1773 -0.2616
 6647SOL    HW231401   2.265   0.176   9.866 -0.7510  0.3359  2.1895
 6648SOL     OW31402   3.819   0.892   7.074 -0.1770 -0.2014  0.0999
 6648SOL    HW131403   3.877   0.816   7.082  0.6522  0.1739 -2.4286
 6648SOL    HW231404   3.764   0.889   7.152 -2.1916  0.8581 -1.2733
 6649SOL     OW31405   2.864   0.792   0.059 -0.0393  0.2643  0.0797
 6649SOL    HW131406   2.780   0.825   0.090 -1.9455 -1.8944 -2.8834
 6649SOL    HW231407   2.879   0.721   0.121 -2.1435  0.1622  0.4668
 6650SOL     OW31408   3.315   4.615   6.276 -0.3167  0.5556  0.0837
 6650SOL    HW131409   3.220   4.611   6.282 -0.0835 -1.8848  1.9342
 6650SOL    HW231410   3.340   4.533   6.233 -2.9684 -1.3604  2.1850
 6651SOL     OW31411   0.523   4.397   9.541  0.3391 -0.0312 -0.1580
 6651SOL    HW131412   0.441   4.441   9.562 -0.8576 -2.3268 -0.0273
 6651SOL    HW231413   0.556   4.366   9.625  0.3671  1.3138  0.3192
 6652SOL     OW31414   0.726   4.451   7.885 -0.0721 -0.2293  0.2636
 6652SOL    HW131415   0.799   4.510   7.867 -0.5078  0.1824 -0.1449
 6652SOL    HW231416   0.734   4.390   7.811  2.9677  0.7405 -0.1897
 6653SOL     OW31417   0.964   3.801   9.750 -0.2959  0.1839  0.0129
 6653SOL    HW131418   0.931   3.816   9.839 -3.1576 -0.4934 -0.9133
 6653SOL    HW231419   0.946   3.887   9.712 -0.6324  0.2955  0.4319
 6654SOL     OW31420   4.084   2.321  15.171  0.2434 -0.6550  0.3264
 6654SOL    HW131421   4.125   2.286  15.092  1.9168  1.3259  0.3292
 6654SOL    HW231422   4.152   2.383  15.194 -1.2835  1.4461 -0.8702
 6655SOL     OW31423   0.486   2.201   8.625 -0.2107  0.9313  0.0664
 6655SOL    HW131424   0.509   2.285   8.663 -1.5481  1.3464 -0.0472
 6655SOL    HW231425   0.547   2.189   8.552  0.8830 -0.2834  1.1737
 6656SOL     OW31426   3.843   2.792  16.543  0.1111 -0.1477 -0.0600
 6656SOL    HW131427   3.875   2.855  16.479 -0.6628 -1.5491 -1.8250
 6656SOL    HW231428   3.918   2.750  16.586 -0.4695 -1.8402 -0.6756
 6657SOL     OW31429   1.779   2.821   8.448 -0.3528  0.2401  0.0037
 6657SOL    HW131430   1.717   2.750   8.465 -0.1560  0.6094  2.3872
 6657SOL    HW231431   1.729   2.901   8.465  0.6418  0.6565  1.0014
 6658SOL     OW31432   4.060   2.105   4.620 -0.0929  0.3766  0.3118
 6658SOL    HW131433   3.971   2.097   4.653  0.1616  1.3329  1.2462
 6658SOL    HW231434   4.095   2.033   4.672 -0.4317  2.5670  3.5721
 6659SOL     OW31435   3.689   0.915   0.720 -0.6763 -0.2492  0.3768
 6659SOL    HW131436   3.634   0.987   0.751  0.0578 -1.8950  5.4460
 6659SOL    HW231437   3.644   0.837   0.753 -0.7966 -1.3738 -2.4578
 6660SOL     OW31438   0.180   3.067   0.900  0.0470 -0.0223  0.1981
 6660SOL    HW131439   0.092   3.055   0.934 -0.7447  0.5766 -1.6242
 6660SOL    HW231440   0.170   3.101   0.811  3.0493  2.2433  0.6788
 6661SOL     OW31441   1.843   1.551   1.533  0.0855 -0.4135  0.0725
 6661SOL    HW131442   1.845   1.475   1.591  0.7832  0.8250  1.6803
 6661SOL    HW231443   1.927   1.588   1.561 -0.0857  0.2013 -0.2373
 6662SOL     OW31444   1.193   1.089   6.489 -0.0212  0.0356 -0.2691
 6662SOL    HW131445   1.265   1.038   6.526 -0.2033  1.2623  1.7320
 6662SOL    HW231446   1.128   1.072   6.557 -0.3717  2.5519  0.0122
 6663SOL     OW31447   2.534   1.439  15.379  0.0837 -0.5108  0.2562
 6663SOL    HW131448   2.561   1.513  15.324 -1.3559 -2.1096 -2.5895
 6663SOL    HW231449   2.596   1.453  15.450 -0.1921 -0.0362  0.4014
 6664SOL     OW31450   0.124   2.365  16.228  0.1917 -0.6559  0.3147
 6664SOL    HW131451   0.130   2.459  16.242 -0.6642 -0.3356 -1.4617
 6664SOL    HW231452   0.206   2.345  16.183  0.2729 -0.8611  0.5561
 6665SOL     OW31453   3.006   4.199   7.695 -0.2464 -0.4552 -0.2416
 6665SOL    HW131454   3.061   4.185   7.773 -3.7520 -1.4187  2.0500
 6665SOL    HW231455   3.028   4.125   7.639  0.6671  0.1010 -0.6192
 6666SOL     OW31456   1.554   0.018   2.221 -0.1885 -0.2491 -0.4931
 6666SOL    HW131457   1.459   0.012   2.211 -0.2242 -1.4856  0.5534
 6666SOL    HW231458   1.569   0.105   2.184 -0.9006  0.7437  1.5178
 6667SOL     OW31459   4.352   1.423  14.965 -0.1089  0.0994 -0.2746
 6667SOL    HW131460   4.379   1.445  15.054  0.7513  3.2433 -1.3204
 6667SOL    HW231461   4.426   1.365  14.949 -1.2267 -0.9916 -1.5912
 6668SOL     OW31462   1.367   4.397   1.612  0.4994  0.2053 -0.0718
 6668SOL    HW131463   1.361   4.483   1.654  1.8599 -0.1904  0.9461
 6668SOL    HW231464   1.329   4.426   1.530 -0.3734 -0.6661  0.0254
 6669SOL     OW31465   1.278   3.450   6.761  0.0422  0.1423  0.0768
 6669SOL    HW131466   1.306   3.493   6.680  0.7540 -0.8546 -0.1974
 6669SOL    HW231467   1.324   3.506   6.825  0.9523 -0.0878 -0.3732
 6670SOL     OW31468   0.749   4.198   8.624 -0.3364 -0.1751 -0.5380
 6670SOL    HW131469   0.667   4.166   8.587 -0.5277 -1.3955  0.9565
 6670SOL    HW231470   0.756   4.153   8.708 -0.4569  0.0213 -0.4211
 6671SOL     OW31471   2.230   1.273  13.362  0.1416 -0.4935  0.4367
 6671SOL    HW131472   2.188   1.308  13.441  1.7274  1.5377  0.3842
 6671SOL    HW231473   2.261   1.194  13.406 -2.9425 -1.5002  0.7530
 6672SOL     OW31474   1.158   4.615   8.084 -0.4283  0.5114  0.4616
 6672SOL    HW131475   1.179   4.670   8.159 -0.2659 -0.1612  0.9122
 6672SOL    HW231476   1.184   4.528   8.115 -0.3748 -0.0835 -1.2575
 6673SOL     OW31477   3.663   4.369  11.502 -0.2345  0.2810  0.2484
 6673SOL    HW131478   3.577   4.409  11.519  0.8165  3.2228 -1.2292
 6673SOL    HW231479   3.708   4.447  11.469  0.1341  0.2815  0.7545
 6674SOL     OW31480   3.604   0.218   7.175 -0.1555 -0.0623 -0.6803
 6674SOL    HW131481   3.527   0.190   7.126  0.8445 -0.2297 -2.1613
 6674SOL    HW231482   3.655   0.251   7.101  0.1469  2.1924  0.5314
 6675SOL     OW31483   3.511   1.954  13.664  0.4648 -0.0309 -0.1366
 6675SOL    HW131484   3.532   1.873  13.710  0.6953 -0.7211 -1.4409
 6675SOL    HW231485   3.498   2.012  13.739  1.4503  0.5179 -0.3728
 6676SOL     OW31486   0.459   3.031   1.901  0.3235 -0.0806  0.2613
 6676SOL    HW131487   0.475   2.963   1.965  1.0707  0.4072  0.5973
 6676SOL    HW231488   0.548   3.063   1.887  0.5107 -0.6122  0.2469
 6677SOL     OW31489   4.046   1.946   3.126 -0.3381 -0.4216  0.4369
 6677SOL    HW131490   3.967   1.999   3.114  0.0637 -0.0091 -0.3130
 6677SOL    HW231491   4.007   1.892   3.195 -1.0770 -0.0144  0.3408
 6678SOL     OW31492   0.230   2.742   0.299  0.2619  0.0191 -0.0193
 6678SOL    HW131493   0.232   2.766   0.391 -2.9145  1.0872 -0.2304
 6678SOL    HW231494   0.141   2.769   0.273  0.4186 -1.3794 -1.9787
 6679SOL     OW31495   3.215   0.216   7.819 -0.2841 -0.3537  0.6594
 6679SOL    HW131496   3.238   0.181   7.732 -0.1097  2.2323 -0.3257
 6679SOL    HW231497   3.123   0.191   7.826 -0.0466 -0.8229  2.0133
 6680SOL     OW31498   1.544   3.309   2.302  0.0542  0.3685 -0.7753
 6680SOL    HW131499   1.581   3.262   2.227  1.1984 -3.3095  2.0575
 6680SOL    HW231500   1.609   3.278   2.365  0.4309  0.1225 -1.2855
 6681SOL     OW31501   4.557   2.062   9.402 -0.1048  0.0288 -0.1653
 6681SOL    HW131502   4.480   2.037   9.351 -0.2682 -1.3918  0.7575
 6681SOL    HW231503   4.544   2.008   9.480  2.5632 -0.8642 -0.3332
 6682SOL     OW31504   4.199   3.442   5.333 -0.2127 -0.3292 -0.1766
 6682SOL    HW131505   4.182   3.535   5.342 -0.4369 -0.6223  2.4807
 6682SOL    HW231506   4.197   3.417   5.426 -0.8085 -0.4336 -0.2176
 6683SOL     OW31507   2.659   1.790   7.086 -0.2375 -0.0116  0.4682
 6683SOL    HW131508   2.581   1.830   7.124 -0.8098 -0.5349 -0.1460
 6683SOL    HW231509   2.695   1.871   7.052  0.0925 -0.6025 -0.6103
 6684SOL     OW31510   2.534   1.624   4.104 -0.2521 -0.3573  0.3308
 6684SOL    HW131511   2.488   1.694   4.150  1.1346  0.7547  0.0244
 6684SOL    HW231512   2.475   1.588   4.038  0.2784 -1.5606  0.5029
 6685SOL     OW31513   0.886   4.664   4.482  0.0065 -0.2168  0.1337
 6685SOL    HW131514   0.901   4.716   4.561  0.4225  3.2597 -2.2310
 6685SOL    HW231515   0.792   4.679   4.473  0.2122  1.0158 -0.0000
 6686SOL     OW31516   0.584   2.628   4.973 -0.1570 -0.9295  0.2079
 6686SOL    HW131517   0.533   2.699   5.012 -1.0158 -1.0994 -0.6378
 6686SOL    HW231518   0.563   2.626   4.880 -0.3684  1.5620  0.1818
 6687SOL     OW31519   1.217   0.949  13.991  0.1888  0.0357 -0.6001
 6687SOL    HW131520   1.202   0.903  14.074  1.1702  1.5036  0.3807
 6687SOL    HW231521   1.229   0.880  13.925  1.7783  0.9434 -1.2489
 6688SOL     OW31522   1.945   2.961  11.186  0.2907 -0.5543  0.4140
 6688SOL    HW131523   1.977   3.050  11.173 -0.3000 -0.3344  0.4501
 6688SOL    HW231524   1.853   2.972  11.161  0.4632  1.0523  0.5021
 6689SOL     OW31525   0.794   2.345   1.471  0.3572  0.0699  0.0705
 6689SOL    HW131526   0.736   2.289   1.523  1.0769 -0.4059  0.3823
 6689SOL    HW231527   0.882   2.311   1.489 -0.0457 -1.1804 -0.3074
 6690SOL     OW31528   3.417   0.859   9.820  0.3439 -0.2324  0.1649
 6690SOL    HW131529   3.503   0.850   9.779  0.9235 -0.6703  1.4716
 6690SOL    HW231530   3.375   0.776   9.796  3.2689 -1.2082 -1.6861
 6691SOL     OW31531   4.373   1.785   9.005  0.4119  0.2464  0.2837
 6691SOL    HW131532   4.293   1.755   9.049 -1.0741  1.1277 -1.7883
 6691SOL    HW231533   4.429   1.708   9.014 -1.4274 -0.9553  1.5130
 6692SOL     OW31534   0.524   4.695  11.715 -0.3390 -0.0929  0.2314
 6692SOL    HW131535   0.478   0.049  11.754 -2.2738 -0.9705 -0.3851
 6692SOL    HW231536   0.537   4.651  11.799  0.2855 -0.0102  0.1756
 6693SOL     OW31537   4.543   3.049   6.843  0.1965 -0.7933  0.6308
 6693SOL    HW131538   4.598   3.001   6.781 -2.3948 -0.6071 -1.8593
 6693SOL    HW231539   4.597   3.126   6.859 -0.3335 -0.5974  1.4345
 6694SOL     OW31540   4.379   1.079   8.779  0.2701 -0.0709  0.1345
 6694SOL    HW131541   4.363   1.048   8.868 -0.7946 -0.1656 -0.0922
 6694SOL    HW231542   4.325   1.017   8.729 -1.7250  0.2399  1.8781
 6695SOL     OW31543   4.082   2.720  13.298  0.3552  0.3549  0.4907
 6695SOL    HW131544   4.016   2.674  13.350 -0.1344 -0.8737 -1.2554
 6695SOL    HW231545   4.121   2.773  13.368  2.4616  1.1634 -1.3260
 6696SOL     OW31546   0.994   2.426  17.668  0.2638 -0.5070 -0.1548
 6696SOL    HW131547   0.974   2.495  17.606 -0.5231 -0.0834  0.5877
 6696SOL    HW231548   1.069   2.465   0.027  0.4438 -1.6684  0.5558
 6697SOL     OW31549   3.049   3.533   6.118  0.2170 -0.7956  0.3225
 6697SOL    HW131550   3.020   3.466   6.058 -3.6329 -1.5726  3.0579
 6697SOL    HW231551   3.019   3.495   6.200  0.8017  0.0440  0.9339
 6698SOL     OW31552   0.514   3.281  14.896  0.1968  0.3177 -0.1784
 6698SOL    HW131553   0.530   3.315  14.985 -0.9038 -4.9762  2.0430
 6698SOL    HW231554   0.575   3.338  14.850  1.3656 -2.4699 -2.0768
 6699SOL     OW31555   3.349   1.244  16.692  0.2946 -1.0115 -0.0057
 6699SOL    HW131556   3.410   1.283  16.755 -1.6891  0.0219  1.2759
 6699SOL    HW231557   3.277   1.304  16.712 -0.1197 -1.0099 -1.5318
 6700SOL     OW31558   3.187   3.834   2.750  0.0778 -0.2007 -0.7282
 6700SOL    HW131559   3.098   3.800   2.765  1.3665 -3.2559 -0.0677
 6700SOL    HW231560   3.208   3.804   2.662 -1.4210  1.1154 -1.5325
 6701SOL     OW31561   2.134   3.583  12.535  0.3912 -0.3468 -0.1692
 6701SOL    HW131562   2.162   3.544  12.452 -0.1721 -2.8610  0.8436
 6701SOL    HW231563   2.207   3.558  12.592  0.9636 -0.6342 -1.0256
 6702SOL     OW31564   1.795   1.368   1.956 -0.2229 -0.5075  0.4730
 6702SOL    HW131565   1.779   1.452   1.912  1.0926 -2.0200 -2.9031
 6702SOL    HW231566   1.705   1.338   1.968 -0.3562 -0.3869 -0.2019
 6703SOL     OW31567   3.055   2.449  10.192  0.5173  0.2682 -0.4527
 6703SOL    HW131568   3.075   2.417  10.280  0.8302 -1.2256 -1.0732
 6703SOL    HW231569   3.131   2.410  10.149 -0.2927 -1.4752 -0.3158
 6704SOL     OW31570   4.139   2.973   2.804 -0.1166  0.0954 -0.5324
 6704SOL    HW131571   4.176   3.061   2.798 -2.7143  1.1987 -0.7760
 6704SOL    HW231572   4.212   2.921   2.835 -1.8340 -1.3297  1.1276
 6705SOL     OW31573   3.788   1.682   8.801  0.4137 -0.7792 -0.5045
 6705SOL    HW131574   3.707   1.686   8.852  0.7359 -0.7894  0.0130
 6705SOL    HW231575   3.848   1.633   8.857 -0.4088  0.3817  1.4109
 6706SOL     OW31576   1.920   3.536   6.274  0.2883 -0.1490  0.0871
 6706SOL    HW131577   1.827   3.542   6.255 -0.3464 -0.8727  2.9897
 6706SOL    HW231578   1.956   3.571   6.193 -2.2163  1.2432 -0.4200
 6707SOL     OW31579   1.631   4.138   1.099  0.0352 -0.4490  0.3950
 6707SOL    HW131580   1.716   4.124   1.139  0.9071 -1.5137 -1.8272
 6707SOL    HW231581   1.635   4.228   1.068 -0.8131 -0.6196 -0.2326
 6708SOL     OW31582   1.424   2.467   1.020 -0.7766  0.0756  0.1260
 6708SOL    HW131583   1.353   2.530   1.036  0.0459  0.9508  0.2839
 6708SOL    HW231584   1.501   2.523   1.026  1.1912 -2.5990 -0.4107
 6709SOL     OW31585   0.511   4.295   7.616  0.3082  0.0494  0.1188
 6709SOL    HW131586   0.487   4.383   7.644  0.5350 -0.1509  0.9390
 6709SOL    HW231587   0.582   4.267   7.674 -0.2894  0.1664  0.8954
 6710SOL     OW31588   3.715   1.526   4.620  0.0520  0.6898  0.4019
 6710SOL    HW131589   3.652   1.473   4.669 -0.4328  1.1375  0.2617
 6710SOL    HW231590   3.693   1.610   4.660 -0.5790  0.3944  0.6661
 6711SOL     OW31591   1.514   0.935   7.959  0.5969 -0.2329 -0.1297
 6711SOL    HW131592   1.569   0.969   8.030 -0.1003  1.2179 -0.2919
 6711SOL    HW231593   1.426   0.940   7.995  0.8222  1.3024  0.2029
 6712SOL     OW31594   4.283   0.650   8.185  0.2577 -0.0189  0.3964
 6712SOL    HW131595   4.200   0.613   8.215  0.9647 -2.4613 -0.7474
 6712SOL    HW231596   4.272   0.738   8.223 -2.9373 -0.8102  1.2868
 6713SOL     OW31597   0.657   2.320  15.869  0.3903  0.1727 -0.0143
 6713SOL    HW131598   0.616   2.369  15.941 -0.9335 -1.4575  0.3422
 6713SOL    HW231599   0.709   2.383  15.820  0.8111 -1.3369 -1.4595
 6714SOL     OW31600   3.007   2.635   0.950  0.0602  0.2103  0.2826
 6714SOL    HW131601   3.026   2.586   0.870 -3.0196  0.3032 -0.5243
 6714SOL    HW231602   3.019   2.724   0.917 -0.0905  0.4058  0.7688
 6715SOL     OW31603   4.373   1.685   6.439  0.0118  0.4923  0.1653
 6715SOL    HW131604   4.324   1.614   6.399  0.4566 -0.5378  1.4263
 6715SOL    HW231605   4.387   1.656   6.530 -3.8592 -1.0055  0.2814
 6716SOL     OW31606   1.215   1.725  16.182 -0.7974 -0.5459  0.0336
 6716SOL    HW131607   1.123   1.713  16.206  0.1213 -0.4703  3.6169
 6716SOL    HW231608   1.262   1.645  16.204 -0.9911 -0.5417  0.4681
 6717SOL     OW31609   2.864   3.925  12.270  0.1715 -0.0500 -0.1157
 6717SOL    HW131610   2.790   3.863  12.265  0.2716 -0.1251 -0.6537
 6717SOL    HW231611   2.864   3.943  12.364  0.2707 -1.1844  0.0999
 6718SOL     OW31612   4.262   4.587   1.042  0.1178  0.1171  0.1619
 6718SOL    HW131613   4.256   4.534   0.963 -0.2516 -0.4367  0.5667
 6718SOL    HW231614   4.208   4.539   1.104  0.6432 -1.0028 -0.2587
 6719SOL     OW31615   2.588   4.590  15.309 -0.2442 -0.6499  0.1746
 6719SOL    HW131616   2.527   4.516  15.306 -0.1002 -0.7092 -1.6271
 6719SOL    HW231617   2.589   4.620  15.218  1.7409  0.6871  0.6126
 6720SOL     OW31618   0.644   0.747   8.881 -0.1503 -0.0029 -0.1976
 6720SOL    HW131619   0.586   0.780   8.950 -3.4012 -0.4440 -2.7396
 6720SOL    HW231620   0.604   0.661   8.866 -1.4730  0.4220  0.8466
 6721SOL     OW31621   0.819   3.760  12.226  0.0408  0.4362  0.1359
 6721SOL    HW131622   0.756   3.688  12.219  2.4649 -1.7894  1.4682
 6721SOL    HW231623   0.841   3.764  12.319 -0.0089 -0.7187  0.1974
 6722SOL     OW31624   2.862   2.711  11.802  0.4275 -0.5508 -0.3028
 6722SOL    HW131625   2.930   2.679  11.742 -0.9292 -0.2096 -2.0435
 6722SOL    HW231626   2.785   2.719  11.745  0.2839 -3.2158 -0.4823
 6723SOL     OW31627   2.195   4.312   6.322  0.5016  0.3548 -0.6054
 6723SOL    HW131628   2.119   4.328   6.378  0.8124  0.1497 -0.1279
 6723SOL    HW231629   2.151   4.309   6.236 -0.3120  3.3159 -0.3099
 6724SOL     OW31630   0.658   1.398   7.640 -0.0292 -0.7837  0.2418
 6724SOL    HW131631   0.752   1.411   7.632 -0.4227  2.9324  1.7947
 6724SOL    HW231632   0.655   1.398   7.736  1.1195 -0.6322  0.2692
 6725SOL     OW31633   1.927   1.653   6.354  0.3077  0.4832 -0.4742
 6725SOL    HW131634   1.887   1.740   6.351 -1.3395 -0.3511 -2.8999
 6725SOL    HW231635   1.887   1.617   6.434  0.6905  2.1352  0.4582
 6726SOL     OW31636   0.610   0.382  12.401 -0.7761 -0.2709  0.0828
 6726SOL    HW131637   0.640   0.440  12.331  1.5114 -1.5107  0.0312
 6726SOL    HW231638   0.520   0.376  12.369 -1.0728  0.7091  0.7350
 6727SOL     OW31639   4.270   3.570  14.567 -0.2319 -0.5585  0.7573
 6727SOL    HW131640   4.191   3.624  14.558  1.4679  1.6837 -0.8639
 6727SOL    HW231641   4.332   3.628  14.610  0.4124 -0.7247  0.0534
 6728SOL     OW31642   2.947   0.414   8.717  0.1074  0.1033  0.6121
 6728SOL    HW131643   2.889   0.380   8.649  1.5055 -2.7034  0.8146
 6728SOL    HW231644   2.972   0.327   8.750 -0.6288 -0.0795  0.6853
 6729SOL     OW31645   3.910   2.146   7.510 -0.0879 -0.3375 -0.3158
 6729SOL    HW131646   3.952   2.061   7.498 -0.3693 -0.1841 -2.4645
 6729SOL    HW231647   3.932   2.195   7.431 -0.5328 -0.7576 -0.7002
 6730SOL     OW31648   2.306   2.267   0.213  0.2066 -0.3433 -0.0612
 6730SOL    HW131649   2.347   2.316   0.284 -2.4203  3.6111 -1.3136
 6730SOL    HW231650   2.240   2.330   0.185 -1.6127 -1.9143  0.6508
 6731SOL     OW31651   2.454   3.463   0.723 -0.4245  0.2557  0.5426
 6731SOL    HW131652   2.450   3.441   0.816  0.9463  0.2537  0.6075
 6731SOL    HW231653   2.417   3.382   0.689  1.4104  0.4269 -1.9079
 6732SOL     OW31654   2.513   3.633  13.902  0.1044  0.2821 -0.1875
 6732SOL    HW131655   2.482   3.600  13.818  2.9543 -0.6069 -0.8956
 6732SOL    HW231656   2.607   3.613  13.910 -0.4099 -1.6058  0.9837
 6733SOL     OW31657   3.622   1.466  16.321 -0.0687 -0.2114  0.0112
 6733SOL    HW131658   3.623   1.466  16.225 -1.3487 -0.2098 -0.0039
 6733SOL    HW231659   3.539   1.512  16.338 -0.8889 -1.2758 -1.0909
 6734SOL     OW31660   2.721   2.253  17.031 -0.9098  0.1052  0.8836
 6734SOL    HW131661   2.711   2.346  17.012  1.5987 -0.0817 -1.3272
 6734SOL    HW231662   2.637   2.241  17.076 -1.1916 -2.3514 -0.2721
 6735SOL     OW31663   4.342   0.150   6.461  0.2135  0.0087 -0.0869
 6735SOL    HW131664   4.287   0.072   6.457 -1.8771  1.5478 -1.3716
 6735SOL    HW231665   4.421   0.122   6.415  0.0162  1.3770 -1.2515
 6736SOL     OW31666   3.627   0.087  10.204  0.2036 -0.0095  0.4152
 6736SOL    HW131667   3.716   0.051  10.207 -0.5526 -1.8121  1.1180
 6736SOL    HW231668   3.567   0.031  10.252 -0.0998  0.7835  0.9712
 6737SOL     OW31669   0.719   2.728   3.580  0.9178 -0.3722 -0.2756
 6737SOL    HW131670   0.665   2.758   3.654  1.0536  1.3399 -0.8957
 6737SOL    HW231671   0.786   2.688   3.636 -0.1239 -1.2709  0.3368
 6738SOL     OW31672   1.230   1.526   4.742 -0.5713 -0.2392 -0.7326
 6738SOL    HW131673   1.146   1.567   4.725 -1.4927 -0.9659  2.0860
 6738SOL    HW231674   1.248   1.501   4.651 -0.4730  3.0187 -1.5969
 6739SOL     OW31675   3.960   0.128   8.473  0.0943  0.2359  0.0016
 6739SOL    HW131676   4.049   0.154   8.449 -0.3129  0.7421 -0.9560
 6739SOL    HW231677   3.971   0.063   8.543 -0.2334  0.4305  0.2318
 6740SOL     OW31678   2.140   4.541  13.909  0.0602  0.0545 -0.4130
 6740SOL    HW131679   2.183   4.459  13.883  2.0483  0.7428  0.6929
 6740SOL    HW231680   2.135   4.546  14.004  0.2201  4.2323 -0.6617
 6741SOL     OW31681   2.473   2.183  15.831  0.0099 -0.1003  0.1214
 6741SOL    HW131682   2.407   2.162  15.898 -1.5616 -1.1459 -1.7477
 6741SOL    HW231683   2.426   2.182  15.748 -0.5972  2.3002  0.4406
 6742SOL     OW31684   2.719   2.427  11.876  0.1050  0.5545  0.8434
 6742SOL    HW131685   2.683   2.501  11.826 -1.4846  0.2044  1.4795
 6742SOL    HW231686   2.751   2.370  11.806 -0.2175  2.4034 -0.8115
 6743SOL     OW31687   1.156   2.120   5.036 -0.3121 -0.3047 -0.2001
 6743SOL    HW131688   1.131   2.120   5.129 -1.4735  1.8805 -0.5012
 6743SOL    HW231689   1.104   2.192   5.002 -1.8878 -1.1700  0.3367
 6744SOL     OW31690   1.393   1.690   3.306  0.5091  0.0173 -0.0860
 6744SOL    HW131691   1.333   1.742   3.253  0.3185 -0.3934 -0.2727
 6744SOL    HW231692   1.380   1.718   3.397 -2.0837 -1.7979  0.0892
 6745SOL     OW31693   3.995   4.479   3.960  0.1592 -0.8842  0.7428
 6745SOL    HW131694   4.001   4.477   4.055 -1.3945  1.4316  0.8604
 6745SOL    HW231695   3.902   4.476   3.941  0.2460  0.4986  0.1144
 6746SOL     OW31696   1.099   0.811   6.604  0.5420 -0.9025  0.3340
 6746SOL    HW131697   1.116   0.815   6.698  1.6708 -0.8389  0.1312
 6746SOL    HW231698   1.165   0.743   6.594 -1.1634 -2.5862  0.4687
 6747SOL     OW31699   1.298   3.373   5.984  0.1943  0.6395  0.3530
 6747SOL    HW131700   1.377   3.350   6.033  0.5618  1.8890  0.3519
 6747SOL    HW231701   1.242   3.306   6.023  1.3996 -0.7264 -0.2305
 6748SOL     OW31702   1.180   3.863   3.844  0.1124 -0.1036 -0.3054
 6748SOL    HW131703   1.087   3.858   3.866  0.1093  0.2562 -0.2400
 6748SOL    HW231704   1.229   3.805   3.903  3.1049  1.0401 -1.6934
 6749SOL     OW31705   3.419   0.476   7.687  0.0384  0.0574  0.5425
 6749SOL    HW131706   3.348   0.511   7.740 -0.4190  1.3719 -0.9326
 6749SOL    HW231707   3.493   0.520   7.730 -0.3954  0.4622  0.8769
 6750SOL     OW31708   2.004   0.999   3.479  0.0155  0.3775  0.3072
 6750SOL    HW131709   2.056   1.055   3.422  0.1736 -1.0010 -0.9087
 6750SOL    HW231710   2.062   1.007   3.555  1.0139 -0.7188 -0.3275
 6751SOL     OW31711   3.826   0.686   5.804  0.2850 -0.5139 -0.0200
 6751SOL    HW131712   3.905   0.704   5.855  0.5749 -1.3322 -0.1878
 6751SOL    HW231713   3.818   0.591   5.815  3.6464 -1.0949 -2.5456
 6752SOL     OW31714   2.223   3.259   1.229  0.1797 -0.4448  0.1131
 6752SOL    HW131715   2.290   3.317   1.192  0.6957 -0.8451  0.4332
 6752SOL    HW231716   2.144   3.310   1.207  1.4925  2.5177  2.2635
 6753SOL     OW31717   1.518   2.003   7.543  0.1334 -0.3524 -0.2179
 6753SOL    HW131718   1.591   2.019   7.603 -0.2959  0.8237 -0.0060
 6753SOL    HW231719   1.497   1.914   7.572  2.0735 -1.7108 -2.9691
 6754SOL     OW31720   3.292   4.490  16.655  0.0659 -0.0838  0.1011
 6754SOL    HW131721   3.247   4.550  16.595  0.5290  0.6435  0.4754
 6754SOL    HW231722   3.229   4.433  16.698  0.8692 -0.6407  0.5473
 6755SOL     OW31723   2.491   0.968   2.566 -0.3006  0.5795 -0.0328
 6755SOL    HW131724   2.556   0.995   2.502  0.5994  1.1659  1.1269
 6755SOL    HW231725   2.445   1.047   2.595 -0.1653  1.4548 -2.2439
 6756SOL     OW31726   0.822   2.497   4.992 -0.0732 -0.3273  0.4266
 6756SOL    HW131727   0.739   2.537   4.966  0.0732  0.2883  0.8883
 6756SOL    HW231728   0.787   2.454   5.070  0.5738  1.3514  1.6510
 6757SOL     OW31729   2.309   2.323   4.432 -0.0666  0.1534  0.0503
 6757SOL    HW131730   2.291   2.385   4.503 -2.9203 -2.1009  1.2825
 6757SOL    HW231731   2.219   2.291   4.423 -0.4032  0.8873  0.6853
 6758SOL     OW31732   1.151   1.124   2.512 -0.0672 -0.4099 -0.0534
 6758SOL    HW131733   1.067   1.164   2.490 -0.1504 -1.5625 -1.8255
 6758SOL    HW231734   1.152   1.067   2.435 -1.1893  1.4922 -1.4848
 6759SOL     OW31735   3.385   2.459   6.024 -0.2723  0.2908 -0.4439
 6759SOL    HW131736   3.429   2.518   6.084  1.1421  0.4118 -1.6019
 6759SOL    HW231737   3.409   2.372   6.055 -0.8581  0.8130  1.4525
 6760SOL     OW31738   1.809   2.923   7.741 -0.1543  0.2003 -0.7975
 6760SOL    HW131739   1.867   2.849   7.758 -1.7409 -1.3667 -2.1936
 6760SOL    HW231740   1.852   2.985   7.800  0.9930 -1.1284 -0.2354
 6761SOL     OW31741   1.927   3.813   8.269  0.7144  0.1922 -0.1489
 6761SOL    HW131742   1.881   3.744   8.317 -0.1266 -0.5010 -1.9646
 6761SOL    HW231743   1.882   3.893   8.296  2.3195  0.5663  1.4305
 6762SOL     OW31744   0.053   3.036   1.787  0.0460  0.1760  0.0906
 6762SOL    HW131745   0.035   3.046   1.881  0.6903 -0.2236  0.2609
 6762SOL    HW231746   0.137   2.991   1.786  0.6162  1.2800 -1.3078
 6763SOL     OW31747   0.505   1.482   3.370  0.4464 -0.0568 -0.4865
 6763SOL    HW131748   0.592   1.522   3.362  1.1999 -1.7204 -0.4616
 6763SOL    HW231749   0.487   1.496   3.463 -0.3774 -1.8815 -0.3724
 6764SOL     OW31750   0.246   0.744   1.396  0.1633  0.1578  0.2842
 6764SOL    HW131751   0.279   0.680   1.332  2.3722  1.0670  0.5416
 6764SOL    HW231752   0.151   0.749   1.379  0.1188 -0.2233  0.4222
 6765SOL     OW31753   2.203   2.889  14.937 -0.0788 -0.1137  0.5672
 6765SOL    HW131754   2.294   2.917  14.943  0.0444 -0.9529  2.7311
 6765SOL    HW231755   2.167   2.977  14.927 -0.7441 -0.7159 -2.1895
 6766SOL     OW31756   0.718   3.591   4.219 -0.2718 -0.1489  0.8073
 6766SOL    HW131757   0.752   3.564   4.133  1.0773  0.2299  1.2156
 6766SOL    HW231758   0.654   3.653   4.185  0.0525 -1.7601 -2.8708
 6767SOL     OW31759   1.563   3.535   2.478  0.1576 -0.4568 -0.6772
 6767SOL    HW131760   1.658   3.551   2.482 -0.2376  1.5407  0.6134
 6767SOL    HW231761   1.558   3.441   2.461  1.4083 -0.8012  0.8714
 6768SOL     OW31762   2.528   2.814   1.415 -0.2584  0.6417 -0.0203
 6768SOL    HW131763   2.566   2.817   1.503  0.0474 -2.1157 -0.0491
 6768SOL    HW231764   2.474   2.892   1.428 -0.0175  0.9672 -0.9222
 6769SOL     OW31765   2.026   0.338   6.107 -0.2336  0.2268  0.3376
 6769SOL    HW131766   2.081   0.265   6.079 -2.2025 -0.5813 -1.4497
 6769SOL    HW231767   2.064   0.411   6.060 -1.3755  0.4084 -0.3070
 6770SOL     OW31768   3.428   2.052  13.907 -0.1514  0.7851  0.3403
 6770SOL    HW131769   3.384   2.083  13.986  0.1638 -0.9720  1.2267
 6770SOL    HW231770   3.513   2.094  13.922  0.2267  0.1948 -0.1387
 6771SOL     OW31771   2.284   0.940   4.013  0.0490  0.2816  0.0552
 6771SOL    HW131772   2.206   0.996   4.014  0.1480  0.4038  1.5079
 6771SOL    HW231773   2.338   0.986   4.078 -2.6508  0.2141  2.3653
 6772SOL     OW31774   2.882   4.386   4.165 -0.1481 -0.1973  0.3558
 6772SOL    HW131775   2.942   4.459   4.146 -0.0514  0.0150  1.5228
 6772SOL    HW231776   2.940   4.311   4.166  0.4311  0.2125 -1.3338
 6773SOL     OW31777   2.965   3.774   7.524  0.1958  0.1596  0.2847
 6773SOL    HW131778   2.948   3.712   7.594  0.2148  0.9866  1.0247
 6773SOL    HW231779   3.058   3.798   7.520  0.5733 -1.1780  1.1839
 6774SOL     OW31780   1.736   2.532   0.824  0.4001 -0.3059  0.1490
 6774SOL    HW131781   1.685   2.451   0.822 -0.6743  0.3075  2.1701
 6774SOL    HW231782   1.803   2.514   0.890 -0.5818 -0.5062  1.1038
 6775SOL     OW31783   3.337   0.229  13.549 -0.6688 -0.1037  0.8672
 6775SOL    HW131784   3.355   0.145  13.593  1.9726  0.1710  0.2719
 6775SOL    HW231785   3.409   0.238  13.486 -2.0110 -0.9574 -0.8091
 6776SOL     OW31786   3.258   2.358   5.561  0.3793 -0.6675 -0.5045
 6776SOL    HW131787   3.261   2.429   5.625  0.2093 -0.2388 -0.9778
 6776SOL    HW231788   3.202   2.291   5.602 -0.2767 -0.5644 -1.2221
 6777SOL     OW31789   1.091   0.353   5.778  0.9566 -0.6102  0.0693
 6777SOL    HW131790   1.109   0.440   5.814  1.6135 -1.3083  1.4156
 6777SOL    HW231791   1.072   0.297   5.853 -0.6657  0.3544  0.3941
 6778SOL     OW31792   2.072   4.185   3.570 -0.1504  0.1221  0.4204
 6778SOL    HW131793   2.072   4.229   3.485  1.2442 -0.6492  0.0173
 6778SOL    HW231794   2.061   4.098   3.532  0.0672  0.0305  0.5683
 6779SOL     OW31795   2.133   4.200  14.109 -0.0259  0.1304  0.9896
 6779SOL    HW131796   2.110   4.290  14.132  1.3983  0.5179  0.8759
 6779SOL    HW231797   2.198   4.215  14.041 -1.7227 -0.3517 -0.7374
 6780SOL     OW31798   3.200   2.048  13.533 -0.2064 -0.1927 -0.5302
 6780SOL    HW131799   3.195   2.000  13.451  1.2058  1.4325 -1.5714
 6780SOL    HW231800   3.244   2.126  13.499  1.8096 -0.5955  1.1604
 6781SOL     OW31801   2.057   4.589   6.394 -0.2519  0.2508  0.5984
 6781SOL    HW131802   2.065   4.685   6.394  0.2975  0.2052 -0.8151
 6781SOL    HW231803   2.099   4.560   6.475  1.8271  0.1129 -0.5428
 6782SOL     OW31804   4.059   2.726   5.946  0.2428  0.4951 -0.2044
 6782SOL    HW131805   4.154   2.732   5.954  0.2221 -0.8028  0.8113
 6782SOL    HW231806   4.045   2.658   5.880 -1.5640 -0.0018  0.6964
 6783SOL     OW31807   4.558   4.235   3.759  0.2379 -0.5199  0.4902
 6783SOL    HW131808   4.593   4.295   3.692 -1.6723 -0.9558 -0.8884
 6783SOL    HW231809   4.541   4.161   3.700 -0.5245 -0.0603  0.1297
 6784SOL     OW31810   0.569   2.819   3.809 -0.2424  0.2367 -0.2494
 6784SOL    HW131811   0.479   2.795   3.829 -0.1266 -0.5312 -0.6324
 6784SOL    HW231812   0.556   2.912   3.793 -0.2824  0.2610 -0.0733
 6785SOL     OW31813   1.696   2.233   6.515  0.3592 -0.1924 -0.6458
 6785SOL    HW131814   1.608   2.242   6.478 -0.4768 -0.6118  1.2239
 6785SOL    HW231815   1.739   2.187   6.444 -1.1289 -0.4726 -1.3604
 6786SOL     OW31816   1.644   2.676   3.716  0.9185  0.6553 -0.0986
 6786SOL    HW131817   1.723   2.621   3.712  1.7394  1.8319 -0.1821
 6786SOL    HW231818   1.611   2.649   3.802 -2.3348  1.5854 -1.0627
 6787SOL     OW31819   1.841   3.017   0.475  0.2849 -0.3081 -0.5815
 6787SOL    HW131820   1.865   2.952   0.408 -1.8260 -0.9167 -0.7674
 6787SOL    HW231821   1.923   3.039   0.519 -0.5057  0.4519  0.5229
 6788SOL     OW31822   0.966   2.113   1.455 -0.4789 -0.3374 -0.0339
 6788SOL    HW131823   1.037   2.072   1.406 -1.7871 -0.7533 -1.5790
 6788SOL    HW231824   1.024   2.166   1.509 -0.5794  2.0826 -2.3168
 6789SOL     OW31825   4.068   2.957   9.154 -0.4725  0.1107  0.2744
 6789SOL    HW131826   4.102   2.868   9.141 -2.0356 -0.1326 -2.1818
 6789SOL    HW231827   4.142   2.999   9.198  1.3479 -2.5152 -0.2383
 6790SOL     OW31828   3.965   2.898   3.422  0.8077  0.3970  0.5020
 6790SOL    HW131829   4.011   2.979   3.446  0.8844 -0.0025  1.6980
 6790SOL    HW231830   3.932   2.929   3.337  0.5752 -0.8638  0.1287
 6791SOL     OW31831   1.822   2.365   8.343 -0.0990 -0.1633  0.1927
 6791SOL    HW131832   1.754   2.425   8.312  0.5564  0.5730  0.1634
 6791SOL    HW231833   1.775   2.324   8.415  1.8007 -0.9045  0.9958
 6792SOL     OW31834   0.907   3.195   2.218 -0.3593  0.3991 -0.7073
 6792SOL    HW131835   0.932   3.122   2.162  1.5023  0.6732 -0.2519
 6792SOL    HW231836   0.876   3.155   2.300  3.4613 -2.1991 -0.5138
 6793SOL     OW31837   3.805   1.277   0.844 -0.1414 -0.6295 -0.2782
 6793SOL    HW131838   3.855   1.282   0.926  0.3793 -1.5665 -0.5408
 6793SOL    HW231839   3.855   1.211   0.796  1.3170 -0.0542  0.4279
 6794SOL     OW31840   3.509   1.263  17.433  0.4120  0.2874 -0.3653
 6794SOL    HW131841   3.430   1.301  17.472 -0.2448  0.0963 -1.5050
 6794SOL    HW231842   3.505   1.299  17.344 -2.5936 -1.1365 -0.8114
 6795SOL     OW31843   4.549   4.312   4.205  0.5116 -0.2153  0.1325
 6795SOL    HW131844   4.579   4.282   4.291 -0.2470 -1.2670  0.0295
 6795SOL    HW231845   4.606   4.270   4.142  0.4674  0.7499 -0.5405
 6796SOL     OW31846   4.695   3.579   5.967  0.1524 -0.4836  0.8270
 6796SOL    HW131847   4.715   3.643   6.035  0.8674 -0.3493  0.4925
 6796SOL    HW231848   4.617   3.531   5.995  1.0518 -1.1175  2.1911
 6797SOL     OW31849   1.116   1.569  12.401  0.4466  0.1840  0.2547
 6797SOL    HW131850   1.193   1.568  12.458  0.8413 -3.1243 -0.3166
 6797SOL    HW231851   1.049   1.608  12.456 -1.4861 -0.6962 -1.4803
 6798SOL     OW31852   0.556   4.301   1.298  0.0621 -0.1989  0.1511
 6798SOL    HW131853   0.548   4.282   1.204 -1.0869  0.1186  0.1908
 6798SOL    HW231854   0.472   4.264   1.325  1.9998 -3.4123  1.8316
 6799SOL     OW31855   1.659   1.794   3.263 -0.5596 -0.7827 -0.2471
 6799SOL    HW131856   1.699   1.711   3.289  0.1640 -0.1948  0.4913
 6799SOL    HW231857   1.575   1.784   3.305 -0.4729 -0.1486  0.0731
 6800SOL     OW31858   3.075   0.572   7.628 -0.5482  0.4811  0.3878
 6800SOL    HW131859   2.996   0.623   7.608 -2.2059 -1.8691  1.0316
 6800SOL    HW231860   3.063   0.528   7.544  0.5409  1.6442 -0.3957
 6801SOL     OW31861   1.473   0.460   3.541  0.2065  0.3843 -0.1471
 6801SOL    HW131862   1.525   0.490   3.466 -0.1425  0.6211 -0.2940
 6801SOL    HW231863   1.542   0.474   3.606 -1.7813  1.7988  1.6166
 6802SOL     OW31864   3.272   4.621   3.396 -0.6903  0.2554  0.1045
 6802SOL    HW131865   3.208   4.555   3.369 -1.0554 -0.0200  1.6439
 6802SOL    HW231866   3.304   4.654   3.312 -0.2326  0.7441  0.4704
 6803SOL     OW31867   0.725   3.559   2.929 -0.3503  0.2744 -0.0844
 6803SOL    HW131868   0.629   3.551   2.931 -0.3706  0.5286 -0.0853
 6803SOL    HW231869   0.748   3.468   2.909  2.3913  1.3033 -1.4867
 6804SOL     OW31870   1.278   0.368   3.348  0.2846 -0.0447 -0.0665
 6804SOL    HW131871   1.334   0.412   3.413 -1.2104  1.2319  0.3540
 6804SOL    HW231872   1.343   0.372   3.278  1.6645  1.0259  1.2443
 6805SOL     OW31873   2.656   1.555  14.994  0.1065 -0.0900  0.1684
 6805SOL    HW131874   2.609   1.474  15.013  1.2327 -1.1349 -1.4671
 6805SOL    HW231875   2.624   1.574  14.905  0.6656  1.0183  0.2026
 6806SOL     OW31876   4.497   2.359   3.553  0.8577  0.3394  0.0268
 6806SOL    HW131877   4.507   2.303   3.629  0.7181  1.0203  0.5495
 6806SOL    HW231878   4.582   2.393   3.527  0.8643 -0.4754 -0.9889
 6807SOL     OW31879   3.277   0.362   9.499  0.8939  0.2736 -1.1364
 6807SOL    HW131880   3.222   0.413   9.439  3.1364  3.1732 -0.7459
 6807SOL    HW231881   3.325   0.434   9.540  1.0479 -1.0769  1.0298
 6808SOL     OW31882   2.183   3.636   9.517 -0.6647  0.2644  0.2431
 6808SOL    HW131883   2.199   3.728   9.537 -0.1427 -0.4378  2.9315
 6808SOL    HW231884   2.132   3.618   9.596 -0.0534  0.7704  0.7538
 6809SOL     OW31885   3.659   3.362   7.449 -0.1903  0.3846  0.7702
 6809SOL    HW131886   3.617   3.287   7.490  0.1589 -0.4033 -0.3260
 6809SOL    HW231887   3.730   3.325   7.396 -1.9565  0.0198 -1.3358
 6810SOL     OW31888   1.501   4.365  14.844 -0.3183  0.1782  0.4653
 6810SOL    HW131889   1.440   4.433  14.871  0.6352  0.7547  1.1600
 6810SOL    HW231890   1.472   4.342  14.755 -0.2286  3.3172 -0.3787
 6811SOL     OW31891   3.127   0.004   9.819 -0.4457 -0.5535  0.2746
 6811SOL    HW131892   3.178   0.082   9.797 -3.3198  1.6233  1.4355
 6811SOL    HW231893   3.070   0.008   9.743  0.6236 -0.1696 -0.5075
 6812SOL     OW31894   2.674   3.301   4.703 -0.2518  0.2220  0.2345
 6812SOL    HW131895   2.763   3.306   4.667 -0.2249  0.0413  0.2776
 6812SOL    HW231896   2.653   3.211   4.678 -0.9845  0.2928  0.6128
 6813SOL     OW31897   4.395   1.839   1.716 -0.1341  0.5260  0.6840
 6813SOL    HW131898   4.343   1.759   1.728  2.5067 -1.4832 -1.1557
 6813SOL    HW231899   4.374   1.870   1.628 -0.3679 -3.4490 -0.6687
 6814SOL     OW31900   2.101   1.226   9.331  0.0026 -0.2819 -0.4360
 6814SOL    HW131901   2.073   1.155   9.389  2.0885  0.1655  1.1101
 6814SOL    HW231902   2.015   1.259   9.304  0.1210 -0.8686 -1.5579
 6815SOL     OW31903   3.260   1.622   9.052 -0.6797 -0.1377 -0.3802
 6815SOL    HW131904   3.245   1.555   9.119  0.2810 -0.3219 -0.3505
 6815SOL    HW231905   3.187   1.682   9.068 -0.6056 -0.2866  0.5300
 6816SOL     OW31906   1.506   0.906  14.099 -0.5728 -0.0402 -0.0181
 6816SOL    HW131907   1.434   0.876  14.154 -1.0198 -2.8208 -2.1473
 6816SOL    HW231908   1.517   0.999  14.118 -3.6517  0.2481  0.3849
 6817SOL     OW31909   4.662   1.313   8.241  0.0796  0.2366  0.4270
 6817SOL    HW131910   4.619   1.356   8.166 -2.0062 -1.5504  0.6112
 6817SOL    HW231911   0.019   1.369   8.246  0.3283  0.1152 -1.9389
 6818SOL     OW31912   4.427   2.077   0.314  0.1247  0.6498 -0.1669
 6818SOL    HW131913   4.513   2.106   0.283  0.6552 -0.9024 -0.1694
 6818SOL    HW231914   4.406   2.003   0.258 -1.0050  0.3794  0.6090
 6819SOL     OW31915   2.762   1.065  13.031  0.0573  0.3225 -0.1397
 6819SOL    HW131916   2.726   1.070  12.943 -0.4824 -1.3824 -0.0040
 6819SOL    HW231917   2.854   1.050  13.009  0.3420 -0.0119  1.2866
 6820SOL     OW31918   2.092   3.594   8.637  0.1706  0.3746  0.0270
 6820SOL    HW131919   2.115   3.579   8.729  0.1441  1.4906  0.2152
 6820SOL    HW231920   2.131   3.680   8.624  0.9324  0.1345  0.7440
 6821SOL     OW31921   0.576   2.455  13.133  0.4189 -0.3471 -0.3251
 6821SOL    HW131922   0.483   2.475  13.129  0.9206  2.2353  0.4124
 6821SOL    HW231923   0.572   2.362  13.114  0.2132  0.1228 -2.5867
 6822SOL     OW31924   1.891   4.209   6.302 -0.0832  0.0170 -0.0446
 6822SOL    HW131925   1.943   4.234   6.225  0.0939  0.6551  0.2762
 6822SOL    HW231926   1.945   4.138   6.337 -2.4528 -1.7168  0.0549
 6823SOL     OW31927   0.588   4.667  12.061  0.6829  0.0704  0.1545
 6823SOL    HW131928   0.585   0.042  12.070  1.7140  0.0230  0.9422
 6823SOL    HW231929   0.535   4.653  12.139 -0.1744  2.6953  0.0583
 6824SOL     OW31930   3.466   2.881   8.089 -0.5265 -0.0478 -0.6848
 6824SOL    HW131931   3.453   2.786   8.087 -0.2605 -0.0636 -1.5453
 6824SOL    HW231932   3.560   2.883   8.106 -0.1685  1.4779 -2.9781
 6825SOL     OW31933   0.116   2.549   9.117  0.2402  0.0809 -0.3424
 6825SOL    HW131934   0.077   2.483   9.175 -2.1374  2.2131  0.5115
 6825SOL    HW231935   0.061   2.622   9.145  0.4937  0.3041 -0.4311
 6826SOL     OW31936   2.916   3.930  13.006  0.0746  0.3925 -0.9669
 6826SOL    HW131937   2.855   3.988  12.963  0.6383  2.0903  0.5184
 6826SOL    HW231938   2.915   3.860  12.941 -0.4696 -1.0402  0.5779
 6827SOL     OW31939   3.151   0.770   3.723  0.3603 -0.1985 -0.1933
 6827SOL    HW131940   3.151   0.676   3.702  1.6682 -0.3431  0.4595
 6827SOL    HW231941   3.089   0.799   3.656  0.2777  0.1459  0.0352
 6828SOL     OW31942   3.912   3.922   1.376 -0.1939  0.4589 -0.2532
 6828SOL    HW131943   3.851   3.986   1.413  0.8859  1.2572  0.1389
 6828SOL    HW231944   3.987   3.931   1.434 -1.2279 -1.0003  1.3054
 6829SOL     OW31945   0.463   1.954   8.786 -0.4495  0.5687 -0.5602
 6829SOL    HW131946   0.467   1.870   8.741 -1.2961  1.0580 -1.5493
 6829SOL    HW231947   0.434   2.014   8.717  0.9444  1.6628 -0.2058
 6830SOL     OW31948   1.457   3.395   0.413  0.0660  0.1634  0.4173
 6830SOL    HW131949   1.469   3.434   0.499  1.8616  2.0389 -0.6716
 6830SOL    HW231950   1.400   3.457   0.368 -0.2470  0.2186  0.8983
 6831SOL     OW31951   1.699   2.368   7.752  0.6888  0.6813  0.1987
 6831SOL    HW131952   1.695   2.282   7.793  3.3348  0.6448  0.3348
 6831SOL    HW231953   1.705   2.411   7.837  2.4264  0.0409  0.3909
 6832SOL     OW31954   3.448   2.375  11.550 -0.1028 -0.1476 -0.2216
 6832SOL    HW131955   3.406   2.426  11.481  2.9472  1.4443 -0.8582
 6832SOL    HW231956   3.513   2.440  11.572 -2.5155  2.0037  0.5486
 6833SOL     OW31957   0.730   3.623   5.832 -0.6251 -0.0261  0.1833
 6833SOL    HW131958   0.669   3.594   5.900 -1.4393 -0.4839 -0.7294
 6833SOL    HW231959   0.686   3.705   5.811  1.3506  0.2199 -3.1210
 6834SOL     OW31960   3.726   1.153   6.378  0.1845  0.0225  0.2835
 6834SOL    HW131961   3.782   1.228   6.363 -2.3531  1.1700 -3.1972
 6834SOL    HW231962   3.741   1.117   6.291  0.1861 -1.7251  0.9853
 6835SOL     OW31963   4.413   0.965   9.474 -0.6311 -0.1971  0.0873
 6835SOL    HW131964   4.486   0.915   9.509 -2.0521 -2.1464  0.2571
 6835SOL    HW231965   4.373   0.909   9.408  1.1795  1.0290 -2.0366
 6836SOL     OW31966   3.863   1.092   0.383 -0.3495  0.6271  0.3387
 6836SOL    HW131967   3.770   1.071   0.395  0.4588 -1.5657  2.8146
 6836SOL    HW231968   3.902   1.098   0.470 -3.2728  1.4327  1.6030
 6837SOL     OW31969   4.094   3.366   9.215  0.1381  0.6340 -0.7812
 6837SOL    HW131970   4.045   3.448   9.219 -0.1478  0.4050  0.3725
 6837SOL    HW231971   4.025   3.306   9.187  1.2144 -1.1401  0.4098
 6838SOL     OW31972   1.475   1.359  12.987 -0.7602 -0.2087  0.3955
 6838SOL    HW131973   1.540   1.289  12.979 -0.5060  0.0326  0.3370
 6838SOL    HW231974   1.508   1.403  13.066  0.2958 -0.7020  0.2356
 6839SOL     OW31975   2.810   0.740  16.372 -0.2268 -0.4951 -0.2976
 6839SOL    HW131976   2.797   0.664  16.430 -0.2624 -0.1208  0.1862
 6839SOL    HW231977   2.729   0.783  16.398 -0.3873 -1.4603  0.8213
 6840SOL     OW31978   2.564   4.473  13.582 -0.3596  0.0169 -0.8471
 6840SOL    HW131979   2.639   4.529  13.563 -0.5567  0.3165 -0.7438
 6840SOL    HW231980   2.597   4.400  13.635  0.4748  1.5179  0.6950
 6841SOL     OW31981   0.063   0.233  13.998 -0.3922  0.2664  0.9034
 6841SOL    HW131982   0.088   0.225  13.906 -0.2889 -1.1586  1.0596
 6841SOL    HW231983   0.125   0.165  14.024  0.1056  0.2586 -0.2970
 6842SOL     OW31984   3.809   0.045   7.038  0.0370  0.1954  0.2300
 6842SOL    HW131985   3.739   0.092   6.993 -0.2470  0.4191  0.9079
 6842SOL    HW231986   3.882   0.107   7.024  1.6416 -2.0345 -1.3779
 6843SOL     OW31987   0.185   1.351   9.227  0.1563 -0.1094 -0.2548
 6843SOL    HW131988   0.181   1.295   9.150  2.1564 -0.2478 -0.2538
 6843SOL    HW231989   0.238   1.305   9.292 -2.2967 -1.8102  0.5282
 6844SOL     OW31990   1.013   3.732   4.163 -0.4193 -0.5824 -0.2072
 6844SOL    HW131991   1.069   3.800   4.201 -0.9038 -1.1671  1.5551
 6844SOL    HW231992   1.032   3.659   4.221 -0.9384 -0.5288  0.0242
 6845SOL     OW31993   4.644   4.562   4.291 -0.2013 -0.0091  0.3310
 6845SOL    HW131994   4.634   4.624   4.219 -1.5594  1.8079  2.1013
 6845SOL    HW231995   4.613   4.480   4.251 -0.2024 -0.9192  2.2093
 6846SOL     OW31996   0.746   3.769   5.190 -0.0826 -0.3283 -0.6662
 6846SOL    HW131997   0.809   3.767   5.119 -0.3536 -0.3463 -0.9060
 6846SOL    HW231998   0.744   3.860   5.217  1.7688 -0.5996  0.4076
 6847SOL     OW31999   4.147   2.404  10.755 -0.4932 -0.0039  0.2322
 6847SOL    HW132000   4.190   2.354  10.685 -1.1301 -0.0695 -0.1125
 6847SOL    HW232001   4.195   2.486  10.742 -0.2309 -0.2133 -0.1595
 6848SOL     OW32002   3.925   0.940   5.185 -0.4230 -0.3463  0.0709
 6848SOL    HW132003   4.010   0.971   5.153 -0.0138  0.5856  2.0311
 6848SOL    HW232004   3.950   0.860   5.231 -0.3112  0.4900  1.4611
 6849SOL     OW32005   3.897   2.213   9.080 -0.1055 -0.2664 -0.0980
 6849SOL    HW132006   3.804   2.235   9.070 -0.0050 -0.4573 -1.4183
 6849SOL    HW232007   3.919   2.219   9.172 -0.2496  1.3992 -0.1729
 6850SOL     OW32008   0.306   1.150   4.180 -0.4149 -0.1456 -0.6843
 6850SOL    HW132009   0.399   1.128   4.174 -0.1150  0.7762  0.4175
 6850SOL    HW232010   0.307   1.244   4.165 -1.1862 -0.1892 -0.9849
 6851SOL     OW32011   0.443   4.104  10.098 -0.0832  0.0725 -0.0247
 6851SOL    HW132012   0.420   4.170  10.032  2.8438  0.4610 -0.6447
 6851SOL    HW232013   0.371   4.122  10.158 -0.5531  1.0337 -0.8719
 6852SOL     OW32014   4.295   2.634   5.671 -0.4373  0.2956 -0.2166
 6852SOL    HW132015   4.322   2.622   5.580  0.0442 -0.8523  0.0774
 6852SOL    HW232016   4.201   2.647   5.665 -0.1442  0.1484 -5.3525
 6853SOL     OW32017   1.087   0.803   3.471 -0.4540  0.1704 -0.0586
 6853SOL    HW132018   1.160   0.864   3.469  2.3043 -3.1650 -0.0202
 6853SOL    HW232019   1.063   0.798   3.378  1.9345  0.1600 -0.6725
 6854SOL     OW32020   1.763   0.597   6.457 -0.2459  0.0121  0.1128
 6854SOL    HW132021   1.717   0.638   6.384  1.4493  1.9620  0.1529
 6854SOL    HW232022   1.699   0.527   6.471  0.6027 -0.5040  1.4423
 6855SOL     OW32023   0.661   4.592   9.839 -0.2198 -0.0306  0.4537
 6855SOL    HW132024   0.728   4.655   9.812  0.4267 -0.3300  1.3790
 6855SOL    HW232025   0.584   4.642   9.810  1.1876  2.9351  1.8124
 6856SOL     OW32026   0.472   1.633   9.374 -0.2966 -0.0801  0.0364
 6856SOL    HW132027   0.466   1.554   9.320 -1.4273  0.2176 -0.2747
 6856SOL    HW232028   0.564   1.629   9.397 -0.4512  1.4450  0.9104
 6857SOL     OW32029   2.088   3.473  16.354  0.1332 -0.1673  0.0328
 6857SOL    HW132030   2.082   3.378  16.346  0.4106 -0.3247  1.7885
 6857SOL    HW232031   1.996   3.498  16.358  0.3092  0.5666 -0.6139
 6858SOL     OW32032   0.701   4.236  17.151 -0.5625 -0.0921  0.3141
 6858SOL    HW132033   0.741   4.293  17.217  1.5715  0.7381 -1.7247
 6858SOL    HW232034   0.626   4.204  17.201 -0.3357 -0.9015  0.1397
 6859SOL     OW32035   2.501   0.714   4.306 -0.1547  0.6299 -0.0338
 6859SOL    HW132036   2.474   0.712   4.398  1.7556 -0.1419  0.4978
 6859SOL    HW232037   2.422   0.683   4.263 -0.9918  2.2529  0.3105
 6860SOL     OW32038   3.644   3.118  17.501  0.1467 -0.8932  0.0689
 6860SOL    HW132039   3.649   3.032  17.461 -1.1896  0.5489 -3.1816
 6860SOL    HW232040   3.571   3.153  17.449 -0.3283 -2.6684 -0.4546
 6861SOL     OW32041   0.943   1.607   3.207 -0.6046  0.2623  0.2429
 6861SOL    HW132042   1.025   1.653   3.225 -0.0233 -0.7993  0.2837
 6861SOL    HW232043   0.908   1.671   3.145  0.1030  1.6281  1.2539
 6862SOL     OW32044   4.396   2.811   6.299  0.0932  0.7949 -0.5596
 6862SOL    HW132045   4.410   2.722   6.268  0.6458 -0.1268  2.3485
 6862SOL    HW232046   4.385   2.853   6.213  1.3063  2.3077  0.0289
 6863SOL     OW32047   0.749   4.025   4.024  0.3971  0.1953  0.1268
 6863SOL    HW132048   0.838   4.060   4.026  0.0839  1.0239 -0.4147
 6863SOL    HW232049   0.717   4.078   3.951 -1.8090 -1.4748 -0.1200
 6864SOL     OW32050   3.547   1.287  16.884  0.0201 -0.4277 -0.0369
 6864SOL    HW132051   3.588   1.202  16.872 -0.2598 -0.3647 -1.4331
 6864SOL    HW232052   3.622   1.343  16.866  0.4739 -0.5149  1.5881
 6865SOL     OW32053   1.190   3.380   4.481  0.2522  0.0277 -0.2988
 6865SOL    HW132054   1.132   3.436   4.430  1.6697  0.4214 -1.4837
 6865SOL    HW232055   1.273   3.426   4.467  0.8926 -0.3622  2.1220
 6866SOL     OW32056   1.789   2.510   0.468  0.1952  0.0967 -0.0981
 6866SOL    HW132057   1.791   2.485   0.375 -2.0694 -0.9163  0.1353
 6866SOL    HW232058   1.826   2.435   0.513 -0.0514  0.3685  0.5535
 6867SOL     OW32059   0.892   1.024   2.755 -0.2401  0.0651  0.4848
 6867SOL    HW132060   0.816   1.047   2.702  0.2154 -2.5493 -1.2662
 6867SOL    HW232061   0.850   0.966   2.819 -0.4131  0.9433  1.1649
 6868SOL     OW32062   4.716   3.737   0.704 -0.0502  0.0848 -0.2411
 6868SOL    HW132063   0.011   3.819   0.657  1.3803  0.9493  1.7434
 6868SOL    HW232064   4.673   3.771   0.783  0.1748  0.0689 -0.1124
 6869SOL     OW32065   3.935   2.093   5.456 -0.0650  0.1835  0.3985
 6869SOL    HW132066   3.977   2.013   5.427 -0.5403 -0.6223  1.9444
 6869SOL    HW232067   3.871   2.103   5.385  2.5818  1.8895 -1.7496
 6870SOL     OW32068   2.831   4.200  12.724 -1.0023 -0.7661 -0.2060
 6870SOL    HW132069   2.777   4.278  12.735  0.5628 -0.0428  2.3485
 6870SOL    HW232070   2.802   4.175  12.636 -2.7802  1.3922 -0.2324
 6871SOL     OW32071   3.855   4.197   7.352  0.3824 -0.3492  0.3308
 6871SOL    HW132072   3.868   4.265   7.417 -1.4784  0.8405 -0.5365
 6871SOL    HW232073   3.764   4.171   7.367 -0.0224  0.0593 -1.3524
 6872SOL     OW32074   2.504   2.899   9.885  0.4208 -0.0423  0.7198
 6872SOL    HW132075   2.493   2.917   9.792  1.6978  0.1936  0.6104
 6872SOL    HW232076   2.501   2.989   9.918 -1.7064  0.5463 -1.0886
 6873SOL     OW32077   2.650   1.469   9.272  0.7330 -0.1216 -0.1890
 6873SOL    HW132078   2.745   1.474   9.275  0.6873  1.0133 -0.7434
 6873SOL    HW232079   2.645   1.374   9.260 -0.1195 -0.4388  2.5753
 6874SOL     OW32080   0.614   2.431   4.644 -0.3250  0.3670 -0.5336
 6874SOL    HW132081   0.676   2.390   4.584  0.4319  0.1688  0.3837
 6874SOL    HW232082   0.632   2.524   4.627 -0.5878  0.4022 -0.6161
 6875SOL     OW32083   4.204   3.399  16.025 -0.5500  0.3171 -0.1003
 6875SOL    HW132084   4.117   3.361  16.036 -0.8046  0.9429  0.0850
 6875SOL    HW232085   4.175   3.489  16.009  0.1492  0.4682 -0.5561
 6876SOL     OW32086   0.729   0.077   5.820 -0.2031 -0.2045 -0.7719
 6876SOL    HW132087   0.657   0.027   5.783 -0.7255 -1.2901  1.7831
 6876SOL    HW232088   0.801   0.023   5.786 -0.2521 -2.0656  2.1321
 6877SOL     OW32089   0.400   3.829  17.606  0.5675 -0.9303  0.3223
 6877SOL    HW132090   0.469   3.868  17.553 -0.3149 -0.5028 -0.5245
 6877SOL    HW232091   0.323   3.838  17.549  0.5651 -0.8714  0.3353
 6878SOL     OW32092   2.521   1.409   0.069 -0.3441 -0.2375 -0.4707
 6878SOL    HW132093   2.471   1.360   0.003 -1.4269  1.5149 -0.9421
 6878SOL    HW232094   2.565   1.477   0.019  0.1741  0.0860  0.4200
 6879SOL     OW32095   1.906   3.973  15.556  0.4830  0.3578  0.6144
 6879SOL    HW132096   1.895   3.981  15.651 -1.1591 -0.3310  0.4798
 6879SOL    HW232097   1.994   3.935  15.549  0.1997 -0.2777  0.5179
 6880SOL     OW32098   1.233   2.826   5.656  0.2730  0.6375 -0.2174
 6880SOL    HW132099   1.210   2.900   5.601 -0.9544 -0.6572 -1.4177
 6880SOL    HW232100   1.176   2.835   5.733  0.0777  2.1562 -0.5467
 6881SOL     OW32101   1.590   4.092   2.646 -0.3305  0.5149  0.8540
 6881SOL    HW132102   1.510   4.090   2.594  1.2651  1.0344 -1.6083
 6881SOL    HW232103   1.647   4.125   2.576 -0.1585 -0.3018  0.6008
 6882SOL     OW32104   3.426   1.272   4.408 -0.1803 -0.4495 -0.0270
 6882SOL    HW132105   3.438   1.272   4.503 -0.7518  2.5053  0.0475
 6882SOL    HW232106   3.338   1.234   4.404  0.0463 -1.0518  0.6100
 6883SOL     OW32107   2.095   3.137  11.724 -0.6342  0.0752  0.2397
 6883SOL    HW132108   2.083   3.232  11.728  1.2106  0.2201  2.3353
 6883SOL    HW232109   2.035   3.114  11.654 -1.1317 -1.5610  1.2103
 6884SOL     OW32110   3.885   4.432  10.530  0.1600 -0.8528 -0.0001
 6884SOL    HW132111   3.910   4.368  10.596  4.1756 -0.2273 -0.9248
 6884SOL    HW232112   3.852   4.378  10.459 -1.1666 -1.3174  0.9638
 6885SOL     OW32113   4.467   1.063   4.153 -0.3284  0.2483 -0.4164
 6885SOL    HW132114   4.427   1.077   4.067 -0.2965 -0.1880 -0.5036
 6885SOL    HW232115   4.542   1.121   4.138 -1.7588  1.9944 -0.8014
 6886SOL     OW32116   2.665   3.003   5.359 -0.2000 -0.1950 -1.0917
 6886SOL    HW132117   2.600   2.967   5.299 -1.2752 -0.5671  0.3012
 6886SOL    HW232118   2.627   2.984   5.445  0.8989  0.7186 -0.4071
 6887SOL     OW32119   0.185   2.480   6.634  0.6991  1.0487 -0.2668
 6887SOL    HW132120   0.118   2.426   6.591  1.3562 -0.1086  0.1661
 6887SOL    HW232121   0.162   2.568   6.603  1.6656  0.5086 -2.4861
 6888SOL     OW32122   3.275   3.258   6.748  0.1118 -0.6004 -0.0494
 6888SOL    HW132123   3.237   3.216   6.671  2.7932 -1.3557 -0.9959
 6888SOL    HW232124   3.369   3.254   6.728  0.4706  1.0478  1.2925
 6889SOL     OW32125   3.038   0.852   1.836 -0.0005 -0.1944  0.5564
 6889SOL    HW132126   2.978   0.784   1.869 -1.1272  0.2402 -0.6323
 6889SOL    HW232127   3.121   0.805   1.849  0.6382  1.7741  3.6341
 6890SOL     OW32128   4.131   0.954  15.655 -0.0063  0.0951 -0.4676
 6890SOL    HW132129   4.072   1.016  15.614  0.2498 -0.5370 -1.7945
 6890SOL    HW232130   4.123   0.885  15.589 -0.2259 -0.3006 -0.0308
 6891SOL     OW32131   3.711   3.160  11.293 -0.5903 -0.2397  0.1714
 6891SOL    HW132132   3.640   3.205  11.247  0.5722  2.3901  0.9351
 6891SOL    HW232133   3.672   3.076  11.315  0.3955 -0.7473 -0.0035
 6892SOL     OW32134   2.086   3.982  17.578  0.1959  0.2875  0.1693
 6892SOL    HW132135   2.121   4.071  17.571  1.5539 -0.2579 -0.0101
 6892SOL    HW232136   2.169   3.940  17.602 -0.8910 -0.3591  2.7739
 6893SOL     OW32137   1.170   2.466   0.342  0.2625 -0.1879 -0.4363
 6893SOL    HW132138   1.108   2.500   0.407  1.4694  0.7553  0.2251
 6893SOL    HW232139   1.254   2.485   0.384 -0.7211  3.6161 -0.2272
 6894SOL     OW32140   1.486   0.414   6.487  0.1536 -0.0941  0.2777
 6894SOL    HW132141   1.559   0.353   6.478  0.3913  0.2983 -0.4152
 6894SOL    HW232142   1.423   0.361   6.536 -0.5405  0.8321  0.3886
 6895SOL     OW32143   0.547   0.842   6.553 -0.0430 -0.8525 -0.1727
 6895SOL    HW132144   0.564   0.899   6.478  1.4291  2.4377  2.6658
 6895SOL    HW232145   0.586   0.760   6.522  0.3796 -0.6983 -0.0457
 6896SOL     OW32146   4.525   0.653  17.261 -0.2519  0.2244  0.4973
 6896SOL    HW132147   4.540   0.559  17.264  1.7879  0.5438  0.4861
 6896SOL    HW232148   4.571   0.680  17.182 -0.9136 -1.1734 -0.3548
 6897SOL     OW32149   3.117   2.449   9.744 -0.3990  0.0001 -0.3157
 6897SOL    HW132150   3.101   2.502   9.822  0.9431  0.5959 -0.4542
 6897SOL    HW232151   3.085   2.506   9.674  0.3208 -0.7308 -1.2423
 6898SOL     OW32152   0.133   2.378   7.620 -0.0793 -0.1214  0.5371
 6898SOL    HW132153   0.227   2.362   7.627 -0.2105 -0.5867  1.2637
 6898SOL    HW232154   0.100   2.319   7.688 -1.4438  0.0193 -0.0070
 6899SOL     OW32155   4.401   3.308   5.185 -0.1670  0.0371 -0.0425
 6899SOL    HW132156   4.456   3.386   5.192  0.3078 -0.7689  5.1946
 6899SOL    HW232157   4.316   3.345   5.207 -0.1019  0.2358 -0.1255
 6900SOL     OW32158   0.009   3.585   7.961  0.3078  0.5160 -0.5128
 6900SOL    HW132159   0.007   3.594   7.866  1.5558 -0.1281 -0.6067
 6900SOL    HW232160   0.049   3.669   7.984  0.3438  0.9006 -1.9645
 6901SOL     OW32161   1.179   1.107   1.062 -0.1347  0.0191  1.1366
 6901SOL    HW132162   1.249   1.099   1.127  0.4855  0.1255  0.4831
 6901SOL    HW232163   1.216   1.180   1.012  0.6192 -0.6689  0.6881
 6902SOL     OW32164   0.496   4.274  11.474  0.4865 -0.2811  0.3693
 6902SOL    HW132165   0.567   4.287  11.411  0.0711 -0.6756 -0.1786
 6902SOL    HW232166   0.542   4.267  11.558  0.4003  0.0495  0.4460
 6903SOL     OW32167   3.636   4.238  14.865  0.4464 -0.5299  0.4334
 6903SOL    HW132168   3.686   4.314  14.835  1.2796 -0.9671  0.7081
 6903SOL    HW232169   3.701   4.196  14.922  0.0827 -0.3872  0.9517
 6904SOL     OW32170   0.636   2.992   5.207 -0.3461  0.0260 -0.3627
 6904SOL    HW132171   0.631   3.083   5.178  2.1063  0.4183  0.4419
 6904SOL    HW232172   0.545   2.979   5.235 -0.4524  0.8298 -0.3332
 6905SOL     OW32173   1.536   0.791   5.753 -0.2445 -0.1271 -0.2856
 6905SOL    HW132174   1.500   0.724   5.694  2.2075 -3.1076  1.5602
 6905SOL    HW232175   1.494   0.868   5.715 -0.3551  0.4206  0.9702
 6906SOL     OW32176   3.214   1.435   8.079  0.1551 -0.2470  0.7919
 6906SOL    HW132177   3.216   1.339   8.081 -3.2128 -0.2526  2.3216
 6906SOL    HW232178   3.211   1.446   7.984 -1.5185  0.2867  0.9158
 6907SOL     OW32179   3.467   1.539   3.685 -0.5276  0.0138  0.1423
 6907SOL    HW132180   3.497   1.622   3.719 -0.4763  0.2940 -0.5778
 6907SOL    HW232181   3.538   1.481   3.712 -0.2712  0.4981  0.5002
 6908SOL     OW32182   3.347   2.771   0.849 -0.3050 -0.0886  0.5781
 6908SOL    HW132183   3.380   2.858   0.873 -0.4324  0.4315 -1.1408
 6908SOL    HW232184   3.377   2.720   0.925  0.1360 -1.1042 -0.2792
 6909SOL     OW32185   3.166   0.476   2.272 -0.6804  0.1915 -0.5900
 6909SOL    HW132186   3.174   0.557   2.222 -0.3324  1.0904  0.9411
 6909SOL    HW232187   3.085   0.496   2.318 -0.1748  1.8029 -0.4117
 6910SOL     OW32188   3.859   3.055  15.519 -0.2543 -0.4775 -0.6113
 6910SOL    HW132189   3.852   3.001  15.598  2.7909 -1.5056 -1.0389
 6910SOL    HW232190   3.909   3.130  15.551  0.7228 -1.1156 -0.6095
 6911SOL     OW32191   3.722   3.039   5.019  0.0982 -0.3437  0.5173
 6911SOL    HW132192   3.655   3.044   4.951  1.2241  1.1680 -0.4819
 6911SOL    HW232193   3.723   3.128   5.054  0.2480 -0.3714  0.5832
 6912SOL     OW32194   3.126   3.848  16.378  0.0970  0.5152 -0.2203
 6912SOL    HW132195   3.216   3.880  16.378  0.4966 -0.5945  1.4888
 6912SOL    HW232196   3.082   3.893  16.306 -0.3660  0.1861 -0.1443
 6913SOL     OW32197   2.260   2.059   7.196 -0.6625  0.5773 -0.4769
 6913SOL    HW132198   2.307   2.112   7.132  1.3637 -0.0361  0.5142
 6913SOL    HW232199   2.171   2.078   7.166 -1.3464  2.3878  2.6100
 6914SOL     OW32200   0.274   0.917  15.719 -0.2025 -0.2333 -0.3486
 6914SOL    HW132201   0.197   0.932  15.663 -0.8741 -0.4068  0.5322
 6914SOL    HW232202   0.251   0.828  15.747  1.9725 -0.3705  1.0260
 6915SOL     OW32203   1.288   4.585   3.456 -0.4455  0.5955 -0.4863
 6915SOL    HW132204   1.279   4.508   3.399  0.1410 -0.7591  1.2546
 6915SOL    HW232205   1.368   4.618   3.417  0.4323  0.7240  1.4523
 6916SOL     OW32206   0.970   3.677   8.332  0.4216  0.9383  0.3448
 6916SOL    HW132207   1.037   3.706   8.394  0.3770 -2.3179  1.9199
 6916SOL    HW232208   0.929   3.762   8.316  1.3139  1.4723  0.9392
 6917SOL     OW32209   2.958   3.210  16.048  0.1613  0.1195  0.6904
 6917SOL    HW132210   2.955   3.306  16.051  3.0184  0.3029 -1.9091
 6917SOL    HW232211   2.883   3.191  16.104  0.0359 -1.3410  0.0052
 6918SOL     OW32212   3.822   0.305   0.585 -0.3965  0.4864 -0.3520
 6918SOL    HW132213   3.805   0.292   0.492 -0.1223  1.8826 -0.5970
 6918SOL    HW232214   3.912   0.273   0.592 -1.5785 -2.7142  0.1365
 6919SOL     OW32215   1.582   2.901   1.814  0.0458 -0.0579 -0.5135
 6919SOL    HW132216   1.574   2.954   1.734 -0.4735  0.0214 -0.4070
 6919SOL    HW232217   1.575   2.964   1.886 -2.6121  0.3002 -1.0716
 6920SOL     OW32218   2.237   3.599   3.446  0.6068 -0.3638  0.1851
 6920SOL    HW132219   2.262   3.619   3.356 -0.3640  0.2529  0.0445
 6920SOL    HW232220   2.144   3.578   3.441  0.7241 -0.7345 -0.4005
 6921SOL     OW32221   1.693   3.279  11.485  0.0298  0.1864 -0.4488
 6921SOL    HW132222   1.609   3.233  11.484  0.8012 -1.2336  0.0807
 6921SOL    HW232223   1.694   3.313  11.574  1.4372  0.0454 -0.4125
 6922SOL     OW32224   0.828   1.063   3.610 -0.3667  0.5826 -0.1578
 6922SOL    HW132225   0.874   1.059   3.693  1.1320  0.1408 -1.0130
 6922SOL    HW232226   0.845   1.152   3.576  1.8664  0.2402  0.0673
 6923SOL     OW32227   0.342   4.439   4.397 -0.1784  0.2377  0.1922
 6923SOL    HW132228   0.326   4.350   4.428  2.0798 -0.5013 -0.7499
 6923SOL    HW232229   0.437   4.442   4.408 -0.1288  1.5173 -0.5921
 6924SOL     OW32230   1.809   4.119   2.812 -0.1610  0.0257 -0.1851
 6924SOL    HW132231   1.745   4.081   2.751  0.7112 -2.7037  0.6163
 6924SOL    HW232232   1.893   4.119   2.766 -1.1823  1.8363 -2.0674
 6925SOL     OW32233   3.787   3.512  16.213  0.2519  0.7502  0.0734
 6925SOL    HW132234   3.710   3.463  16.240 -0.1656  0.5229 -1.5117
 6925SOL    HW232235   3.752   3.595  16.180 -1.5107  0.3673  1.0200
 6926SOL     OW32236   1.144   0.386  14.602 -0.1616 -0.6493  0.5242
 6926SOL    HW132237   1.151   0.375  14.507  0.9112 -2.4505  0.8050
 6926SOL    HW232238   1.055   0.420  14.596  0.3163  0.2735 -1.4115
 6927SOL     OW32239   3.064   3.848   6.341  0.0313  0.4177  0.2327
 6927SOL    HW132240   3.106   3.934   6.353  0.0741  0.1074  2.1562
 6927SOL    HW232241   3.021   3.830   6.424  0.1610 -0.9047  0.0128
 6928SOL     OW32242   2.941   1.167  15.584  0.0055 -0.3821  0.0552
 6928SOL    HW132243   2.895   1.137  15.506  0.5043  0.5122 -0.5858
 6928SOL    HW232244   3.012   1.105  15.599  2.0475  1.9669  0.0773
 6929SOL     OW32245   2.802   4.352  10.321  0.0378 -0.4310 -0.2619
 6929SOL    HW132246   2.825   4.377  10.410 -2.8420 -0.5243  0.5333
 6929SOL    HW232247   2.826   4.426  10.265  0.0696  0.0917  0.4465
 6930SOL     OW32248   4.267   3.216  16.356 -0.0617 -0.1065  0.2672
 6930SOL    HW132249   4.223   3.277  16.297 -0.0302  0.3015  0.6599
 6930SOL    HW232250   4.256   3.134  16.309  1.3662 -0.1463  0.0047
 6931SOL     OW32251   2.110   1.081   8.734 -0.1622 -0.2755 -0.4239
 6931SOL    HW132252   2.107   0.986   8.742  1.9533 -0.3062 -0.1344
 6931SOL    HW232253   2.162   1.098   8.812  1.4265 -0.3226 -1.4862
 6932SOL     OW32254   0.854   0.505   3.747  0.4395  0.0185  0.0067
 6932SOL    HW132255   0.941   0.526   3.782 -0.3479  0.2625  1.8122
 6932SOL    HW232256   0.807   0.587   3.761  2.8502  1.3453  0.2249
 6933SOL     OW32257   1.079   0.818  16.300  0.1823 -0.3927 -0.1524
 6933SOL    HW132258   0.999   0.857  16.264  1.3519  3.0910  0.9897
 6933SOL    HW232259   1.092   0.870  16.380 -0.5222  2.1393 -1.6604
 6934SOL     OW32260   0.941   3.561  13.958  0.2864  0.3376  0.5162
 6934SOL    HW132261   0.941   3.627  14.028  2.9782  0.4380  0.4311
 6934SOL    HW232262   0.916   3.618  13.885  3.0537  0.9059  0.0134
 6935SOL     OW32263   4.467   1.708  16.106 -0.2286  0.5581 -0.0616
 6935SOL    HW132264   4.423   1.628  16.077 -2.3947  1.3428  0.9746
 6935SOL    HW232265   4.400   1.777  16.102 -0.8311 -0.0571 -0.7338
 6936SOL     OW32266   0.108   2.848   8.001 -0.4699  0.3100 -0.1351
 6936SOL    HW132267   0.082   2.829   8.091  1.0659 -0.0287  0.2386
 6936SOL    HW232268   0.051   2.924   7.989  1.8779  1.7797 -1.9902
 6937SOL     OW32269   1.875   4.322   2.103  0.0431 -0.4459  0.0241
 6937SOL    HW132270   1.937   4.302   2.174  0.0702  0.8259  0.3484
 6937SOL    HW232271   1.809   4.371   2.152 -1.7062 -2.8400  0.0638
 6938SOL     OW32272   0.408   4.150  14.404  0.1116 -0.1985 -0.2868
 6938SOL    HW132273   0.450   4.137  14.319  1.0084  0.0367  0.1158
 6938SOL    HW232274   0.418   4.064  14.444 -1.7582 -0.2289  0.1104
 6939SOL     OW32275   2.407   1.888  15.686  0.3839  0.1125 -0.3786
 6939SOL    HW132276   2.445   1.975  15.667  1.5754 -0.3565 -0.1338
 6939SOL    HW232277   2.397   1.850  15.599  1.3388 -2.4335  0.6171
 6940SOL     OW32278   0.971   0.280  17.257 -0.1277 -0.4296  0.0941
 6940SOL    HW132279   0.912   0.251  17.187  0.6009 -0.8408 -0.3494
 6940SOL    HW232280   1.049   0.225  17.262  0.6358  0.8439  2.5029
 6941SOL     OW32281   1.421   1.715   5.561  0.1694 -0.3582  0.2682
 6941SOL    HW132282   1.425   1.690   5.653  0.9435  1.3232  0.6913
 6941SOL    HW232283   1.513   1.740   5.561 -0.3084  1.4054  2.1912
 6942SOL     OW32284   0.710   0.261   9.380 -0.5339 -0.5098  0.2656
 6942SOL    HW132285   0.760   0.337   9.411 -0.8119 -1.2936  2.5991
 6942SOL    HW232286   0.649   0.252   9.453  0.6682  0.4129  1.3927
 6943SOL     OW32287   3.561   1.917   6.728  0.3598  0.1247 -0.6942
 6943SOL    HW132288   3.574   1.891   6.820  1.5442 -0.1699 -0.9447
 6943SOL    HW232289   3.481   1.967   6.746 -0.5433 -2.0611  1.4255
 6944SOL     OW32290   3.784   0.062  16.574 -0.5684 -0.4062 -0.5156
 6944SOL    HW132291   3.796   0.002  16.647  1.7124  1.2853  0.5115
 6944SOL    HW232292   3.787   0.146  16.621  1.2980 -0.1029 -1.1444
 6945SOL     OW32293   0.302   0.841   5.683  0.3881 -0.4379  0.3362
 6945SOL    HW132294   0.330   0.881   5.600  2.9504 -1.9126  0.5111
 6945SOL    HW232295   0.376   0.781   5.685  2.6998  2.4170  0.6346
 6946SOL     OW32296   2.387   1.037   9.537 -0.2152  0.9102  0.4884
 6946SOL    HW132297   2.357   1.059   9.626  0.3161 -1.3123  1.2089
 6946SOL    HW232298   2.355   0.947   9.534  0.7177  0.5353  1.7849
 6947SOL     OW32299   3.909   3.373   9.490  0.4243 -0.2962 -0.9584
 6947SOL    HW132300   3.899   3.434   9.418 -0.5658  0.7656  0.0879
 6947SOL    HW232301   3.955   3.293   9.464 -1.6266 -0.9474 -2.5912
 6948SOL     OW32302   2.055   2.579  13.633 -0.0390  0.0866  0.3206
 6948SOL    HW132303   2.125   2.632  13.671  0.5822 -0.8592  0.4842
 6948SOL    HW232304   1.984   2.644  13.637  0.1309  0.3184 -0.3360
 6949SOL     OW32305   4.248   0.183   9.411 -0.5644  0.1919  0.2138
 6949SOL    HW132306   4.271   0.101   9.367 -0.0586  0.9220 -0.9015
 6949SOL    HW232307   4.214   0.160   9.497 -1.3384 -1.3988 -0.5131
 6950SOL     OW32308   0.864   3.307   2.845 -0.0803 -0.8939 -0.2775
 6950SOL    HW132309   0.834   3.216   2.844  1.3461 -1.3823  0.8725
 6950SOL    HW232310   0.872   3.328   2.752  1.1174 -2.5637 -0.5542
 6951SOL     OW32311   4.091   0.277   8.178 -0.3804  0.1779  0.0047
 6951SOL    HW132312   4.091   0.372   8.191  0.6803 -0.1822  2.7158
 6951SOL    HW232313   4.145   0.252   8.253 -0.1846  1.4794  0.3111
 6952SOL     OW32314   4.113   2.146  17.620  0.0105  0.4170  0.0261
 6952SOL    HW132315   4.071   2.177  17.540  2.0270 -0.7944 -1.4989
 6952SOL    HW232316   4.069   2.068  17.652  1.2219  0.1010  0.9311
 6953SOL     OW32317   1.590   3.830   4.148  0.3364  1.1617  0.1110
 6953SOL    HW132318   1.546   3.908   4.116  0.2108  1.4910  1.0834
 6953SOL    HW232319   1.638   3.868   4.222 -0.5035  1.0271  0.7327
 6954SOL     OW32320   3.444   3.520  16.314  0.7547 -0.0584 -0.0701
 6954SOL    HW132321   3.378   3.545  16.379 -1.1729 -1.2892 -1.5336
 6954SOL    HW232322   3.385   3.514  16.239  0.4490 -1.1994  0.2574
 6955SOL     OW32323   0.710   4.211   4.288  0.3684 -1.0599  0.2944
 6955SOL    HW132324   0.666   4.129   4.269 -1.2976 -0.0914  0.0278
 6955SOL    HW232325   0.768   4.234   4.215  2.0503  2.6337  2.7629
 6956SOL     OW32326   4.701   0.912   8.556  0.0625 -0.9667 -0.3405
 6956SOL    HW132327   4.685   0.930   8.464 -2.4546  3.4701  0.9509
 6956SOL    HW232328   4.689   1.001   8.591 -0.1757 -0.1167 -2.5687
 6957SOL     OW32329   0.103   4.090  12.164 -0.3555  0.2133  0.1701
 6957SOL    HW132330   0.010   4.098  12.183 -0.3729  3.1775 -1.1784
 6957SOL    HW232331   0.109   4.048  12.078 -2.2402  0.4067 -0.0548
 6958SOL     OW32332   0.306   3.191   3.353  0.1015  0.0915  0.4415
 6958SOL    HW132333   0.341   3.139   3.426 -0.5623 -2.8656 -1.3433
 6958SOL    HW232334   0.365   3.190   3.278  0.3763 -1.1356  0.6641
 6959SOL     OW32335   3.029   0.890   9.099 -0.1801  0.5271  0.1900
 6959SOL    HW132336   2.992   0.973   9.130  0.0266 -0.1496  2.2881
 6959SOL    HW232337   3.071   0.926   9.021  0.2108  2.3165  1.2105
 6960SOL     OW32338   2.816   3.440  16.598 -0.2817 -0.4928  0.5318
 6960SOL    HW132339   2.902   3.482  16.595 -0.3700 -0.3856 -0.8144
 6960SOL    HW232340   2.834   3.362  16.545  1.5601 -0.4016  1.0278
 6961SOL     OW32341   0.378   4.495   2.672  0.2432  0.0333  0.3690
 6961SOL    HW132342   0.441   4.515   2.741  1.3996 -0.5295 -0.5332
 6961SOL    HW232343   0.350   4.405   2.691 -3.8469  1.1412 -0.2592
 6962SOL     OW32344   1.471   2.101   7.931  0.3246 -0.4194 -0.2597
 6962SOL    HW132345   1.501   2.076   8.018 -3.7518 -1.0831  0.9651
 6962SOL    HW232346   1.550   2.078   7.881 -0.1860 -2.3098 -0.2072
 6963SOL     OW32347   0.470   2.084  17.056  1.1096 -0.2127 -0.4300
 6963SOL    HW132348   0.512   2.169  17.054 -1.4723  1.1005  1.1738
 6963SOL    HW232349   0.375   2.100  17.054  1.4907  2.2668  2.3157
 6964SOL     OW32350   4.531   2.963   0.824  0.1593 -0.0728  0.1581
 6964SOL    HW132351   4.548   2.888   0.767  0.5459 -0.0627  0.2543
 6964SOL    HW232352   4.437   2.964   0.838  0.1793  1.1773  0.2009
 6965SOL     OW32353   0.804   2.539   2.228  0.2242 -0.5953 -0.0729
 6965SOL    HW132354   0.728   2.588   2.257  0.5973 -1.0118  1.6263
 6965SOL    HW232355   0.788   2.450   2.259 -0.6321  0.1684  1.6571
 6966SOL     OW32356   2.818   1.300  14.258  0.1446  0.6225  0.0864
 6966SOL    HW132357   2.797   1.312  14.165  0.7953  2.6628  0.1937
 6966SOL    HW232358   2.881   1.229  14.245  0.9954  0.8508  2.9304
 6967SOL     OW32359   3.985   3.569   7.906 -0.5230  0.1214 -0.2475
 6967SOL    HW132360   4.050   3.523   7.854 -0.2426  0.2769 -0.0362
 6967SOL    HW232361   3.907   3.515   7.918  0.6236 -1.5423 -0.4169
 6968SOL     OW32362   1.287   0.658  14.329  0.0620 -0.1074  0.0669
 6968SOL    HW132363   1.334   0.734  14.364 -0.0776 -0.0468  0.1250
 6968SOL    HW232364   1.211   0.699  14.287  0.3661 -0.5167 -0.8686
 6969SOL     OW32365   1.661   3.941   1.739  0.7703 -0.1078 -0.3612
 6969SOL    HW132366   1.653   3.893   1.821  0.8075  0.6193  0.0685
 6969SOL    HW232367   1.613   3.875   1.688 -0.2735  1.7318 -1.7552
 6970SOL     OW32368   0.094   3.025  10.969 -1.2071  0.0495 -0.1263
 6970SOL    HW132369   0.030   3.072  11.023 -1.1195  0.0943 -0.0613
 6970SOL    HW232370   0.151   2.988  11.037 -0.8230  2.1378  0.6873
 6971SOL     OW32371   2.158   3.096   5.642 -0.1225  0.1505  1.1394
 6971SOL    HW132372   2.238   3.115   5.595 -1.8343  1.2729 -1.3387
 6971SOL    HW232373   2.136   3.008   5.610  0.3024  0.7446 -0.7558
 6972SOL     OW32374   3.995   3.640   3.127  0.1260  0.5485  0.2794
 6972SOL    HW132375   4.046   3.612   3.051  0.1012  0.0174  0.4539
 6972SOL    HW232376   3.930   3.694   3.082  0.8767 -0.3531 -1.8800
 6973SOL     OW32377   4.671   2.745   2.924  0.3523  0.7408  0.1181
 6973SOL    HW132378   4.668   2.806   2.850 -2.0771  0.1031 -0.3074
 6973SOL    HW232379   4.648   2.668   2.872 -2.4228  1.5032  0.2350
 6974SOL     OW32380   1.229   1.768  12.018 -0.0641 -0.0886 -0.1818
 6974SOL    HW132381   1.160   1.834  12.014 -0.2612 -0.2630  0.2552
 6974SOL    HW232382   1.302   1.824  12.047  0.7994 -0.8585 -0.8898
 6975SOL     OW32383   0.659   0.191   6.583  0.0604 -0.1419  0.7744
 6975SOL    HW132384   0.602   0.266   6.569 -1.6199 -1.6707 -0.5253
 6975SOL    HW232385   0.725   0.224   6.644 -2.2210  3.5227  1.1791
 6976SOL     OW32386   4.647   0.331  16.466 -0.1227  0.7510  0.5708
 6976SOL    HW132387   4.619   0.257  16.413  1.1374 -0.2273  1.2881
 6976SOL    HW232388   0.020   0.317  16.471  0.3268  3.9672  1.1443
 6977SOL     OW32389   3.741   4.405   8.886 -1.3593  0.2405 -0.0679
 6977SOL    HW132390   3.790   4.415   8.804 -2.0731 -2.3017 -0.7754
 6977SOL    HW232391   3.805   4.355   8.937  0.2366  2.9909  0.6402
 6978SOL     OW32392   4.324   0.717  15.047  0.2470  0.4154  0.7308
 6978SOL    HW132393   4.308   0.712  15.141  0.2938 -0.1453  0.7104
 6978SOL    HW232394   4.419   0.713  15.045  0.2934  1.5723  0.8862
 6979SOL     OW32395   1.171   2.852   6.325 -0.2740 -0.4494 -0.7447
 6979SOL    HW132396   1.079   2.877   6.313 -0.2673  0.1162  0.4233
 6979SOL    HW232397   1.201   2.876   6.237 -1.7730 -1.7028 -1.6019
 6980SOL     OW32398   4.449   2.451   5.825  0.3291  1.0032  0.4953
 6980SOL    HW132399   4.397   2.495   5.757  1.1362  2.3118  0.7173
 6980SOL    HW232400   4.436   2.522   5.888 -2.1761 -1.2988  2.5094
 6981SOL     OW32401   4.538   0.818   4.616  0.5609  0.4389  0.5068
 6981SOL    HW132402   4.607   0.752   4.608 -1.6686 -1.7257 -1.0336
 6981SOL    HW232403   4.568   0.893   4.565  1.0838  0.7387  1.2610
 6982SOL     OW32404   1.341   3.522   4.762 -0.4510  0.4252  0.7919
 6982SOL    HW132405   1.325   3.433   4.732 -2.4037  0.9079  0.3929
 6982SOL    HW232406   1.296   3.573   4.695 -3.5952 -2.5547  0.6288
 6983SOL     OW32407   1.778   4.388  15.518  1.0608  0.0533  0.4491
 6983SOL    HW132408   1.772   4.461  15.455  1.1065 -1.0400 -0.8175
 6983SOL    HW232409   1.792   4.319  15.454  2.6040  1.1676 -0.4140
 6984SOL     OW32410   0.567   3.229   9.337  0.0588 -0.3181  0.2075
 6984SOL    HW132411   0.560   3.149   9.284 -0.7177 -0.0564 -0.0952
 6984SOL    HW232412   0.481   3.234   9.379  0.3209 -0.7432  0.7895
 6985SOL     OW32413   3.490   0.824   5.448  0.0356  0.0370 -0.2505
 6985SOL    HW132414   3.403   0.786   5.457 -0.3332  1.0354  0.4360
 6985SOL    HW232415   3.468   0.916   5.433  0.4323  0.9623  4.6299
 6986SOL     OW32416   2.585   1.767   2.635 -0.1519  0.6637 -0.1859
 6986SOL    HW132417   2.583   1.788   2.729  1.1111  1.2837 -0.3037
 6986SOL    HW232418   2.496   1.735   2.619  0.9334 -2.6392  0.5030
 6987SOL     OW32419   2.443   0.210   5.575 -0.6342  0.7963  0.8985
 6987SOL    HW132420   2.428   0.219   5.670 -0.5977 -0.6697  1.0463
 6987SOL    HW232421   2.493   0.286   5.545 -1.3824  0.1882 -1.8696
 6988SOL     OW32422   4.336   0.043   7.625 -1.1008  0.3712  0.3082
 6988SOL    HW132423   4.364   0.128   7.658  0.0872 -1.0750  3.0645
 6988SOL    HW232424   4.245   0.041   7.654 -0.6212 -0.8323  1.7363
 6989SOL     OW32425   4.591   0.445   4.874  0.1367 -0.4007 -0.1623
 6989SOL    HW132426   4.561   0.370   4.926 -2.7583  0.9766  0.2015
 6989SOL    HW232427   4.557   0.429   4.786 -0.2767  3.0463 -0.6201
 6990SOL     OW32428   2.226   4.395  12.137  0.7781  0.5308  0.1623
 6990SOL    HW132429   2.137   4.431  12.138  1.5841  2.5520  1.1851
 6990SOL    HW232430   2.266   4.460  12.195  1.7657 -0.1965  0.2923
 6991SOL     OW32431   2.756   2.555   4.198  0.3296  0.5432  0.4727
 6991SOL    HW132432   2.670   2.525   4.230 -0.3331  1.1876 -0.6966
 6991SOL    HW232433   2.774   2.633   4.249  0.5591 -0.2090  1.5427
 6992SOL     OW32434   1.491   1.033   6.076 -0.2497 -0.6489  0.6454
 6992SOL    HW132435   1.440   0.958   6.106  0.6526 -0.6474  2.1367
 6992SOL    HW232436   1.424   1.095   6.046 -0.9638 -1.7835 -0.0831
 6993SOL     OW32437   2.558   3.796   7.922  0.5575  0.4992  0.0518
 6993SOL    HW132438   2.472   3.821   7.886  0.8951 -0.0532 -1.1676
 6993SOL    HW232439   2.538   3.702   7.924  0.2539  0.6311  3.1675
 6994SOL     OW32440   3.900   2.090   3.780 -0.1477  0.2066  0.1041
 6994SOL    HW132441   3.860   2.128   3.858 -0.5305  1.3116 -0.6339
 6994SOL    HW232442   3.873   2.144   3.706 -1.9447  0.7780  1.1885
 6995SOL     OW32443   2.736   2.103  15.820  0.7055  0.2399 -0.4354
 6995SOL    HW132444   2.727   2.042  15.746  2.3136  0.7997 -1.0792
 6995SOL    HW232445   2.649   2.144  15.826 -0.7471 -2.5333 -2.3160
 6996SOL     OW32446   2.164   0.533  13.468 -0.2810 -0.5221  0.3959
 6996SOL    HW132447   2.252   0.566  13.487 -1.0137  0.1747  2.5296
 6996SOL    HW232448   2.148   0.475  13.542 -1.6331 -0.5796  0.0580
 6997SOL     OW32449   3.130   4.293  16.740  0.3181 -0.3775 -0.2657
 6997SOL    HW132450   3.132   4.216  16.797 -1.4606  0.1018  0.4262
 6997SOL    HW232451   3.039   4.323  16.735  0.5956  0.5818  0.4556
 6998SOL     OW32452   0.765   3.201   9.840  0.9512  0.0398  0.0068
 6998SOL    HW132453   0.681   3.197   9.795  1.2618  0.6672 -0.6397
 6998SOL    HW232454   0.819   3.165   9.769  0.8201 -0.1055 -0.0191
 6999SOL     OW32455   0.561   2.078   2.613 -0.9251  0.3475  0.1858
 6999SOL    HW132456   0.623   2.056   2.682 -1.5996 -0.2040  0.5980
 6999SOL    HW232457   0.479   2.075   2.662 -1.6077 -0.5409 -1.0136
 7000SOL     OW32458   3.968   1.635  16.716  0.5149 -0.0709  0.3579
 7000SOL    HW132459   3.877   1.607  16.726  0.7614 -1.5125 -1.4162
 7000SOL    HW232460   3.993   1.670  16.802  2.2255  0.5246 -0.3892
 7001SOL     OW32461   1.322   1.703   5.080 -0.3836  0.1326  0.3127
 7001SOL    HW132462   1.365   1.682   4.997 -2.7932 -0.4078 -0.8215
 7001SOL    HW232463   1.250   1.759   5.050 -0.3338  0.5050  0.8850
 7002SOL     OW32464   2.255   4.036   2.463  0.6994 -0.0310  0.5423
 7002SOL    HW132465   2.271   3.996   2.378  2.2348  1.0989  0.3025
 7002SOL    HW232466   2.310   4.114   2.460  1.2010 -0.3223  1.9431
 7003SOL     OW32467   4.476   1.521   9.028  0.4449 -0.3299  0.6740
 7003SOL    HW132468   4.397   1.484   9.068 -0.1641  0.6451  0.3699
 7003SOL    HW232469   4.499   1.449   8.969 -0.0459  0.8915 -1.0009
 7004SOL     OW32470   0.001   2.247  10.930  0.4242 -0.1816  0.0799
 7004SOL    HW132471   4.664   2.244  11.006  0.9588  2.0762  0.5515
 7004SOL    HW232472   0.055   2.168  10.936 -0.3643 -0.6745  0.7974
 7005SOL     OW32473   0.580   0.471   2.879 -0.2449 -0.6486 -0.0069
 7005SOL    HW132474   0.552   0.466   2.788  2.4665 -2.2401 -0.7661
 7005SOL    HW232475   0.607   0.382   2.902 -2.1860 -0.3171  3.5155
 7006SOL     OW32476   1.939   2.075   2.999  0.0841  0.8758  0.5305
 7006SOL    HW132477   1.849   2.081   3.033 -0.4021  0.8106 -0.7339
 7006SOL    HW232478   1.933   1.983   2.974  0.9693  1.6185 -2.3987
 7007SOL     OW32479   0.600   2.983   8.123  0.3464  0.1253 -0.2614
 7007SOL    HW132480   0.528   2.955   8.067  0.8776 -1.2639 -0.2606
 7007SOL    HW232481   0.581   2.937   8.205 -0.5618 -1.0381 -1.1283
 7008SOL     OW32482   2.397   0.035  12.107  0.5698  0.5696  0.1441
 7008SOL    HW132483   2.409   4.684  12.046  2.3525  0.6364  0.3970
 7008SOL    HW232484   2.358   4.713  12.183 -1.3840 -0.1351 -1.2683
 7009SOL     OW32485   3.575   3.998  13.887 -0.3011 -0.0720 -0.0139
 7009SOL    HW132486   3.542   4.047  13.962 -1.3420  0.3685 -0.7576
 7009SOL    HW232487   3.664   4.033  13.881  0.1438 -1.4159 -1.4005
 7010SOL     OW32488   1.328   0.367   8.488 -0.2120  0.4882  0.0805
 7010SOL    HW132489   1.294   0.397   8.403 -1.3742  0.7194  0.6221
 7010SOL    HW232490   1.291   0.433   8.547  0.9262  0.3407  0.9490
 7011SOL     OW32491   2.592   4.466   4.213 -0.5566  0.1621  0.2338
 7011SOL    HW132492   2.636   4.385   4.189  2.1615  2.0846 -1.2140
 7011SOL    HW232493   2.539   4.473   4.133 -0.4453 -1.2699  0.0248
 7012SOL     OW32494   0.643   2.850  12.836  0.0134  0.0182  0.0037
 7012SOL    HW132495   0.587   2.829  12.911 -1.3260 -1.7624 -1.4789
 7012SOL    HW232496   0.729   2.819  12.865  0.6220  0.8131 -0.9323
 7013SOL     OW32497   4.382   1.448  16.041  0.1972 -0.5898 -0.2042
 7013SOL    HW132498   4.415   1.365  16.076 -2.0615 -0.0895  3.1407
 7013SOL    HW232499   4.297   1.439  16.084  0.6784 -1.2019  0.6264
 7014SOL     OW32500   2.046   2.217  13.702  0.0064 -0.1645  0.4231
 7014SOL    HW132501   2.041   2.128  13.667  2.1933 -0.2849  0.3838
 7014SOL    HW232502   1.963   2.255  13.675 -0.7306 -0.0184  2.9081
 7015SOL     OW32503   4.380   3.505  10.814  0.0005  0.4888  0.6898
 7015SOL    HW132504   4.470   3.506  10.846  1.0642  0.0965 -2.2659
 7015SOL    HW232505   4.350   3.415  10.829  0.7630  0.0123 -0.6474
 7016SOL     OW32506   0.082   4.363   4.634 -0.0378 -0.1794 -0.3260
 7016SOL    HW132507   0.097   4.447   4.676  0.3753 -0.9497  1.0713
 7016SOL    HW232508   0.034   4.326   4.707  2.1580 -2.1376  0.1413
 7017SOL     OW32509   0.856   0.335   3.539 -0.5472 -0.0337  0.0281
 7017SOL    HW132510   0.857   0.412   3.596  1.3755 -0.1225  0.1294
 7017SOL    HW232511   0.763   0.312   3.543 -0.2878 -0.9425  0.9360
 7018SOL     OW32512   2.190   2.720   5.695 -0.1645  0.3271 -0.1292
 7018SOL    HW132513   2.154   2.684   5.776  2.4148  0.9154  1.2714
 7018SOL    HW232514   2.266   2.768   5.727 -0.3611  0.9294 -0.5708
 7019SOL     OW32515   0.700   2.985   1.029 -0.2858 -0.6924 -0.2677
 7019SOL    HW132516   0.702   3.080   1.031 -0.9630 -0.7152  1.6403
 7019SOL    HW232517   0.616   2.967   0.989  1.0205 -0.9110 -2.8875
 7020SOL     OW32518   1.489   2.465   0.400 -0.3462  0.2427 -0.3598
 7020SOL    HW132519   1.502   2.374   0.427 -0.6145  0.5529  0.8507
 7020SOL    HW232520   1.566   2.506   0.441 -1.4120  0.2086  1.6861
 7021SOL     OW32521   3.615   2.843   2.955  0.2226  0.4487  0.5110
 7021SOL    HW132522   3.633   2.842   3.049 -1.5659 -1.9570  0.8387
 7021SOL    HW232523   3.683   2.793   2.911  0.9190  2.0785 -0.2605
 7022SOL     OW32524   1.855   3.351  10.886  0.0973 -0.0454  0.3933
 7022SOL    HW132525   1.915   3.317  10.820 -2.7948 -0.9622 -1.7712
 7022SOL    HW232526   1.861   3.281  10.950 -0.1505 -0.1384  0.3140
 7023SOL     OW32527   4.264   1.082   8.460  0.4099 -0.4895  0.5166
 7023SOL    HW132528   4.214   1.140   8.518  0.7704  1.0829 -0.7304
 7023SOL    HW232529   4.321   1.140   8.411 -0.9291  0.1895 -0.2549
 7024SOL     OW32530   4.336   1.100   3.896  0.0870  0.4914 -0.2049
 7024SOL    HW132531   4.320   1.175   3.839 -1.3235 -0.1731 -0.6758
 7024SOL    HW232532   4.366   1.035   3.832 -0.9030 -1.5791  1.4656
 7025SOL     OW32533   2.175   4.214   7.595 -0.4435 -0.0410 -0.4060
 7025SOL    HW132534   2.191   4.190   7.504  1.4707  0.8318 -0.3142
 7025SOL    HW232535   2.264   4.215   7.631 -0.6698 -0.0478  0.1462
 7026SOL     OW32536   2.208   4.503   7.609 -0.2865 -0.5510  0.1053
 7026SOL    HW132537   2.192   4.428   7.553  1.6968 -0.8940  0.0273
 7026SOL    HW232538   2.151   4.490   7.685 -0.0402 -1.8188  0.0606
 7027SOL     OW32539   0.591   1.191   6.540  0.2580  0.0794  0.1299
 7027SOL    HW132540   0.660   1.253   6.519 -1.1277  2.0032  1.2472
 7027SOL    HW232541   0.623   1.105   6.513  1.5752 -0.1263  2.2849
 7028SOL     OW32542   2.152   1.596   8.435  0.3033 -0.3081  0.1785
 7028SOL    HW132543   2.179   1.557   8.518  0.4486 -1.0965 -0.2378
 7028SOL    HW232544   2.143   1.523   8.373 -0.7204 -0.3824  0.4124
 7029SOL     OW32545   3.899   2.431   6.190  0.3991  0.4028  0.3787
 7029SOL    HW132546   3.832   2.369   6.217  1.5971 -1.8142 -1.6976
 7029SOL    HW232547   3.975   2.401   6.239 -1.2173  0.7242  3.0490
 7030SOL     OW32548   2.638   3.704   9.299  0.4493 -0.1609  0.4131
 7030SOL    HW132549   2.600   3.735   9.381 -0.9352  0.1453 -0.3473
 7030SOL    HW232550   2.609   3.613   9.298 -1.0028  0.2796  2.2717
 7031SOL     OW32551   3.057   0.805  16.106 -0.2590 -0.0866 -0.1203
 7031SOL    HW132552   3.069   0.787  16.200  0.1256  2.9229  0.4043
 7031SOL    HW232553   3.040   0.899  16.115  1.1847  0.2822 -1.3422
 7032SOL     OW32554   2.285   2.167   2.274  0.6697 -0.2074  0.2113
 7032SOL    HW132555   2.380   2.167   2.281  0.7772 -0.9320 -1.1121
 7032SOL    HW232556   2.262   2.109   2.346 -1.0777 -1.1863 -1.1320
 7033SOL     OW32557   3.209   1.509  15.151 -0.1756 -0.1043  0.2482
 7033SOL    HW132558   3.150   1.437  15.169 -0.6147 -0.1203 -1.2679
 7033SOL    HW232559   3.161   1.582  15.191  1.9094  0.1179  2.3312
 7034SOL     OW32560   2.023   0.146  12.741 -0.1512 -0.3729  0.2920
 7034SOL    HW132561   1.973   0.173  12.819  0.9690 -0.5254  1.0659
 7034SOL    HW232562   1.975   0.067  12.718 -0.2433  0.1488 -1.3170
 7035SOL     OW32563   1.437   3.846  17.629  0.0638  0.2880  1.0598
 7035SOL    HW132564   1.472   3.881   0.025  0.9222  0.2650  0.7024
 7035SOL    HW232565   1.480   3.898  17.561  1.5803 -2.1687  0.1703
 7036SOL     OW32566   3.048   0.240   0.148  0.2793 -0.1437 -0.4810
 7036SOL    HW132567   3.122   0.283   0.189  0.0325  1.2488 -1.4945
 7036SOL    HW232568   3.075   0.223   0.058  1.8878  0.8259 -0.1707
 7037SOL     OW32569   3.234   0.488   8.435 -0.2152  0.8439  0.0079
 7037SOL    HW132570   3.286   0.482   8.516 -0.5299 -0.7884  0.1043
 7037SOL    HW232571   3.160   0.536   8.470  0.4291  0.6060  1.7024
 7038SOL     OW32572   0.747   2.999   9.322  0.5272  0.0216  0.3964
 7038SOL    HW132573   0.762   3.062   9.393 -2.6206 -0.6271  1.6498
 7038SOL    HW232574   0.654   2.978   9.335 -0.3227  3.6845  0.1320
 7039SOL     OW32575   4.424   3.632   0.876  0.5025 -0.0643  0.2739
 7039SOL    HW132576   4.513   3.668   0.869 -0.3459  1.9142 -0.3779
 7039SOL    HW232577   4.396   3.627   0.785 -0.7373 -0.2536  0.6661
 7040SOL     OW32578   0.871   1.838   9.624  0.1586 -0.0734  0.0029
 7040SOL    HW132579   0.834   1.756   9.589  0.1965  0.1626 -0.5955
 7040SOL    HW232580   0.841   1.853   9.713  1.0223 -0.8541  0.4296
 7041SOL     OW32581   0.739   0.667   1.802  0.6626  0.3197  0.2391
 7041SOL    HW132582   0.752   0.684   1.709  0.1537 -1.0245 -0.0819
 7041SOL    HW232583   0.703   0.747   1.839 -0.5068 -0.3974  0.6508
 7042SOL     OW32584   1.557   3.041  17.164  0.1845 -0.2501 -0.5079
 7042SOL    HW132585   1.633   3.042  17.221 -0.2870 -1.4433  0.1274
 7042SOL    HW232586   1.590   3.105  17.101  0.1988  0.8850  0.6533
 7043SOL     OW32587   2.940   2.965   4.058  0.1226 -0.0207 -0.5516
 7043SOL    HW132588   2.988   2.915   3.992  0.5402  1.2933 -1.2408
 7043SOL    HW232589   2.991   2.935   4.133  1.1271  1.6573 -0.5591
 7044SOL     OW32590   1.232   4.412   4.110 -0.5267 -0.2001 -0.0296
 7044SOL    HW132591   1.244   4.401   4.015 -0.8680 -3.3194  0.2616
 7044SOL    HW232592   1.243   4.506   4.117 -1.1040 -0.1561  0.2682
 7045SOL     OW32593   4.286   3.530   7.265  0.4546 -0.3508  0.8099
 7045SOL    HW132594   4.204   3.554   7.307  1.3300  0.1924  2.1812
 7045SOL    HW232595   4.342   3.518   7.341  1.5620  0.0536  0.0598
 7046SOL     OW32596   3.733   4.650  14.450 -0.6467 -0.2245  0.7902
 7046SOL    HW132597   3.719   4.678  14.360 -0.4634 -0.0258  0.8254
 7046SOL    HW232598   3.806   4.702  14.482 -0.2223  0.5489 -1.4341
 7047SOL     OW32599   0.731   3.095   1.918 -0.1684 -0.3775 -0.3245
 7047SOL    HW132600   0.731   3.082   2.013 -1.8990 -1.2669 -0.4363
 7047SOL    HW232601   0.800   3.037   1.886  1.2258  0.8276  0.4959
 7048SOL     OW32602   2.921   3.149  10.018  0.0505 -0.9824  0.6688
 7048SOL    HW132603   2.880   3.104  10.092 -0.0596  1.3369  2.0456
 7048SOL    HW232604   2.970   3.222  10.057 -1.7195  0.2099  0.6762
 7049SOL     OW32605   0.101   2.153   9.452  0.2770  0.3815  0.0944
 7049SOL    HW132606   0.123   2.135   9.543  3.7432 -0.7255 -0.9669
 7049SOL    HW232607   0.009   2.127   9.442  0.5142 -0.6795  0.6122
 7050SOL     OW32608   0.394   0.123   8.007 -0.4303  0.2953 -0.0420
 7050SOL    HW132609   0.358   0.128   7.919  0.0085  3.3833 -0.0537
 7050SOL    HW232610   0.426   0.213   8.019  2.0730 -0.7286  1.0800
 7051SOL     OW32611   1.387   3.322  12.838  0.1546  0.4855  0.3398
 7051SOL    HW132612   1.377   3.233  12.871  0.5413 -0.4019 -1.9103
 7051SOL    HW232613   1.470   3.309  12.792  1.3427  1.5878  2.1901
 7052SOL     OW32614   0.487   0.845   9.061  0.6856 -0.5615  0.2861
 7052SOL    HW132615   0.472   0.825   9.153  1.9413 -2.2439  0.1279
 7052SOL    HW232616   0.402   0.817   9.025 -0.2524  0.9380  1.3089
 7053SOL     OW32617   2.402   0.989   6.152 -0.6351 -0.1236  0.0325
 7053SOL    HW132618   2.451   1.013   6.231  0.1021 -1.7537  0.0671
 7053SOL    HW232619   2.316   0.973   6.192 -0.3359  1.6396  1.3586
 7054SOL     OW32620   3.941   1.284   4.665 -0.4068  0.3581  0.3034
 7054SOL    HW132621   3.935   1.222   4.738  0.8373 -0.1911 -0.0552
 7054SOL    HW232622   3.916   1.219   4.600  0.1520  0.0060  0.4314
 7055SOL     OW32623   1.416   2.950  11.473  0.1213  0.5306  0.3285
 7055SOL    HW132624   1.350   2.881  11.466  1.3535 -0.5797 -0.2779
 7055SOL    HW232625   1.428   2.941  11.568 -1.7679 -0.1278  0.5019
 7056SOL     OW32626   0.923   0.914   5.937  0.3722  0.0677 -0.0186
 7056SOL    HW132627   0.936   0.937   5.845 -1.0467  1.5366  0.1557
 7056SOL    HW232628   0.839   0.871   5.922  0.5595  0.5471 -2.4021
 7057SOL     OW32629   2.451   3.732   4.354 -0.2470 -0.6214 -0.1387
 7057SOL    HW132630   2.441   3.762   4.264  1.2061  0.3074  0.0029
 7057SOL    HW232631   2.409   3.800   4.407 -0.0160  0.8156 -1.7965
 7058SOL     OW32632   1.682   4.189   3.547  0.8058  0.6554 -0.6151
 7058SOL    HW132633   1.642   4.153   3.468  0.1701 -0.6468  0.2876
 7058SOL    HW232634   1.719   4.268   3.510 -1.0202  0.8721 -1.9697
 7059SOL     OW32635   2.844   2.862  15.404  0.2905 -0.9609  0.0905
 7059SOL    HW132636   2.766   2.826  15.363 -0.7986  0.9522  0.4949
 7059SOL    HW232637   2.823   2.880  15.496  0.9707  1.1829 -0.1907
 7060SOL     OW32638   0.302   1.447   3.155 -0.1300 -0.4204 -0.2430
 7060SOL    HW132639   0.376   1.434   3.215 -0.0809 -0.8288 -0.3945
 7060SOL    HW232640   0.282   1.541   3.157  1.6452 -0.0423 -0.2917
 7061SOL     OW32641   0.211   2.621   4.236  0.5004 -0.0513  0.0133
 7061SOL    HW132642   0.124   2.660   4.241  1.0100  1.2692 -1.5036
 7061SOL    HW232643   0.257   2.640   4.317 -0.3187 -0.5907  0.6058
 7062SOL     OW32644   0.768   1.783   9.937  0.3807 -0.1466 -0.0071
 7062SOL    HW132645   0.749   1.780  10.031  0.2834  0.6367 -0.0015
 7062SOL    HW232646   0.824   1.706   9.929  1.8240  0.8770  0.2998
 7063SOL     OW32647   0.178   3.911   7.065 -0.3938 -0.3330 -0.4831
 7063SOL    HW132648   0.224   3.940   7.145 -1.1182  0.1651 -0.2460
 7063SOL    HW232649   0.138   3.994   7.040 -1.8739  0.1449  3.4262
 7064SOL     OW32650   0.802   3.946   1.048 -0.2289 -0.1760  0.6620
 7064SOL    HW132651   0.714   3.978   1.030 -0.2259  0.6319  2.1000
 7064SOL    HW232652   0.862   3.983   0.984 -1.2968  0.5118  0.0631
 7065SOL     OW32653   1.581   1.146   6.310 -0.3777 -0.4192 -0.5729
 7065SOL    HW132654   1.531   1.080   6.359 -0.9029  2.5835  2.9386
 7065SOL    HW232655   1.566   1.119   6.220 -0.9872  1.3888 -1.0130
 7066SOL     OW32656   0.590   0.299   9.005 -0.4282 -0.0924 -0.0897
 7066SOL    HW132657   0.610   0.215   9.046 -2.8774 -1.1667 -1.0935
 7066SOL    HW232658   0.503   0.315   9.044  0.3128  2.4037  0.5192
 7067SOL     OW32659   2.319   1.698   2.617 -0.3214 -0.9218  0.4693
 7067SOL    HW132660   2.242   1.688   2.561 -0.0678  1.7140 -0.3584
 7067SOL    HW232661   2.346   1.607   2.627 -1.0706 -1.1422  0.4988
 7068SOL     OW32662   4.452   3.011   6.028 -0.0333  0.1673  0.1721
 7068SOL    HW132663   4.503   3.091   6.042 -0.1589  0.4610 -1.0889
 7068SOL    HW232664   4.376   3.058   5.994  0.0541  0.7909  0.8352
 7069SOL     OW32665   0.845   0.132  12.326 -0.2381 -0.3331  0.2790
 7069SOL    HW132666   0.894   0.202  12.283 -1.9846 -0.3990 -1.7903
 7069SOL    HW232667   0.826   0.081  12.247  0.0927  0.2227 -0.1642
 7070SOL     OW32668   2.620   3.386  15.613 -0.0223 -0.3205 -0.3026
 7070SOL    HW132669   2.663   3.395  15.699 -1.2481  0.3947  0.2389
 7070SOL    HW232670   2.661   3.304  15.586  0.8935 -0.0172  0.1333
 7071SOL     OW32671   2.723   3.019   0.566  0.0590 -0.1083  0.2984
 7071SOL    HW132672   2.659   2.948   0.567 -2.0571  1.7942  0.1220
 7071SOL    HW232673   2.796   2.984   0.515 -1.9834  1.2008 -3.5725
 7072SOL     OW32674   0.319   0.591   7.984  0.0567  0.3095  0.1892
 7072SOL    HW132675   0.317   0.645   7.905 -0.0877  0.0748  0.0317
 7072SOL    HW232676   0.378   0.637   8.044 -0.2994 -1.4320  1.8907
 7073SOL     OW32677   0.525   3.073   3.724  0.1902 -0.0903  0.3090
 7073SOL    HW132678   0.462   3.129   3.771 -1.3235 -1.1856 -0.3901
 7073SOL    HW232679   0.595   3.134   3.705 -0.4534  0.7153  0.5143
 7074SOL     OW32680   3.777   1.405  17.479  0.1194  0.0292  0.6756
 7074SOL    HW132681   3.796   1.499  17.475 -1.3834  0.2014 -2.0283
 7074SOL    HW232682   3.682   1.400  17.489  0.3767 -2.9446  1.7148
 7075SOL     OW32683   4.534   0.546   6.829 -0.1129 -0.3439 -0.5131
 7075SOL    HW132684   4.600   0.580   6.890 -0.5923 -0.7854  0.2371
 7075SOL    HW232685   4.588   0.495   6.769  1.4787  1.4963 -0.6755
 7076SOL     OW32686   0.420   4.112   9.149  0.0775  0.1994 -0.2859
 7076SOL    HW132687   0.385   4.023   9.141  2.3159 -0.8506  1.4781
 7076SOL    HW232688   0.503   4.094   9.193 -1.2539  0.0060  2.1786
 7077SOL     OW32689   4.357   1.437   0.916  0.1396  0.1368  0.6466
 7077SOL    HW132690   4.299   1.442   0.992 -0.6426 -0.2481  0.0746
 7077SOL    HW232691   4.432   1.390   0.955  0.1925 -0.5024 -0.2407
 7078SOL     OW32692   4.031   3.424   3.406  0.3728 -0.3243 -0.0497
 7078SOL    HW132693   3.991   3.448   3.323  0.9138  2.0964  0.4142
 7078SOL    HW232694   3.978   3.471   3.470  0.2442  0.3107 -0.6265
 7079SOL     OW32695   1.685   4.525   0.635 -0.4910  0.2847 -0.0015
 7079SOL    HW132696   1.607   4.577   0.616 -0.4067  0.4603  0.1397
 7079SOL    HW232697   1.714   4.584   0.704 -0.8838  2.2571 -1.5113
 7080SOL     OW32698   0.911   4.491   7.470 -0.2269  0.2756 -0.4135
 7080SOL    HW132699   0.973   4.564   7.471  0.8235 -0.6346  1.5575
 7080SOL    HW232700   0.948   4.435   7.402 -0.6537 -0.0552 -0.3773
 7081SOL     OW32701   3.832   3.943   6.651  0.7700 -0.4782 -0.1892
 7081SOL    HW132702   3.845   3.850   6.666  2.2690 -0.4079 -1.0386
 7081SOL    HW232703   3.919   3.956   6.614  1.0803  0.6738  0.9250
 7082SOL     OW32704   0.174   2.437  13.313 -0.5908 -0.0390 -0.4696
 7082SOL    HW132705   0.126   2.475  13.239 -1.4582  0.8813  0.5640
 7082SOL    HW232706   0.199   2.357  13.267  1.5373 -0.6480  1.7833
 7083SOL     OW32707   0.569   0.793   4.074 -0.1713 -0.3795  0.1536
 7083SOL    HW132708   0.485   0.831   4.100  0.5747  0.9656  0.6039
 7083SOL    HW232709   0.541   0.703   4.056  2.0579 -0.7355 -1.6183
 7084SOL     OW32710   3.628   3.216   9.260 -0.1524  0.1610 -0.0409
 7084SOL    HW132711   3.723   3.201   9.258 -0.1216  0.0817  1.9441
 7084SOL    HW232712   3.606   3.136   9.211 -2.6773  0.0682  1.2847
 7085SOL     OW32713   4.118   4.173  10.531 -0.5762  0.1607  0.5090
 7085SOL    HW132714   4.069   4.189  10.612  0.2427  1.7993  0.6627
 7085SOL    HW232715   4.047   4.148  10.472 -0.5463  0.5590  0.3053
 7086SOL     OW32716   3.422   3.387  14.278  0.0609  0.2459 -0.2027
 7086SOL    HW132717   3.414   3.441  14.356 -0.9119  1.6215 -1.2534
 7086SOL    HW232718   3.441   3.459  14.217 -0.5012  0.4337 -0.1542
 7087SOL     OW32719   1.014   3.722   0.476 -0.5025  0.2236  0.0582
 7087SOL    HW132720   1.040   3.711   0.567  1.4776  0.1700 -0.5176
 7087SOL    HW232721   0.928   3.765   0.475 -0.5353  0.1711  0.6558
 7088SOL     OW32722   4.356   1.648   8.067  0.2640  0.0565 -0.0474
 7088SOL    HW132723   4.267   1.679   8.049  1.0547  0.7406 -2.8207
 7088SOL    HW232724   4.405   1.636   7.985 -1.0647  2.5984 -1.2265
 7089SOL     OW32725   4.060   0.526   9.525 -0.4184 -0.5031  0.0730
 7089SOL    HW132726   4.124   0.519   9.454 -0.3019  0.3445  0.0939
 7089SOL    HW232727   4.118   0.566   9.590  1.7029 -0.2645 -1.9492
 7090SOL     OW32728   1.638   3.907   0.326  0.0042 -0.3442 -0.2343
 7090SOL    HW132729   1.678   3.885   0.242  0.8094 -0.4796  0.1918
 7090SOL    HW232730   1.645   4.001   0.310 -1.1154 -0.1834  0.2219
 7091SOL     OW32731   4.440   0.745   7.055  0.6155 -0.4278  0.5568
 7091SOL    HW132732   4.477   0.773   7.139 -1.3819  2.3765  0.4907
 7091SOL    HW232733   4.510   0.771   6.996 -2.3531  0.2754 -2.6392
 7092SOL     OW32734   3.243   3.109   6.511  0.4556  0.4424  0.0392
 7092SOL    HW132735   3.272   3.093   6.421 -0.1136 -0.3922  0.0003
 7092SOL    HW232736   3.169   3.050   6.525  0.5134  0.1029 -1.0869
 7093SOL     OW32737   2.839   3.956   1.706  0.8423 -0.5645  0.5130
 7093SOL    HW132738   2.853   3.862   1.689  0.6940 -0.7230  1.2919
 7093SOL    HW232739   2.820   3.945   1.799  1.7191  1.1842  0.8933
 7094SOL     OW32740   2.554   1.126  16.342  0.1214 -0.4572 -0.2034
 7094SOL    HW132741   2.628   1.123  16.282 -1.1626  0.3177 -1.8210
 7094SOL    HW232742   2.539   1.034  16.364  0.8067  0.2442  3.2865
 7095SOL     OW32743   1.212   2.778   2.785  0.2753  0.0943  0.1902
 7095SOL    HW132744   1.238   2.749   2.697  2.2072  1.5568  0.2714
 7095SOL    HW232745   1.228   2.872   2.778 -1.2135  0.3852  0.7280
 7096SOL     OW32746   0.869   3.663   0.139  0.3237 -0.3263  0.2161
 7096SOL    HW132747   0.963   3.683   0.136  0.0355  0.9257 -0.5066
 7096SOL    HW232748   0.843   3.733   0.198 -4.2028  0.0780 -2.3061
 7097SOL     OW32749   2.333   3.474   8.483  0.4560 -0.0339 -0.2199
 7097SOL    HW132750   2.415   3.517   8.509  1.1917 -0.1422 -2.2947
 7097SOL    HW232751   2.269   3.543   8.467  0.3954  0.5715  2.7779
 7098SOL     OW32752   2.110   1.751   6.964  0.1398 -0.4081  0.4547
 7098SOL    HW132753   2.064   1.717   7.041 -1.1681  0.5627  0.0895
 7098SOL    HW232754   2.053   1.733   6.890 -0.6127 -0.1329  0.9643
 7099SOL     OW32755   3.728   2.562   3.334 -0.6140  0.7317 -0.1436
 7099SOL    HW132756   3.704   2.495   3.398 -0.7174  0.4764 -0.4509
 7099SOL    HW232757   3.808   2.522   3.299 -0.0532 -0.7769  2.8238
 7100SOL     OW32758   2.960   1.552   7.212  0.1776 -0.0094 -0.1146
 7100SOL    HW132759   2.893   1.608   7.250  2.5801  1.7429  1.5109
 7100SOL    HW232760   2.916   1.467   7.219  3.1222 -1.4380  1.0320
 7101SOL     OW32761   3.524   1.312  17.175  0.8997 -0.1113  0.4542
 7101SOL    HW132762   3.608   1.268  17.168  1.3218  0.5227  1.7259
 7101SOL    HW232763   3.492   1.306  17.085  0.8808  0.6990  0.4046
 7102SOL     OW32764   4.380   4.124   6.858  1.0162  0.1290  0.0441
 7102SOL    HW132765   4.303   4.172   6.891  0.5811 -1.8058  1.8242
 7102SOL    HW232766   4.379   4.056   6.925  0.8389 -1.4845 -1.6101
 7103SOL     OW32767   2.091   4.137  13.119  1.0222  0.3177  0.4116
 7103SOL    HW132768   1.999   4.122  13.141  1.0107 -0.5468 -0.2062
 7103SOL    HW232769   2.085   4.147  13.024 -0.3018  1.5768  0.6281
 7104SOL     OW32770   1.705   2.995   3.074  0.3020 -0.0427  0.0933
 7104SOL    HW132771   1.658   3.074   3.049  0.1863 -1.0394 -2.8888
 7104SOL    HW232772   1.721   2.953   2.989  0.7445  1.2938 -0.4830
 7105SOL     OW32773   0.207   1.660   2.049 -0.4695  0.5804  0.2167
 7105SOL    HW132774   0.187   1.601   2.122 -0.7741 -0.0725 -0.3844
 7105SOL    HW232775   0.292   1.691   2.080  0.3556  0.8083 -2.3030
 7106SOL     OW32776   4.194   2.043   6.176  0.3120  0.1976 -0.3095
 7106SOL    HW132777   4.267   2.005   6.224 -1.1505 -0.1519  1.6112
 7106SOL    HW232778   4.225   2.021   6.088 -1.4601 -1.4863 -0.5195
 7107SOL     OW32779   4.354   2.247   4.988  0.1326 -0.3501  0.5152
 7107SOL    HW132780   4.350   2.315   4.920 -1.3584 -0.4667  0.4764
 7107SOL    HW232781   4.308   2.283   5.064 -0.2133 -1.3443  0.7696
 7108SOL     OW32782   2.139   1.453  14.521  0.0587  0.6550  0.4679
 7108SOL    HW132783   2.087   1.519  14.568 -0.5873  0.2268  0.3611
 7108SOL    HW232784   2.105   1.370  14.553  0.1841 -0.0018 -1.1166
 7109SOL     OW32785   1.604   2.717   5.398  0.3705 -0.0152  0.0204
 7109SOL    HW132786   1.532   2.696   5.458 -0.2229 -0.0941 -0.7138
 7109SOL    HW232787   1.593   2.653   5.328  3.1989  1.2206 -1.5572
 7110SOL     OW32788   1.293   3.381   2.304 -0.3924  0.3751  0.1996
 7110SOL    HW132789   1.248   3.331   2.235  1.1611 -0.4700 -0.2105
 7110SOL    HW232790   1.382   3.347   2.294 -0.3989  0.1853  0.7842
 7111SOL     OW32791   1.334   1.948   4.153 -0.1580  0.1169  0.1309
 7111SOL    HW132792   1.306   1.940   4.244  0.0323  1.7335  0.3404
 7111SOL    HW232793   1.295   2.033   4.131 -0.8307 -0.4518 -0.8756
 7112SOL     OW32794   3.610   2.223   6.873 -0.1979  0.0898 -0.1109
 7112SOL    HW132795   3.516   2.239   6.866 -0.6570 -2.7882 -0.1900
 7112SOL    HW232796   3.615   2.199   6.965  1.9298  0.4905 -0.1019
 7113SOL     OW32797   0.373   2.095   5.682  0.8856 -0.9772  0.1034
 7113SOL    HW132798   0.344   2.114   5.593 -1.0856  1.5086  1.2795
 7113SOL    HW232799   0.365   2.182   5.721  0.3099 -0.0352 -2.1156
 7114SOL     OW32800   1.863   4.154  15.361  0.2708 -0.0396 -0.4295
 7114SOL    HW132801   1.827   4.108  15.286 -0.0350 -0.7022  0.1257
 7114SOL    HW232802   1.874   4.082  15.423 -0.4038  0.0390 -0.2198
 7115SOL     OW32803   4.428   2.559  17.514 -0.3566  0.0115 -0.1744
 7115SOL    HW132804   4.345   2.522  17.544  0.9201 -0.7158  2.5035
 7115SOL    HW232805   4.402   2.650  17.508 -1.8030 -0.3690  0.3320
 7116SOL     OW32806   4.118   0.515   0.763 -0.3384 -0.1763 -0.2358
 7116SOL    HW132807   4.082   0.427   0.755  1.6206 -0.9523 -0.6991
 7116SOL    HW232808   4.199   0.499   0.715 -0.4517 -0.9565 -0.1688
 7117SOL     OW32809   1.416   0.400   5.503  0.5236 -0.2454 -0.1069
 7117SOL    HW132810   1.496   0.359   5.537  0.1135 -0.6546  0.3598
 7117SOL    HW232811   1.357   0.326   5.510  1.1034 -0.6452  0.5897
 7118SOL     OW32812   0.736   1.124   7.437  0.6681 -0.7859 -0.4309
 7118SOL    HW132813   0.695   1.043   7.405  1.3790 -1.3560  0.0966
 7118SOL    HW232814   0.745   1.185   7.364 -0.5022 -0.5989 -0.4275
 7119SOL     OW32815   3.155   2.420   0.335 -0.0259 -0.3837  0.0023
 7119SOL    HW132816   3.195   2.506   0.324 -0.9702 -0.1314 -1.4970
 7119SOL    HW232817   3.117   2.434   0.421  2.2645 -3.1671  1.4553
 7120SOL     OW32818   2.085   1.559   0.721  0.2927  0.5824 -0.0460
 7120SOL    HW132819   2.148   1.569   0.649  0.6830 -0.1790  0.1945
 7120SOL    HW232820   2.066   1.652   0.731 -0.0096  0.6591 -1.3025
 7121SOL     OW32821   4.274   3.428   6.624 -0.4713  0.0597  0.5148
 7121SOL    HW132822   4.365   3.418   6.598 -0.4500  2.0897 -0.2025
 7121SOL    HW232823   4.276   3.381   6.707  0.8934  1.4773  1.3028
 7122SOL     OW32824   2.169   3.669  11.536  0.3225 -0.0669 -0.2493
 7122SOL    HW132825   2.228   3.629  11.472 -0.9447 -3.2284  0.5588
 7122SOL    HW232826   2.220   3.750  11.537 -1.7982  1.2618 -0.1090
 7123SOL     OW32827   0.836   0.618   7.706  0.0934  0.9053  0.1929
 7123SOL    HW132828   0.855   0.537   7.752  2.2068  0.2369 -1.8270
 7123SOL    HW232829   0.922   0.633   7.666  0.3935  0.6660  0.7571
 7124SOL     OW32830   3.789   2.565  16.865  0.2477 -0.2431  0.0850
 7124SOL    HW132831   3.799   2.658  16.884 -1.3289 -0.1366  0.4226
 7124SOL    HW232832   3.850   2.536  16.932 -0.6868 -1.0422  0.5983
 7125SOL     OW32833   0.792   4.026   0.617  0.2022 -0.1412 -0.1650
 7125SOL    HW132834   0.839   4.028   0.700  1.2893 -1.0966 -0.7615
 7125SOL    HW232835   0.784   4.118   0.590 -1.5327  0.3785  2.1265
 7126SOL     OW32836   3.229   0.995   8.909 -0.2495 -0.1901 -0.6527
 7126SOL    HW132837   3.272   1.038   8.983 -0.0432  1.4520 -1.7066
 7126SOL    HW232838   3.302   0.947   8.870  0.4909 -0.2086  0.7778
 7127SOL     OW32839   1.721   1.070   4.014 -0.6814  0.4182  0.5621
 7127SOL    HW132840   1.713   0.978   4.038  0.1370 -0.0291 -0.8516
 7127SOL    HW232841   1.705   1.063   3.920 -1.2348  1.5574  0.5740
 7128SOL     OW32842   4.226   1.290  14.512 -0.3760 -0.3495  0.3937
 7128SOL    HW132843   4.180   1.211  14.483 -1.8523  0.9615 -0.8237
 7128SOL    HW232844   4.172   1.323  14.585 -0.0119 -0.1589  0.5770
 7129SOL     OW32845   4.251   3.913   5.316  0.1308 -0.1278 -0.0383
 7129SOL    HW132846   4.173   3.961   5.287  0.2848 -0.5725 -1.1718
 7129SOL    HW232847   4.318   3.965   5.272  2.2743 -3.3665 -0.5729
 7130SOL     OW32848   0.936   4.624   7.817 -0.1962 -0.5698  0.0507
 7130SOL    HW132849   1.008   4.672   7.858 -0.4232 -1.7248  1.7845
 7130SOL    HW232850   0.979   4.539   7.822 -0.0849 -0.4650  0.9266
 7131SOL     OW32851   0.227   1.538   6.557 -0.8545  0.4872  0.1823
 7131SOL    HW132852   0.231   1.479   6.633  2.0483 -0.2657 -0.5715
 7131SOL    HW232853   0.279   1.612   6.587  1.9383 -1.7274  0.7898
 7132SOL     OW32854   3.930   0.178   5.710 -0.6683 -0.2765 -0.2600
 7132SOL    HW132855   3.986   0.107   5.679  0.1171  0.1923  0.0855
 7132SOL    HW232856   3.844   0.153   5.676 -1.4079  0.0823  1.3402
 7133SOL     OW32857   2.264   4.353   2.686 -0.1865  0.0681  0.1053
 7133SOL    HW132858   2.238   4.381   2.774 -1.1445  1.9178 -0.7659
 7133SOL    HW232859   2.311   4.270   2.697  1.5191  1.3961  2.6105
 7134SOL     OW32860   1.643   3.202  12.900  0.2769  0.0977 -0.4109
 7134SOL    HW132861   1.656   3.185  12.807 -1.2365  1.2465 -0.8347
 7134SOL    HW232862   1.618   3.120  12.942  0.1149  1.5980  2.4524
 7135SOL     OW32863   2.308   4.149   9.774 -0.0498  0.5519 -0.3189
 7135SOL    HW132864   2.389   4.170   9.821 -1.1587 -0.8521  2.2239
 7135SOL    HW232865   2.308   4.055   9.788 -1.3163  0.8607  1.7640
 7136SOL     OW32866   2.157   0.985  14.646  0.1558 -0.1255 -0.1859
 7136SOL    HW132867   2.106   0.904  14.656  1.6864 -0.8852  1.3615
 7136SOL    HW232868   2.247   0.954  14.648  0.8894  2.0495  0.0853
 7137SOL     OW32869   3.063   1.942  15.618 -0.2540 -0.2418  0.0478
 7137SOL    HW132870   3.124   1.941  15.692  1.7114 -1.2390 -1.5811
 7137SOL    HW232871   3.112   1.912  15.542  1.4231  0.0797  0.9912
 7138SOL     OW32872   0.645   0.970   6.351 -0.3589 -0.1434  0.0628
 7138SOL    HW132873   0.621   1.029   6.279  1.3162  0.6980  0.1950
 7138SOL    HW232874   0.676   0.893   6.304 -0.5763  0.2214 -0.6847
 7139SOL     OW32875   4.504   4.120   3.340  0.0687 -0.3522 -0.4445
 7139SOL    HW132876   4.477   4.198   3.292 -1.4382 -0.5361  0.1035
 7139SOL    HW232877   4.600   4.120   3.346  0.0908  2.1260 -0.5495
 7140SOL     OW32878   1.158   4.495  11.635 -0.0319  0.2157 -0.5828
 7140SOL    HW132879   1.192   4.472  11.549  1.1679  0.8008 -0.2570
 7140SOL    HW232880   1.218   4.442  11.687 -2.8868 -1.4945  1.0297
 7141SOL     OW32881   0.077   0.788   8.064  0.2940 -0.2314 -0.1603
 7141SOL    HW132882   4.716   0.799   8.113 -1.1167  0.0729 -2.5666
 7141SOL    HW232883   0.111   0.719   8.121 -0.5617 -0.6998 -0.2022
 7142SOL     OW32884   1.564   1.402   7.603  0.0130 -0.0528  0.0175
 7142SOL    HW132885   1.636   1.461   7.579  0.1625 -0.0654  0.4515
 7142SOL    HW232886   1.601   1.318   7.576  0.4663  0.5575 -1.2561
 7143SOL     OW32887   1.949   3.068  11.507 -0.0208  0.1073 -0.0446
 7143SOL    HW132888   1.879   3.005  11.486 -0.0451 -0.7820  2.7594
 7143SOL    HW232889   1.961   3.118  11.427  0.1771  0.7271  0.3781
 7144SOL     OW32890   3.033   4.010   4.727  0.4131 -0.6469 -0.4383
 7144SOL    HW132891   3.011   3.965   4.809 -1.9353  0.3295 -0.5559
 7144SOL    HW232892   3.084   3.943   4.681  0.1005 -0.9902 -0.2812
 7145SOL     OW32893   2.047   0.980   2.951  0.2035  0.0942 -0.4796
 7145SOL    HW132894   2.072   1.072   2.954  1.6935 -0.2873 -0.8418
 7145SOL    HW232895   2.005   0.976   2.865 -2.2253 -0.3653  0.7448
 7146SOL     OW32896   4.203   3.985  13.965 -0.6601 -0.0874 -0.0505
 7146SOL    HW132897   4.208   3.956  14.056  3.4560 -0.9743 -0.5625
 7146SOL    HW232898   4.153   4.065  13.982  3.3789  2.5802 -0.6343
 7147SOL     OW32899   1.405   2.781   6.459  0.4781 -0.1267  0.0435
 7147SOL    HW132900   1.409   2.875   6.476  3.1230 -0.6153  1.9896
 7147SOL    HW232901   1.312   2.777   6.436  1.0091 -1.0745 -1.9308
 7148SOL     OW32902   0.181   4.566   1.539 -0.5049 -1.2226  0.1611
 7148SOL    HW132903   0.116   4.614   1.591  1.4107  2.1877 -0.5913
 7148SOL    HW232904   0.256   4.625   1.542 -0.2046 -1.5268 -1.5803
 7149SOL     OW32905   3.967   3.572  14.565 -0.7740 -0.0231  0.5691
 7149SOL    HW132906   3.992   3.497  14.511 -1.7697  1.7212 -2.2987
 7149SOL    HW232907   3.873   3.570  14.584 -0.9651 -0.0024 -0.3565
 7150SOL     OW32908   1.628   3.130   6.599 -0.4812  0.2586 -0.2973
 7150SOL    HW132909   1.594   3.153   6.685 -0.2739  0.3894 -0.2499
 7150SOL    HW232910   1.549   3.093   6.558  0.2918  0.4235 -1.9428
 7151SOL     OW32911   0.500   2.631   6.846 -0.4369  0.7146  0.1474
 7151SOL    HW132912   0.591   2.651   6.865 -0.0805 -0.4754 -0.2974
 7151SOL    HW232913   0.507   2.638   6.751  0.3501  0.5250  0.1894
 7152SOL     OW32914   2.214   2.945   9.014 -0.1533  0.8206  0.0452
 7152SOL    HW132915   2.164   3.022   8.987  0.1081  0.9009 -0.2119
 7152SOL    HW232916   2.290   2.954   8.956  0.4353 -1.5263  0.4339
 7153SOL     OW32917   2.880   3.347   5.383 -0.7276  0.3472  0.4611
 7153SOL    HW132918   2.913   3.323   5.470 -2.6649  0.8033  1.3087
 7153SOL    HW232919   2.931   3.426   5.367  2.8357 -2.2119 -0.8664
 7154SOL     OW32920   0.979   4.172   4.042  0.0879  0.0644  0.0543
 7154SOL    HW132921   1.041   4.153   4.113  2.4465  0.3886 -1.9428
 7154SOL    HW232922   0.960   4.265   4.047  0.5385 -0.0066  3.1054
 7155SOL     OW32923   4.229   1.466  13.744 -0.6266 -0.7681  0.1993
 7155SOL    HW132924   4.159   1.524  13.774  0.2902 -0.7289  2.2752
 7155SOL    HW232925   4.214   1.396  13.807 -0.7514  0.3658  1.4397
 7156SOL     OW32926   2.682   1.199  10.018  0.0365  0.0378 -0.3232
 7156SOL    HW132927   2.694   1.141   9.943 -0.6629 -0.3971 -0.1042
 7156SOL    HW232928   2.731   1.280  10.004  0.1089 -0.1433 -1.0878
 7157SOL     OW32929   3.201   2.241   5.831 -0.0529  0.1496  0.4948
 7157SOL    HW132930   3.259   2.311   5.860 -2.3018  2.3559 -0.3122
 7157SOL    HW232931   3.149   2.218   5.908 -0.7118  2.6139  0.7992
 7158SOL     OW32932   4.004   0.050   6.497 -0.7301  0.2877 -0.1032
 7158SOL    HW132933   3.976   0.140   6.512 -1.3303 -0.1962  1.6695
 7158SOL    HW232934   3.978   0.030   6.407  1.3180  1.1702 -0.8923
 7159SOL     OW32935   2.059   1.718  16.521  0.2008 -0.7394 -0.1933
 7159SOL    HW132936   2.058   1.625  16.542 -1.3183 -0.7960 -0.5129
 7159SOL    HW232937   2.127   1.746  16.582 -1.1704 -0.6129  1.2850
 7160SOL     OW32938   0.569   1.577   2.875  0.1553  0.8344 -0.0862
 7160SOL    HW132939   0.591   1.632   2.800 -0.1264  0.3896 -0.4985
 7160SOL    HW232940   0.540   1.631   2.948  1.5348 -0.1910  1.2125
 7161SOL     OW32941   4.354   2.701   4.628  0.1943 -0.1988 -0.4079
 7161SOL    HW132942   4.431   2.747   4.594 -0.1122  0.9138  0.4119
 7161SOL    HW232943   4.358   2.715   4.723 -1.0122  1.5907 -0.6218
 7162SOL     OW32944   0.789   3.483   8.261  0.0953 -0.1953 -0.4380
 7162SOL    HW132945   0.733   3.526   8.326 -1.4384 -3.0398  0.1407
 7162SOL    HW232946   0.873   3.525   8.277  0.6763 -2.0263  1.4047
 7163SOL     OW32947   2.557   0.427   2.715  0.8258 -0.0940 -0.5948
 7163SOL    HW132948   2.635   0.438   2.661  0.4663 -1.8920 -1.4509
 7163SOL    HW232949   2.513   0.512   2.723 -0.9073 -0.8433 -2.2629
 7164SOL     OW32950   4.033   3.355  11.476 -0.3187  0.2586 -0.2779
 7164SOL    HW132951   4.057   3.339  11.568 -1.4534  0.8314  0.1155
 7164SOL    HW232952   4.089   3.285  11.443 -0.5567 -0.0030 -0.1330
 7165SOL     OW32953   0.148   4.181   7.067 -0.0872  0.2545  0.4797
 7165SOL    HW132954   0.222   4.238   7.089 -0.7107 -0.1394  3.5677
 7165SOL    HW232955   0.078   4.209   7.125  2.2286  1.6399  2.6059
 7166SOL     OW32956   1.895   3.399   5.732  0.4604 -0.3192 -0.2706
 7166SOL    HW132957   1.974   3.396   5.785 -0.2260 -1.8319  0.6835
 7166SOL    HW232958   1.910   3.465   5.665  0.9634 -0.0978  0.0662
 7167SOL     OW32959   0.670   3.409  10.919 -0.0928 -0.0117  0.3001
 7167SOL    HW132960   0.749   3.464  10.912  0.7725 -1.4382 -0.9882
 7167SOL    HW232961   0.603   3.465  10.958 -0.3134  0.4217 -0.6876
 7168SOL     OW32962   1.400   0.337   0.168 -0.2696 -0.2259  0.2102
 7168SOL    HW132963   1.342   0.334   0.091 -0.2640 -0.9945  0.2434
 7168SOL    HW232964   1.346   0.379   0.235  1.7929  2.7048  0.0574
 7169SOL     OW32965   2.553   1.561   9.774  0.2636 -0.2162 -0.2292
 7169SOL    HW132966   2.617   1.631   9.780 -0.3493  0.4024 -1.0481
 7169SOL    HW232967   2.513   1.571   9.860  0.1643  1.0262 -0.4188
 7170SOL     OW32968   2.096   1.027   1.581 -0.4073  0.5456 -0.0360
 7170SOL    HW132969   2.060   0.945   1.546  1.4463  0.8773 -2.7520
 7170SOL    HW232970   2.098   1.010   1.675  3.6943 -1.8076 -0.5566
 7171SOL     OW32971   0.393   2.109   8.984  0.2630 -0.1209 -0.1221
 7171SOL    HW132972   0.436   2.058   8.915  0.0550  0.1272 -0.4325
 7171SOL    HW232973   0.453   2.113   9.059 -2.5773  1.2916  2.0730
 7172SOL     OW32974   3.706   0.340   2.053 -0.3180 -0.7148  0.2353
 7172SOL    HW132975   3.746   0.422   2.080 -0.8272  0.2762 -2.0030
 7172SOL    HW232976   3.665   0.314   2.136  0.5333 -2.2449  0.1646
 7173SOL     OW32977   2.879   4.321   3.464  0.9097 -0.2007 -0.4203
 7173SOL    HW132978   2.810   4.269   3.421  1.0425  0.1390 -1.0471
 7173SOL    HW232979   2.872   4.286   3.553  2.7591  0.6434  0.0437
 7174SOL     OW32980   2.300   0.863   6.713 -0.1799 -1.1128 -0.7815
 7174SOL    HW132981   2.221   0.866   6.767 -0.0568 -2.0970 -0.5600
 7174SOL    HW232982   2.366   0.909   6.764 -1.1162 -0.1815 -0.3980
 7175SOL     OW32983   4.468   1.259  11.242  0.1812 -0.1490 -0.5859
 7175SOL    HW132984   4.391   1.217  11.279  0.8683 -1.7579 -0.9630
 7175SOL    HW232985   4.526   1.187  11.217  1.4263  1.0697 -1.1999
 7176SOL     OW32986   1.283   3.269   6.946  0.5746  0.8413  0.2622
 7176SOL    HW132987   1.294   3.319   6.865  0.3508  0.2151 -0.1517
 7176SOL    HW232988   1.226   3.200   6.914 -0.1500  2.3457 -1.6595
 7177SOL     OW32989   1.730   1.240   7.472 -0.4928  0.1020 -0.1205
 7177SOL    HW132990   1.667   1.176   7.438 -1.1923  0.0093  1.3804
 7177SOL    HW232991   1.802   1.198   7.519 -2.6489 -1.2321  1.9301
 7178SOL     OW32992   0.868   4.550   6.615  0.3547 -0.1103 -0.3178
 7178SOL    HW132993   0.782   4.558   6.657  0.8487 -0.3280  0.7281
 7178SOL    HW232994   0.864   4.603   6.535  0.8008 -0.0246 -0.2809
 7179SOL     OW32995   3.898   1.348   8.831  0.2049 -0.2849  0.2633
 7179SOL    HW132996   3.951   1.271   8.854  1.2119 -0.7049 -3.4011
 7179SOL    HW232997   3.953   1.414   8.873 -0.0023 -0.6524  1.1105
 7180SOL     OW32998   2.837   4.096   3.667  0.3954 -0.0976  0.2937
 7180SOL    HW132999   2.830   4.000   3.660 -1.5093  0.1583 -1.3739
 7180SOL    HW233000   2.746   4.109   3.692  0.3683 -2.0085  1.1840
 7181SOL     OW33001   2.267   0.333  10.132  0.6885  0.0298  0.2543
 7181SOL    HW133002   2.337   0.277  10.164 -0.0694 -0.5214  0.9547
 7181SOL    HW233003   2.286   0.412  10.182  1.4539  0.9986 -1.5631
 7182SOL     OW33004   1.825   1.300   7.967 -0.0460  0.5101 -0.4318
 7182SOL    HW133005   1.799   1.290   8.058 -1.1476 -1.7379 -1.0010
 7182SOL    HW233006   1.742   1.331   7.930 -1.8965 -2.4266  1.2282
 7183SOL     OW33007   2.883   0.388   2.063  0.0333  0.0971 -0.3691
 7183SOL    HW133008   2.887   0.451   2.135  0.4016 -3.0267  2.3717
 7183SOL    HW233009   2.891   0.442   1.985  0.1329  1.1614  0.3787
 7184SOL     OW33010   1.995   0.106   9.973 -0.1385  0.0810  0.2391
 7184SOL    HW133011   2.018   0.102   9.880 -0.3527 -1.0266  0.2302
 7184SOL    HW233012   2.005   0.015  10.002  1.2135  0.2432  0.2961
 7185SOL     OW33013   1.584   2.649   8.557  0.9608 -0.4358 -0.2610
 7185SOL    HW133014   1.514   2.591   8.585 -2.0179  2.1910 -2.1863
 7185SOL    HW233015   1.556   2.728   8.605 -1.6964 -1.8220  0.4974
 7186SOL     OW33016   1.989   3.906  14.130  0.2290 -0.5015  0.0543
 7186SOL    HW133017   1.904   3.862  14.130  0.6406 -1.3069 -0.4670
 7186SOL    HW233018   2.028   3.868  14.052  2.2478 -1.3948  1.4915
 7187SOL     OW33019   2.424   1.794  11.311  0.0498 -0.0433 -0.3702
 7187SOL    HW133020   2.473   1.798  11.393  1.0282 -2.6918 -0.8140
 7187SOL    HW233021   2.344   1.750  11.340  0.8428 -1.5401 -0.4216
 7188SOL     OW33022   1.256   3.905   5.811  0.2047 -0.2826 -0.4083
 7188SOL    HW133023   1.238   3.997   5.794  1.2050  0.1761  0.9973
 7188SOL    HW233024   1.167   3.880   5.787  0.9789 -1.1427 -2.3635
 7189SOL     OW33025   2.181   2.598   3.974  0.2464 -0.8613 -0.0928
 7189SOL    HW133026   2.272   2.608   4.002  0.3425  0.0751 -0.7561
 7189SOL    HW233027   2.127   2.646   4.036 -0.3312 -0.2300 -1.0699
 7190SOL     OW33028   4.067   2.292   2.318 -0.2038  0.2524  0.7772
 7190SOL    HW133029   4.154   2.330   2.302  0.4485 -1.1712  0.9646
 7190SOL    HW233030   4.017   2.371   2.297  0.8012  0.3882 -1.0884
 7191SOL     OW33031   0.757   2.537  11.661 -0.3854 -0.8668  0.3906
 7191SOL    HW133032   0.761   2.486  11.742 -1.0315 -2.3056 -0.4764
 7191SOL    HW233033   0.739   2.620  11.705  2.2678 -0.2207  0.2434
 7192SOL     OW33034   4.060   4.400  13.815 -0.1162  0.0565 -0.2124
 7192SOL    HW133035   4.061   4.350  13.896  0.1014  0.2115 -0.1200
 7192SOL    HW233036   4.008   4.354  13.749  0.8339 -1.3650  0.0083
 7193SOL     OW33037   1.252   1.537   4.453  0.1586 -0.7153 -0.4223
 7193SOL    HW133038   1.201   1.607   4.412  0.7058 -1.3629 -2.1755
 7193SOL    HW233039   1.346   1.556   4.445  0.2457 -0.2628  1.7033
 7194SOL     OW33040   3.437   4.204  11.287  0.5313 -0.5282  0.3377
 7194SOL    HW133041   3.378   4.256  11.232  0.8341  0.4392  0.9315
 7194SOL    HW233042   3.507   4.190  11.224 -2.2183 -2.9445 -2.1852
 7195SOL     OW33043   1.983   0.313  11.402  0.4427 -0.0719  0.1951
 7195SOL    HW133044   1.957   0.393  11.448 -0.0830  0.6512 -1.3715
 7195SOL    HW233045   2.042   0.350  11.337 -0.3897  0.9667  0.0429
 7196SOL     OW33046   4.288   1.350  16.766  0.4314 -0.0759  0.0736
 7196SOL    HW133047   4.367   1.296  16.763 -0.9114 -2.0119  0.2345
 7196SOL    HW233048   4.328   1.428  16.806  0.9006  0.1779 -0.8694
 7197SOL     OW33049   2.209   1.256  16.553  0.0344 -0.5416  0.0475
 7197SOL    HW133050   2.175   1.189  16.493  1.4525 -0.6141 -0.6862
 7197SOL    HW233051   2.243   1.200  16.622  1.5035  1.4115  0.9115
 7198SOL     OW33052   4.231   2.993   4.264  0.5756  0.0011  0.9597
 7198SOL    HW133053   4.150   3.043   4.273  0.2322 -0.2321 -0.7067
 7198SOL    HW233054   4.210   2.922   4.325 -0.4711 -0.6519 -0.1476
 7199SOL     OW33055   4.116   2.627  16.578  0.1863 -0.1407 -0.0755
 7199SOL    HW133056   4.195   2.669  16.613 -0.0910 -1.3167  1.9677
 7199SOL    HW233057   4.098   2.564  16.648 -0.0253  2.3346  2.0783
 7200SOL     OW33058   3.566   2.372   4.499  0.0253  0.1647  0.0572
 7200SOL    HW133059   3.634   2.420   4.547  1.1177 -0.6833 -0.6519
 7200SOL    HW233060   3.499   2.439   4.492 -0.7266 -0.5283  0.6098
 7201SOL     OW33061   1.443   2.997   3.990 -0.6928 -0.0843 -0.1306
 7201SOL    HW133062   1.365   2.941   3.983 -1.0598  0.2235  1.4062
 7201SOL    HW233063   1.407   3.080   3.959 -0.3322  0.6356  1.3490
 7202SOL     OW33064   0.743   3.970  15.928  0.2671  0.5601 -0.2371
 7202SOL    HW133065   0.826   3.933  15.958 -0.5410  0.2194  1.5882
 7202SOL    HW233066   0.749   4.056  15.971  1.1976  0.0152  0.7294
 7203SOL     OW33067   0.351   0.838   7.701 -0.1182  0.4626 -0.1706
 7203SOL    HW133068   0.345   0.892   7.622 -1.8961 -0.7441 -0.8440
 7203SOL    HW233069   0.361   0.907   7.767  0.2058  0.9175 -0.6943
 7204SOL     OW33070   1.528   2.546   6.440 -0.6459 -1.1841  0.1834
 7204SOL    HW133071   1.482   2.629   6.451  1.7465  0.4206 -2.0157
 7204SOL    HW233072   1.478   2.505   6.369  0.1326  1.1624 -1.7089
 7205SOL     OW33073   0.472   2.172   0.981  0.0193 -0.5158  0.2785
 7205SOL    HW133074   0.487   2.078   0.975 -0.1229 -0.7332  3.1904
 7205SOL    HW233075   0.542   2.185   1.045  0.2508  2.9102 -0.6431
 7206SOL     OW33076   3.814   3.744   8.240 -0.3559  0.4882  0.4169
 7206SOL    HW133077   3.883   3.804   8.269  2.4138 -2.7617  0.4203
 7206SOL    HW233078   3.739   3.785   8.284 -0.7764  0.4496 -0.2494
 7207SOL     OW33079   2.826   3.554   8.445 -0.1386 -0.3649  0.0405
 7207SOL    HW133080   2.915   3.533   8.418 -0.1458 -0.4065  0.0488
 7207SOL    HW233081   2.838   3.582   8.536 -1.6230 -2.0755  0.7688
 7208SOL     OW33082   1.241   1.135   7.596  0.2536 -0.5816 -0.4763
 7208SOL    HW133083   1.265   1.226   7.578 -1.6897  0.0864  0.1921
 7208SOL    HW233084   1.147   1.148   7.613  0.1216 -0.9712 -0.8960
 7209SOL     OW33085   1.211   4.656   4.729  0.0025  0.0853 -0.0390
 7209SOL    HW133086   1.257   4.690   4.652 -0.6005 -0.1968 -0.5302
 7209SOL    HW233087   1.125   4.635   4.692 -0.4649  1.6541  0.1446
 7210SOL     OW33088   2.438   1.249  17.558  0.2829 -0.6169  0.3413
 7210SOL    HW133089   2.423   1.310  17.486  0.7126 -1.1186 -0.1751
 7210SOL    HW233090   2.490   1.182  17.514  0.8668  1.0460 -1.4946
 7211SOL     OW33091   2.359   4.131   7.202  0.2467  0.2914 -0.7849
 7211SOL    HW133092   2.339   4.105   7.112 -2.4485  0.6627 -0.3091
 7211SOL    HW233093   2.270   4.146   7.236  1.1017 -1.8984  2.4644
 7212SOL     OW33094   1.979   2.906   9.551  0.0403  0.1518 -0.1767
 7212SOL    HW133095   1.909   2.841   9.557 -0.2788  0.3008 -2.3115
 7212SOL    HW233096   1.977   2.934   9.460 -1.2997  1.8295  0.3664
 7213SOL     OW33097   2.175   0.433   1.765 -0.6211  0.0857  0.1217
 7213SOL    HW133098   2.157   0.446   1.859 -0.6972  1.4368 -0.0773
 7213SOL    HW233099   2.226   0.513   1.749  2.6083 -2.4325 -2.0387
 7214SOL     OW33100   4.322   2.541   2.800  0.1940  0.3538 -0.1924
 7214SOL    HW133101   4.296   2.597   2.873 -2.0937 -3.3210  1.7907
 7214SOL    HW233102   4.296   2.606   2.734  0.4102 -2.0507 -2.6894
 7215SOL     OW33103   0.357   0.815   9.294 -0.1521 -0.5780 -0.6284
 7215SOL    HW133104   0.273   0.786   9.257 -0.7502 -1.0801  1.1442
 7215SOL    HW233105   0.354   0.792   9.386 -0.6287 -1.0064 -0.7488
 7216SOL     OW33106   0.384   0.591  11.169  0.4129 -0.2835  0.5449
 7216SOL    HW133107   0.364   0.563  11.258 -0.4438 -1.9555 -0.1655
 7216SOL    HW233108   0.329   0.669  11.162  0.8447 -0.1009 -0.7705
 7217SOL     OW33109   3.600   1.637   7.406  0.6986  0.0946  0.2096
 7217SOL    HW133110   3.525   1.579   7.405  0.0434  0.9346  1.2835
 7217SOL    HW233111   3.585   1.679   7.490 -0.5987 -2.4872  1.2678
 7218SOL     OW33112   4.433   2.933  17.328 -0.1603  0.2208  0.3505
 7218SOL    HW133113   4.358   2.910  17.382  1.2308 -0.6683  1.9188
 7218SOL    HW233114   4.489   2.970  17.397  1.6484  1.5075 -1.8203
 7219SOL     OW33115   3.989   2.093  15.565  0.3928  0.3974 -0.1619
 7219SOL    HW133116   4.005   2.171  15.513  2.0596 -0.3180 -0.7131
 7219SOL    HW233117   3.899   2.084  15.534 -0.0473  3.3892  0.2723
 7220SOL     OW33118   2.778   0.409   7.037  0.1569 -0.1951  0.0111
 7220SOL    HW133119   2.738   0.486   6.996 -0.2479 -1.2394 -1.5445
 7220SOL    HW233120   2.859   0.448   7.069  0.5273 -2.3123  1.6677
 7221SOL     OW33121   0.132   3.084   0.100  0.0591  0.0989  0.4550
 7221SOL    HW133122   0.128   3.179   0.089  2.2166 -0.0307 -1.4075
 7221SOL    HW233123   0.212   3.062   0.052 -1.1665 -2.0885 -0.5700
 7222SOL     OW33124   1.381   0.736   7.023  0.1046 -0.6204  0.6211
 7222SOL    HW133125   1.309   0.696   7.073  0.2388  1.8718  2.8201
 7222SOL    HW233126   1.408   0.810   7.077 -0.4236  0.9615 -1.2940
 7223SOL     OW33127   3.001   1.262  10.920 -0.1874  0.2452  0.2046
 7223SOL    HW133128   3.029   1.278  11.010 -0.8399  0.8095  0.3054
 7223SOL    HW233129   2.925   1.206  10.936 -0.1070  0.2225  0.5101
 7224SOL     OW33130   1.872   1.918   6.587  0.4334  0.1780 -0.1455
 7224SOL    HW133131   1.933   1.979   6.546 -0.6997 -0.2400 -2.4435
 7224SOL    HW233132   1.860   1.966   6.669 -1.2181  0.2600 -0.4290
 7225SOL     OW33133   4.259   1.493   7.340 -0.9717 -0.0394 -0.2052
 7225SOL    HW133134   4.266   1.550   7.264  0.3500 -1.0374 -0.8105
 7225SOL    HW233135   4.243   1.411   7.295  1.2150 -1.2125  1.1620
 7226SOL     OW33136   0.420   2.456   6.517 -0.0741  0.2518 -0.5010
 7226SOL    HW133137   0.480   2.529   6.532 -1.7556  1.5325  0.0012
 7226SOL    HW233138   0.347   2.481   6.575  0.4238  0.1903  0.1576
 7227SOL     OW33139   4.448   0.609   0.776  0.0720 -0.7315 -0.4616
 7227SOL    HW133140   4.401   0.598   0.693 -0.7729  4.4466 -0.7066
 7227SOL    HW233141   4.530   0.563   0.758 -0.5144 -1.8083 -0.4113
 7228SOL     OW33142   1.653   3.226   0.095 -0.4143  0.9312  0.8832
 7228SOL    HW133143   1.605   3.167   0.154  1.4501 -0.2639  1.2111
 7228SOL    HW233144   1.600   3.231   0.016 -0.8805  1.2849  1.2164
 7229SOL     OW33145   0.828   1.409   9.052  0.1549  0.2521  0.1125
 7229SOL    HW133146   0.908   1.441   9.011 -0.7890  0.5182 -1.4961
 7229SOL    HW233147   0.782   1.487   9.083  2.9246  1.5781  0.9134
 7230SOL     OW33148   3.252   1.845   9.283  0.2117 -0.3539  0.1453
 7230SOL    HW133149   3.303   1.769   9.310 -0.5992 -1.0081 -0.1530
 7230SOL    HW233150   3.274   1.902   9.356 -0.9507  0.3824 -0.0744
 7231SOL     OW33151   0.773   4.015   2.759  0.0407  0.7720 -0.0394
 7231SOL    HW133152   0.809   4.003   2.671  2.4285  1.9273  0.7882
 7231SOL    HW233153   0.794   3.935   2.806  1.1215  0.0097 -1.8240
 7232SOL     OW33154   3.383   1.189  16.213  0.5989  0.1902  0.1508
 7232SOL    HW133155   3.390   1.223  16.302 -0.6235  1.5271 -0.2656
 7232SOL    HW233156   3.464   1.139  16.205  0.1385 -0.2470 -1.6180
 7233SOL     OW33157   4.692   2.207   6.029  0.2781 -0.5330  0.9793
 7233SOL    HW133158   4.597   2.211   6.013  0.2976 -0.0773  0.9838
 7233SOL    HW233159   4.721   2.206   5.938  0.4366 -0.5110  1.0293
 7234SOL     OW33160   1.269   1.679  10.324  0.1957 -0.6874 -0.8737
 7234SOL    HW133161   1.279   1.774  10.327 -2.4871 -0.3632 -2.1595
 7234SOL    HW233162   1.257   1.655  10.416  0.1886  1.4663 -0.2972
 7235SOL     OW33163   2.533   4.213   6.628 -0.0884 -0.0076 -0.2900
 7235SOL    HW133164   2.561   4.142   6.685  1.1253  0.3563 -0.4271
 7235SOL    HW233165   2.611   4.268   6.638 -0.8027  1.0290 -0.4571
 7236SOL     OW33166   2.827   4.534   2.862 -0.2501 -0.4016 -0.4251
 7236SOL    HW133167   2.779   4.556   2.941  2.3229  0.1629  0.9832
 7236SOL    HW233168   2.778   4.579   2.793 -0.3421  0.9407  0.5225
 7237SOL     OW33169   2.363   3.907  16.322 -0.2422 -0.3161 -0.0994
 7237SOL    HW133170   2.281   3.860  16.310  1.3651 -3.1700  0.1505
 7237SOL    HW233171   2.355   3.925  16.415  1.2069 -0.4458  0.0438
 7238SOL     OW33172   2.003   0.506   0.789 -0.0731 -0.5529 -0.3316
 7238SOL    HW133173   2.007   0.551   0.873  0.7810  0.2758 -0.8249
 7238SOL    HW233174   2.040   0.420   0.812  2.9263  0.3319 -1.8536
 7239SOL     OW33175   2.446   0.489   0.550 -0.2860  0.0174 -0.0408
 7239SOL    HW133176   2.489   0.538   0.620  1.0096 -2.4370  0.8810
 7239SOL    HW233177   2.404   0.423   0.604  2.3103 -0.7602  1.0014
 7240SOL     OW33178   4.012   1.667   6.943 -0.0507 -0.0124  0.3355
 7240SOL    HW133179   4.064   1.683   6.864  0.9176 -1.1629  0.7403
 7240SOL    HW233180   4.029   1.748   6.991 -0.5553 -0.3933  1.1461
 7241SOL     OW33181   1.425   3.862   5.223  0.1551  0.3048  0.4859
 7241SOL    HW133182   1.367   3.788   5.243 -2.0077  2.1588  1.0281
 7241SOL    HW233183   1.431   3.860   5.128  0.1490 -0.2872  0.4978
 7242SOL     OW33184   2.973   4.595  14.174 -0.2206 -0.0656  0.5900
 7242SOL    HW133185   2.879   4.575  14.164 -0.9790  2.5236  2.7085
 7242SOL    HW233186   3.009   4.512  14.143  0.8093  0.9495 -0.9128
 7243SOL     OW33187   3.886   4.170   2.187 -0.2673  0.1945  0.5148
 7243SOL    HW133188   3.966   4.155   2.136 -1.8016  1.1944 -2.1735
 7243SOL    HW233189   3.884   4.265   2.192 -0.7980  0.1937  0.1728
 7244SOL     OW33190   0.149   1.101  14.180  0.2794  0.1799 -0.8101
 7244SOL    HW133191   0.158   1.149  14.263  1.3985 -0.1617 -0.7277
 7244SOL    HW233192   0.094   1.160  14.130 -0.0359  0.2916 -0.3365
 7245SOL     OW33193   0.829   0.023   8.732  0.1461  0.1200  0.1016
 7245SOL    HW133194   0.779   4.675   8.688 -0.5033  0.9086 -0.3766
 7245SOL    HW233195   0.786   0.012   8.817 -1.9589  0.1425 -0.9800
 7246SOL     OW33196   2.728   3.161  15.535 -0.6960 -0.4946 -0.1123
 7246SOL    HW133197   2.711   3.137  15.444 -1.0116  0.2090 -0.2362
 7246SOL    HW233198   2.650   3.116  15.569 -2.3598  0.2920 -2.8873
 7247SOL     OW33199   3.582   2.292   3.830 -0.0312  0.1316 -0.3297
 7247SOL    HW133200   3.645   2.250   3.888  0.7206 -0.3371 -1.4708
 7247SOL    HW233201   3.525   2.215   3.819  1.7037 -1.4583  1.6868
 7248SOL     OW33202   4.161   3.354   4.860  0.4016 -0.0496 -0.9228
 7248SOL    HW133203   4.126   3.343   4.949  0.3017 -4.2462 -1.4464
 7248SOL    HW233204   4.090   3.406   4.823 -0.8292 -0.1379  1.3038
 7249SOL     OW33205   2.950   4.150   5.235  0.2577 -0.5243 -0.7199
 7249SOL    HW133206   2.881   4.176   5.174 -1.6263 -1.1355  1.1668
 7249SOL    HW233207   2.956   4.054   5.234 -0.2141 -0.5490 -0.8785
 7250SOL     OW33208   1.422   1.428   3.309  0.0855  0.1385  0.4832
 7250SOL    HW133209   1.410   1.392   3.221 -0.9461  1.8650 -0.0985
 7250SOL    HW233210   1.406   1.521   3.295  0.8636  0.2397  0.2862
 7251SOL     OW33211   3.854   0.691  16.930 -0.2325 -0.0431 -0.2120
 7251SOL    HW133212   3.892   0.604  16.943  1.2290  0.7589  0.9218
 7251SOL    HW233213   3.864   0.696  16.835 -0.7574  0.5151 -0.2350
 7252SOL     OW33214   3.267   1.847   6.084 -0.4645 -0.7504 -0.1282
 7252SOL    HW133215   3.346   1.812   6.124  0.1292 -1.4643 -1.9068
 7252SOL    HW233216   3.208   1.878   6.153  2.4392  0.8178  1.6459
 7253SOL     OW33217   3.135   4.372   1.871  0.5560  0.0854 -0.2573
 7253SOL    HW133218   3.053   4.406   1.836  0.2633  0.6480  0.9663
 7253SOL    HW233219   3.114   4.278   1.864  0.4950  0.0420  0.5148
 7254SOL     OW33220   2.912   3.230   7.640 -0.1113  0.0785  0.3571
 7254SOL    HW133221   2.870   3.146   7.659 -1.6647  0.5769 -0.8931
 7254SOL    HW233222   2.961   3.241   7.722  1.3818 -1.9812 -0.2603
 7255SOL     OW33223   3.916   0.422   5.597  0.2307  0.3000  0.2331
 7255SOL    HW133224   3.926   0.341   5.647 -0.2712  0.4835  0.6277
 7255SOL    HW233225   3.994   0.469   5.623 -0.1220  0.4521  1.0034
 7256SOL     OW33226   4.350   1.645   9.381 -0.1731 -0.9987  0.0021
 7256SOL    HW133227   4.258   1.666   9.402  0.0705  1.3217 -1.2983
 7256SOL    HW233228   4.341   1.550   9.381  1.8197 -1.1803  0.5833
 7257SOL     OW33229   4.525   1.169   0.596 -0.0046  0.0044 -0.2214
 7257SOL    HW133230   4.512   1.081   0.630  0.3981 -0.1913 -0.5684
 7257SOL    HW233231   4.575   1.166   0.514  3.3416  0.2386  1.8156
 7258SOL     OW33232   0.310   2.516   0.183  0.0026 -0.1469 -0.2141
 7258SOL    HW133233   0.285   2.598   0.226 -2.3769 -1.6790  1.3565
 7258SOL    HW233234   0.347   2.554   0.103 -0.0046 -1.0050 -0.6247
 7259SOL     OW33235   3.808   3.594   6.049  0.5851 -0.3700  0.1713
 7259SOL    HW133236   3.713   3.591   6.063  0.6881  1.3049  1.1324
 7259SOL    HW233237   3.845   3.578   6.136 -3.0792  1.5450  2.0566
 7260SOL     OW33238   4.522   0.524   8.297 -0.7762  0.1510 -0.3258
 7260SOL    HW133239   4.499   0.489   8.210 -1.1020  0.6337 -0.4341
 7260SOL    HW233240   4.446   0.578   8.320 -1.5325 -0.3236 -1.6620
 7261SOL     OW33241   3.919   1.070   5.453 -0.3384  0.3883 -0.3604
 7261SOL    HW133242   3.900   0.982   5.483 -1.0005 -0.0259 -2.0075
 7261SOL    HW233243   3.900   1.058   5.360 -1.3008 -0.2959 -0.0747
 7262SOL     OW33244   3.525   2.547   6.236  0.1057 -0.0610 -0.8707
 7262SOL    HW133245   3.488   2.608   6.299  0.4761 -0.2265 -0.4860
 7262SOL    HW233246   3.597   2.598   6.198  0.9665  0.8023  1.9305
 7263SOL     OW33247   4.455   2.859   6.584  0.5442  0.6366 -0.0155
 7263SOL    HW133248   4.462   2.845   6.489 -2.3597 -1.6948  0.1043
 7263SOL    HW233249   4.381   2.920   6.579 -0.8834 -1.1648 -1.0312
 7264SOL     OW33250   2.599   3.268  15.059 -0.1528 -0.6031 -0.6374
 7264SOL    HW133251   2.526   3.310  15.105  0.4452 -0.7269  0.4075
 7264SOL    HW233252   2.642   3.228  15.134  1.3379  0.2957 -1.0014
 7265SOL     OW33253   3.361   4.356   7.976 -0.5747 -0.2627  0.2552
 7265SOL    HW133254   3.303   4.366   7.901 -1.4624 -0.3581  0.9257
 7265SOL    HW233255   3.418   4.286   7.946 -0.0920  0.9340 -1.6261
 7266SOL     OW33256   3.681   3.522  14.586  0.0721 -0.1109  0.1077
 7266SOL    HW133257   3.669   3.497  14.677  1.2704 -0.1056  0.2670
 7266SOL    HW233258   3.619   3.594  14.575  0.3196  0.2366  0.9463
 7267SOL     OW33259   1.591   0.204   9.230  0.0065  1.0212  0.0189
 7267SOL    HW133260   1.499   0.219   9.253  0.2390 -0.4542  1.8627
 7267SOL    HW233261   1.595   0.112   9.252 -0.7868  0.5100 -1.9605
 7268SOL     OW33262   3.058   3.591   3.964  0.2015  0.4906  0.0678
 7268SOL    HW133263   3.081   3.643   3.887  2.4042 -0.1715  0.2917
 7268SOL    HW233264   3.124   3.522   3.960  0.3022  0.5266  1.2290
 7269SOL     OW33265   2.090   2.267   6.705  0.0791  0.2530  0.4962
 7269SOL    HW133266   2.140   2.314   6.638  0.0158  1.6450  1.4275
 7269SOL    HW233267   2.100   2.178   6.671 -0.0351  0.0914  0.8888
 7270SOL     OW33268   0.741   2.892   9.995  0.0834  0.8503  0.2385
 7270SOL    HW133269   0.712   2.872   9.905  2.1468 -0.9176 -0.0137
 7270SOL    HW233270   0.721   2.810  10.039 -3.1994  1.0872 -0.7782
 7271SOL     OW33271   0.068   1.877   2.014  0.0227  0.5046 -0.9558
 7271SOL    HW133272   0.121   1.799   2.032  0.3412  0.5639 -1.6620
 7271SOL    HW233273   4.718   1.872   2.078  1.5981 -2.0395  0.6229
 7272SOL     OW33274   3.892   1.117   4.453  0.0165 -0.1875 -0.7868
 7272SOL    HW133275   3.906   1.109   4.359  1.7082  1.3242 -0.6821
 7272SOL    HW233276   3.797   1.125   4.458  0.1521  1.1851 -0.0932
 7273SOL     OW33277   3.544   4.678   2.646 -0.3868 -0.7659  0.0794
 7273SOL    HW133278   3.481   4.690   2.575 -0.2517  1.8275  0.4201
 7273SOL    HW233279   3.628   4.700   2.606 -0.4910  1.2099  0.9827
 7274SOL     OW33280   4.421   2.231   2.564 -0.2540  0.1380  0.1475
 7274SOL    HW133281   4.427   2.237   2.659  0.0839 -0.6732  0.1779
 7274SOL    HW233282   4.383   2.144   2.555 -0.4436  0.3147 -0.7274
 7275SOL     OW33283   1.690   1.430   2.572  0.5172 -0.2894  0.7644
 7275SOL    HW133284   1.613   1.406   2.521  0.3771 -0.2329  0.9489
 7275SOL    HW233285   1.752   1.370   2.532 -0.5597 -0.0074 -1.3390
 7276SOL     OW33286   0.020   3.105  12.261 -0.1850 -0.0136  0.4472
 7276SOL    HW133287   4.697   3.054  12.329 -1.5327  2.3194  1.3410
 7276SOL    HW233288   0.094   3.136  12.314  2.4433 -0.5824 -2.9143
 7277SOL     OW33289   4.546   3.509   7.717 -0.0223  0.1043  0.4670
 7277SOL    HW133290   4.499   3.566   7.778 -1.0075 -0.0380 -0.1507
 7277SOL    HW233291   4.509   3.426   7.748 -2.1110  0.2662 -1.5922
 7278SOL     OW33292   0.191   1.120   7.609  0.2946 -0.2334 -0.1250
 7278SOL    HW133293   0.245   1.056   7.564 -0.1821  0.4447 -1.6645
 7278SOL    HW233294   0.258   1.151   7.670 -0.2833  0.6268  0.0857
 7279SOL     OW33295   1.449   2.496  16.378  0.3940  0.0969 -0.3630
 7279SOL    HW133296   1.402   2.475  16.459  2.6193 -1.6818  0.4814
 7279SOL    HW233297   1.539   2.498  16.408 -0.5288 -0.3306  2.4258
 7280SOL     OW33298   4.433   2.919   7.450  0.7718  0.2094  0.1575
 7280SOL    HW133299   4.397   2.983   7.510 -0.4170  0.7047 -1.0908
 7280SOL    HW233300   4.488   2.859   7.500  1.7720  0.6530 -0.3962
 7281SOL     OW33301   1.226   3.011   3.437 -0.2531  0.4426  0.2721
 7281SOL    HW133302   1.156   3.027   3.373  1.9913  2.2690 -1.7136
 7281SOL    HW233303   1.297   3.073   3.423 -0.0151  0.2218  0.5135
 7282SOL     OW33304   1.688   3.843  15.991 -0.5167 -1.2160 -0.1934
 7282SOL    HW133305   1.751   3.770  15.992  1.3479  0.3670 -1.6542
 7282SOL    HW233306   1.739   3.916  15.956 -0.0536 -0.8653  1.1906
 7283SOL     OW33307   4.460   2.039   1.533  0.4162 -0.7642 -0.0761
 7283SOL    HW133308   4.467   2.113   1.473  0.5428  0.6606  1.6976
 7283SOL    HW233309   4.483   2.087   1.613  0.2993 -1.1090  0.1682
 7284SOL     OW33310   2.704   4.521  10.582  0.0238 -0.4778 -0.1236
 7284SOL    HW133311   2.648   4.456  10.539  0.9492 -0.4867 -1.3037
 7284SOL    HW233312   2.745   4.462  10.646  0.9328 -0.9027 -1.1076
 7285SOL     OW33313   0.884   2.191   2.084 -0.2067  0.3385  0.5956
 7285SOL    HW133314   0.893   2.099   2.109 -0.6571  0.2478  0.4152
 7285SOL    HW233315   0.791   2.185   2.065  0.0710 -0.8503 -0.3845
 7286SOL     OW33316   0.481   3.035  11.587 -0.4320 -0.4617 -0.4388
 7286SOL    HW133317   0.564   3.037  11.635 -1.0547  0.6917  0.5881
 7286SOL    HW233318   0.459   2.943  11.600  0.6734 -0.3907  1.8848
 7287SOL     OW33319   0.423   0.588  15.404 -0.1371  0.2041  0.3222
 7287SOL    HW133320   0.517   0.605  15.402 -0.2865  1.1420  1.6089
 7287SOL    HW233321   0.431   0.509  15.457 -1.0293  0.5131  0.9115
 7288SOL     OW33322   4.375   0.463   7.376 -0.2865  0.1995  0.6813
 7288SOL    HW133323   4.304   0.452   7.313  1.9862  1.2346 -2.0846
 7288SOL    HW233324   4.369   0.377   7.416 -0.3409  0.0593  0.3715
 7289SOL     OW33325   0.643   0.325  11.436 -0.2691  0.0350  0.6889
 7289SOL    HW133326   0.705   0.302  11.505  0.8076  3.2958  0.8120
 7289SOL    HW233327   0.665   0.414  11.409 -1.7175 -0.6255 -2.6350
 7290SOL     OW33328   0.554   1.487   7.114 -0.5993 -0.5192 -0.3547
 7290SOL    HW133329   0.649   1.499   7.111 -0.6119  0.2409  2.0938
 7290SOL    HW233330   0.525   1.560   7.169 -1.5445 -1.3142  0.1997
 7291SOL     OW33331   0.931   4.237  17.511  0.6388 -0.8183  0.9063
 7291SOL    HW133332   0.872   4.183  17.564  1.3513 -3.8304 -1.3415
 7291SOL    HW233333   1.016   4.229  17.553  0.6314 -3.6665  0.3692
 7292SOL     OW33334   3.236   1.572  15.979 -0.0743  0.3434  0.4682
 7292SOL    HW133335   3.150   1.595  15.944 -0.1973  1.3480  1.4179
 7292SOL    HW233336   3.290   1.646  15.951 -0.6052  0.4192 -0.3762
 7293SOL     OW33337   0.158   4.115   0.993  0.3283  0.1761  0.0407
 7293SOL    HW133338   0.136   4.169   1.068 -1.7027  0.1502 -0.5484
 7293SOL    HW233339   0.169   4.031   1.037 -0.5300  1.4953  2.7211
 7294SOL     OW33340   3.549   0.864   2.796  0.6882  0.0615 -0.0463
 7294SOL    HW133341   3.602   0.935   2.761 -1.5188  1.4514 -0.5603
 7294SOL    HW233342   3.573   0.871   2.889  1.2660 -0.3785 -0.1634
 7295SOL     OW33343   4.397   0.878   1.065  0.2003  0.4660 -0.4073
 7295SOL    HW133344   4.363   0.928   1.139 -1.9628  0.1063 -1.1400
 7295SOL    HW233345   4.315   0.863   1.016 -1.5259  3.1894  1.6765
 7296SOL     OW33346   2.971   0.338   2.833 -0.4962 -0.6670  0.0508
 7296SOL    HW133347   3.066   0.338   2.831 -0.5339 -0.8327 -1.6685
 7296SOL    HW233348   2.961   0.257   2.783 -0.9847  0.4675 -1.6746
 7297SOL     OW33349   0.185   3.490  17.415  0.2268 -0.1639 -1.0133
 7297SOL    HW133350   0.139   3.569  17.385 -0.6345  0.1210  1.0175
 7297SOL    HW233351   0.138   3.414  17.382 -0.0532  0.1089 -1.2482
 7298SOL     OW33352   3.909   0.228   4.781 -0.1620  0.0334  0.3435
 7298SOL    HW133353   3.944   0.226   4.692  0.8190 -0.5131  0.7511
 7298SOL    HW233354   3.981   0.277   4.820 -0.0115 -1.7557  2.2758
 7299SOL     OW33355   0.916   3.919  15.544  0.1079  0.6391 -0.2880
 7299SOL    HW133356   0.846   3.940  15.483  0.7411  1.0216 -0.8927
 7299SOL    HW233357   0.962   4.000  15.569 -0.4897  1.1870 -0.9630
 7300SOL     OW33358   0.242   2.744   6.141  0.3586  0.0491 -0.0342
 7300SOL    HW133359   0.336   2.764   6.139  0.4274 -0.2706 -0.0290
 7300SOL    HW233360   0.217   2.813   6.079 -1.0160 -0.3773  0.0474
 7301SOL     OW33361   0.366   1.687  10.683 -0.3884 -0.0940  0.6531
 7301SOL    HW133362   0.349   1.780  10.671 -0.1316 -0.5746 -3.2924
 7301SOL    HW233363   0.279   1.653  10.705  0.0367  0.7702  3.7369
 7302SOL     OW33364   4.626   0.281   5.999 -0.8335  0.1046  0.3602
 7302SOL    HW133365   4.583   0.367   5.997  0.5227  0.7185 -2.3130
 7302SOL    HW233366   4.612   0.262   5.906 -2.1080 -1.0719  0.7988
 7303SOL     OW33367   1.760   2.542  16.962 -0.6125  0.0021  0.2278
 7303SOL    HW133368   1.773   2.637  16.957 -0.3182 -0.0355  0.2714
 7303SOL    HW233369   1.664   2.548  16.965 -0.6836 -1.5596  1.1144
 7304SOL     OW33370   2.675   1.987   5.131 -0.2393 -0.3709  0.2222
 7304SOL    HW133371   2.583   1.976   5.109 -0.3908 -0.0883  0.7154
 7304SOL    HW233372   2.679   2.082   5.140 -2.1209 -0.2563 -0.1680
 7305SOL     OW33373   1.516   3.894   3.200 -0.4743  0.4318 -0.1769
 7305SOL    HW133374   1.436   3.922   3.156  0.3789  1.5189 -1.0493
 7305SOL    HW233375   1.557   3.845   3.128  0.5977  0.3864  0.4714
 7306SOL     OW33376   3.256   0.825   6.307 -0.6402 -0.4705  0.2986
 7306SOL    HW133377   3.214   0.826   6.221 -0.2469 -1.1070  0.1031
 7306SOL    HW233378   3.271   0.916   6.333  2.4939 -0.7984 -0.3912
 7307SOL     OW33379   2.874   1.424   2.491  0.2570 -0.5021  1.1599
 7307SOL    HW133380   2.915   1.359   2.435 -2.1795  0.7451 -2.0734
 7307SOL    HW233381   2.950   1.475   2.521 -0.0344 -0.1378  1.2871
 7308SOL     OW33382   1.624   1.314   6.544 -0.2975  0.1386 -0.1255
 7308SOL    HW133383   1.615   1.274   6.458  2.4787 -1.4988  0.3603
 7308SOL    HW233384   1.629   1.240   6.605  0.7811  0.8904  0.6955
 7309SOL     OW33385   2.325   4.527   6.581  0.2834  0.0506 -0.1249
 7309SOL    HW133386   2.371   4.526   6.497  1.2403 -0.4881  0.4039
 7309SOL    HW233387   2.394   4.555   6.641 -0.7897 -1.8489  1.9916
 7310SOL     OW33388   2.025   0.392   3.862  0.0833 -0.0632  0.5782
 7310SOL    HW133389   2.072   0.327   3.914 -0.4709  0.5371  1.8198
 7310SOL    HW233390   2.055   0.376   3.773 -0.2000 -1.2253  0.6920
 7311SOL     OW33391   3.754   0.979   5.848 -0.7364 -0.3766  0.4916
 7311SOL    HW133392   3.696   1.049   5.818  0.0862  1.0694  2.2820
 7311SOL    HW233393   3.702   0.900   5.833 -1.4195  0.2912 -0.6850
 7312SOL     OW33394   4.047   2.534   8.055  0.0807 -0.5031  0.0515
 7312SOL    HW133395   3.977   2.486   8.099 -0.1327 -0.6329 -0.4342
 7312SOL    HW233396   4.126   2.525   8.110 -0.0330  0.5249  0.3827
 7313SOL     OW33397   2.193   4.610   1.911  0.0679  0.4346 -0.2709
 7313SOL    HW133398   2.107   4.652   1.910  0.6805  1.6077 -2.5714
 7313SOL    HW233399   2.225   4.631   1.823  2.7997  0.6829  0.8033
 7314SOL     OW33400   0.220   3.136  12.080  0.2272  0.6359 -0.8135
 7314SOL    HW133401   0.148   3.142  12.142 -0.3854 -0.4885 -1.4104
 7314SOL    HW233402   0.192   3.192  12.008 -0.2159  3.0512  1.2576
 7315SOL     OW33403   2.464   0.021   7.955 -0.4490  0.2378  0.0753
 7315SOL    HW133404   2.522   0.013   8.030 -1.1209 -0.8653  0.4782
 7315SOL    HW233405   2.376   0.027   7.993  0.4179  3.7801  1.5423
 7316SOL     OW33406   2.198   1.354  14.249 -0.3594 -0.2017 -0.2899
 7316SOL    HW133407   2.157   1.372  14.333  1.5512  1.6536  0.2301
 7316SOL    HW233408   2.263   1.424  14.237 -0.4429 -0.0134  0.3623
 7317SOL     OW33409   1.770   0.722   7.797  0.1056  0.4116 -0.3925
 7317SOL    HW133410   1.709   0.651   7.778  0.7112 -0.0561 -0.5993
 7317SOL    HW233411   1.813   0.691   7.877 -1.5816  3.3447  1.6378
 7318SOL     OW33412   1.127   0.037   3.174  0.5243 -0.6912  0.1732
 7318SOL    HW133413   1.197   0.057   3.111  1.8554  1.6996  2.4089
 7318SOL    HW233414   1.103   4.667   3.156  1.0555 -0.8494  0.2544
 7319SOL     OW33415   4.009   4.609   2.043 -0.3989  0.0652  0.1238
 7319SOL    HW133416   3.947   4.539   2.027  0.5377 -0.8237  0.3451
 7319SOL    HW233417   3.949   4.679   2.019 -0.6232  0.2116  1.0890
 7320SOL     OW33418   3.854   0.519   6.928  0.3628  0.2176 -0.1670
 7320SOL    HW133419   3.870   0.546   7.019 -0.0660  0.6488 -0.2176
 7320SOL    HW233420   3.761   0.542   6.920  1.0661  2.8256 -0.7278
 7321SOL     OW33421   4.676   3.708   8.405 -0.0554 -0.6909 -0.2129
 7321SOL    HW133422   4.605   3.728   8.344  0.8005 -0.1815 -1.0334
 7321SOL    HW233423   0.007   3.789   8.404 -1.2877  0.0692 -1.5303
 7322SOL     OW33424   0.403   3.367   2.111  0.5569  0.1183  0.4194
 7322SOL    HW133425   0.448   3.283   2.125  2.6745  1.3384  0.9020
 7322SOL    HW233426   0.367   3.358   2.023 -1.7440 -1.5258  1.5012
 7323SOL     OW33427   0.553   3.325   4.013  0.3435 -0.3368  0.0730
 7323SOL    HW133428   0.503   3.245   3.997 -1.4377  0.7412  0.2564
 7323SOL    HW233429   0.492   3.381   3.965  0.9568  1.0410  0.9116
 7324SOL     OW33430   4.125   2.577   2.314 -0.2280  0.1100  0.1462
 7324SOL    HW133431   4.170   2.547   2.393 -1.7233  1.3899  1.4965
 7324SOL    HW233432   4.185   2.646   2.286  1.6871 -1.1933  1.0071
 7325SOL     OW33433   4.303   3.724   5.499  0.2339 -0.4149 -0.0222
 7325SOL    HW133434   4.266   3.762   5.579  0.7271  0.7480 -0.3472
 7325SOL    HW233435   4.299   3.803   5.444 -1.5576 -1.4023 -1.2983
 7326SOL     OW33436   1.291   4.618   5.982  0.2233  0.7907 -0.3252
 7326SOL    HW133437   1.354   4.548   5.997 -0.3887  0.3801  0.3305
 7326SOL    HW233438   1.282   4.649   6.072 -0.2644 -1.0145  0.2458
 7327SOL     OW33439   4.442   1.598  14.357 -0.5362 -0.4559  0.0626
 7327SOL    HW133440   4.463   1.666  14.293  1.0946  0.6161  1.7494
 7327SOL    HW233441   4.360   1.632  14.394  0.0789 -0.2371  1.2259
 7328SOL     OW33442   3.295   1.300   3.613 -0.4312  0.5192 -0.2773
 7328SOL    HW133443   3.366   1.364   3.616  1.6351 -1.7969  0.3778
 7328SOL    HW233444   3.321   1.255   3.694  0.2326  4.0034  1.4624
 7329SOL     OW33445   0.916   3.181   0.799 -0.0083  0.2887 -0.2554
 7329SOL    HW133446   0.895   3.248   0.734  0.8413  0.8335  0.0347
 7329SOL    HW233447   1.001   3.160   0.759 -0.9741  0.3028 -2.3040
 7330SOL     OW33448   1.394   4.096   8.072  0.0085  0.1804 -0.1480
 7330SOL    HW133449   1.372   4.008   8.103 -4.0646  0.5722 -1.9803
 7330SOL    HW233450   1.333   4.151   8.121 -0.3121 -0.9973  0.7721
 7331SOL     OW33451   2.774   4.671  15.786  0.2989  0.3141  0.0857
 7331SOL    HW133452   2.721   0.022  15.820 -3.4434 -1.3008 -2.2581
 7331SOL    HW233453   2.782   4.704  15.696 -2.7761 -1.1690 -0.7232
 7332SOL     OW33454   4.300   0.657   5.191  0.2409  0.0785 -0.0968
 7332SOL    HW133455   4.366   0.606   5.239  0.3375  0.7025  0.4230
 7332SOL    HW233456   4.321   0.746   5.219 -1.1892  0.4079 -0.1007
 7333SOL     OW33457   0.946   3.404   6.331  0.5802  0.0753  0.0493
 7333SOL    HW133458   0.964   3.475   6.393 -1.8160  2.1985 -1.6800
 7333SOL    HW233459   0.911   3.450   6.255  0.5982 -1.2909 -0.7868
 7334SOL     OW33460   3.343   4.483  14.697 -0.1163 -0.3039 -0.6918
 7334SOL    HW133461   3.416   4.466  14.756  0.7454  0.5496 -1.5142
 7334SOL    HW233462   3.380   4.540  14.629  1.0490  1.6133  1.5754
 7335SOL     OW33463   3.006   1.502   3.813 -0.1539  0.4602  0.3652
 7335SOL    HW133464   2.924   1.461   3.837  0.4927 -1.1079 -0.0814
 7335SOL    HW233465   3.074   1.448   3.853  0.9684 -1.7002 -4.3868
 7336SOL     OW33466   2.816   3.913  14.780 -0.0992 -0.0221  0.1409
 7336SOL    HW133467   2.785   3.960  14.858  1.2502 -0.1406  0.7526
 7336SOL    HW233468   2.803   3.971  14.706  3.1407 -1.0393 -1.2148
 7337SOL     OW33469   1.284   3.957   1.151 -0.7052  0.2860 -0.0195
 7337SOL    HW133470   1.360   3.918   1.194 -0.5226 -0.0864 -0.6902
 7337SOL    HW233471   1.218   3.968   1.220 -2.2046 -0.9253 -1.2772
 7338SOL     OW33472   0.268   1.007   1.170  0.4808  0.4190  0.0781
 7338SOL    HW133473   0.214   0.938   1.132  2.4396 -1.5839  0.9311
 7338SOL    HW233474   0.312   1.043   1.093  3.6167 -0.1651  1.5720
 7339SOL     OW33475   4.236   4.022  17.083 -0.0466  0.4235  0.2115
 7339SOL    HW133476   4.186   4.097  17.115  0.6672  0.6890  0.7025
 7339SOL    HW233477   4.306   4.065  17.035  0.6191 -0.2238  0.5969
 7340SOL     OW33478   2.745   3.030   9.063  0.3473 -0.2871 -0.0063
 7340SOL    HW133479   2.823   3.060   9.018 -0.2338  0.4398 -0.5282
 7340SOL    HW233480   2.701   3.115   9.070 -0.2268 -0.6541  1.0147
 7341SOL     OW33481   2.383   3.255   2.646  0.4235 -0.2434  0.0130
 7341SOL    HW133482   2.303   3.300   2.675 -0.3207 -1.6313  0.1414
 7341SOL    HW233483   2.344   3.208   2.572 -2.4581 -0.7431  1.8193
 7342SOL     OW33484   2.846   0.673   7.527 -0.0824 -0.4205 -0.2431
 7342SOL    HW133485   2.776   0.612   7.549 -1.4257  0.1369 -2.9749
 7342SOL    HW233486   2.860   0.658   7.434 -0.2092 -1.3405 -0.1188
 7343SOL     OW33487   4.001   0.915   0.954  0.0789 -0.1952 -0.4000
 7343SOL    HW133488   3.956   0.850   0.900  0.1076  0.0988 -0.7811
 7343SOL    HW233489   4.080   0.868   0.978  1.1076  0.8547 -1.7735
 7344SOL     OW33490   1.836   4.033   5.767 -0.1178 -0.0541  0.1990
 7344SOL    HW133491   1.823   3.938   5.766 -0.2483 -0.0155 -1.7327
 7344SOL    HW233492   1.795   4.056   5.684  1.7869  0.8085 -0.4938
 7345SOL     OW33493   4.340   1.324   3.536 -0.0774 -0.8046  0.0102
 7345SOL    HW133494   4.322   1.338   3.443  0.8557 -0.3599 -0.1003
 7345SOL    HW233495   4.422   1.275   3.530 -0.3936 -0.9114 -3.4166
 7346SOL     OW33496   3.089   2.053  14.658  0.2104  0.1064 -0.6292
 7346SOL    HW133497   3.100   2.040  14.564 -1.9693 -1.2947 -0.6719
 7346SOL    HW233498   3.057   2.143  14.657 -2.0767 -0.6910  2.1405
 7347SOL     OW33499   2.390   1.236   2.964 -0.5902 -0.2957  0.1424
 7347SOL    HW133500   2.474   1.281   2.964 -0.6855 -0.1186 -0.9784
 7347SOL    HW233501   2.339   1.303   3.009 -0.7044 -1.2990  1.4906
 7348SOL     OW33502   0.734   2.653  16.707  0.1882  0.1742 -0.2729
 7348SOL    HW133503   0.803   2.692  16.654  0.9906  0.3197  0.8617
 7348SOL    HW233504   0.713   2.573  16.659  0.3123  0.4752 -0.8221
 7349SOL     OW33505   0.434   0.301   8.587 -0.1792 -0.2412 -0.7358
 7349SOL    HW133506   0.377   0.277   8.661 -1.2069  0.0692 -1.4196
 7349SOL    HW233507   0.519   0.294   8.630 -0.1860 -0.3238 -0.7359
 7350SOL     OW33508   2.276   2.251   8.748  0.5550 -0.0038 -0.0219
 7350SOL    HW133509   2.257   2.334   8.703  0.4668 -0.7823 -1.4135
 7350SOL    HW233510   2.292   2.280   8.837  0.5990  1.7156 -0.5882
 7351SOL     OW33511   0.697   3.770  16.940  0.0817 -0.1455 -0.4892
 7351SOL    HW133512   0.728   3.688  16.978  2.9281  0.6212 -1.1198
 7351SOL    HW233513   0.742   3.837  16.991  0.5941 -0.3573 -0.6605
 7352SOL     OW33514   1.171   0.635  10.081  0.0294  0.0675  0.3695
 7352SOL    HW133515   1.164   0.717  10.131 -2.0059  0.7687 -1.0886
 7352SOL    HW233516   1.182   0.577  10.157 -0.9283  0.8365  1.0965
 7353SOL     OW33517   1.591   3.840   0.972 -0.2606  0.0462 -0.0398
 7353SOL    HW133518   1.620   3.860   1.061 -0.3841  2.0702 -0.4423
 7353SOL    HW233519   1.624   3.752   0.955  1.8476  0.5649  1.3593
 7354SOL     OW33520   0.944   4.142   5.660 -0.2290  0.1345  0.1253
 7354SOL    HW133521   0.999   4.220   5.665 -1.3185  0.8298  1.2115
 7354SOL    HW233522   0.876   4.170   5.721  0.3090  1.4560  0.1250
 7355SOL     OW33523   2.914   0.821  13.191 -0.5289  0.3819 -0.0525
 7355SOL    HW133524   2.982   0.870  13.239 -0.0013 -0.7504  0.3509
 7355SOL    HW233525   2.906   0.874  13.111  0.8008  1.4902  0.5312
 7356SOL     OW33526   1.328   3.820   7.208 -0.4662 -0.2578 -0.4911
 7356SOL    HW133527   1.410   3.773   7.221 -1.1614 -0.9181  1.4675
 7356SOL    HW233528   1.289   3.784   7.128  1.3080 -0.1083 -1.4384
 7357SOL     OW33529   0.347   0.605   5.227  0.1151 -0.4562  0.0546
 7357SOL    HW133530   0.404   0.529   5.215  0.3645 -0.4835  1.4249
 7357SOL    HW233531   0.286   0.568   5.291 -0.5525  2.7229  1.2581
 7358SOL     OW33532   1.095   3.126   8.002 -0.2875  0.0114 -0.2957
 7358SOL    HW133533   1.100   3.057   7.936 -2.2915 -2.1574  1.8363
 7358SOL    HW233534   1.179   3.170   7.988 -0.0826 -0.4574 -0.5300
 7359SOL     OW33535   4.150   2.929  12.871  0.7838 -0.3985 -0.0948
 7359SOL    HW133536   4.145   3.002  12.809  1.2551  0.7602  1.2366
 7359SOL    HW233537   4.078   2.870  12.846 -0.7833  1.7258 -0.6159
 7360SOL     OW33538   0.137   0.977   7.870 -0.2059 -0.2255 -0.5332
 7360SOL    HW133539   0.099   0.898   7.907  2.1432 -1.0001  0.1863
 7360SOL    HW233540   0.141   1.031   7.949 -1.5406 -0.6148 -0.1948
 7361SOL     OW33541   2.760   3.436   5.091  0.1235  0.3916 -0.7134
 7361SOL    HW133542   2.781   3.366   5.029 -2.3780  0.1908 -1.3422
 7361SOL    HW233543   2.716   3.382   5.156 -1.1923  1.2866 -0.8684
 7362SOL     OW33544   0.003   2.028   6.527  0.2048  0.4435 -0.8191
 7362SOL    HW133545   4.637   2.000   6.556 -0.6111  0.1961 -3.5207
 7362SOL    HW233546   4.716   2.078   6.446  0.2056  3.6616  1.1770
 7363SOL     OW33547   3.955   2.510   2.688 -0.1660  0.1443  0.0915
 7363SOL    HW133548   4.036   2.465   2.667  0.2944  0.5474  0.9778
 7363SOL    HW233549   3.927   2.532   2.599 -0.6042 -1.9460 -0.2812
 7364SOL     OW33550   1.386   1.377   9.243 -0.4863  0.1013  0.6123
 7364SOL    HW133551   1.405   1.468   9.220  1.5928  0.2038  2.7135
 7364SOL    HW233552   1.461   1.364   9.301  0.1055  0.6469 -0.0402
 7365SOL     OW33553   2.900   0.701   7.248 -0.1121  0.2038  0.0079
 7365SOL    HW133554   2.855   0.785   7.253  1.1766  0.9101 -0.2710
 7365SOL    HW233555   2.942   0.702   7.162 -1.4178  0.2850 -0.6399
 7366SOL     OW33556   3.712   0.863   3.646 -0.2246  0.0488 -0.2521
 7366SOL    HW133557   3.705   0.782   3.696  0.1459  1.0688  1.4509
 7366SOL    HW233558   3.805   0.887   3.645  0.7560 -3.6565  1.8108
 7367SOL     OW33559   2.159   3.456   4.704  0.0840 -0.3702 -0.6896
 7367SOL    HW133560   2.251   3.474   4.688  0.0633  0.5421  0.1659
 7367SOL    HW233561   2.155   3.361   4.700 -2.2459 -0.4147  1.9413
 7368SOL     OW33562   2.814   4.310  10.682  0.4280 -0.0625 -0.3817
 7368SOL    HW133563   2.893   4.299  10.735  0.4544 -2.2192 -0.8792
 7368SOL    HW233564   2.786   4.218  10.678  0.2806 -0.0174 -0.3705
 7369SOL     OW33565   3.665   2.259   5.497 -0.2955  0.2842  0.6806
 7369SOL    HW133566   3.685   2.218   5.581 -0.3840 -1.8691 -0.3392
 7369SOL    HW233567   3.675   2.182   5.441 -1.5730 -1.1045  2.3966
 7370SOL     OW33568   1.481   1.883   5.987 -0.1888  0.0508  0.2410
 7370SOL    HW133569   1.447   1.826   5.919 -0.3455 -1.4668  1.5772
 7370SOL    HW233570   1.447   1.969   5.963 -1.2016  0.1854  2.0675
 7371SOL     OW33571   4.401   2.944   5.607 -0.4537 -0.5635  0.5768
 7371SOL    HW133572   4.397   3.012   5.539 -2.1225  0.5289  1.7522
 7371SOL    HW233573   4.332   2.884   5.578 -0.9084  0.3169 -0.1770
 7372SOL     OW33574   1.356   3.227   0.011  0.5981 -0.0895 -0.0826
 7372SOL    HW133575   1.325   3.226   0.101 -0.1340 -0.7917 -0.3518
 7372SOL    HW233576   1.368   3.137  17.668 -1.8613  0.2330 -2.1201
 7373SOL     OW33577   1.048   0.707   8.139  0.4860  0.1895 -0.6735
 7373SOL    HW133578   1.133   0.727   8.179 -0.1017  0.6126  0.3730
 7373SOL    HW233579   1.014   0.662   8.217  4.4819 -0.4909  0.6781
 7374SOL     OW33580   0.994   3.659   4.591  0.0280 -0.0903  0.3294
 7374SOL    HW133581   0.919   3.643   4.648  0.3359 -1.8443  0.2676
 7374SOL    HW233582   0.959   3.622   4.510 -1.7111  1.6668  0.2914
 7375SOL     OW33583   1.916   4.365   5.052 -0.4528  0.5782  0.1786
 7375SOL    HW133584   2.011   4.349   5.060 -0.4928 -0.0658 -0.5982
 7375SOL    HW233585   1.896   4.365   4.958  0.4797 -1.5834 -0.0119
 7376SOL     OW33586   1.371   1.790   2.512 -0.1141 -0.0518  0.6969
 7376SOL    HW133587   1.355   1.851   2.583  1.7224  1.5710 -0.2713
 7376SOL    HW233588   1.447   1.746   2.551  0.6077  0.6715  0.1040
 7377SOL     OW33589   1.008   3.224   5.222 -0.9580 -0.6055 -0.2068
 7377SOL    HW133590   1.093   3.201   5.186 -1.1598  0.0018 -1.0799
 7377SOL    HW233591   0.990   3.140   5.264  0.1560 -0.8070 -0.1320
 7378SOL     OW33592   0.383   1.363   2.898  0.0002 -0.6304 -0.1288
 7378SOL    HW133593   0.446   1.435   2.892  1.0684 -1.3434  2.4689
 7378SOL    HW233594   0.351   1.382   2.986  3.6344  0.9515  0.8398
 7379SOL     OW33595   1.926   0.039  15.223 -0.2243  0.2436  0.1236
 7379SOL    HW133596   1.967   4.685  15.266 -1.4409  0.2411  1.2503
 7379SOL    HW233597   1.946   0.023  15.130  0.3935 -0.9247  0.4547
 7380SOL     OW33598   0.112   2.641   7.579 -0.3681  0.0266 -0.0465
 7380SOL    HW133599   0.098   2.605   7.667  1.5152 -2.1732 -0.6626
 7380SOL    HW233600   0.119   2.554   7.542  1.4878 -0.3772  1.2456
 7381SOL     OW33601   1.949   1.830   2.929  0.1769 -0.0986 -0.0043
 7381SOL    HW133602   1.936   1.831   2.834 -1.8006  0.4635  0.2773
 7381SOL    HW233603   1.881   1.767   2.953 -0.2672  0.8568  1.2701
 7382SOL     OW33604   0.430   2.335   7.205 -0.3544  0.4441 -0.2666
 7382SOL    HW133605   0.379   2.413   7.182  0.4439  0.3161 -2.4604
 7382SOL    HW233606   0.462   2.303   7.121 -2.9965 -0.5849 -0.8695
 7383SOL     OW33607   1.075   2.155   4.708 -0.1003 -0.1312 -0.3211
 7383SOL    HW133608   1.065   2.229   4.767  1.4768  1.3909 -1.9415
 7383SOL    HW233609   1.130   2.187   4.636 -1.5166 -1.4367 -1.9625
 7384SOL     OW33610   0.166   2.529   5.648  0.2658 -0.1449  0.9977
 7384SOL    HW133611   0.132   2.570   5.727  1.7545  0.3348  1.3774
 7384SOL    HW233612   0.252   2.570   5.639 -0.0677 -0.0685 -2.1094
 7385SOL     OW33613   3.203   1.619  13.567 -0.1660 -0.0530 -0.1073
 7385SOL    HW133614   3.168   1.537  13.533 -0.5178 -0.2800  0.8003
 7385SOL    HW233615   3.145   1.638  13.640 -1.8093  0.6423 -1.6058
 7386SOL     OW33616   2.538   2.699   4.597  0.0871 -0.2619  0.2365
 7386SOL    HW133617   2.476   2.743   4.655  0.7248  2.7750 -1.4009
 7386SOL    HW233618   2.566   2.765   4.534  1.4427  0.9289  2.1031
 7387SOL     OW33619   4.229   1.456  12.718 -0.3264  0.0900 -0.4349
 7387SOL    HW133620   4.173   1.378  12.720  0.4679 -0.5049 -0.9106
 7387SOL    HW233621   4.173   1.530  12.738  0.0619  0.3233 -0.2144
 7388SOL     OW33622   2.814   2.967   7.711 -0.0235  0.0787  0.3593
 7388SOL    HW133623   2.749   2.897   7.707  0.4273 -0.4232  1.9158
 7388SOL    HW233624   2.892   2.926   7.747 -0.6526 -0.6779  0.8812
 7389SOL     OW33625   3.110   3.548   6.752  0.3930  0.6880  0.6837
 7389SOL    HW133626   3.042   3.593   6.802 -0.2104 -0.0267  0.5093
 7389SOL    HW233627   3.076   3.462   6.776  0.2878  0.2588 -1.0216
 7390SOL     OW33628   1.113   3.244   7.370 -0.1942  0.2079 -0.3052
 7390SOL    HW133629   1.155   3.298   7.304  0.3470 -1.1843 -1.0991
 7390SOL    HW233630   1.091   3.302   7.443 -0.6542  1.0300 -1.0924
 7391SOL     OW33631   2.197   4.540   3.144 -0.1863 -0.3979 -0.0280
 7391SOL    HW133632   2.220   4.588   3.065  2.4801 -1.6933 -0.0324
 7391SOL    HW233633   2.176   4.618   3.195  2.3474  0.2882 -0.0592
 7392SOL     OW33634   2.171   2.500  15.298 -0.2878  0.9816  0.5015
 7392SOL    HW133635   2.144   2.584  15.260  0.1895  0.1226 -1.7675
 7392SOL    HW233636   2.106   2.436  15.271 -0.3490  0.3461  2.1636
 7393SOL     OW33637   1.392   0.022   7.975  0.0523  0.1074  0.3356
 7393SOL    HW133638   1.386   4.649   7.989  1.2688 -0.2456 -1.5998
 7393SOL    HW233639   1.484   0.022   7.999  0.0608 -3.2858  0.2654
 7394SOL     OW33640   3.950   1.193   7.394 -0.2734 -0.6435 -0.2834
 7394SOL    HW133641   4.008   1.134   7.345 -0.7682 -1.2584 -0.1280
 7394SOL    HW233642   3.890   1.200   7.319 -1.4469  2.6831  0.9498
 7395SOL     OW33643   0.492   3.309   5.803 -0.8676 -0.2979  0.0921
 7395SOL    HW133644   0.447   3.393   5.813 -0.6075 -0.2410  0.7863
 7395SOL    HW233645   0.520   3.319   5.712 -0.7280  1.8059  0.3547
 7396SOL     OW33646   0.361   0.068   5.090  0.2780  0.5817 -0.6481
 7396SOL    HW133647   0.312   0.077   5.008  0.0548  2.5330 -0.3113
 7396SOL    HW233648   0.322   4.718   5.142 -2.2671  0.3856 -2.8383
 7397SOL     OW33649   4.067   1.876   2.818  0.5619 -0.4495 -0.6001
 7397SOL    HW133650   4.032   1.795   2.856 -1.9029  1.8612  1.9788
 7397SOL    HW233651   4.064   1.936   2.892 -0.6384 -0.8019 -0.3506
 7398SOL     OW33652   1.211   1.939  16.747 -0.1318 -0.3539  0.1924
 7398SOL    HW133653   1.206   1.850  16.711 -0.6437  0.4480 -1.7228
 7398SOL    HW233654   1.190   1.924  16.839 -1.7071  0.9781  0.0541
 7399SOL     OW33655   4.464   0.246   6.928  0.1539  0.1969 -0.6437
 7399SOL    HW133656   4.372   0.256   6.903 -1.0991 -2.1725  2.9338
 7399SOL    HW233657   4.498   0.330   6.900 -0.9799  1.1740  0.8929
 7400SOL     OW33658   3.178   3.264  15.482  0.0671 -0.3142  0.6997
 7400SOL    HW133659   3.195   3.305  15.567 -0.8425 -0.2815  0.8632
 7400SOL    HW233660   3.117   3.193  15.500  0.7847 -1.4900 -1.4108
 7401SOL     OW33661   0.835   2.500   1.872  0.1510  0.2183  0.5010
 7401SOL    HW133662   0.783   2.420   1.860 -1.7349  1.7501 -1.5374
 7401SOL    HW233663   0.793   2.535   1.951  1.5595  0.4633  1.1385
 7402SOL     OW33664   2.578   2.822   4.350 -0.5198  0.7839 -0.5296
 7402SOL    HW133665   2.586   2.911   4.316 -3.5261  0.7256 -1.4042
 7402SOL    HW233666   2.671   2.800   4.349 -0.4017  1.2967 -1.0431
 7403SOL     OW33667   3.907   4.001   8.085  0.5165  0.0224  0.5537
 7403SOL    HW133668   3.849   3.942   8.038 -0.0261  1.5506 -0.6651
 7403SOL    HW233669   3.982   4.014   8.027 -0.3651  0.1025 -0.5565
 7404SOL     OW33670   0.138   4.022  16.826 -0.4511  0.1489 -0.2169
 7404SOL    HW133671   0.108   4.072  16.749  0.0877  1.2848  0.3005
 7404SOL    HW233672   0.225   4.001  16.792 -0.6072 -0.6731 -0.1049
 7405SOL     OW33673   0.579   3.881   6.769 -0.3024  0.3146 -0.2190
 7405SOL    HW133674   0.538   3.961   6.800  2.0377  1.1908  0.6578
 7405SOL    HW233675   0.533   3.813   6.818  2.9888 -1.7697  0.0224
 7406SOL     OW33676   3.739   3.219   4.136  0.3891 -0.1725 -0.3816
 7406SOL    HW133677   3.664   3.224   4.195  0.4514 -1.2690 -0.2091
 7406SOL    HW233678   3.711   3.272   4.062 -2.0053 -0.2687  0.4759
 7407SOL     OW33679   4.468   3.607   8.229 -0.0393 -0.0422 -0.2877
 7407SOL    HW133680   4.412   3.684   8.241  1.8445  1.4132 -0.8970
 7407SOL    HW233681   4.443   3.593   8.137  0.5004  3.0723 -0.8897
 7408SOL     OW33682   3.533   1.225   8.181 -0.0957  0.0857  0.3267
 7408SOL    HW133683   3.509   1.168   8.108  1.4125  0.0987 -0.1965
 7408SOL    HW233684   3.488   1.176   8.250  0.3024 -1.4068 -0.4707
 7409SOL     OW33685   0.564   3.166   6.541 -0.5298 -0.1926 -0.4083
 7409SOL    HW133686   0.659   3.160   6.542 -0.4753  0.3994 -1.3885
 7409SOL    HW233687   0.543   3.176   6.448 -3.4217 -0.5105  0.2114
 7410SOL     OW33688   1.231   2.792   3.225  0.0423  0.0004  0.0836
 7410SOL    HW133689   1.225   2.856   3.296 -0.7313 -1.3300  1.2129
 7410SOL    HW233690   1.285   2.848   3.169 -0.4975 -1.4585 -1.9111
 7411SOL     OW33691   3.778   2.005   1.836 -0.4021  0.5478  0.2000
 7411SOL    HW133692   3.725   1.999   1.756  0.3412 -1.2529 -0.1486
 7411SOL    HW233693   3.726   1.952   1.896 -0.6509  0.6944  0.1129
 7412SOL     OW33694   3.886   2.840   6.866  0.5229 -0.2606 -0.5210
 7412SOL    HW133695   3.914   2.927   6.894  2.3727 -1.3492  1.0259
 7412SOL    HW233696   3.844   2.807   6.945  0.6195  1.7578  0.3798
 7413SOL     OW33697   0.805   0.306   7.576 -0.3084 -0.2400  0.1067
 7413SOL    HW133698   0.771   0.380   7.625 -0.5672 -0.9023  0.9211
 7413SOL    HW233699   0.832   0.253   7.651  0.5926  0.0484 -0.0059
 7414SOL     OW33700   3.443   3.289   5.493  0.3072 -0.2610 -0.3753
 7414SOL    HW133701   3.505   3.253   5.557  1.2571 -2.7008 -2.6480
 7414SOL    HW233702   3.488   3.259   5.415 -2.8039 -0.4383 -2.0933
 7415SOL     OW33703   2.942   0.352   0.685 -0.3144  0.0543 -0.5629
 7415SOL    HW133704   2.982   0.292   0.748 -0.2799 -0.9423 -1.5419
 7415SOL    HW233705   2.883   0.397   0.746 -1.4650 -0.6186 -1.1969
 7416SOL     OW33706   0.054   2.224  10.056  0.1736 -0.1290 -0.1443
 7416SOL    HW133707   0.054   2.247   9.963 -3.4666 -0.2866 -0.1862
 7416SOL    HW233708   4.717   2.148  10.054  0.7181 -0.5952  1.4281
 7417SOL     OW33709   3.236   1.217  15.472  0.2027 -0.1430  0.2199
 7417SOL    HW133710   3.161   1.192  15.419 -0.3456  2.0125 -0.0165
 7417SOL    HW233711   3.309   1.177  15.425  0.6165 -1.1575  1.7074
 7418SOL     OW33712   0.338   3.547   5.799  0.0712 -0.3775 -0.0928
 7418SOL    HW133713   0.381   3.555   5.714 -1.7930  1.3399 -0.8668
 7418SOL    HW233714   0.258   3.598   5.786  0.1846 -0.1097  0.2604
 7419SOL     OW33715   3.298   3.619   7.067  0.5113 -0.0108 -0.3049
 7419SOL    HW133716   3.353   3.592   6.993 -1.1774 -0.0260 -1.5405
 7419SOL    HW233717   3.292   3.715   7.067 -2.5881 -0.2046 -0.3912
 7420SOL     OW33718   0.200   0.158   4.718  0.4621 -0.0039 -0.4826
 7420SOL    HW133719   0.152   0.229   4.762  0.9323  0.4465 -0.7015
 7420SOL    HW233720   0.291   0.176   4.741  0.2296 -1.4157  1.4914
 7421SOL     OW33721   0.640   0.110   3.293  0.4852  0.0167 -0.1798
 7421SOL    HW133722   0.704   0.173   3.260  1.8385 -1.8387 -1.1055
 7421SOL    HW233723   0.572   0.117   3.226  0.4439 -2.1116 -0.3413
 7422SOL     OW33724   4.626   2.268  10.692  0.6376  0.0343  0.1129
 7422SOL    HW133725   4.638   2.260  10.786  1.5743 -3.1369 -0.2751
 7422SOL    HW233726   4.576   2.349  10.681  1.3729  0.7332  1.9620
 7423SOL     OW33727   4.370   4.666   3.455  0.0423 -0.2858 -0.3267
 7423SOL    HW133728   4.286   4.647   3.497 -0.5397 -0.4101 -1.5694
 7423SOL    HW233729   4.430   4.633   3.522  0.0259  1.5343  0.5788
 7424SOL     OW33730   3.939   2.879   2.519 -0.3070  0.5884 -0.0333
 7424SOL    HW133731   3.966   2.949   2.578  0.1120 -0.2006  0.7097
 7424SOL    HW233732   3.947   2.931   2.439 -1.1589  0.2629 -0.3311
 7425SOL     OW33733   1.020   3.012   3.244  0.0175 -0.0504  0.6236
 7425SOL    HW133734   0.933   2.991   3.279 -0.9624  1.6360 -0.7883
 7425SOL    HW233735   1.036   2.942   3.181 -2.0040  2.1925 -2.4108
 7426SOL     OW33736   2.901   0.512   1.147 -0.1685  0.3066  0.4093
 7426SOL    HW133737   2.982   0.546   1.184 -0.8850 -0.4250  2.6896
 7426SOL    HW233738   2.866   0.482   1.231  0.0864 -0.2856  0.3070
 7427SOL     OW33739   3.345   4.497   4.679 -0.5061 -0.3637 -0.0300
 7427SOL    HW133740   3.284   4.490   4.606  1.6241 -1.3983 -1.6952
 7427SOL    HW233741   3.429   4.490   4.635 -0.3720  1.4474 -0.0591
 7428SOL     OW33742   1.079   1.704   5.266 -0.3840 -0.2873 -0.3866
 7428SOL    HW133743   1.062   1.665   5.179  0.8764 -3.0686  0.6058
 7428SOL    HW233744   1.150   1.650   5.300 -1.1087 -1.1257 -0.1995
 7429SOL     OW33745   2.795   3.704   8.706  0.1983 -0.0168 -0.6254
 7429SOL    HW133746   2.751   3.626   8.738 -0.1150 -0.6271 -2.5080
 7429SOL    HW233747   2.812   3.758   8.783  0.4185  0.2342 -0.8489
 7430SOL     OW33748   1.561   1.972  10.382  0.0024 -0.2840 -0.2542
 7430SOL    HW133749   1.528   2.050  10.337  1.3237  1.8813  2.5347
 7430SOL    HW233750   1.581   2.000  10.471  0.1667 -1.9819  0.2310
 7431SOL     OW33751   1.668   3.355  11.759 -0.3626  0.0620 -0.0162
 7431SOL    HW133752   1.734   3.313  11.813  1.2394  2.6632  0.0262
 7431SOL    HW233753   1.641   3.434  11.805  1.5315  1.0414 -0.5682
 7432SOL     OW33754   4.404   1.332   5.863 -0.9432 -0.2964 -0.4683
 7432SOL    HW133755   4.404   1.420   5.826  0.9021  0.0748  0.4279
 7432SOL    HW233756   4.440   1.362   5.946  0.4769 -1.4790 -0.6557
 7433SOL     OW33757   0.003   0.091  10.225  0.1352 -0.2286 -0.5252
 7433SOL    HW133758   0.037   0.175  10.255 -1.0405  0.1752 -0.3217
 7433SOL    HW233759   4.677   0.057  10.301 -2.2607  0.9475 -1.4940
 7434SOL     OW33760   1.632   0.562   3.350 -0.4962 -0.8314  0.9084
 7434SOL    HW133761   1.725   0.572   3.370 -0.6762 -0.8706  1.7484
 7434SOL    HW233762   1.629   0.598   3.262 -2.0392 -0.1545  1.2400
 7435SOL     OW33763   2.926   3.835   2.934 -0.0239 -0.1473  0.4394
 7435SOL    HW133764   2.886   3.785   3.004  1.1722 -1.2441  0.3504
 7435SOL    HW233765   2.862   3.825   2.864 -0.3745  1.5949  0.5009
 7436SOL     OW33766   1.432   1.162   6.806  0.2272 -0.1877 -0.3000
 7436SOL    HW133767   1.493   1.126   6.741  0.4817  0.2384 -0.3031
 7436SOL    HW233768   1.384   1.087   6.841  1.2604  0.2403  2.0671
 7437SOL     OW33769   0.321   3.467   8.866 -0.0943  0.5499  0.4422
 7437SOL    HW133770   0.400   3.452   8.919 -1.6254 -0.0259  2.5754
 7437SOL    HW233771   0.274   3.383   8.867  0.9217 -0.0773 -3.1915
 7438SOL     OW33772   3.247   1.322   5.938 -0.6867  0.0590  0.0889
 7438SOL    HW133773   3.217   1.412   5.931 -1.6794 -0.3891 -1.6752
 7438SOL    HW233774   3.178   1.287   5.995  0.0661 -0.7022  0.5280
 7439SOL     OW33775   4.604   0.773  11.993 -0.0062 -0.1293  0.5431
 7439SOL    HW133776   4.642   0.860  11.994  1.2503 -0.6612 -0.9053
 7439SOL    HW233777   4.647   0.738  11.915 -1.9394 -0.7714 -0.2181
 7440SOL     OW33778   1.108   4.258   9.476 -0.4781 -0.4197 -0.7672
 7440SOL    HW133779   1.156   4.303   9.545 -1.0297 -1.0574  0.0325
 7440SOL    HW233780   1.019   4.291   9.492  0.0345 -0.4463  2.2299
 7441SOL     OW33781   2.879   1.818  14.790 -0.2271  0.2552 -0.2617
 7441SOL    HW133782   2.935   1.896  14.794 -1.7174  1.2386  1.5908
 7441SOL    HW233783   2.893   1.785  14.702 -3.3923 -1.7099 -0.0434
 7442SOL     OW33784   0.411   1.856   5.431 -0.1171  0.3608  0.3872
 7442SOL    HW133785   0.408   1.950   5.417 -0.8243  0.0719 -1.4135
 7442SOL    HW233786   0.474   1.826   5.366 -1.4375 -2.0291  0.2026
 7443SOL     OW33787   1.458   3.687   8.520  0.6462 -0.2126 -0.6033
 7443SOL    HW133788   1.486   3.777   8.504  0.6862 -0.1819 -0.3579
 7443SOL    HW233789   1.362   3.685   8.512  0.5077 -2.7953  1.7698
 7444SOL     OW33790   2.025   1.300   0.976 -0.0037 -0.3311  0.4114
 7444SOL    HW133791   1.971   1.317   0.898  0.0677 -2.1049 -0.0318
 7444SOL    HW233792   2.109   1.312   0.931  0.0047  0.2101  0.5738
 7445SOL     OW33793   0.577   1.211  13.539  0.4336 -0.6636  0.6072
 7445SOL    HW133794   0.513   1.164  13.486  1.2255 -1.1413  0.0855
 7445SOL    HW233795   0.596   1.142  13.602  0.5847 -0.8095  0.4005
 7446SOL     OW33796   3.414   3.059   2.940 -0.1614  0.3461  0.8187
 7446SOL    HW133797   3.497   3.021   2.912  0.8723  0.9548  3.0766
 7446SOL    HW233798   3.376   2.995   3.001  2.1839 -1.7170  0.1007
 7447SOL     OW33799   0.404   2.338   7.713 -0.3875  0.6858 -0.9990
 7447SOL    HW133800   0.351   2.262   7.689  2.1764 -1.1253 -0.9385
 7447SOL    HW233801   0.491   2.320   7.679  0.7979  1.9449  1.3992
 7448SOL     OW33802   0.269   2.133   7.628 -1.0136 -0.1336  0.4820
 7448SOL    HW133803   0.243   2.057   7.680  0.4707 -1.9266 -1.3800
 7448SOL    HW233804   0.338   2.103   7.569 -0.0858 -1.1052  2.0344
 7449SOL     OW33805   1.997   1.140   7.496  0.2152  0.4125  0.1315
 7449SOL    HW133806   2.055   1.176   7.563  1.2225 -0.0097 -0.5154
 7449SOL    HW233807   2.015   1.049   7.518 -1.9019  0.2467  1.1541
 7450SOL     OW33808   0.787   1.734   6.451 -0.1474 -0.2590  0.1596
 7450SOL    HW133809   0.855   1.678   6.490 -0.3450 -1.2462 -0.8980
 7450SOL    HW233810   0.729   1.670   6.409 -0.2353  1.5091 -2.3984
 7451SOL     OW33811   3.720   3.481   1.600  0.4501 -0.4952 -0.4580
 7451SOL    HW133812   3.640   3.506   1.645  0.4395 -0.6311 -0.4013
 7451SOL    HW233813   3.721   3.387   1.618 -2.8557  0.1712  3.2182
 7452SOL     OW33814   2.325   0.816   6.426  0.0601  0.4573 -0.3783
 7452SOL    HW133815   2.268   0.888   6.399 -1.2759  0.0649  1.4397
 7452SOL    HW233816   2.329   0.832   6.520 -0.4382  0.3456 -0.3409
 7453SOL     OW33817   2.611   3.462  12.934  0.0443  0.4196 -0.1102
 7453SOL    HW133818   2.636   3.374  12.902  1.4514  0.3957  1.0793
 7453SOL    HW233819   2.685   3.506  12.891  0.6888  0.6772  1.2616
 7454SOL     OW33820   1.640   3.088   2.154 -0.2721  0.2046 -0.3592
 7454SOL    HW133821   1.664   3.020   2.217 -0.1751  1.3313  0.8200
 7454SOL    HW233822   1.714   3.088   2.094 -1.0364 -1.3665 -1.3081
 7455SOL     OW33823   0.708   2.985   0.489  0.4424 -0.2231  0.0103
 7455SOL    HW133824   0.788   2.963   0.442 -0.0908 -0.8885 -0.5965
 7455SOL    HW233825   0.639   2.937   0.442 -2.2916  3.2700  0.4227
 7456SOL     OW33826   0.125   4.512   8.084  0.3011 -0.5762  0.1168
 7456SOL    HW133827   0.130   4.450   8.156  0.5243  1.0335  1.4775
 7456SOL    HW233828   0.060   4.472   8.025  0.3494  0.0198 -0.3424
 7457SOL     OW33829   4.328   0.837  17.317 -0.2240  0.2455 -0.1603
 7457SOL    HW133830   4.391   0.765  17.323  0.6206  1.0716  0.8390
 7457SOL    HW233831   4.311   0.838  17.223 -1.6585  1.0705  0.1194
 7458SOL     OW33832   2.125   4.689   8.963  1.0589  1.1029  0.5758
 7458SOL    HW133833   2.178   0.047   8.959  0.5635  1.4499  0.9263
 7458SOL    HW233834   2.051   0.009   9.006 -0.6520 -0.1320 -1.1976
 7459SOL     OW33835   2.705   4.558  12.682  0.4999 -0.4329 -0.2097
 7459SOL    HW133836   2.615   4.557  12.651  0.5755 -0.0355 -0.4491
 7459SOL    HW233837   2.679   4.595  12.766  0.0617  0.2353 -0.6432
 7460SOL     OW33838   4.411   0.597   7.936 -0.2163  0.1722  0.1835
 7460SOL    HW133839   4.458   0.515   7.951 -0.9418 -0.0775  1.1211
 7460SOL    HW233840   4.371   0.610   8.022  1.5364  3.0990  0.5480
 7461SOL     OW33841   4.083   0.754   3.008  0.3738  0.4818 -0.3474
 7461SOL    HW133842   4.129   0.704   2.941  1.0493 -0.0163  0.4945
 7461SOL    HW233843   4.019   0.802   2.956 -1.1024 -0.9986  0.0778
 7462SOL     OW33844   2.345   1.502   4.629  0.4372 -0.0461 -0.0678
 7462SOL    HW133845   2.376   1.553   4.554  0.5919 -1.4072 -0.9234
 7462SOL    HW233846   2.264   1.463   4.597  0.1952  0.2786  0.1539
 7463SOL     OW33847   1.592   2.067   5.712  0.0265  0.2294 -0.2942
 7463SOL    HW133848   1.659   2.123   5.673  0.5230  0.1083  0.3896
 7463SOL    HW233849   1.638   2.038   5.790 -2.7648 -0.2158  1.2015
 7464SOL     OW33850   3.142   0.056   7.050  0.0542  0.1335  0.4358
 7464SOL    HW133851   3.062   0.027   7.093 -1.5924  3.1161 -0.6538
 7464SOL    HW233852   3.197   0.080   7.125  0.6294  1.3018 -0.3554
 7465SOL     OW33853   1.377   3.618   8.246 -0.1023 -0.2245 -0.2891
 7465SOL    HW133854   1.358   3.549   8.309 -1.4295 -0.1673 -0.6256
 7465SOL    HW233855   1.434   3.674   8.299 -0.3287 -1.6666  1.4589
 7466SOL     OW33856   3.719   3.452   5.466 -0.1551 -0.1245  0.2222
 7466SOL    HW133857   3.799   3.401   5.457 -0.3983 -0.6240  0.9035
 7466SOL    HW233858   3.760   3.528   5.506  1.6486 -0.7539 -0.4542
 7467SOL     OW33859   2.747   0.842   4.534  0.5619 -0.0061  0.0908
 7467SOL    HW133860   2.659   0.871   4.510  0.5908 -2.5972 -3.0539
 7467SOL    HW233861   2.756   0.769   4.474 -1.8115 -0.5751  0.3971
 7468SOL     OW33862   0.126   3.146   3.715 -0.3822  0.2939  0.4960
 7468SOL    HW133863   0.121   3.053   3.737 -1.1829  0.2286  0.0605
 7468SOL    HW233864   0.188   3.145   3.643 -1.5950  0.3783 -0.5639
 7469SOL     OW33865   3.760   1.795   7.989  0.6028 -0.3648 -0.2254
 7469SOL    HW133866   3.750   1.705   8.022 -0.5501 -0.4887 -0.8892
 7469SOL    HW233867   3.693   1.795   7.920  1.9788  0.4282 -1.5620
 7470SOL     OW33868   0.413   2.373   3.665 -0.5104  0.1945 -0.0152
 7470SOL    HW133869   0.370   2.455   3.688  2.7837  1.7202  0.7124
 7470SOL    HW233870   0.444   2.411   3.582 -3.3671  1.5887 -0.4248
 7471SOL     OW33871   2.055   0.238  14.519 -0.3275 -0.7643  0.2208
 7471SOL    HW133872   2.025   0.193  14.440 -0.0747  0.4701 -0.5742
 7471SOL    HW233873   1.983   0.221  14.579  0.6188  0.0661  1.6030
 7472SOL     OW33874   3.273   0.468  16.810 -0.6811 -0.0178 -0.0238
 7472SOL    HW133875   3.199   0.427  16.855  0.9595 -2.1112  0.8052
 7472SOL    HW233876   3.278   0.553  16.854 -0.5163  1.2834 -2.5605
 7473SOL     OW33877   2.381   4.384   6.157  0.0888 -0.3263 -0.2727
 7473SOL    HW133878   2.317   4.338   6.211 -0.3683 -0.3439 -0.8311
 7473SOL    HW233879   2.440   4.316   6.124  2.1149  1.6213 -0.5997
 7474SOL     OW33880   1.030   2.813   4.365 -0.2783 -0.0838 -0.3841
 7474SOL    HW133881   1.008   2.905   4.349  0.7380  0.0277 -1.1662
 7474SOL    HW233882   1.116   2.820   4.407 -0.7688  3.1773  0.0605
 7475SOL     OW33883   2.171   3.405   8.078  0.5027  0.7193  0.5435
 7475SOL    HW133884   2.258   3.444   8.091  0.8836 -1.1402  3.7037
 7475SOL    HW233885   2.180   3.366   7.992 -0.7844  0.1876  0.6585
 7476SOL     OW33886   1.771   3.646   1.632  0.3517 -0.3411 -0.9147
 7476SOL    HW133887   1.800   3.662   1.722 -0.6232 -0.6372 -0.5548
 7476SOL    HW233888   1.676   3.639   1.638  0.3949  1.0546  1.6997
 7477SOL     OW33889   2.245   1.566   9.359  0.2635  0.3559  0.0916
 7477SOL    HW133890   2.280   1.618   9.432  0.5648 -0.2493  0.3756
 7477SOL    HW233891   2.246   1.478   9.397  2.9084 -0.4814 -1.9530
 7478SOL     OW33892   3.019   1.840  11.485  0.6141 -0.3284 -0.1785
 7478SOL    HW133893   3.060   1.842  11.572 -1.3264 -0.3252  0.7449
 7478SOL    HW233894   2.928   1.856  11.512  0.7629  0.5440 -0.1877
 7479SOL     OW33895   0.826   1.813   3.053  0.8224  0.0365  0.7057
 7479SOL    HW133896   0.886   1.801   2.980 -0.3436 -0.1991 -0.2134
 7479SOL    HW233897   0.772   1.880   3.012  1.5830  0.6166  0.6668
 7480SOL     OW33898   0.988   1.464   2.897  0.8163  0.7868 -0.2114
 7480SOL    HW133899   1.037   1.392   2.857  0.3030  0.4745 -0.2810
 7480SOL    HW233900   1.020   1.545   2.857 -1.6995  1.5070 -0.7620
 7481SOL     OW33901   3.820   3.235   7.283 -0.6406  0.1456  0.8652
 7481SOL    HW133902   3.860   3.153   7.312 -1.2186  0.0183  1.2927
 7481SOL    HW233903   3.874   3.253   7.206  0.1877 -0.7363  1.2373
 7482SOL     OW33904   0.366   2.827   1.550 -0.2862 -0.3514 -0.0670
 7482SOL    HW133905   0.290   2.830   1.608  0.4783  0.1630  0.9131
 7482SOL    HW233906   0.396   2.917   1.547 -2.4726  0.3213 -1.7256
 7483SOL     OW33907   2.578   2.524   4.840  0.4444  0.1516 -0.2298
 7483SOL    HW133908   2.567   2.577   4.761  1.3171  1.3521  0.4585
 7483SOL    HW233909   2.661   2.559   4.872  1.3058 -0.6118 -1.6582
 7484SOL     OW33910   1.699   3.399   3.273 -0.8596  0.3851 -0.2022
 7484SOL    HW133911   1.616   3.444   3.289  0.5629  2.8180  0.2601
 7484SOL    HW233912   1.709   3.425   3.182  0.3146 -1.0036 -0.4551
 7485SOL     OW33913   3.454   4.083  13.155 -0.5267  0.3866  0.1778
 7485SOL    HW133914   3.548   4.076  13.142 -0.3403 -0.0563  1.8501
 7485SOL    HW233915   3.418   4.002  13.117 -0.5411 -1.4620  4.1382
 7486SOL     OW33916   2.606   2.641   9.108 -0.0535  0.4681 -0.4875
 7486SOL    HW133917   2.666   2.716   9.113  0.9090 -0.3104 -0.1460
 7486SOL    HW233918   2.527   2.664   9.156  1.8929  4.2909  0.9029
 7487SOL     OW33919   3.114   1.949   6.660 -0.2390 -0.1227 -0.1588
 7487SOL    HW133920   3.116   1.859   6.629  1.8289  0.0748 -0.6412
 7487SOL    HW233921   3.045   1.985   6.603  0.7455 -0.2690 -1.4573
 7488SOL     OW33922   0.524   2.170  13.097 -0.3983 -0.2652 -0.2131
 7488SOL    HW133923   0.513   2.080  13.066  0.8282 -0.8253  0.9614
 7488SOL    HW233924   0.566   2.159  13.182 -2.5813 -2.0559  0.6265
 7489SOL     OW33925   3.316   3.682   6.236 -0.7309  0.1187  0.4623
 7489SOL    HW133926   3.277   3.760   6.275 -0.6732  0.2113  0.3337
 7489SOL    HW233927   3.236   3.633   6.218  0.8549 -2.1414 -0.5083
 7490SOL     OW33928   2.021   4.694   7.848 -0.0525  0.0147  0.4643
 7490SOL    HW133929   1.946   4.635   7.841  0.3733 -0.5746  0.8370
 7490SOL    HW233930   2.005   0.003   7.759  0.6453  0.2488  0.4163
 7491SOL     OW33931   1.741   3.931   3.356 -0.0070 -0.1604 -0.3716
 7491SOL    HW133932   1.657   3.950   3.313  0.1864  0.3245 -0.5252
 7491SOL    HW233933   1.774   3.855   3.308  2.1125 -0.1702  1.1084
 7492SOL     OW33934   0.301   2.338   3.200  0.1516  0.3886 -0.3458
 7492SOL    HW133935   0.251   2.258   3.182  1.6856 -0.5671 -0.3964
 7492SOL    HW233936   0.257   2.401   3.143  3.0055  0.3073 -2.6058
 7493SOL     OW33937   3.312   3.030  16.217  0.5441  0.4649 -0.3625
 7493SOL    HW133938   3.240   2.992  16.166  0.8645 -0.0078 -0.4582
 7493SOL    HW233939   3.340   3.102  16.161 -1.7803  1.6204 -0.0253
 7494SOL     OW33940   1.127   4.588   8.497  0.0756  0.4227  0.3875
 7494SOL    HW133941   1.096   4.522   8.559  2.5125 -1.2234 -0.1745
 7494SOL    HW233942   1.220   4.578   8.515  0.2158 -0.0044 -0.5251
 7495SOL     OW33943   1.387   0.042   0.874  0.1897  0.1208  0.4229
 7495SOL    HW133944   1.323   4.712   0.924  1.1446 -0.3138  1.1979
 7495SOL    HW233945   1.341   0.116   0.835  2.9556  0.7852 -1.5624
 7496SOL     OW33946   4.124   3.290  10.175  0.0267  0.0400  0.0878
 7496SOL    HW133947   4.120   3.196  10.192 -2.2816  0.3256  1.1191
 7496SOL    HW233948   4.155   3.323  10.259 -0.5037  1.8043 -0.4189
 7497SOL     OW33949   0.021   3.516   9.099 -0.0364  0.1829  0.4960
 7497SOL    HW133950   0.049   3.476   9.017 -2.9407  1.8464 -1.2868
 7497SOL    HW233951   0.102   3.504   9.149  0.8397  1.3007 -0.6540
 7498SOL     OW33952   0.572   0.092  10.065  0.1659 -0.2481 -0.1943
 7498SOL    HW133953   0.513   0.165  10.082  0.6709 -0.0097  0.5193
 7498SOL    HW233954   0.641   0.136  10.016  0.1822 -0.9969 -0.8376
 7499SOL     OW33955   2.673   1.529   7.022 -0.2025  0.1208 -0.1726
 7499SOL    HW133956   2.625   1.495   6.946 -2.5648  3.1758 -0.0285
 7499SOL    HW233957   2.650   1.622   7.027  1.5772  0.5593  0.0736
 7500SOL     OW33958   1.819   0.207  14.684 -0.0923  0.5251  0.2283
 7500SOL    HW133959   1.724   0.201  14.694 -0.1767  1.0631 -0.2407
 7500SOL    HW233960   1.838   0.277  14.746  0.9103 -0.2451  0.7962
 7501SOL     OW33961   3.413   2.670  15.952 -0.0846  0.6658 -0.2314
 7501SOL    HW133962   3.503   2.673  15.984 -0.0314  0.5789 -0.3737
 7501SOL    HW233963   3.401   2.764  15.946 -2.6133  0.2634 -1.2634
 7502SOL     OW33964   2.922   3.089   2.732  0.4821  0.1027 -0.3120
 7502SOL    HW133965   3.017   3.090   2.719  0.4794  0.0189 -0.3352
 7502SOL    HW233966   2.920   3.046   2.818  0.2107  1.9686  0.6056
 7503SOL     OW33967   2.605   2.237   5.407 -0.4711  0.0832 -0.2441
 7503SOL    HW133968   2.557   2.166   5.450 -1.4986 -0.0214 -1.5886
 7503SOL    HW233969   2.575   2.235   5.317 -1.3405  2.4525 -0.0057
 7504SOL     OW33970   1.387   2.691   0.286  0.4991  0.3200  0.2862
 7504SOL    HW133971   1.384   2.734   0.372 -3.1685 -1.3347  0.9660
 7504SOL    HW233972   1.420   2.608   0.320  1.7058 -0.1971 -2.1267
 7505SOL     OW33973   3.328   1.106   3.422 -0.0112  0.5007 -0.2671
 7505SOL    HW133974   3.313   1.158   3.501 -1.6917  0.3925 -0.5150
 7505SOL    HW233975   3.402   1.048   3.441  0.1888  0.4839 -1.0714
 7506SOL     OW33976   1.621   2.444   7.157 -0.0934 -0.0659  0.8183
 7506SOL    HW133977   1.604   2.515   7.219  0.4187  0.0244  0.8528
 7506SOL    HW233978   1.641   2.502   7.084  0.6250 -2.0369 -0.5780
 7507SOL     OW33979   4.711   2.750   8.231  0.3992 -0.2420 -0.1461
 7507SOL    HW133980   0.036   2.693   8.293  0.7488  1.3875  1.0869
 7507SOL    HW233981   4.660   2.806   8.290 -1.3979 -2.3347  0.3288
 7508SOL     OW33982   2.882   0.582   2.273  0.1476 -0.1115 -0.0298
 7508SOL    HW133983   2.943   0.653   2.254 -0.5471  0.9763  1.8498
 7508SOL    HW233984   2.803   0.634   2.290  0.9597  1.2571 -0.4811
 7509SOL     OW33985   0.150   1.256   6.485 -0.2136 -0.2516  0.1912
 7509SOL    HW133986   0.160   1.350   6.498 -2.8623  0.1925 -0.9705
 7509SOL    HW233987   0.066   1.257   6.530 -0.2835  2.9386 -0.0034
 7510SOL     OW33988   0.289   0.000   2.383  0.0517  0.1701 -0.3058
 7510SOL    HW133989   0.216   4.678   2.338 -1.0066  2.4637 -0.8158
 7510SOL    HW233990   0.347   0.009   2.307  1.7768  1.1349  1.1269
 7511SOL     OW33991   0.947   2.756   8.703  0.1857  0.4690  0.1267
 7511SOL    HW133992   0.974   2.845   8.682  1.4839 -0.0946 -0.6209
 7511SOL    HW233993   1.032   2.714   8.689 -0.6151 -1.8701  2.1671
 7512SOL     OW33994   1.927   3.838   2.620  0.0338  0.3274 -0.2655
 7512SOL    HW133995   1.862   3.833   2.550  0.8547 -1.3186 -0.8983
 7512SOL    HW233996   1.963   3.925   2.601  3.2454 -0.8696  0.4246
 7513SOL     OW33997   0.626   2.080   7.132 -0.0229  0.0573  0.4131
 7513SOL    HW133998   0.717   2.099   7.113 -0.2868  0.9840  0.0670
 7513SOL    HW233999   0.629   2.004   7.191  0.5849 -0.6575 -0.5514
 7514SOL     OW34000   3.889   2.455   6.538  1.0466  0.1590  0.2962
 7514SOL    HW134001   3.918   2.531   6.489 -0.9938  0.8437  0.1489
 7514SOL    HW234002   3.973   2.409   6.538  0.8401 -0.2236  0.4939
 7515SOL     OW34003   0.739   1.539  12.701  0.3591 -1.0478  0.2271
 7515SOL    HW134004   0.753   1.464  12.760  0.0103 -1.0803  0.2733
 7515SOL    HW234005   0.826   1.565  12.674 -0.7833  0.9216 -1.4965
 7516SOL     OW34006   4.643   1.297   5.388  0.2233 -0.1466 -0.4572
 7516SOL    HW134007   4.616   1.206   5.393  0.2619 -0.1711 -0.6776
 7516SOL    HW234008   4.569   1.330   5.438  0.2558 -0.5691 -0.1360
 7517SOL     OW34009   2.542   2.230   2.626 -0.3431 -0.3222  0.0897
 7517SOL    HW134010   2.618   2.178   2.654  0.1945  0.4044 -0.0297
 7517SOL    HW234011   2.570   2.320   2.609  1.5947 -0.9832 -0.2329
 7518SOL     OW34012   1.718   4.662   1.397 -0.0052  0.6002 -0.0583
 7518SOL    HW134013   1.640   4.607   1.391 -1.0748  1.9957  1.3109
 7518SOL    HW234014   1.762   4.628   1.475 -1.1632 -4.1429 -1.4467
 7519SOL     OW34015   1.644   2.695   0.615  0.4649 -0.4479 -0.0542
 7519SOL    HW134016   1.687   2.652   0.542 -1.3260 -0.3743 -1.1542
 7519SOL    HW234017   1.662   2.638   0.691 -0.8882 -0.4435  0.2775
 7520SOL     OW34018   2.262   2.749  13.646 -0.6576 -0.7272 -0.0093
 7520SOL    HW134019   2.320   2.705  13.584  0.9522  1.1701  0.1646
 7520SOL    HW234020   2.290   2.840  13.638  0.7643 -1.1670 -0.0454
 7521SOL     OW34021   1.892   1.369   0.726  0.1820 -0.7059 -0.5167
 7521SOL    HW134022   1.960   1.437   0.725  0.3362 -0.8379  2.0049
 7521SOL    HW234023   1.814   1.425   0.722  0.0511 -0.9543 -1.5283
 7522SOL     OW34024   4.431   0.320   0.301 -0.4042  0.6140 -0.3914
 7522SOL    HW134025   4.525   0.318   0.279 -0.3924 -0.5690 -0.2132
 7522SOL    HW234026   4.410   0.227   0.301 -1.7859  0.9257  1.3906
 7523SOL     OW34027   0.096   0.244  12.318  0.4528  0.3255  0.2980
 7523SOL    HW134028   0.020   0.243  12.377  0.2020 -0.2360 -0.0367
 7523SOL    HW234029   0.168   0.269  12.376  2.8426  1.3420 -3.1068
 7524SOL     OW34030   0.708   3.544   6.911  0.0734 -0.4151 -0.2889
 7524SOL    HW134031   0.800   3.566   6.920 -0.5415  1.4180  1.5407
 7524SOL    HW234032   0.673   3.625   6.947  3.0610  1.0692 -0.7383
 7525SOL     OW34033   3.673   2.805   3.553  0.3199 -0.0558 -0.0381
 7525SOL    HW134034   3.657   2.826   3.460  0.5684  0.1433 -0.0344
 7525SOL    HW234035   3.657   2.711   3.557 -0.1182  0.0363  0.4705
 7526SOL     OW34036   2.473   3.450   6.896  0.2306  0.0865 -0.3267
 7526SOL    HW134037   2.419   3.434   6.973 -0.4141  0.8427 -0.6190
 7526SOL    HW234038   2.552   3.415   6.938  0.1204 -0.0145 -0.2068
 7527SOL     OW34039   3.286   2.162   7.030  0.7465  0.3547  0.0013
 7527SOL    HW134040   3.234   2.239   7.050  1.4936  0.7847  0.2929
 7527SOL    HW234041   3.262   2.101   7.100 -0.3426 -0.3106 -0.9517
 7528SOL     OW34042   1.296   1.438  11.745 -0.0019  0.0021  0.0974
 7528SOL    HW134043   1.281   1.351  11.708  0.2012  0.7665 -1.7989
 7528SOL    HW234044   1.325   1.408  11.831  0.7195  2.2131  0.6237
 7529SOL     OW34045   4.210   2.545  15.240 -0.1306 -0.1963  0.4380
 7529SOL    HW134046   4.283   2.583  15.289  2.8104 -2.8994 -1.8833
 7529SOL    HW234047   4.153   2.621  15.241 -0.2024 -0.2468 -0.2478
 7530SOL     OW34048   1.604   0.522   7.700  0.0515  0.6883  0.6623
 7530SOL    HW134049   1.525   0.496   7.747 -1.0113 -0.0978 -1.5533
 7530SOL    HW234050   1.606   0.479   7.615 -0.7593  3.0031 -0.5370
 7531SOL     OW34051   1.777   2.961   0.977 -0.4011  0.2420  0.1090
 7531SOL    HW134052   1.806   2.940   1.066 -1.8073 -0.2578  0.4528
 7531SOL    HW234053   1.858   2.946   0.929  0.4943  5.0918  0.1238
 7532SOL     OW34054   2.277   4.650   4.033 -0.2041 -0.2736 -0.4507
 7532SOL    HW134055   2.333   4.712   4.080  2.1769 -1.2619 -1.9720
 7532SOL    HW234056   2.187   4.679   4.050 -0.2566 -0.5008 -0.3402
 7533SOL     OW34057   3.212   2.780   5.214 -0.2552  0.1893  0.3282
 7533SOL    HW134058   3.145   2.735   5.162 -0.5720  0.7995  0.2040
 7533SOL    HW234059   3.186   2.752   5.302  0.8399 -1.8065 -0.0096
 7534SOL     OW34060   1.012   2.259   2.335  0.1379  0.2656  0.1858
 7534SOL    HW134061   0.988   2.223   2.249  0.6926 -1.2207  0.6518
 7534SOL    HW234062   1.102   2.289   2.316  0.6381 -0.6827  1.0937
 7535SOL     OW34063   3.771   3.821  10.617 -0.0769 -0.6347 -0.0430
 7535SOL    HW134064   3.756   3.749  10.678 -0.9384 -0.1816  0.2876
 7535SOL    HW234065   3.863   3.835  10.638  0.0831  1.3484 -2.1410
 7536SOL     OW34066   0.132   1.436   1.638  0.0001 -0.1883  0.4402
 7536SOL    HW134067   0.040   1.460   1.650 -0.2731 -1.4534  0.8871
 7536SOL    HW234068   0.163   1.504   1.577  0.0888 -1.1526 -0.5975
 7537SOL     OW34069   1.647   3.384  16.796  0.0177  0.6465 -0.1082
 7537SOL    HW134070   1.567   3.362  16.748 -0.0381  1.0242 -0.1941
 7537SOL    HW234071   1.706   3.335  16.738 -0.9438 -1.0377  0.3388
 7538SOL     OW34072   1.489   2.182  15.419  0.0289 -0.1836 -0.1863
 7538SOL    HW134073   1.578   2.154  15.439 -1.1453 -1.5653  3.1448
 7538SOL    HW234074   1.469   2.199  15.511 -0.0859  2.3515 -0.6793
 7539SOL     OW34075   1.817   3.723   0.186 -0.4589  0.0754  0.0377
 7539SOL    HW134076   1.771   3.711   0.103 -0.2284  1.0273 -0.2306
 7539SOL    HW234077   1.805   3.638   0.228  0.8414  0.0577  0.3768
 7540SOL     OW34078   3.357   2.561  14.455 -0.4238 -0.2287  0.3911
 7540SOL    HW134079   3.309   2.564  14.372  0.4167 -1.7996 -0.1432
 7540SOL    HW234080   3.318   2.626  14.513 -0.0459 -0.6978  1.1731
 7541SOL     OW34081   0.249   0.528   6.796 -0.4567  0.0130 -0.2213
 7541SOL    HW134082   0.317   0.532   6.863  0.6321 -0.3286 -1.3126
 7541SOL    HW234083   0.252   0.613   6.751  1.0225  0.0666 -0.0226
 7542SOL     OW34084   4.511   1.662   7.850 -0.3416 -0.2106  0.1048
 7542SOL    HW134085   4.435   1.667   7.793 -0.1918  2.2143  0.1389
 7542SOL    HW234086   4.591   1.683   7.801 -0.1644  1.1211  0.9656
 7543SOL     OW34087   1.411   3.934   8.757  0.4528  0.1989 -0.0782
 7543SOL    HW134088   1.425   4.027   8.777 -1.5423  0.7300 -1.1086
 7543SOL    HW234089   1.319   3.919   8.779  0.3691 -1.6416 -1.6375
 7544SOL     OW34090   1.666   0.052   6.944 -0.1660 -0.2405 -0.8541
 7544SOL    HW134091   1.650   0.036   6.851  1.0786  1.2272 -1.3226
 7544SOL    HW234092   1.714   0.135   6.936 -0.9090  0.2104 -0.5497
 7545SOL     OW34093   1.507   1.873   5.158 -0.1522  0.1086 -0.0079
 7545SOL    HW134094   1.579   1.828   5.111 -1.0321 -1.9740  0.6338
 7545SOL    HW234095   1.436   1.813   5.136 -0.6272  0.7058 -0.0878
 7546SOL     OW34096   0.649   3.168  11.875  0.1187 -0.3612 -0.8155
 7546SOL    HW134097   0.678   3.077  11.869 -2.0469 -1.0771 -0.1463
 7546SOL    HW234098   0.581   3.171  11.942  0.2994 -1.7588 -0.5576
 7547SOL     OW34099   2.220   2.586   1.499 -0.5880 -0.4358 -0.1647
 7547SOL    HW134100   2.235   2.600   1.593 -0.3158 -0.2802 -0.2321
 7547SOL    HW234101   2.195   2.671   1.462 -0.3377 -0.3338 -0.0969
 7548SOL     OW34102   1.443   4.687   9.229  0.2166  0.0919  0.2084
 7548SOL    HW134103   1.419   4.616   9.169  1.5884  0.0791 -0.3228
 7548SOL    HW234104   1.536   4.667   9.240  0.3794  0.6439 -0.2205
 7549SOL     OW34105   4.447   3.836   6.149  0.2211  0.3217  0.0626
 7549SOL    HW134106   4.431   3.868   6.238 -0.0546  1.2424 -0.3131
 7549SOL    HW234107   4.539   3.812   6.155  0.4791  1.7285  1.5315
 7550SOL     OW34108   1.246   1.457  14.678 -0.5090  0.7856  0.5979
 7550SOL    HW134109   1.178   1.475  14.612  0.3985 -0.3400 -0.6317
 7550SOL    HW234110   1.260   1.546  14.712 -0.3535  1.2358 -0.6521
 7551SOL     OW34111   3.491   3.282  15.343  0.5093  0.2366  0.2771
 7551SOL    HW134112   3.422   3.344  15.317 -0.2729 -1.3671 -1.4567
 7551SOL    HW234113   3.512   3.234  15.263  1.2150 -0.4479  0.8771
 7552SOL     OW34114   1.411   2.821  14.321 -0.0058 -0.0810  0.2700
 7552SOL    HW134115   1.321   2.850  14.306  0.1105 -0.7424 -1.6230
 7552SOL    HW234116   1.408   2.775  14.405 -2.4339  1.5723  1.0806
 7553SOL     OW34117   0.483   1.723   8.594 -0.2993  0.2292  0.4238
 7553SOL    HW134118   0.518   1.786   8.531  0.6937 -0.1557  0.5933
 7553SOL    HW234119   0.402   1.700   8.548  0.7513 -0.4130 -1.0671
 7554SOL     OW34120   2.787   2.929   8.632  0.4495  0.0499  0.8341
 7554SOL    HW134121   2.697   2.952   8.608  0.5849  1.4665  1.7062
 7554SOL    HW234122   2.767   2.865   8.699 -2.4182  0.5523  0.4674
 7555SOL     OW34123   0.664   2.287   7.712  0.2267 -0.1208 -0.8695
 7555SOL    HW134124   0.709   2.354   7.661  0.0176  0.1715 -0.6692
 7555SOL    HW234125   0.731   2.266   7.777  0.7910 -1.2240 -1.8216
 7556SOL     OW34126   4.103   0.344  12.013  0.2236  0.1761 -0.0409
 7556SOL    HW134127   4.167   0.327  11.944  0.3692  2.6413 -0.5320
 7556SOL    HW234128   4.150   0.316  12.091 -2.1630 -0.2025  1.2685
 7557SOL     OW34129   4.701   2.893   5.289  0.2533 -0.1543 -0.4965
 7557SOL    HW134130   4.606   2.887   5.282  0.2113  1.8318 -1.7031
 7557SOL    HW234131   0.001   2.893   5.195  3.3480  0.0987  0.1684
 7558SOL     OW34132   4.039   3.952   3.287 -0.0092 -0.1163  0.2324
 7558SOL    HW134133   4.093   4.021   3.247 -0.4007 -0.1589 -0.3740
 7558SOL    HW234134   3.950   3.960   3.253  0.9355  1.5244 -1.8606
 7559SOL     OW34135   0.678   0.346   5.735 -0.5034  0.6367  0.3632
 7559SOL    HW134136   0.715   0.270   5.778 -2.3918 -2.9842 -4.3794
 7559SOL    HW234137   0.598   0.361   5.786 -0.3746 -1.3856  1.1441
 7560SOL     OW34138   1.063   0.378   0.660 -0.2984 -0.3119  0.4586
 7560SOL    HW134139   1.093   0.462   0.625  1.8750 -0.2000  2.5427
 7560SOL    HW234140   0.993   0.415   0.715 -1.7179 -0.0817 -1.4797
 7561SOL     OW34141   1.118   1.708   3.663  0.0692 -0.3589  0.6362
 7561SOL    HW134142   1.121   1.612   3.664  0.3132 -0.3742 -1.9153
 7561SOL    HW234143   1.137   1.730   3.755  0.3782  1.9270  0.0030
 7562SOL     OW34144   1.530   2.234   0.527 -0.1599  0.0424  0.0139
 7562SOL    HW134145   1.465   2.170   0.497  2.0019 -2.3776  0.5123
 7562SOL    HW234146   1.591   2.184   0.581  0.6089  0.2580 -0.6648
 7563SOL     OW34147   1.672   2.408   2.839  0.2541 -0.6636 -0.6263
 7563SOL    HW134148   1.685   2.313   2.844  1.0545 -0.4727  0.9190
 7563SOL    HW234149   1.628   2.413   2.754 -2.3397 -1.0401  0.6949
 7564SOL     OW34150   4.163   1.284   5.111  0.5221  0.1966 -0.7659
 7564SOL    HW134151   4.238   1.340   5.132 -0.6763  1.8326 -0.8512
 7564SOL    HW234152   4.098   1.335   5.063  1.6744  2.3905  0.0255
 7565SOL     OW34153   0.974   3.373   3.645 -0.1845 -0.2000  0.3352
 7565SOL    HW134154   0.930   3.357   3.561  2.3753 -0.4883 -0.9357
 7565SOL    HW234155   0.957   3.467   3.656  0.1704 -0.0626 -0.2795
 7566SOL     OW34156   2.133   0.762  10.841 -0.1580 -0.3036 -0.4095
 7566SOL    HW134157   2.110   0.739  10.931 -1.6951 -0.1957 -0.7601
 7566SOL    HW234158   2.175   0.680  10.815 -0.7731 -1.4909  2.3471
 7567SOL     OW34159   0.138   1.440   4.148  0.5124  0.0596 -0.5721
 7567SOL    HW134160   0.131   1.523   4.100 -1.7429  1.4788  2.2035
 7567SOL    HW234161   0.214   1.455   4.204 -0.1209  1.3454 -0.0491
 7568SOL     OW34162   4.251   2.136   5.637  0.6875  0.0858  0.4256
 7568SOL    HW134163   4.257   2.222   5.595  0.6039 -0.7126 -1.2001
 7568SOL    HW234164   4.220   2.079   5.567  0.6731 -2.3409  2.4447
 7569SOL     OW34165   2.930   0.430   9.315 -0.0116  0.4863 -0.1915
 7569SOL    HW134166   2.891   0.454   9.400  1.2667 -0.0686  0.5430
 7569SOL    HW234167   2.971   0.511   9.286  2.0090 -0.1035  0.9736
 7570SOL     OW34168   4.457   0.571   2.604 -0.7284  0.4313  0.4250
 7570SOL    HW134169   4.492   0.567   2.694  2.6286 -1.5102 -0.9476
 7570SOL    HW234170   4.439   0.664   2.611 -2.5651  0.1927 -1.1284
 7571SOL     OW34171   1.354   2.901   4.822  0.3544  0.0668 -0.1071
 7571SOL    HW134172   1.392   2.844   4.755 -1.1098 -1.3379  0.2539
 7571SOL    HW234173   1.436   2.932   4.860 -0.1934  1.4624 -0.0434
 7572SOL     OW34174   3.304   0.991  11.502 -0.4874  0.6642  0.0439
 7572SOL    HW134175   3.326   0.984  11.409  2.3966  2.2575  0.5748
 7572SOL    HW234176   3.290   0.899  11.524 -0.0415  0.7056  0.5054
 7573SOL     OW34177   0.964   2.785   9.571 -0.1637 -0.2132  0.2460
 7573SOL    HW134178   0.914   2.712   9.608  0.3268 -0.3710  0.5891
 7573SOL    HW234179   1.002   2.758   9.487 -0.6253 -2.9660  0.9051
 7574SOL     OW34180   3.945   1.276   8.405  0.3564 -0.5518 -0.1088
 7574SOL    HW134181   3.884   1.349   8.398  1.3738  0.2819 -0.1671
 7574SOL    HW234182   3.962   1.247   8.315  1.0749 -1.5313  0.3400
 7575SOL     OW34183   2.152   0.147   5.971 -0.5969  0.5917 -0.1740
 7575SOL    HW134184   2.173   0.066   6.017  3.5668  1.0073 -1.3597
 7575SOL    HW234185   2.111   0.099   5.899 -3.1422  0.0043  1.6899
 7576SOL     OW34186   1.851   1.751   2.008  0.1820  0.3701  0.4496
 7576SOL    HW134187   1.850   1.679   1.945  0.1046 -0.3424  1.2586
 7576SOL    HW234188   1.940   1.783   1.994 -0.1508 -0.0583 -2.5125
 7577SOL     OW34189   2.278   2.788   9.251  0.0547  0.4848  0.5522
 7577SOL    HW134190   2.245   2.832   9.173  0.6488  0.8475  0.5106
 7577SOL    HW234191   2.260   2.853   9.320  2.8503 -0.7276  2.4334
 7578SOL     OW34192   1.974   4.271   9.191  0.0300 -0.0874  0.0140
 7578SOL    HW134193   1.899   4.249   9.246  0.9834 -1.6920  0.6887
 7578SOL    HW234194   2.030   4.311   9.257  0.0376  0.7139 -0.4822
 7579SOL     OW34195   0.786   2.190   4.876 -0.2780  0.1080  0.1395
 7579SOL    HW134196   0.850   2.145   4.931  0.1561  1.2889  0.6035
 7579SOL    HW234197   0.846   2.231   4.814 -0.5265 -2.3397 -1.6767
 7580SOL     OW34198   1.855   1.390   1.171  0.4550 -0.5951 -0.7828
 7580SOL    HW134199   1.773   1.389   1.122  1.2972 -0.1592 -2.1823
 7580SOL    HW234200   1.917   1.353   1.108  0.7377  0.8076 -1.3184
 7581SOL     OW34201   1.742   1.757   5.081  0.2465  0.1973 -0.2460
 7581SOL    HW134202   1.755   1.669   5.117 -2.0839 -0.5491 -1.2291
 7581SOL    HW234203   1.826   1.773   5.037  1.6459 -1.8503  1.6674
 7582SOL     OW34204   3.666   1.160   5.606  0.0820 -0.1183 -0.0575
 7582SOL    HW134205   3.731   1.120   5.549  0.1309  1.2498 -0.9635
 7582SOL    HW234206   3.683   1.252   5.583 -1.4705 -0.4546 -2.5060
 7583SOL     OW34207   4.551   3.234   3.659 -0.2399  0.0618  0.0313
 7583SOL    HW134208   4.545   3.206   3.750  0.5995 -1.4418 -0.3607
 7583SOL    HW234209   4.645   3.224   3.642 -1.0583 -4.3354 -1.9115
 7584SOL     OW34210   3.141   1.613   6.970 -0.3061 -0.1207  0.1382
 7584SOL    HW134211   3.073   1.546   6.973  0.0451 -0.6172 -2.8507
 7584SOL    HW234212   3.096   1.697   6.979  0.2406  0.0994  0.8645
 7585SOL     OW34213   1.400   3.451   3.004  0.3631  0.3474 -0.4518
 7585SOL    HW134214   1.351   3.532   3.016 -0.7782 -0.0809 -2.2044
 7585SOL    HW234215   1.446   3.466   2.922 -0.1421 -1.8011 -1.1211
 7586SOL     OW34216   0.582   2.772   4.260  0.3468  0.7900  0.3790
 7586SOL    HW134217   0.491   2.798   4.250 -0.2466 -2.1636 -1.9046
 7586SOL    HW234218   0.621   2.858   4.274  2.1878 -0.0130  0.1826
 7587SOL     OW34219   2.220   3.739  14.521  0.1705 -0.0393 -0.1762
 7587SOL    HW134220   2.190   3.788  14.597 -0.9901 -1.1743  0.1073
 7587SOL    HW234221   2.161   3.664  14.528  0.3517  0.1266  2.8965
 7588SOL     OW34222   0.048   3.110  10.052  0.2039  0.1041  0.3781
 7588SOL    HW134223   4.711   3.050  10.099 -1.8969  0.9396 -1.1491
 7588SOL    HW234224   0.050   3.191  10.104  0.6239  0.1823  0.2404
 7589SOL     OW34225   4.194   1.685  14.492  0.0838 -0.0856  0.0724
 7589SOL    HW134226   4.152   1.635  14.562 -1.4917  1.6094  0.3540
 7589SOL    HW234227   4.165   1.776  14.499 -2.0639 -0.9063  2.0985
 7590SOL     OW34228   4.046   4.074   5.242 -0.8216  0.2021  0.3232
 7590SOL    HW134229   4.082   4.157   5.210 -2.0129  0.0973 -1.2830
 7590SOL    HW234230   4.047   4.023   5.161  2.3165  0.2832  0.3365
 7591SOL     OW34231   3.816   2.282   7.902 -0.0346 -0.1221  0.4825
 7591SOL    HW134232   3.879   2.331   7.849  1.9601 -1.2145  1.8146
 7591SOL    HW234233   3.800   2.339   7.978  0.7485  0.8743 -0.0895
 7592SOL     OW34234   3.950   0.084   7.475  0.0476  0.2327  0.7298
 7592SOL    HW134235   4.003   0.084   7.555  2.0950  1.3810 -0.6060
 7592SOL    HW234236   3.897   0.007   7.491  0.4754 -0.2883 -0.3263
 7593SOL     OW34237   3.538   2.886  12.323  0.0037 -0.2353  0.3297
 7593SOL    HW134238   3.452   2.920  12.348 -0.4168 -0.4430 -0.8570
 7593SOL    HW234239   3.582   2.970  12.336  1.7334 -0.6796 -2.5896
 7594SOL     OW34240   1.853   1.393  10.102  0.1741  0.3947 -0.1979
 7594SOL    HW134241   1.942   1.395  10.066  0.8734  0.4068  1.5245
 7594SOL    HW234242   1.872   1.332  10.173  1.6063 -1.4660 -2.1906
 7595SOL     OW34243   0.498   3.256  14.028  0.0596  0.2952  0.1825
 7595SOL    HW134244   0.585   3.296  14.027 -0.2824  1.0278 -0.2386
 7595SOL    HW234245   0.438   3.319  14.067 -2.4359 -0.9482 -1.5936
 7596SOL     OW34246   0.395   0.101  11.215  0.5992  0.4400 -0.3093
 7596SOL    HW134247   0.397   0.043  11.139  0.7322  0.7139 -0.5180
 7596SOL    HW234248   0.432   0.047  11.285 -0.8548  0.6107  0.5864
 7597SOL     OW34249   4.694   1.692   1.653  0.4001  0.2131  0.1526
 7597SOL    HW134250   4.669   1.604   1.683  0.6660  0.0316 -0.1626
 7597SOL    HW234251   4.611   1.733   1.629 -0.4606 -0.5045  1.9028
 7598SOL     OW34252   1.142   1.059   6.210  0.1523 -0.2312  0.1973
 7598SOL    HW134253   1.082   0.990   6.238 -0.9042  0.0977 -1.2943
 7598SOL    HW234254   1.188   1.079   6.292 -0.8919  1.1077  0.4546
 7599SOL     OW34255   4.709   3.653   3.768 -0.5616 -0.0517  0.0723
 7599SOL    HW134256   4.674   3.690   3.687  1.9600 -0.1021 -1.0373
 7599SOL    HW234257   4.665   3.568   3.778  0.1380 -0.3673  0.4819
 7600SOL     OW34258   1.220   1.839   3.133  0.0627 -0.1741  0.2632
 7600SOL    HW134259   1.158   1.911   3.135 -0.9944 -1.0422 -1.1629
 7600SOL    HW234260   1.285   1.880   3.075 -0.5862  1.4522  0.7093
 7601SOL     OW34261   2.438   0.959   7.348 -0.0460 -1.0486  0.0843
 7601SOL    HW134262   2.370   0.984   7.285  1.6715 -0.0582 -1.3566
 7601SOL    HW234263   2.404   0.876   7.382 -2.7773 -1.2303 -3.1140
 7602SOL     OW34264   3.613   0.356  13.789  0.1576 -0.2253 -0.0257
 7602SOL    HW134265   3.584   0.375  13.700 -1.3833 -0.0162  0.5173
 7602SOL    HW234266   3.690   0.412  13.773  0.2762 -0.3824 -0.0080
 7603SOL     OW34267   2.744   3.508   5.982  0.2655  0.4845 -0.2196
 7603SOL    HW134268   2.695   3.488   6.063  2.5054 -0.7507  0.8116
 7603SOL    HW234269   2.808   3.437   5.988 -0.1296  0.2012  0.6439
 7604SOL     OW34270   4.349   3.020   2.474 -0.2048  0.1621  0.8697
 7604SOL    HW134271   4.299   2.992   2.552 -1.6080 -0.0925 -0.1099
 7604SOL    HW234272   4.331   3.114   2.475 -2.0937 -0.1716 -1.6379
 7605SOL     OW34273   4.208   1.086  13.726  0.1483 -0.1149 -0.5268
 7605SOL    HW134274   4.200   1.134  13.808  2.5633 -0.0449 -0.3208
 7605SOL    HW234275   4.118   1.056  13.715 -0.4823  1.7635 -0.5420
 7606SOL     OW34276   1.547   4.269   3.255 -0.2517  0.5232 -0.2754
 7606SOL    HW134277   1.501   4.296   3.175  0.4035  0.7095 -0.5864
 7606SOL    HW234278   1.476   4.241   3.312 -1.4131  0.1487 -1.9012
 7607SOL     OW34279   3.019   0.052   6.312 -0.0675 -0.2620  0.5730
 7607SOL    HW134280   3.029   4.690   6.265  2.0818  0.9134 -1.1043
 7607SOL    HW234281   3.052   0.030   6.399  1.2179 -0.2995  0.0886
 7608SOL     OW34282   2.608   4.106   5.741  0.1516  0.1789 -0.3022
 7608SOL    HW134283   2.659   4.184   5.722 -0.2273  0.2982 -0.8496
 7608SOL    HW234284   2.657   4.056   5.806  0.6309 -1.0032 -1.5767
 7609SOL     OW34285   3.413   4.080  16.418 -0.0967 -0.3315  0.5429
 7609SOL    HW134286   3.409   4.164  16.374 -0.6674 -1.2180 -1.1080
 7609SOL    HW234287   3.384   4.016  16.353  1.1615  0.9000 -1.2080
 7610SOL     OW34288   2.217   4.611  11.604  0.1974 -0.1753 -0.2743
 7610SOL    HW134289   2.214   4.706  11.596 -1.5323 -0.2784 -0.8878
 7610SOL    HW234290   2.295   4.584  11.556 -0.7287 -0.9936 -1.3026
 7611SOL     OW34291   2.262   3.155   8.811  0.0151 -0.0692 -0.4390
 7611SOL    HW134292   2.175   3.192   8.831  0.3887  0.1583  0.7914
 7611SOL    HW234293   2.251   3.098   8.735  0.0716  0.7331 -1.0525
 7612SOL     OW34294   1.716   2.151  17.526 -0.0568 -0.3523 -0.6793
 7612SOL    HW134295   1.780   2.126  17.459 -0.1089 -2.0720 -0.0900
 7612SOL    HW234296   1.635   2.108  17.499 -0.5474 -1.4419  2.4777
 7613SOL     OW34297   1.117   2.054   7.305  0.5550 -0.3087 -0.1865
 7613SOL    HW134298   1.196   2.090   7.346  0.0779  0.3450  0.1567
 7613SOL    HW234299   1.080   2.132   7.265  0.1464 -0.6733 -0.5214
 7614SOL     OW34300   4.539   0.909  11.287  0.0625 -0.3032 -0.1291
 7614SOL    HW134301   4.588   0.973  11.235  0.1108  0.9617  1.4838
 7614SOL    HW234302   4.531   0.826  11.240 -1.5736 -0.2902  0.1427
 7615SOL     OW34303   4.347   1.846   3.189 -0.2089 -0.4336 -0.0118
 7615SOL    HW134304   4.370   1.781   3.255  1.4665  0.3707  0.1822
 7615SOL    HW234305   4.251   1.852   3.198 -0.4227 -1.0797 -1.9184
 7616SOL     OW34306   0.225   4.296   6.007 -0.0477 -0.2439 -0.0839
 7616SOL    HW134307   0.199   4.344   6.085  2.6304 -2.1185  1.9805
 7616SOL    HW234308   0.189   4.344   5.933 -1.0144 -0.3496  0.3180
 7617SOL     OW34309   1.231   2.818   3.904  1.0266  0.0775 -0.1292
 7617SOL    HW134310   1.220   2.723   3.916  1.3793 -0.0042 -0.4371
 7617SOL    HW234311   1.262   2.828   3.814  0.2074  0.0002 -0.4172
 7618SOL     OW34312   1.240   0.458   8.231  0.3189  0.2689  0.0717
 7618SOL    HW134313   1.208   0.391   8.171  0.9996 -0.3781  0.4341
 7618SOL    HW234314   1.159   0.481   8.276 -0.8750 -2.7613 -0.5408
 7619SOL     OW34315   3.030   4.338   5.703  0.1168 -0.7917  0.4414
 7619SOL    HW134316   3.028   4.337   5.607 -0.6121 -1.2148  0.4598
 7619SOL    HW234317   3.080   4.417   5.721 -2.5081  1.5669 -2.6504
 7620SOL     OW34318   1.043   0.397   7.739  0.8456 -0.0247  0.8373
 7620SOL    HW134319   1.055   0.421   7.647 -0.7006  0.9051  0.8702
 7620SOL    HW234320   1.078   0.309   7.751  0.3520 -0.1836  1.1056
 7621SOL     OW34321   1.350   2.155   3.094  0.2875 -0.0826 -0.2010
 7621SOL    HW134322   1.257   2.175   3.100  0.3631  0.3110 -0.3513
 7621SOL    HW234323   1.366   2.148   3.000 -1.1145  0.1920 -0.4596
 7622SOL     OW34324   2.143   1.660   3.140  0.1219  0.4095  0.0143
 7622SOL    HW134325   2.099   1.728   3.090 -1.5797 -0.7436 -0.1023
 7622SOL    HW234326   2.165   1.589   3.080  1.0649 -0.1823  1.0572
 7623SOL     OW34327   4.679   1.337  14.925  0.5413 -0.2457 -0.8853
 7623SOL    HW134328   4.630   1.370  14.851  0.7517 -1.6460 -1.6339
 7623SOL    HW234329   4.659   1.244  14.937  1.6081 -0.4379 -0.5772
 7624SOL     OW34330   4.124   4.249   3.226 -0.2614 -0.5781 -0.7862
 7624SOL    HW134331   4.166   4.331   3.203  0.9697 -1.4746 -1.7678
 7624SOL    HW234332   4.042   4.240   3.178 -0.9192 -1.0766  0.4197
 7625SOL     OW34333   2.503   0.740  10.634  0.0777  0.1580 -0.1747
 7625SOL    HW134334   2.555   0.818  10.651  0.4090 -0.1109  0.0437
 7625SOL    HW234335   2.571   0.679  10.603  1.1269  1.3456 -0.1856
 7626SOL     OW34336   1.981   2.094   7.127 -0.1254 -0.2114 -0.7715
 7626SOL    HW134337   1.925   2.165   7.096 -2.7734 -1.6077  0.8379
 7626SOL    HW234338   1.923   2.032   7.171  0.7172  0.8574  1.8707
 7627SOL     OW34339   0.530   0.022   5.426 -0.0816 -0.3424 -0.1226
 7627SOL    HW134340   0.601   4.708   5.372 -0.3367  1.1472 -1.4258
 7627SOL    HW234341   0.464   4.686   5.386 -0.6549 -1.3046  2.2435
 7628SOL     OW34342   4.219   1.642  14.060 -0.0089 -0.3086  0.3084
 7628SOL    HW134343   4.212   1.735  14.080 -0.9988 -0.2997 -0.0630
 7628SOL    HW234344   4.301   1.636  14.010  0.7683 -2.0937  1.8025
 7629SOL     OW34345   1.159   2.540   4.338  0.5436  0.6273 -0.7358
 7629SOL    HW134346   1.238   2.538   4.392  0.5125 -0.2316 -0.7201
 7629SOL    HW234347   1.146   2.634   4.323 -0.0026  0.9474  1.7358
 7630SOL     OW34348   0.920   2.333  14.663 -0.1836 -0.2387 -0.1712
 7630SOL    HW134349   0.970   2.371  14.735 -0.0062 -0.8831  0.0393
 7630SOL    HW234350   0.841   2.387  14.665 -0.2649 -0.3862  0.3640
 7631SOL     OW34351   2.687   4.281   4.729  0.2216 -0.5687 -0.1361
 7631SOL    HW134352   2.634   4.353   4.761  0.0551 -1.0609  0.6894
 7631SOL    HW234353   2.722   4.247   4.811 -0.8734  0.6220  0.8147
 7632SOL     OW34354   4.375   2.922   1.476 -0.0241  0.0298 -0.0233
 7632SOL    HW134355   4.405   2.839   1.512  1.2690  0.4353 -0.1903
 7632SOL    HW234356   4.430   2.990   1.515  1.1687 -0.8628 -0.1606
 7633SOL     OW34357   1.875   3.271   5.994  0.1669  0.5268 -0.4107
 7633SOL    HW134358   1.841   3.357   5.968  1.3884  0.4367 -2.3113
 7633SOL    HW234359   1.858   3.267   6.088 -1.4009 -2.2450 -0.8291
 7634SOL     OW34360   1.160   3.579   3.103 -0.7293  0.7178  0.2925
 7634SOL    HW134361   1.077   3.620   3.126 -1.9230 -1.3639 -0.2680
 7634SOL    HW234362   1.146   3.499   3.153 -0.3131  1.8362  2.2027
 7635SOL     OW34363   1.485   4.213   4.142  0.0713 -0.0586 -0.0430
 7635SOL    HW134364   1.451   4.250   4.060 -0.5240  0.1451  0.2943
 7635SOL    HW234365   1.571   4.252   4.154  0.4294 -1.4939  1.9353
 7636SOL     OW34366   2.334   0.405   4.165  0.5637  0.3493 -0.1798
 7636SOL    HW134367   2.360   0.331   4.220 -3.1335 -2.1611 -1.8130
 7636SOL    HW234368   2.360   0.366   4.082 -0.8262 -2.5542  0.7291
 7637SOL     OW34369   1.756   1.864   5.900 -0.5881  0.7583 -0.0328
 7637SOL    HW134370   1.699   1.851   5.976  0.3907 -4.3046 -0.1635
 7637SOL    HW234371   1.759   1.779   5.856  2.8810  0.2996  1.0450
 7638SOL     OW34372   0.844   3.992  17.068  0.5473 -0.3275 -0.2922
 7638SOL    HW134373   0.810   4.049  17.137  1.4248 -0.7815  0.5242
 7638SOL    HW234374   0.865   4.062  17.006 -0.1636  0.7309  0.6618
 7639SOL     OW34375   1.721   3.440   7.719  0.0543 -0.0455  0.0744
 7639SOL    HW134376   1.750   3.435   7.628  1.4995  0.0250  0.5355
 7639SOL    HW234377   1.646   3.380   7.711  0.3060 -0.1582 -1.4321
 7640SOL     OW34378   2.994   3.359  13.351  0.1412  0.4148  0.2409
 7640SOL    HW134379   2.982   3.419  13.277  3.4424 -1.0554 -1.4922
 7640SOL    HW234380   3.024   3.431  13.407  0.8494  1.0801 -0.9978
 7641SOL     OW34381   0.312   1.463   9.862  0.5594 -0.7026  0.2517
 7641SOL    HW134382   0.219   1.479   9.874  1.0757 -0.5437  4.0797
 7641SOL    HW234383   0.340   1.522   9.933  0.3036 -3.8785  3.0095
 7642SOL     OW34384   4.415   3.707   4.813 -0.1894  0.4205  0.2522
 7642SOL    HW134385   4.340   3.767   4.820  0.2930  0.9587  0.8300
 7642SOL    HW234386   4.390   3.660   4.734 -0.0139 -0.6296  0.8174
 7643SOL     OW34387   0.124   3.924   2.126 -0.1659 -0.4251  0.1158
 7643SOL    HW134388   0.068   3.934   2.049  1.6347  0.5765 -1.0429
 7643SOL    HW234389   0.084   3.853   2.178 -1.9270  1.2801  1.0763
 7644SOL     OW34390   3.713   1.080   5.008 -0.5341  0.3420 -0.3584
 7644SOL    HW134391   3.701   1.162   5.054  2.0634  0.4552  0.0807
 7644SOL    HW234392   3.771   1.037   5.071 -1.4121  0.9855  0.8807
 7645SOL     OW34393   2.307   1.173   9.089  0.3257  0.1987 -0.6564
 7645SOL    HW134394   2.334   1.111   9.021 -0.5281 -0.9547  0.0497
 7645SOL    HW234395   2.259   1.116   9.149  0.6057  0.9328  0.2471
 7646SOL     OW34396   3.677   1.236   9.149 -0.0889 -0.0695 -0.3528
 7646SOL    HW134397   3.670   1.265   9.240  2.6527  3.5341 -1.2727
 7646SOL    HW234398   3.709   1.322   9.120  0.6810  0.5025  2.1668
 7647SOL     OW34399   4.679   3.404   1.919  0.4600 -0.3728  0.5240
 7647SOL    HW134400   4.644   3.485   1.955  2.1524  1.2393 -1.4174
 7647SOL    HW234401   4.716   3.351   1.990 -0.0063 -1.1806  0.1606
 7648SOL     OW34402   3.987   4.178   4.075 -0.9243  0.1709  0.1143
 7648SOL    HW134403   4.043   4.255   4.087 -0.5528  0.2210 -2.0268
 7648SOL    HW234404   4.039   4.106   4.111 -2.2460 -0.4663  0.7634
 7649SOL     OW34405   4.350   0.154   7.978  0.7756  0.0493 -0.5859
 7649SOL    HW134406   4.358   0.061   7.998 -0.6067 -0.2858 -1.5551
 7649SOL    HW234407   4.287   0.187   8.042  0.6913  1.5412 -1.4394
 7650SOL     OW34408   2.871   4.671   0.505 -0.0058 -0.1492 -0.5098
 7650SOL    HW134409   2.932   0.021   0.484  0.1136 -0.4572 -1.1912
 7650SOL    HW234410   2.888   4.604   0.439  0.2862  0.4744 -1.0628
 7651SOL     OW34411   0.389   2.798   7.357 -0.0345 -0.6636 -0.0655
 7651SOL    HW134412   0.384   2.706   7.382 -0.6669 -0.6378 -0.0865
 7651SOL    HW234413   0.471   2.825   7.399 -0.5272 -2.3396  1.9365
 7652SOL     OW34414   1.133   2.017   5.300  0.1782  0.1226 -0.2174
 7652SOL    HW134415   1.152   1.924   5.283 -0.5635  0.0234 -0.4937
 7652SOL    HW234416   1.203   2.033   5.363  1.6260  1.6587 -2.2464
 7653SOL     OW34417   2.384   1.698   9.586 -0.1420 -0.2789 -0.0502
 7653SOL    HW134418   2.449   1.693   9.515  0.0848 -0.7638  0.1858
 7653SOL    HW234419   2.442   1.687   9.662  0.1491  0.7842 -0.1155
 7654SOL     OW34420   3.597   3.280   8.472  0.2843 -0.4979  0.0734
 7654SOL    HW134421   3.665   3.344   8.492  0.4366 -0.9277  0.9422
 7654SOL    HW234422   3.555   3.310   8.392  0.7363  0.0518  0.0453
 7655SOL     OW34423   2.910   1.795   4.583 -0.2753  0.3648  0.3498
 7655SOL    HW134424   2.937   1.745   4.506 -0.7300  2.5635 -1.2422
 7655SOL    HW234425   2.816   1.801   4.567 -0.2177 -0.2902 -0.2409
 7656SOL     OW34426   2.608   0.006   2.254  0.0461  0.2286  0.5533
 7656SOL    HW134427   2.681   4.709   2.194 -0.4923 -0.8425  0.2255
 7656SOL    HW234428   2.544   0.022   2.185  2.0412  0.3460 -1.2774
 7657SOL     OW34429   4.397   0.146  11.646  0.2855  0.0995  0.0260
 7657SOL    HW134430   4.464   0.210  11.622 -0.2652  0.7998  0.3697
 7657SOL    HW234431   4.334   0.149  11.574 -0.2222  3.1607  0.6143
 7658SOL     OW34432   4.127   1.695   3.770  0.1067 -0.0001 -0.1607
 7658SOL    HW134433   4.198   1.746   3.808 -0.5502 -0.1789  1.2910
 7658SOL    HW234434   4.046   1.735   3.803  0.1819  1.2108 -1.4288
 7659SOL     OW34435   1.716   1.853   1.703  0.1732 -0.9950  0.3077
 7659SOL    HW134436   1.721   1.948   1.713  0.4971 -0.9925  0.1080
 7659SOL    HW234437   1.809   1.828   1.712  0.0330 -1.8482 -0.5794
 7660SOL     OW34438   3.643   3.835   5.671  0.4653  0.5188  0.1233
 7660SOL    HW134439   3.640   3.930   5.666  0.9525  0.5078 -0.4228
 7660SOL    HW234440   3.552   3.806   5.677 -0.2019  2.5638 -0.3259
 7661SOL     OW34441   0.178   0.130  11.374 -0.3843  0.0614  0.1003
 7661SOL    HW134442   0.154   0.058  11.315  1.4136 -1.6135  1.3950
 7661SOL    HW234443   0.270   0.141  11.349 -0.5297  1.4680  0.1748
 7662SOL     OW34444   0.249   2.648  17.410 -0.1383 -0.0805  0.2388
 7662SOL    HW134445   0.325   2.704  17.421 -0.6967  0.4136  1.5635
 7662SOL    HW234446   0.242   2.665  17.316  0.3763 -0.9852  0.0331
 7663SOL     OW34447   1.726   2.975  10.855 -0.2039 -0.7198 -0.2329
 7663SOL    HW134448   1.743   3.040  10.923  1.7198 -0.0418 -1.3501
 7663SOL    HW234449   1.680   2.904  10.899  1.9018 -2.5231 -0.9868
 7664SOL     OW34450   4.570   1.332   9.483  0.1041  0.1383  0.0995
 7664SOL    HW134451   4.495   1.292   9.527  0.0294  2.8830  2.4910
 7664SOL    HW234452   4.566   1.304   9.392 -0.5341  1.0355 -0.1549
 7665SOL     OW34453   3.632   4.097   5.644  0.4516  0.5432  0.4532
 7665SOL    HW134454   3.617   4.111   5.738  0.6292 -1.5624  0.7915
 7665SOL    HW234455   3.666   4.185   5.631  1.7704 -0.1367 -0.6965
 7666SOL     OW34456   3.030   0.354   5.594 -0.5265  0.0028  0.4885
 7666SOL    HW134457   2.988   0.392   5.671 -0.3142  2.1828 -0.4744
 7666SOL    HW234458   2.986   0.270   5.579  0.2287 -0.3605  0.2776
 7667SOL     OW34459   2.752   3.340  15.866  0.0994 -0.1551 -0.5352
 7667SOL    HW134460   2.745   3.246  15.878  2.4205 -0.1526  0.8964
 7667SOL    HW234461   2.842   3.353  15.894  0.2646 -1.5722 -0.4325
 7668SOL     OW34462   2.389   3.645   2.494 -0.3053  0.5947  0.2199
 7668SOL    HW134463   2.386   3.663   2.400  2.1758 -1.2010 -0.1905
 7668SOL    HW234464   2.463   3.586   2.507  0.4202  1.3436 -0.4981
 7669SOL     OW34465   1.035   4.601   6.834  0.6385  0.1942  0.1491
 7669SOL    HW134466   0.958   4.635   6.879  0.3660  0.5055 -0.5536
 7669SOL    HW234467   0.990   4.579   6.753 -0.6648  0.5584  0.7872
 7670SOL     OW34468   1.435   0.207   5.853 -0.1353  0.0966 -0.2502
 7670SOL    HW134469   1.438   0.297   5.886  0.3640 -0.2097  0.5515
 7670SOL    HW234470   1.355   0.205   5.800  0.3237  0.4162 -0.9411
 7671SOL     OW34471   1.653   4.225  16.108 -0.1872 -0.4836 -0.4738
 7671SOL    HW134472   1.560   4.229  16.132 -0.2383 -1.8289 -0.4243
 7671SOL    HW234473   1.699   4.187  16.182  1.2157  2.6464  0.2491
 7672SOL     OW34474   2.493   3.871   8.624 -0.0246  0.0242 -0.6930
 7672SOL    HW134475   2.497   3.852   8.717 -1.1406  1.0002 -0.4589
 7672SOL    HW234476   2.586   3.865   8.600  0.0478  1.0773 -0.6914
 7673SOL     OW34477   1.708   3.205   3.701  0.0994  0.9811  0.5561
 7673SOL    HW134478   1.622   3.217   3.742 -0.1959 -3.0649  1.0364
 7673SOL    HW234479   1.719   3.114   3.728  0.1537  1.3248  1.7194
 7674SOL     OW34480   2.388   3.572   8.959  0.2823  0.2583 -1.1562
 7674SOL    HW134481   2.384   3.485   8.997 -2.8769  0.7716 -0.3251
 7674SOL    HW234482   2.476   3.596   8.988  1.4680 -0.2350 -4.3110
 7675SOL     OW34483   2.897   4.556   9.601  0.2223 -0.1290 -0.3407
 7675SOL    HW134484   2.912   4.650   9.611 -0.4123  0.1425 -1.8145
 7675SOL    HW234485   2.983   4.518   9.617 -0.8838 -0.9734  3.4580
 7676SOL     OW34486   2.637   0.008  10.403 -0.1220 -0.3085 -0.1625
 7676SOL    HW134487   2.690   0.088  10.409 -0.6231 -0.1142  1.6440
 7676SOL    HW234488   2.677   4.673  10.470  1.3842  0.9377 -0.0440
 7677SOL     OW34489   4.344   4.632   9.015  0.1962  0.0768  0.4946
 7677SOL    HW134490   4.300   4.626   9.100  2.6555  1.9452  1.9003
 7677SOL    HW234491   4.435   4.611   9.038  1.9200  4.0860 -2.6556
 7678SOL     OW34492   1.057   0.619   5.783 -0.1005 -0.2122 -0.0988
 7678SOL    HW134493   1.012   0.646   5.863  0.9689 -1.2481  0.8483
 7678SOL    HW234494   0.977   0.593   5.738 -1.9313  0.5922  2.7031
 7679SOL     OW34495   4.446   0.417   8.700  0.0714 -0.0495 -0.1015
 7679SOL    HW134496   4.487   0.363   8.632 -0.0976  0.8358 -0.9139
 7679SOL    HW234497   4.361   0.374   8.703  0.5897 -1.2463 -2.1740
 7680SOL     OW34498   2.418   0.467   4.739  0.0193  0.4538 -0.4189
 7680SOL    HW134499   2.421   0.380   4.701 -0.2772  0.9587 -1.5981
 7680SOL    HW234500   2.344   0.461   4.800  0.6633  0.0604  0.3194
 7681SOL     OW34501   4.607   0.828   4.233  0.1404 -0.2466 -0.0881
 7681SOL    HW134502   4.549   0.904   4.228 -2.4898 -2.3451 -1.2591
 7681SOL    HW234503   4.648   0.848   4.317  0.9733 -1.6696 -0.1580
 7682SOL     OW34504   4.618   0.539   7.477 -0.1273  0.2902  0.1872
 7682SOL    HW134505   4.613   0.626   7.438 -0.7172  0.9464  1.7519
 7682SOL    HW234506   4.527   0.513   7.458  0.0819 -0.9463  0.8354
 7683SOL     OW34507   1.570   3.070   0.412 -0.1941 -0.8127  0.2878
 7683SOL    HW134508   1.659   3.054   0.443 -0.8659  0.5609  2.9090
 7683SOL    HW234509   1.520   2.998   0.450  0.4094 -1.3673  0.0309
 7684SOL     OW34510   3.604   1.171  11.647  0.0671  0.2665  0.1288
 7684SOL    HW134511   3.652   1.236  11.595 -0.2591  0.7446  0.4280
 7684SOL    HW234512   3.673   1.118  11.687  0.1812  0.4935  0.2271
 7685SOL     OW34513   2.934   3.192   8.865 -0.7654 -0.1142 -0.1041
 7685SOL    HW134514   2.982   3.173   8.945  0.2486 -0.3936 -0.7803
 7685SOL    HW234515   2.976   3.123   8.814  2.4467  1.4940  0.3702
 7686SOL     OW34516   3.902   0.207   3.604  0.2984  0.0488 -0.1985
 7686SOL    HW134517   3.962   0.150   3.652 -0.9389 -0.7793  0.3617
 7686SOL    HW234518   3.948   0.290   3.619  0.6544 -0.3292  0.8135
 7687SOL     OW34519   2.704   4.069   5.460  0.1505  0.3979  0.4837
 7687SOL    HW134520   2.793   4.037   5.448  0.5397  1.0273  1.7176
 7687SOL    HW234521   2.677   4.007   5.528 -1.4222  1.1217  0.5327
 7688SOL     OW34522   4.499   0.635  11.210 -0.1688 -0.6764 -0.3797
 7688SOL    HW134523   4.437   0.597  11.272 -2.4233  1.5775 -1.2288
 7688SOL    HW234524   4.563   0.565  11.199 -0.7278 -0.7128 -3.3866
 7689SOL     OW34525   0.424   1.357   7.995  0.0646  0.4766 -0.1886
 7689SOL    HW134526   0.453   1.445   7.971  1.5686  0.2158  0.6417
 7689SOL    HW234527   0.433   1.343   8.090  0.4145  1.0194 -0.1403
 7690SOL     OW34528   4.524   0.845   8.094  0.3463  0.2086  0.0189
 7690SOL    HW134529   4.453   0.862   8.156 -0.5383  0.2445 -1.0002
 7690SOL    HW234530   4.502   0.763   8.051 -0.6675  0.1419  0.6873
 7691SOL     OW34531   0.453   0.378   7.845 -0.2517 -0.4372 -0.1816
 7691SOL    HW134532   0.424   0.414   7.761 -0.7969 -1.0997 -0.2688
 7691SOL    HW234533   0.437   0.452   7.904 -0.4935  1.6014 -2.7912
 7692SOL     OW34534   1.018   4.122   6.801  0.5075  0.4182  0.2973
 7692SOL    HW134535   0.937   4.098   6.848 -0.7777  0.8000 -1.7463
 7692SOL    HW234536   1.015   4.217   6.799  1.9356  0.4761  0.8065
 7693SOL     OW34537   0.913   0.052  10.720  0.4137  0.7935  0.1454
 7693SOL    HW134538   0.968   0.123  10.754  2.1832 -0.6776  0.3518
 7693SOL    HW234539   0.942   0.032  10.631 -0.3554  0.4988 -0.0350
 7694SOL     OW34540   0.193   2.358  15.175  0.7064 -0.2184 -0.4619
 7694SOL    HW134541   0.190   2.310  15.257  2.0351 -1.9540 -1.4365
 7694SOL    HW234542   0.207   2.448  15.206  0.6827 -0.0334 -0.9863
 7695SOL     OW34543   0.903   0.191   4.658  0.2041 -0.3283  0.1775
 7695SOL    HW134544   0.879   0.272   4.613  3.7095  0.5504 -0.1528
 7695SOL    HW234545   0.997   0.201   4.674 -0.3547  2.3338  1.6340
 7696SOL     OW34546   0.090   2.336   4.389  0.1730 -0.0246 -0.4355
 7696SOL    HW134547   0.121   2.373   4.307  0.5926  0.8941  0.1436
 7696SOL    HW234548   0.014   2.294   4.350 -1.1952  1.2561  0.8743
 7697SOL     OW34549   0.169   4.228   9.769 -0.2007 -0.3417 -0.2125
 7697SOL    HW134550   0.249   4.263   9.809  0.0200 -2.2587  1.0783
 7697SOL    HW234551   0.105   4.250   9.837  2.0248 -1.3090  2.2221
 7698SOL     OW34552   1.829   0.294   7.580  0.4541  0.2484  0.0372
 7698SOL    HW134553   1.855   0.385   7.595  1.1427  0.0022  0.3162
 7698SOL    HW234554   1.889   0.263   7.513 -0.3302 -2.3893  0.5496
 7699SOL     OW34555   3.120   4.212  16.467  0.2900 -0.2850 -0.4883
 7699SOL    HW134556   3.203   4.168  16.449  1.4481  1.3397  0.8666
 7699SOL    HW234557   3.125   4.248  16.556 -0.5222  1.2990 -1.0823
 7700SOL     OW34558   0.230   3.415   8.210 -0.3554 -0.3027 -0.3867
 7700SOL    HW134559   0.179   3.339   8.178  0.5113 -0.6977 -0.8368
 7700SOL    HW234560   0.181   3.419   8.292  0.2964 -1.8077  0.0782
 7701SOL     OW34561   1.040   4.069   2.217  0.1807 -0.0477 -0.3380
 7701SOL    HW134562   1.032   4.099   2.127  2.1886  1.1488 -0.1101
 7701SOL    HW234563   1.092   3.989   2.204  0.6815  0.1549  0.4346
 7702SOL     OW34564   1.089   2.307   8.307 -0.1375 -0.0161  0.0448
 7702SOL    HW134565   1.148   2.262   8.367  0.7826 -0.8943 -1.5069
 7702SOL    HW234566   1.118   2.289   8.217  1.2358 -0.2014  0.5203
 7703SOL     OW34567   3.756   4.598   5.476 -0.1921  0.5099  0.0274
 7703SOL    HW134568   3.720   4.590   5.388  0.3271  0.9060 -0.2183
 7703SOL    HW234569   3.850   4.584   5.463  0.0215  1.6249  0.4096
 7704SOL     OW34570   2.014   3.682   4.992  0.1515  0.0757  0.1425
 7704SOL    HW134571   2.062   3.753   4.949 -2.1455  1.8519  0.5147
 7704SOL    HW234572   2.004   3.710   5.083  1.0082  0.2146  0.1991
 7705SOL     OW34573   1.098   1.568   7.846  0.3807 -0.1437 -0.3272
 7705SOL    HW134574   1.055   1.482   7.848  0.0385  0.0849  2.5030
 7705SOL    HW234575   1.017   1.618   7.838  0.5717  0.3803  1.0760
 7706SOL     OW34576   3.071   2.126   6.372  0.3188  0.2252 -0.4066
 7706SOL    HW134577   3.145   2.114   6.431  0.5784 -0.9486 -0.9882
 7706SOL    HW234578   3.042   2.202   6.423 -0.3503  0.4138 -1.0718
 7707SOL     OW34579   0.128   2.848   7.380  0.0872  0.2164  0.6685
 7707SOL    HW134580   0.107   2.780   7.444  1.0314 -0.3155  0.3970
 7707SOL    HW234581   0.219   2.834   7.355 -0.0832 -0.3894  0.3958
 7708SOL     OW34582   3.077   2.561   5.087 -0.3446 -0.3790 -0.0975
 7708SOL    HW134583   3.079   2.547   5.181 -0.0064 -1.4469 -0.2614
 7708SOL    HW234584   3.093   2.469   5.067  1.9473  0.1286 -0.5814
 7709SOL     OW34585   1.572   0.175   1.567  0.0581  0.0218  0.0730
 7709SOL    HW134586   1.617   0.257   1.584 -0.4168 -0.3793  3.1872
 7709SOL    HW234587   1.644   0.130   1.522  0.0878  1.4241 -1.2822
 7710SOL     OW34588   3.690   4.541   7.232  0.3322 -0.2425  0.7641
 7710SOL    HW134589   3.730   4.628   7.232  0.0060 -0.0927  0.3666
 7710SOL    HW234590   3.752   4.495   7.175 -1.5332 -3.1428  1.0633
 7711SOL     OW34591   3.404   2.973   3.337 -0.0139 -0.0622  0.3167
 7711SOL    HW134592   3.477   2.912   3.321  2.1169  2.5815  0.0683
 7711SOL    HW234593   3.344   2.942   3.269  0.0882  0.2505  0.0884
 7712SOL     OW34594   2.318   2.725   4.355  0.1238  0.6000 -0.2758
 7712SOL    HW134595   2.289   2.814   4.375 -0.3924  0.1396  1.0810
 7712SOL    HW234596   2.413   2.736   4.354 -0.0631  2.0483 -1.0544
 7713SOL     OW34597   1.597   2.368   2.544 -0.3206  0.4268  0.1212
 7713SOL    HW134598   1.685   2.361   2.507 -0.6410 -1.7568 -0.2030
 7713SOL    HW234599   1.586   2.286   2.591 -0.9335  0.5099  0.1265
 7714SOL     OW34600   2.520   0.470   5.567  0.4038  0.6409 -0.7626
 7714SOL    HW134601   2.547   0.526   5.640  1.5706 -0.1417 -0.5878
 7714SOL    HW234602   2.438   0.501   5.528 -0.1363  0.2987  0.1077
 7715SOL     OW34603   2.783   1.954  15.607 -0.7374 -0.4663  0.3890
 7715SOL    HW134604   2.752   1.985  15.521 -0.8581 -1.9078 -0.0828
 7715SOL    HW234605   2.878   1.962  15.609 -0.8195  0.4465  0.8375
 7716SOL     OW34606   0.223   4.460   6.719 -0.0891  0.4627 -0.6952
 7716SOL    HW134607   0.165   4.463   6.643  1.3682  0.6631 -1.7878
 7716SOL    HW234608   0.186   4.510   6.792 -0.1491 -1.5704  0.6701
 7717SOL     OW34609   1.517   1.513   9.922 -0.2967 -0.0948  0.4073
 7717SOL    HW134610   1.515   1.427   9.879 -0.4970  0.3382 -0.4446
 7717SOL    HW234611   1.454   1.562   9.869  0.0303  3.1792  3.0476
 7718SOL     OW34612   2.635   3.061   8.332 -0.0359 -0.3981 -0.4271
 7718SOL    HW134613   2.668   2.987   8.281  0.8771  1.1397 -2.0548
 7718SOL    HW234614   2.575   3.104   8.272  0.2952  1.5111  0.6156
 7719SOL     OW34615   0.087   2.210  14.523 -0.3878 -0.1479  0.1934
 7719SOL    HW134616   0.128   2.280  14.575 -0.8556 -0.9565  1.6470
 7719SOL    HW234617   0.010   2.257  14.491  0.2986  0.9205  0.0875
 7720SOL     OW34618   2.243   0.653   4.248 -0.1425 -0.0151  0.4352
 7720SOL    HW134619   2.268   0.563   4.269  0.5207  0.3985  1.3947
 7720SOL    HW234620   2.227   0.634   4.155  0.5014  0.4069  0.2378
 7721SOL     OW34621   4.413   2.056   0.944  1.0908  0.2874  0.4853
 7721SOL    HW134622   4.469   1.989   0.906 -0.4336 -0.0710 -1.1271
 7721SOL    HW234623   4.382   2.010   1.022  1.0297  1.1531  0.9804
 7722SOL     OW34624   0.553   4.027   1.084 -0.1555  0.3558 -0.0937
 7722SOL    HW134625   0.538   3.968   1.157  4.2104  0.8860  1.2168
 7722SOL    HW234626   0.507   3.976   1.017  2.4589  0.4469 -1.9652
 7723SOL     OW34627   3.692   1.011   8.767 -0.4346 -0.0531  0.2652
 7723SOL    HW134628   3.704   1.100   8.735 -3.4583 -0.3658 -1.7575
 7723SOL    HW234629   3.780   0.978   8.781 -0.4536  0.0446  0.6014
 7724SOL     OW34630   2.305   0.301  12.736 -0.5227 -0.4827  0.9029
 7724SOL    HW134631   2.305   0.293  12.832 -0.8887 -1.5938  0.8108
 7724SOL    HW234632   2.364   0.231  12.708 -0.0423 -0.2752  1.3894
 7725SOL     OW34633   4.589   1.892   0.764 -0.8252 -0.3939 -0.0413
 7725SOL    HW134634   4.551   1.806   0.745  1.3476 -1.6628  1.2343
 7725SOL    HW234635   4.552   1.942   0.691 -1.6942 -0.2913  0.4686
 7726SOL     OW34636   3.426   4.059  14.087 -0.4141 -0.3614 -0.2498
 7726SOL    HW134637   3.441   3.992  14.154  0.6963 -1.2440 -1.3787
 7726SOL    HW234638   3.366   4.126  14.119 -1.7096 -1.5882 -0.1315
 7727SOL     OW34639   3.166   4.593   6.832  0.5683 -0.8721  0.3414
 7727SOL    HW134640   3.154   4.637   6.917 -0.4737 -0.6329  0.0771
 7727SOL    HW234641   3.095   4.529   6.839  0.6085 -0.8783  0.7153
 7728SOL     OW34642   3.503   3.208  17.301  0.8696 -0.2826 -0.2132
 7728SOL    HW134643   3.503   3.175  17.211  2.9221  0.2423 -0.4244
 7728SOL    HW234644   3.510   3.302  17.281  0.6097  0.0488  1.2632
 7729SOL     OW34645   3.094   2.691   1.233 -0.2564  0.7873 -0.2851
 7729SOL    HW134646   3.100   2.772   1.182 -0.1886  0.9677  0.0090
 7729SOL    HW234647   3.000   2.673   1.238 -0.1884  0.7926  0.8969
 7730SOL     OW34648   3.039   1.882  15.337 -0.4715 -0.6535  0.4180
 7730SOL    HW134649   3.108   1.924  15.285 -1.3491  0.3493  0.0510
 7730SOL    HW234650   2.983   1.957  15.357  0.6875  0.6186 -1.0991
 7731SOL     OW34651   2.061   3.140  15.738  0.0066  0.6368  0.2926
 7731SOL    HW134652   2.053   3.194  15.817 -2.8586  2.4380 -1.2319
 7731SOL    HW234653   2.102   3.204  15.680  0.3199 -2.0136 -2.4089
 7732SOL     OW34654   3.719   0.744   6.115  0.2859  0.4415 -0.0228
 7732SOL    HW134655   3.624   0.733   6.109  0.6967 -2.6384 -0.6852
 7732SOL    HW234656   3.744   0.668   6.064 -1.4702  0.0176 -0.2526
 7733SOL     OW34657   1.789   2.509   6.508 -0.1105 -0.1909 -0.1468
 7733SOL    HW134658   1.720   2.566   6.473  0.4820  0.5660 -0.0654
 7733SOL    HW234659   1.758   2.420   6.488  1.6518 -0.6268 -0.9538
 7734SOL     OW34660   0.300   0.430   2.651  0.2824  0.1041  0.1704
 7734SOL    HW134661   0.347   0.351   2.625  0.3066 -0.0953  0.8221
 7734SOL    HW234662   0.254   0.454   2.570  0.4178  0.4706  0.2000
 7735SOL     OW34663   3.995   1.233   2.106 -0.3857 -0.2460 -0.4034
 7735SOL    HW134664   3.981   1.321   2.141 -2.0839 -0.0737 -1.5371
 7735SOL    HW234665   4.069   1.252   2.048  0.0341 -1.8452 -0.4105
 7736SOL     OW34666   4.547   3.699   2.460 -0.6874  0.2282  0.0473
 7736SOL    HW134667   4.490   3.632   2.496  0.4452  0.1258  1.6806
 7736SOL    HW234668   4.585   3.733   2.541 -0.1340 -1.3522  0.4417
 7737SOL     OW34669   0.894   3.646   3.687 -0.3386  0.5206  0.2830
 7737SOL    HW134670   0.946   3.704   3.632  0.7661 -0.8508 -0.1177
 7737SOL    HW234671   0.868   3.701   3.761  0.2114  0.4970  0.4883
 7738SOL     OW34672   0.754   4.211  12.251 -0.4830 -0.1666 -0.3228
 7738SOL    HW134673   0.693   4.257  12.309 -0.0601  0.4519 -0.3613
 7738SOL    HW234674   0.800   4.280  12.203  0.0841  0.4760  1.1415
 7739SOL     OW34675   3.245   0.681   5.491 -0.3402 -0.0350 -0.4940
 7739SOL    HW134676   3.267   0.589   5.506  0.3879  0.5794  2.1187
 7739SOL    HW234677   3.152   0.684   5.513 -0.7246  1.3966 -2.2576
 7740SOL     OW34678   0.562   2.987  14.797  0.1533  0.4136 -0.1257
 7740SOL    HW134679   0.490   2.925  14.786  1.2486 -0.6615 -1.1835
 7740SOL    HW234680   0.533   3.042  14.724 -1.2391 -3.5820 -2.5895
 7741SOL     OW34681   2.132   1.989  14.906 -0.0423  0.1016 -0.8641
 7741SOL    HW134682   2.068   1.923  14.934  0.6436 -0.1980  0.0110
 7741SOL    HW234683   2.170   1.932  14.839 -2.2973 -0.6613 -1.4995
 7742SOL     OW34684   2.877   3.158   6.632 -0.4112 -0.0947 -0.2556
 7742SOL    HW134685   2.917   3.133   6.549  0.8436  1.7100 -0.1971
 7742SOL    HW234686   2.803   3.207   6.596 -0.0645  0.5154 -0.1475
 7743SOL     OW34687   4.535   4.473   8.493 -0.0242  0.0485  0.3124
 7743SOL    HW134688   4.565   4.432   8.412  3.0595 -0.1874  1.5721
 7743SOL    HW234689   4.608   4.450   8.549  0.5215  0.0938 -0.3851
 7744SOL     OW34690   2.632   3.582   7.220 -0.0942 -0.6941  0.5720
 7744SOL    HW134691   2.676   3.564   7.137 -1.5188 -2.3989  0.1854
 7744SOL    HW234692   2.681   3.523   7.277  1.3794  1.1858  1.2385
 7745SOL     OW34693   2.445   3.552   8.122 -0.1386  0.4569 -0.0149
 7745SOL    HW134694   2.538   3.532   8.119 -0.1427  0.6813 -1.6398
 7745SOL    HW234695   2.446   3.645   8.145 -2.5881  0.7524 -1.0988
 7746SOL     OW34696   0.391   3.359   5.107 -0.3149 -0.0413  0.3123
 7746SOL    HW134697   0.454   3.289   5.124  0.4622  0.1633 -1.7494
 7746SOL    HW234698   0.441   3.398   5.035 -0.1133 -0.8535  0.0187
 7747SOL     OW34699   1.935   3.733   8.015  0.0914 -0.4317  0.6156
 7747SOL    HW134700   1.926   3.644   8.050  0.0142  0.0997  1.9372
 7747SOL    HW234701   1.936   3.772   8.103 -1.2602  1.4820 -0.2165
 7748SOL     OW34702   3.590   0.164   2.382 -0.1049  0.4772  0.3751
 7748SOL    HW134703   3.617   0.255   2.394 -0.9969  0.6075  1.3694
 7748SOL    HW234704   3.506   0.177   2.337 -0.3210 -0.2624  0.5642
 7749SOL     OW34705   4.499   1.809   9.546  0.2984  0.1311 -0.1238
 7749SOL    HW134706   4.548   1.743   9.594 -0.8193 -0.4411  0.2298
 7749SOL    HW234707   4.440   1.747   9.503 -0.8553  0.7939  0.4926
 7750SOL     OW34708   0.436   0.699   7.338 -0.0781  0.1704  0.4001
 7750SOL    HW134709   0.500   0.641   7.378 -0.8348 -0.7327  0.3142
 7750SOL    HW234710   0.445   0.678   7.245 -2.1300  2.0159 -0.2119
 7751SOL     OW34711   2.940   1.884  13.466  0.3539 -0.2458 -0.2004
 7751SOL    HW134712   2.913   1.969  13.431 -2.1694  0.0524  2.4967
 7751SOL    HW234713   2.985   1.914  13.545  1.6616 -2.6711 -0.0229
 7752SOL     OW34714   4.629   1.644   2.596  0.6514 -0.1000  0.1207
 7752SOL    HW134715   4.596   1.560   2.627 -1.4347  1.1040  1.1470
 7752SOL    HW234716   4.562   1.657   2.529  0.7400  0.7925  0.2083
 7753SOL     OW34717   1.532   1.994   2.877 -0.0062 -0.6829  0.3190
 7753SOL    HW134718   1.597   2.062   2.860 -1.2726  0.3387 -0.4752
 7753SOL    HW234719   1.575   1.963   2.957 -0.1523  0.3338  0.8005
 7754SOL     OW34720   2.641   1.792   9.084  0.4971  0.4670  0.3681
 7754SOL    HW134721   2.684   1.874   9.107  0.2204  1.0844 -1.3160
 7754SOL    HW234722   2.692   1.768   9.007  1.3213  2.0035  0.4416
 7755SOL     OW34723   3.255   2.268  10.654  0.3124  0.1284  0.1412
 7755SOL    HW134724   3.279   2.341  10.711  0.9842 -1.0426  1.3513
 7755SOL    HW234725   3.282   2.197  10.712 -2.5645  0.4838  1.9466
 7756SOL     OW34726   0.598   1.834   7.935 -0.3721 -0.4196  0.5082
 7756SOL    HW134727   0.529   1.900   7.946  0.5695  0.6589 -0.1116
 7756SOL    HW234728   0.679   1.881   7.954 -0.5282  0.5103 -1.1025
 7757SOL     OW34729   2.897   4.445   7.089  0.3035  0.4982 -0.0008
 7757SOL    HW134730   2.911   4.539   7.100  0.4915  0.6274 -1.3018
 7757SOL    HW234731   2.910   4.404   7.174 -1.3620 -0.8092 -0.3685
 7758SOL     OW34732   4.197   2.659  11.112 -0.8239 -0.0747 -0.3453
 7758SOL    HW134733   4.219   2.568  11.131  1.6761  0.9074  1.3320
 7758SOL    HW234734   4.277   2.698  11.076  0.7554 -1.5377  1.6114
 7759SOL     OW34735   0.937   1.944  16.114  0.6712 -0.1830 -0.0843
 7759SOL    HW134736   0.908   2.025  16.157  1.4865  0.8705 -1.5349
 7759SOL    HW234737   1.029   1.963  16.094  1.4179 -1.2802  2.3958
 7760SOL     OW34738   4.210   3.386   4.365  0.3501  0.2296 -0.0008
 7760SOL    HW134739   4.118   3.381   4.391  0.2620 -3.4658 -0.9470
 7760SOL    HW234740   4.252   3.313   4.411 -0.6964 -0.4340 -0.0933
 7761SOL     OW34741   2.354   3.931   5.826 -0.0605 -0.4397  0.0389
 7761SOL    HW134742   2.321   4.019   5.842 -1.6824 -1.1001  0.3742
 7761SOL    HW234743   2.445   3.943   5.800 -0.2519 -0.0799 -0.4722
 7762SOL     OW34744   1.557   0.954  12.139  0.7478  0.4775 -0.1406
 7762SOL    HW134745   1.589   0.958  12.049 -0.2456  0.4920 -0.4943
 7762SOL    HW234746   1.479   1.010  12.135 -0.6505 -1.4397  0.4898
 7763SOL     OW34747   4.423   3.592  15.122 -0.8884  0.4783 -0.0339
 7763SOL    HW134748   4.350   3.552  15.074  0.0538  0.0084 -1.0919
 7763SOL    HW234749   4.477   3.619  15.047 -0.2871 -1.1251 -0.1792
 7764SOL     OW34750   2.305   4.718   3.775 -0.3295 -0.0735 -0.3272
 7764SOL    HW134751   2.249   4.674   3.712  1.0060 -2.5738  0.2299
 7764SOL    HW234752   2.295   4.668   3.856 -1.5424  1.7533  0.6597
 7765SOL     OW34753   1.735   0.232   8.782  0.2071 -0.1335 -0.0631
 7765SOL    HW134754   1.664   0.248   8.720 -0.6924 -2.4810  0.3546
 7765SOL    HW234755   1.763   0.148   8.745 -1.1149 -1.3014  1.6336
 7766SOL     OW34756   3.889   2.575  13.440 -0.6587 -0.5434  0.2980
 7766SOL    HW134757   3.887   2.498  13.496  2.1361 -0.6947  0.2067
 7766SOL    HW234758   3.812   2.620  13.476  0.2292  0.5781  0.8003
 7767SOL     OW34759   1.064   0.142   8.817 -0.6355 -0.2023  0.3339
 7767SOL    HW134760   0.973   0.115   8.809 -0.4336 -1.4269  2.2030
 7767SOL    HW234761   1.113   0.061   8.831  1.3734  0.8879 -0.3088
 7768SOL     OW34762   0.581   2.635   4.038  0.0333  0.7780  0.7005
 7768SOL    HW134763   0.606   2.701   3.973 -1.7836  0.0323 -0.7525
 7768SOL    HW234764   0.590   2.686   4.118 -0.6299 -0.5871  1.6375
 7769SOL     OW34765   2.422   3.879   4.111 -0.0725 -0.3573  0.0423
 7769SOL    HW134766   2.406   3.961   4.065 -0.5252  0.4909  1.7321
 7769SOL    HW234767   2.376   3.812   4.060  1.2604 -1.0761 -0.2071
 7770SOL     OW34768   4.059   0.523   4.116 -0.0875 -0.1889 -0.1712
 7770SOL    HW134769   4.056   0.614   4.145 -1.6330 -0.1723 -0.3975
 7770SOL    HW234770   4.139   0.486   4.155  1.1589  2.0238 -0.6508
 7771SOL     OW34771   4.510   3.443   0.340 -0.6734 -0.2808  0.0947
 7771SOL    HW134772   4.546   3.376   0.398 -0.8129 -1.4260 -1.1358
 7771SOL    HW234773   4.576   3.511   0.340 -0.8867 -0.0828 -2.5041
 7772SOL     OW34774   1.474   1.122   3.157 -0.1998  0.2940 -0.1750
 7772SOL    HW134775   1.539   1.096   3.092 -0.2312  0.3733 -0.2386
 7772SOL    HW234776   1.462   1.216   3.140  0.2942  0.3798 -0.0662
 7773SOL     OW34777   0.316   1.105   8.095  0.7048  1.0017  0.4088
 7773SOL    HW134778   0.335   1.198   8.079  0.8313  1.3513  2.6179
 7773SOL    HW234779   0.386   1.055   8.052 -1.4928 -1.6642 -0.0094
 7774SOL     OW34780   1.495   1.187  14.597  0.0790  1.0001 -0.6929
 7774SOL    HW134781   1.442   1.228  14.528 -0.6168  0.3467 -0.5450
 7774SOL    HW234782   1.525   1.110  14.548 -1.9490 -0.7117  0.7330
 7775SOL     OW34783   2.675   1.449   5.253 -0.5905 -0.0850  0.1466
 7775SOL    HW134784   2.697   1.382   5.188 -1.2245 -0.5292  0.3741
 7775SOL    HW234785   2.629   1.400   5.322 -1.3394 -0.0173 -0.3050
 7776SOL     OW34786   0.587   0.148   7.457 -0.2927 -0.3637 -0.6875
 7776SOL    HW134787   0.577   0.077   7.520 -1.6495  1.1046  0.7244
 7776SOL    HW234788   0.660   0.198   7.494 -0.1831 -0.6284 -0.5439
 7777SOL     OW34789   3.374   0.102   3.780  0.4675  0.5090  0.1121
 7777SOL    HW134790   3.382   0.068   3.691  0.4065  0.9664 -0.0640
 7777SOL    HW234791   3.452   0.075   3.828  1.8352  2.2738 -1.1463
 7778SOL     OW34792   2.833   3.639   3.161 -0.1139  0.5637 -0.7085
 7778SOL    HW134793   2.890   3.604   3.230  0.3920  0.2371 -1.2901
 7778SOL    HW234794   2.785   3.560   3.139 -0.1430  0.2912  0.3487
 7779SOL     OW34795   3.599   0.973   3.931  0.6490 -0.1882 -0.3298
 7779SOL    HW134796   3.537   0.978   4.004 -1.3441 -0.9518 -1.9590
 7779SOL    HW234797   3.548   0.929   3.863  0.1290  0.1878 -0.1794
 7780SOL     OW34798   2.496   0.026  11.039  0.3643 -0.5934  0.2956
 7780SOL    HW134799   2.403   0.011  11.026 -0.1611  1.3722  1.8698
 7780SOL    HW234800   2.492   0.056  11.129 -2.6099 -0.3226  0.0508
 7781SOL     OW34801   3.072   2.855   4.743 -0.3403 -0.0202  0.0484
 7781SOL    HW134802   3.141   2.893   4.689 -1.7905  0.5761 -1.3944
 7781SOL    HW234803   3.030   2.937   4.771 -1.0518 -0.6908  0.9491
 7782SOL     OW34804   3.606   2.348   9.861 -0.0166  0.6426  0.5521
 7782SOL    HW134805   3.512   2.353   9.845 -0.1653  0.2532  1.2736
 7782SOL    HW234806   3.621   2.257   9.835  0.4488  0.9888 -0.3946
 7783SOL     OW34807   3.550   0.495   5.062 -0.6185 -0.1735  0.0188
 7783SOL    HW134808   3.556   0.546   4.981 -0.4061  1.4536  1.0656
 7783SOL    HW234809   3.582   0.566   5.117  0.4431  0.9005 -2.0076
 7784SOL     OW34810   3.716   3.796   2.758  0.3276 -0.5674  0.6091
 7784SOL    HW134811   3.625   3.823   2.770  0.7121  1.4883 -1.1829
 7784SOL    HW234812   3.712   3.705   2.789  3.2181 -0.0648  2.4632
 7785SOL     OW34813   3.880   4.137   5.440 -0.2172  0.5837 -0.5006
 7785SOL    HW134814   3.916   4.105   5.358 -0.0655  0.3887 -0.3592
 7785SOL    HW234815   3.841   4.221   5.415  0.9608  1.1198 -0.5566
 7786SOL     OW34816   4.693   4.163   8.882 -0.7129 -0.3766 -0.1864
 7786SOL    HW134817   0.009   4.080   8.852 -0.1280  0.7091 -2.5015
 7786SOL    HW234818   4.599   4.159   8.866 -0.8002  2.3757 -0.3192
 7787SOL     OW34819   0.277   2.951   2.796 -0.0624  0.1671  0.2258
 7787SOL    HW134820   0.319   2.951   2.882 -1.4786  0.2859  0.9158
 7787SOL    HW234821   0.343   2.995   2.743 -1.7538 -0.5024 -2.4442
 7788SOL     OW34822   1.312   3.389   1.247  0.0422 -0.3104  0.3515
 7788SOL    HW134823   1.227   3.408   1.287  0.5611  2.2192  0.2231
 7788SOL    HW234824   1.369   3.384   1.324 -0.1327 -0.5074  0.4710
 7789SOL     OW34825   2.947   2.370  10.941 -0.0632  0.5012  0.2137
 7789SOL    HW134826   3.031   2.360  10.987  0.3792 -0.7180 -0.8865
 7789SOL    HW234827   2.960   2.322  10.859 -0.5884 -0.3461  0.6258
 7790SOL     OW34828   3.573   1.976   4.925  0.0605  0.4517 -0.4220
 7790SOL    HW134829   3.497   1.956   4.980 -0.1343  1.3853 -0.3438
 7790SOL    HW234830   3.540   2.039   4.860 -1.2440 -0.9728 -1.1257
 7791SOL     OW34831   4.328   1.210   9.570  0.5034 -0.4230 -0.3482
 7791SOL    HW134832   4.332   1.114   9.569  0.8842 -0.4120 -0.0290
 7791SOL    HW234833   4.268   1.215   9.645 -3.5729  0.1193 -3.6321
 7792SOL     OW34834   1.993   2.259   7.906  0.0530  0.1075 -0.1318
 7792SOL    HW134835   2.077   2.251   7.950 -0.4528  0.3221  0.8612
 7792SOL    HW234836   1.935   2.225   7.974 -0.0456  0.4271 -0.0575
 7793SOL     OW34837   3.709   2.635  12.870 -0.1229 -0.1369 -0.2553
 7793SOL    HW134838   3.632   2.579  12.860  1.5188 -2.2329 -1.1106
 7793SOL    HW234839   3.714   2.639  12.966 -2.0566 -0.3080 -0.1541
 7794SOL     OW34840   3.691   0.477   1.750 -0.1093 -0.0157  0.3872
 7794SOL    HW134841   3.684   0.387   1.717 -0.5801 -0.3303  1.3278
 7794SOL    HW234842   3.782   0.475   1.777 -0.5883  1.4545  2.0615
 7795SOL     OW34843   3.538   2.657   8.808  0.0437  0.1259 -0.3541
 7795SOL    HW134844   3.493   2.617   8.883  0.3941  0.6610  0.1473
 7795SOL    HW234845   3.480   2.731   8.791  0.6867  0.5538 -0.6977
 7796SOL     OW34846   0.521   1.137  10.491  0.2605  0.4067  0.1718
 7796SOL    HW134847   0.604   1.124  10.538 -0.1657 -0.3016  0.7218
 7796SOL    HW234848   0.552   1.149  10.401  2.2432  0.0663  0.8152
 7797SOL     OW34849   1.871   0.979  12.889 -1.0599 -0.3392 -0.3142
 7797SOL    HW134850   1.777   0.980  12.872 -1.3376  0.4140  1.3028
 7797SOL    HW234851   1.870   0.938  12.976  1.2364  0.9595  0.3327
 7798SOL     OW34852   3.651   3.278   4.730  0.0899  0.2852  0.0991
 7798SOL    HW134853   3.611   3.337   4.666  1.2419 -1.4356 -2.2102
 7798SOL    HW234854   3.727   3.262   4.674 -0.5881  2.2146 -1.3646
 7799SOL     OW34855   3.417   0.342  14.397  0.1146  0.1893 -0.3967
 7799SOL    HW134856   3.404   0.254  14.433 -1.7305  0.9927  0.9143
 7799SOL    HW234857   3.334   0.353  14.350 -0.5162 -0.8341  0.4846
 7800SOL     OW34858   1.430   3.284   3.778  0.0623 -0.0645  0.1948
 7800SOL    HW134859   1.343   3.267   3.743  0.2153 -2.2150  0.8360
 7800SOL    HW234860   1.469   3.346   3.716  0.1835 -0.3335 -0.0012
 7801SOL     OW34861   4.601   3.016   8.994 -0.3450 -0.5601  0.2185
 7801SOL    HW134862   4.541   3.090   8.998 -0.1438 -0.3754 -0.2294
 7801SOL    HW234863   4.661   3.034   8.922 -0.8588 -0.4125 -0.1743
 7802SOL     OW34864   0.688   4.270   2.811  0.4870 -0.4507 -0.3509
 7802SOL    HW134865   0.746   4.200   2.782 -1.4369 -1.6209 -1.3432
 7802SOL    HW234866   0.610   4.218   2.830  1.6969 -2.3770 -0.6817
 7803SOL     OW34867   3.520   3.495   4.993  1.2602  0.5459  0.2975
 7803SOL    HW134868   3.434   3.466   5.023  0.9796 -0.3949 -1.4255
 7803SOL    HW234869   3.527   3.573   5.048 -0.1156 -1.1778  2.9251
 7804SOL     OW34870   3.984   0.580   7.879 -0.3440 -0.0407 -0.5163
 7804SOL    HW134871   3.928   0.511   7.914  0.1438  0.2021  0.7446
 7804SOL    HW234872   3.924   0.653   7.866 -0.5609  0.0489  1.0813
 7805SOL     OW34873   3.381   1.112  10.880 -0.0567  0.2953  0.0973
 7805SOL    HW134874   3.356   1.157  10.960  3.1345  0.4541  0.9912
 7805SOL    HW234875   3.301   1.084  10.836  0.0457 -2.0225  1.3614
 7806SOL     OW34876   2.494   1.354   3.532  0.2845 -0.5113 -0.2487
 7806SOL    HW134877   2.583   1.339   3.499 -0.0688  0.4624 -1.6090
 7806SOL    HW234878   2.480   1.279   3.590 -2.0531 -0.3791 -0.6440
 7807SOL     OW34879   0.740   1.428   4.763  0.0250  0.5312  0.9278
 7807SOL    HW134880   0.723   1.498   4.700  2.6523 -0.3452 -0.7785
 7807SOL    HW234881   0.822   1.401   4.722 -0.2596 -1.0169  1.3523
 7808SOL     OW34882   1.834   0.558   8.323 -0.2247  0.0880 -0.7002
 7808SOL    HW134883   1.765   0.516   8.373  0.0701  2.0326  1.3495
 7808SOL    HW234884   1.893   0.593   8.390  0.8165 -3.7925  0.3944
 7809SOL     OW34885   0.345   0.831   8.532 -0.0690  0.0694  0.3642
 7809SOL    HW134886   0.376   0.897   8.594 -1.1168  2.8061 -2.0296
 7809SOL    HW234887   0.297   0.882   8.466  0.0198 -0.9060 -0.4466
 7810SOL     OW34888   0.774   4.292   7.669 -0.3907  0.7249 -0.3973
 7810SOL    HW134889   0.774   4.325   7.579  0.9123 -0.3547 -0.7776
 7810SOL    HW234890   0.842   4.225   7.664 -1.2777 -0.3346  1.7198
 7811SOL     OW34891   3.575   3.910  16.582 -0.2540  0.0511 -0.2508
 7811SOL    HW134892   3.490   3.906  16.626 -0.2375  2.1284 -0.0231
 7811SOL    HW234893   3.558   3.994  16.540  3.7242  2.3120  2.5873
 7812SOL     OW34894   2.112   1.908   9.133  0.1934  0.1256 -0.5887
 7812SOL    HW134895   2.172   1.834   9.135  1.4813  1.1509 -1.4774
 7812SOL    HW234896   2.156   1.976   9.183 -0.6327  0.0209  0.2863
 7813SOL     OW34897   2.963   3.994   1.293  0.0488  0.5157 -0.0812
 7813SOL    HW134898   3.036   3.940   1.321 -0.4356 -0.6855 -1.1588
 7813SOL    HW234899   3.006   4.080   1.293 -0.8168  0.9548  0.1241
 7814SOL     OW34900   3.097   4.096   7.127  0.0564 -0.6267 -0.3376
 7814SOL    HW134901   3.144   4.136   7.054  0.5215  2.5177  1.6779
 7814SOL    HW234902   3.006   4.110   7.102  0.4122  1.6134 -0.4133
 7815SOL     OW34903   2.985   4.097   2.096 -0.1898 -0.5374  0.4119
 7815SOL    HW134904   2.968   4.017   2.047  1.0212 -0.2571 -0.4903
 7815SOL    HW234905   2.898   4.125   2.123 -0.1837 -0.2923  0.1839
 7816SOL     OW34906   1.124   1.292   7.289 -0.2727  0.2182 -0.1768
 7816SOL    HW134907   1.032   1.312   7.272  0.2044  2.1023 -0.5270
 7816SOL    HW234908   1.148   1.365   7.346  0.0541  0.7326 -0.9597
 7817SOL     OW34909   3.075   3.285   1.947  0.4027 -0.4812  0.1329
 7817SOL    HW134910   3.049   3.197   1.973  0.0578 -0.0419  1.2569
 7817SOL    HW234911   3.060   3.325   2.032 -1.9876  0.3126 -0.6530
 7818SOL     OW34912   4.109   3.143   3.427  0.4257  0.0873  0.1539
 7818SOL    HW134913   4.098   3.238   3.432  0.2534 -0.0416  2.0426
 7818SOL    HW234914   4.092   3.122   3.335  2.7374  1.2948 -0.5240
 7819SOL     OW34915   3.199   1.005   9.735 -0.1022 -0.1406 -0.3939
 7819SOL    HW134916   3.290   0.975   9.742  0.2107  1.5997  2.7951
 7819SOL    HW234917   3.154   0.982   9.816 -1.9313  0.1536 -1.3172
 7820SOL     OW34918   1.837   3.514   7.437  0.5378 -0.0105  0.1533
 7820SOL    HW134919   1.847   3.608   7.429 -0.5658  0.1328  0.5022
 7820SOL    HW234920   1.924   3.486   7.408 -0.0887 -0.3117 -1.4370
 7821SOL     OW34921   1.372   0.438   7.817  0.5633 -0.4204 -0.2092
 7821SOL    HW134922   1.327   0.405   7.895 -0.4025 -1.0524 -1.0346
 7821SOL    HW234923   1.310   0.510   7.805  1.7965  0.4321 -1.4768
 7822SOL     OW34924   3.555   4.091   2.533 -0.7576  0.2483 -0.4101
 7822SOL    HW134925   3.572   4.083   2.439  0.4742 -1.3261 -0.0553
 7822SOL    HW234926   3.460   4.081   2.536 -0.5826 -0.6482  1.8536
 7823SOL     OW34927   3.759   2.754   4.828  0.0931  0.0444 -0.1666
 7823SOL    HW134928   3.771   2.831   4.772  0.1036  0.0804 -0.1142
 7823SOL    HW234929   3.677   2.783   4.868 -1.2740 -2.9297 -0.7965
 7824SOL     OW34930   4.323   2.504   6.732 -0.2253 -0.3315  0.3304
 7824SOL    HW134931   4.355   2.465   6.650 -2.1788 -0.9441 -0.1625
 7824SOL    HW234932   4.393   2.566   6.751 -0.1492  0.3729 -2.1664
 7825SOL     OW34933   0.790   3.332  14.016  0.7779 -0.2116 -0.5069
 7825SOL    HW134934   0.830   3.406  13.971 -1.2364  1.2030  0.0395
 7825SOL    HW234935   0.788   3.360  14.108  0.8810 -0.6946 -0.3545
 7826SOL     OW34936   1.036   2.099   8.504  0.4085 -0.1229 -0.1860
 7826SOL    HW134937   1.099   2.058   8.445  0.6577 -0.6247  0.4196
 7826SOL    HW234938   1.003   2.031   8.563  1.5747 -2.5100 -2.2959
 7827SOL     OW34939   2.012   2.255  12.026  0.2113 -0.4444 -0.1560
 7827SOL    HW134940   2.028   2.161  12.032  1.5793 -0.2534 -0.7519
 7827SOL    HW234941   2.019   2.273  11.932 -0.9357  0.5868 -0.0432
 7828SOL     OW34942   0.873   3.143   6.551  0.1965 -0.0552  0.1112
 7828SOL    HW134943   0.939   3.212   6.542 -0.1596 -0.0829 -2.6065
 7828SOL    HW234944   0.864   3.141   6.646 -1.2114 -0.4402 -0.0379
 7829SOL     OW34945   4.304   3.138   9.320 -0.2155  0.1244  0.4855
 7829SOL    HW134946   4.216   3.171   9.338 -0.8640 -2.3130  1.7744
 7829SOL    HW234947   4.341   3.207   9.265  0.0591 -0.9280 -0.6450
 7830SOL     OW34948   1.431   2.905   6.047  0.4120 -0.1769  0.2300
 7830SOL    HW134949   1.433   2.940   5.958 -0.9783 -1.6744 -0.3878
 7830SOL    HW234950   1.509   2.946   6.084 -1.0739  1.8566  1.1350
 7831SOL     OW34951   0.481   3.542   5.555 -0.3018  0.0838  0.4475
 7831SOL    HW134952   0.470   3.534   5.460 -1.0263 -1.3199  0.6617
 7831SOL    HW234953   0.537   3.620   5.560 -1.7595  0.9884  2.7864
 7832SOL     OW34954   3.457   1.442  15.138  0.5950  0.2152 -0.0124
 7832SOL    HW134955   3.450   1.491  15.220 -2.4115  1.5739 -1.0917
 7832SOL    HW234956   3.365   1.432  15.112  0.2425  0.7349  1.0646
 7833SOL     OW34957   4.548   2.086   2.764 -0.0697 -0.3881  0.0036
 7833SOL    HW134958   4.605   2.021   2.723 -0.7625 -0.3101 -1.0851
 7833SOL    HW234959   4.477   2.034   2.800 -1.0237  0.6154 -0.4189
 7834SOL     OW34960   0.678   2.223   1.152 -0.2169  0.8752  0.1995
 7834SOL    HW134961   0.677   2.141   1.202 -1.9816  0.9172  0.2260
 7834SOL    HW234962   0.748   2.191   1.094  1.4152 -0.1219  2.7147
 7835SOL     OW34963   1.762   2.150   2.806  0.0868 -0.0242  0.4559
 7835SOL    HW134964   1.766   2.089   2.733 -0.4686 -0.7423  1.0120
 7835SOL    HW234965   1.852   2.139   2.835  0.4610  0.7392 -0.4203
 7836SOL     OW34966   0.697   1.865   9.303  0.0314 -0.0096 -0.6898
 7836SOL    HW134967   0.714   1.938   9.364 -0.5686 -0.1418 -0.3688
 7836SOL    HW234968   0.607   1.877   9.275  0.2265  1.1119 -0.8514
 7837SOL     OW34969   0.990   2.858   5.798 -0.0531 -0.0858 -0.1726
 7837SOL    HW134970   0.981   2.950   5.822  1.4058 -0.0144  0.0505
 7837SOL    HW234971   0.911   2.841   5.746 -0.3261 -0.3263  0.3213
 7838SOL     OW34972   3.200   3.002   6.247 -0.3861  0.2063  0.1485
 7838SOL    HW134973   3.115   2.960   6.258 -0.0823 -1.2619 -3.3072
 7838SOL    HW234974   3.253   2.923   6.232 -0.0701  0.3030  0.7120
 7839SOL     OW34975   2.030   1.800   4.916  0.3055 -0.3794  0.1670
 7839SOL    HW134976   2.080   1.736   4.966 -0.3181 -0.2536  0.9651
 7839SOL    HW234977   1.984   1.735   4.863  1.0051  0.3156 -1.2897
 7840SOL     OW34978   1.465   2.983  12.540 -0.1183  0.4548  0.3369
 7840SOL    HW134979   1.429   3.059  12.494  0.4451 -1.0390 -2.5047
 7840SOL    HW234980   1.465   2.925  12.465 -1.7068 -1.2217  1.6241
 7841SOL     OW34981   0.120   0.370  12.752  0.4914  1.0425 -0.5308
 7841SOL    HW134982   0.112   0.429  12.827  3.3901 -1.6874  2.0068
 7841SOL    HW234983   0.172   0.299  12.790 -0.7449 -0.9531 -2.5550
 7842SOL     OW34984   3.748   4.471   3.924 -0.2977  0.9436  0.2117
 7842SOL    HW134985   3.658   4.440   3.935  0.3536 -0.3501  1.9807
 7842SOL    HW234986   3.735   4.503   3.835 -1.3131 -0.5297 -0.1686
 7843SOL     OW34987   1.180   0.950   6.882  0.4066  0.2185 -0.4694
 7843SOL    HW134988   1.193   0.892   6.957 -3.2760 -0.1291 -0.1369
 7843SOL    HW234989   1.188   1.031   6.934  3.2043  0.0384 -0.6089
 7844SOL     OW34990   0.172   3.939   6.006 -0.3990  0.3215 -0.2828
 7844SOL    HW134991   0.087   3.933   6.050  0.5163  1.3773  1.6352
 7844SOL    HW234992   0.160   3.997   5.931 -0.1950  0.1482 -0.4494
 7845SOL     OW34993   4.615   1.580  10.947  0.2274  0.2717  0.2227
 7845SOL    HW134994   4.552   1.649  10.967 -1.0393 -0.6006 -0.7562
 7845SOL    HW234995   4.634   1.597  10.854 -0.8778  0.2155 -0.0069
 7846SOL     OW34996   1.374   0.436  12.374 -0.1314  0.6180  0.5927
 7846SOL    HW134997   1.441   0.382  12.417 -0.6818 -1.3643 -1.0144
 7846SOL    HW234998   1.435   0.499  12.335  2.0389 -1.4990  0.4826
 7847SOL     OW34999   4.232   4.280  10.306 -0.0945 -0.6275  0.3786
 7847SOL    HW135000   4.183   4.262  10.386  0.3649 -0.6488  0.6537
 7847SOL    HW235001   4.163   4.275  10.240  0.1500 -1.6161  0.1847
 7848SOL     OW35002   3.984   0.263   6.966  0.0054 -0.2451 -0.4295
 7848SOL    HW135003   3.941   0.344   6.939 -0.2010  0.3273  1.6823
 7848SOL    HW235004   4.037   0.246   6.888  0.9834 -0.0213  0.1977
 7849SOL     OW35005   4.557   3.187  16.143 -0.4681 -0.2107 -0.3117
 7849SOL    HW135006   4.574   3.245  16.069  0.4952  1.5759  1.2995
 7849SOL    HW235007   4.550   3.248  16.217 -0.5975 -1.9413  1.1026
 7850SOL     OW35008   0.914   2.955   6.339  0.4503 -0.0984 -0.2394
 7850SOL    HW135009   0.921   3.024   6.405  1.1567  2.0103 -2.5091
 7850SOL    HW235010   0.903   3.011   6.262  3.9820 -0.4447 -0.9832
 7851SOL     OW35011   0.341   1.776   0.603  0.4145 -0.1880  0.2508
 7851SOL    HW135012   0.330   1.783   0.698  0.8148 -4.4167  0.6103
 7851SOL    HW235013   0.277   1.707   0.587 -0.7618  0.7138  1.0745
 7852SOL     OW35014   3.194   3.501   2.198  0.1343 -0.5391  0.2451
 7852SOL    HW135015   3.286   3.497   2.172  0.1741 -1.8987  0.5584
 7852SOL    HW235016   3.217   3.488   2.290  0.3899 -0.1362  0.2363
 7853SOL     OW35017   3.055   2.272   8.115  0.6703 -0.5917  0.1773
 7853SOL    HW135018   3.059   2.357   8.072  0.3039 -1.0145 -0.6838
 7853SOL    HW235019   3.070   2.210   8.044  2.5664 -0.5540  0.5407
 7854SOL     OW35020   3.733   1.014   6.135 -0.3663 -0.4034  0.6243
 7854SOL    HW135021   3.730   0.918   6.135 -1.5761 -0.3715  0.3539
 7854SOL    HW235022   3.736   1.032   6.041 -0.8817  0.2104  0.7242
 7855SOL     OW35023   2.099   0.230   8.552 -0.9337 -0.0622  0.3220
 7855SOL    HW135024   2.182   0.229   8.505 -0.9585  1.1267  0.2607
 7855SOL    HW235025   2.120   0.311   8.599 -0.1295 -0.6801  1.0169
 7856SOL     OW35026   0.565   3.330  17.391 -0.2506  0.1382  0.3371
 7856SOL    HW135027   0.530   3.416  17.417 -2.3527 -0.4393 -0.6106
 7856SOL    HW235028   0.560   3.338  17.296  0.5870  0.0604  0.2846
 7857SOL     OW35029   1.503   4.038   8.417  0.1597  0.0407 -0.3061
 7857SOL    HW135030   1.590   3.999   8.430  0.1245  0.5755  1.4898
 7857SOL    HW235031   1.530   4.085   8.338  1.1953  1.6927  1.0227
 7858SOL     OW35032   1.348   3.945  14.829  0.1701  0.0512  0.5798
 7858SOL    HW135033   1.302   3.975  14.907 -1.3004  1.8111 -0.9471
 7858SOL    HW235034   1.276   3.936  14.767  1.3066 -2.1589 -0.4197
 7859SOL     OW35035   1.125   1.898  11.211  0.4106  0.5036 -0.5568
 7859SOL    HW135036   1.053   1.844  11.243 -0.6690  1.1400 -1.9307
 7859SOL    HW235037   1.086   1.984  11.202  0.9438  0.7930 -0.1377
 7860SOL     OW35038   3.271   2.725   6.132 -0.2079  0.3492  0.1266
 7860SOL    HW135039   3.228   2.672   6.064 -2.3647  0.0891  1.6834
 7860SOL    HW235040   3.281   2.655   6.196 -1.0840  1.9518  2.0033
 7861SOL     OW35041   1.938   2.858  16.676 -0.4619  0.2821  0.4843
 7861SOL    HW135042   1.909   2.813  16.596  0.9849  1.1434 -0.5266
 7861SOL    HW235043   1.855   2.871  16.721  0.0080  0.3713  1.3268
 7862SOL     OW35044   0.565   1.595   5.060  0.0488  0.0067 -1.3643
 7862SOL    HW135045   0.522   1.509   5.057 -0.3057  0.0005  3.2081
 7862SOL    HW235046   0.622   1.587   4.984 -0.1085  1.4738 -1.6417
 7863SOL     OW35047   4.154   0.192   6.116 -0.1476 -0.1181  0.4208
 7863SOL    HW135048   4.163   0.281   6.083  0.7360 -0.0997  0.7087
 7863SOL    HW235049   4.233   0.200   6.169  0.3858  2.1567 -0.7492
 7864SOL     OW35050   2.711   3.038   3.859  0.4261 -0.5528  0.3347
 7864SOL    HW135051   2.678   3.116   3.814  2.0913  0.9404  1.6748
 7864SOL    HW235052   2.804   3.039   3.833  0.2733 -0.5178 -0.2108
 7865SOL     OW35053   4.623   1.966  14.288  0.1244 -0.1404  0.0262
 7865SOL    HW135054   4.576   1.901  14.235 -0.1464  1.3619 -1.5859
 7865SOL    HW235055   4.556   2.027  14.317 -0.6423 -0.4271 -1.1359
 7866SOL     OW35056   2.097   0.681  17.133 -0.4722  0.5183 -0.4466
 7866SOL    HW135057   2.160   0.650  17.067  0.6775 -2.0948  1.8358
 7866SOL    HW235058   2.013   0.650  17.100 -0.2975  0.7683 -1.1293
 7867SOL     OW35059   1.699   0.665   5.361  0.2886  0.0752  0.5560
 7867SOL    HW135060   1.785   0.626   5.377  0.5771  1.1686  1.6042
 7867SOL    HW235061   1.714   0.758   5.378 -1.2583  0.4918 -0.4111
 7868SOL     OW35062   1.910   3.715  12.575 -0.2341  0.0012  0.9382
 7868SOL    HW135063   1.991   3.678  12.539 -0.8996 -2.1038  1.6012
 7868SOL    HW235064   1.935   3.727  12.667 -1.6209  0.5261  1.2390
 7869SOL     OW35065   0.540   0.964   7.911 -0.6703  0.3505  0.3233
 7869SOL    HW135066   0.620   0.912   7.923  0.4941  2.1013  0.1886
 7869SOL    HW235067   0.568   1.011   7.832 -1.7230  2.2084  1.0634
 7870SOL     OW35068   4.220   1.476   6.620 -0.4038  0.0351 -0.1787
 7870SOL    HW135069   4.270   1.538   6.674 -0.1738 -0.3570  0.0642
 7870SOL    HW235070   4.205   1.427   6.701  0.2772  2.0142  1.1304
 7871SOL     OW35071   4.157   1.831   7.881  0.4148  0.0631  0.1028
 7871SOL    HW135072   4.092   1.899   7.870  1.9362  1.2729 -1.4310
 7871SOL    HW235073   4.105   1.754   7.858  0.9352  0.7091 -3.1497
 7872SOL     OW35074   4.411   4.664   2.969  0.2977  0.0985  0.1858
 7872SOL    HW135075   4.370   4.695   3.049  0.4267  3.5548 -1.0654
 7872SOL    HW235076   4.339   4.622   2.922  0.6490  0.6013 -0.8042
 7873SOL     OW35077   1.691   0.484   1.074 -0.4920 -0.2722  0.5746
 7873SOL    HW135078   1.711   0.415   1.137 -0.9047  1.9381  3.1105
 7873SOL    HW235079   1.706   0.440   0.990  0.3947  0.9092  0.1142
 7874SOL     OW35080   3.137   0.106   8.460  0.2498 -0.3399 -0.1290
 7874SOL    HW135081   3.101   0.060   8.384  1.0855  0.6286 -1.0967
 7874SOL    HW235082   3.185   0.178   8.421  1.5173 -0.3519  1.4225
 7875SOL     OW35083   1.066   2.221   1.144 -0.0820 -0.1226 -0.2364
 7875SOL    HW135084   1.131   2.255   1.082 -1.3292  2.2532 -0.2728
 7875SOL    HW235085   1.096   2.274   1.219  0.7737 -3.4476  1.7488
 7876SOL     OW35086   1.292   1.431   5.718  0.7453 -0.4398  0.3501
 7876SOL    HW135087   1.249   1.353   5.682  0.3818 -0.2422  0.3533
 7876SOL    HW235088   1.381   1.405   5.696 -0.1388 -2.4630 -0.8481
 7877SOL     OW35089   1.019   2.261   4.387  0.0126  0.1867  0.1300
 7877SOL    HW135090   1.103   2.267   4.431 -0.0199  1.3913  0.0384
 7877SOL    HW235091   1.038   2.294   4.299 -0.8005  3.6042  1.2591
 7878SOL     OW35092   3.070   2.044  10.749 -0.1169  0.4423  0.5567
 7878SOL    HW135093   3.043   2.124  10.704  2.4412  0.3378 -1.1553
 7878SOL    HW235094   3.159   2.070  10.773  0.0261  1.4653 -1.0730
 7879SOL     OW35095   3.928   3.279   8.087 -0.0833 -0.5107 -0.5019
 7879SOL    HW135096   3.929   3.350   8.151  0.4927 -2.3922  1.5754
 7879SOL    HW235097   3.859   3.314   8.031  0.1389 -0.4870 -0.7630
 7880SOL     OW35098   4.323   1.018   5.984  0.0502  0.4853 -0.2044
 7880SOL    HW135099   4.287   0.939   5.943 -0.1330  0.8729 -0.7876
 7880SOL    HW235100   4.350   1.060   5.902 -1.1609 -1.6412 -1.6947
 7881SOL     OW35101   4.613   1.968   8.654  1.0290  0.1962  0.5014
 7881SOL    HW135102   4.700   1.991   8.622 -0.1757  1.0033 -2.2015
 7881SOL    HW235103   4.622   1.873   8.648  4.0237  0.5296 -0.7619
 7882SOL     OW35104   2.005   4.035   9.081  0.3584 -0.0714 -0.1261
 7882SOL    HW135105   2.101   4.039   9.078  0.3518  0.4897  0.2709
 7882SOL    HW235106   1.989   4.129   9.089  1.1195  0.3021 -2.9230
 7883SOL     OW35107   3.428   4.253   3.829  0.0560  0.0725  0.1896
 7883SOL    HW135108   3.403   4.301   3.908 -2.6100 -0.8491 -0.1097
 7883SOL    HW235109   3.383   4.301   3.760  0.8908  0.5429 -0.0313
 7884SOL     OW35110   3.768   0.120   1.902 -0.1733  0.1993  0.1392
 7884SOL    HW135111   3.850   0.145   1.943  0.4743  1.8082 -2.1291
 7884SOL    HW235112   3.708   0.186   1.937  0.4831 -0.0452  1.7089
 7885SOL     OW35113   0.832   3.220  15.132 -0.1855  0.1366 -0.8185
 7885SOL    HW135114   0.754   3.273  15.119  1.0004  2.0075 -0.3368
 7885SOL    HW235115   0.813   3.142  15.080  1.0046 -0.3689 -0.4977
 7886SOL     OW35116   4.352   1.065  12.188 -0.6119  0.0480 -0.5397
 7886SOL    HW135117   4.435   1.111  12.198  0.3298 -1.4872 -1.4174
 7886SOL    HW235118   4.305   1.107  12.117 -2.2214  1.6656  1.4567
 7887SOL     OW35119   3.685   4.645   4.290  0.2870 -0.1046  0.3918
 7887SOL    HW135120   3.608   4.626   4.236  1.6835 -1.3998 -1.1508
 7887SOL    HW235121   3.761   4.637   4.232  1.5753  0.6429  1.9550
 7888SOL     OW35122   2.886   1.698   8.042 -0.1066  0.5308 -0.1387
 7888SOL    HW135123   2.805   1.690   7.992 -0.4630 -0.3954  0.5885
 7888SOL    HW235124   2.844   1.726   8.123 -1.4203  0.0901 -0.6604
 7889SOL     OW35125   2.553   0.956   8.253 -0.0139  0.4761  0.5825
 7889SOL    HW135126   2.517   1.019   8.315  0.6267  0.9196  0.4931
 7889SOL    HW235127   2.637   0.936   8.293  1.6956  0.9584 -2.7486
 7890SOL     OW35128   0.682   2.542  14.578 -0.0486 -0.1391  0.6803
 7890SOL    HW135129   0.636   2.499  14.506  0.4361  2.7937 -1.3832
 7890SOL    HW235130   0.718   2.618  14.532  0.1827 -0.8920 -0.3729
 7891SOL     OW35131   4.260   0.660   9.660  0.0418  0.8398 -0.0788
 7891SOL    HW135132   4.355   0.667   9.660  0.1063 -0.0115 -0.6777
 7891SOL    HW235133   4.231   0.748   9.683  0.1252  0.9804 -0.5016
 7892SOL     OW35134   1.049   0.538   9.268 -0.1361 -1.3238 -0.6595
 7892SOL    HW135135   0.992   0.597   9.217  0.3654 -0.3687 -0.1206
 7892SOL    HW235136   1.033   0.451   9.232 -2.1093 -0.8892 -0.8622
 7893SOL     OW35137   2.819   2.746   6.673 -0.0031  0.2627  0.1415
 7893SOL    HW135138   2.743   2.726   6.727 -0.9342  0.6961 -1.0160
 7893SOL    HW235139   2.795   2.818   6.614  0.7610  0.9075  0.6219
 7894SOL     OW35140   4.036   1.179   6.756  0.2119  0.4142 -0.6345
 7894SOL    HW135141   3.972   1.111   6.733 -0.5906  1.6190 -1.9478
 7894SOL    HW235142   4.033   1.217   6.668 -0.3497  0.1608 -0.7221
 7895SOL     OW35143   0.891   3.216   3.962  0.2623 -0.1549  0.6067
 7895SOL    HW135144   0.836   3.199   3.886  1.3777 -0.3998 -0.1341
 7895SOL    HW235145   0.953   3.145   3.944  1.3969  0.7702  0.9081
 7896SOL     OW35146   2.426   3.649  16.405 -0.5614 -0.5098  0.3067
 7896SOL    HW135147   2.384   3.627  16.321 -1.0592 -1.5726  0.8348
 7896SOL    HW235148   2.429   3.744  16.393 -2.3703 -0.5290 -0.4195
 7897SOL     OW35149   2.985   3.538  15.494  0.1940  0.3100  0.1793
 7897SOL    HW135150   2.977   3.445  15.516 -2.9696 -0.1226 -2.7052
 7897SOL    HW235151   3.036   3.579  15.563  2.2605 -0.8700 -0.6263
 7898SOL     OW35152   3.436   2.504   9.050 -0.4997 -0.0781  0.3744
 7898SOL    HW135153   3.358   2.553   9.022  0.2475  0.3410 -0.9248
 7898SOL    HW235154   3.487   2.575   9.089  0.6953 -1.4876  1.3445
 7899SOL     OW35155   2.472   3.893   6.235  0.5974  0.0386 -0.0860
 7899SOL    HW135156   2.549   3.916   6.287  0.0562 -1.7220  1.4738
 7899SOL    HW235157   2.516   3.825   6.184 -1.0198 -1.7584  0.9369
 7900SOL     OW35158   1.286   2.410   5.864  0.1346  0.3797  0.6464
 7900SOL    HW135159   1.364   2.465   5.857  0.0818  0.4078  0.2993
 7900SOL    HW235160   1.225   2.442   5.799  1.7483 -1.2606 -1.6898
 7901SOL     OW35161   1.909   2.844   9.076  0.0561 -0.1542  0.4006
 7901SOL    HW135162   1.924   2.802   8.992 -0.5331  0.7832 -0.1752
 7901SOL    HW235163   1.868   2.923   9.040  0.1772 -0.6474 -0.8110
 7902SOL     OW35164   3.213   0.951   8.494  0.0564 -0.1604 -0.1995
 7902SOL    HW135165   3.179   1.035   8.525  1.4471 -0.2597  1.5372
 7902SOL    HW235166   3.275   0.932   8.564 -0.7882  0.8721  0.8212
 7903SOL     OW35167   3.114   0.838  13.561  0.5429  0.3184  0.2115
 7903SOL    HW135168   3.096   0.750  13.528 -2.2780  0.6767  0.7536
 7903SOL    HW235169   3.175   0.820  13.632 -1.2482 -1.6877  1.2221
 7904SOL     OW35170   1.559   1.928   4.515 -0.3279 -0.2273 -0.3751
 7904SOL    HW135171   1.629   1.928   4.580  1.6283 -2.2814 -2.4785
 7904SOL    HW235172   1.480   1.919   4.569 -0.4774 -1.6693 -0.8148
 7905SOL     OW35173   3.980   1.852   8.178 -0.0020  0.6760 -0.0246
 7905SOL    HW135174   4.005   1.906   8.102 -0.7144 -1.5957 -1.8871
 7905SOL    HW235175   3.954   1.775   8.126  2.9706  0.1671 -0.7957
 7906SOL     OW35176   0.950   0.874   6.372 -0.1158  0.1374  0.8355
 7906SOL    HW135177   0.950   0.788   6.330 -0.7934 -0.6579  2.4587
 7906SOL    HW235178   0.994   0.855   6.455 -0.4634  1.6142  1.3435
 7907SOL     OW35179   2.876   3.886   8.903 -0.3565 -0.1543  0.3025
 7907SOL    HW135180   2.797   3.936   8.924 -0.4094 -0.1941  0.1960
 7907SOL    HW235181   2.936   3.957   8.928 -0.9319 -0.1112  1.5273
 7908SOL     OW35182   2.971   1.099  17.168 -0.1034  0.0211  0.1724
 7908SOL    HW135183   2.910   1.164  17.133  0.0057 -0.6943 -1.3703
 7908SOL    HW235184   3.012   1.141  17.243  1.2446 -0.3298 -0.3654
 7909SOL     OW35185   1.592   4.334  12.672  0.6318  0.3270  0.2343
 7909SOL    HW135186   1.624   4.374  12.591 -2.5152  0.1931 -1.0913
 7909SOL    HW235187   1.564   4.250  12.637  0.2112  0.7251 -0.3898
 7910SOL     OW35188   3.394   2.645  12.220 -0.5621  0.3337 -0.8195
 7910SOL    HW135189   3.405   2.731  12.179  0.6845  0.6486  0.1551
 7910SOL    HW235190   3.437   2.588  12.157 -1.1841 -1.5341  0.4561
 7911SOL     OW35191   4.690   1.837   3.385 -0.2514 -0.1680  0.1280
 7911SOL    HW135192   4.663   1.924   3.412 -1.2404 -0.8341  1.2925
 7911SOL    HW235193   4.617   1.781   3.360  0.5753 -1.0249 -0.4059
 7912SOL     OW35194   3.336   0.487   7.428 -0.2755  0.4073 -0.3981
 7912SOL    HW135195   3.355   0.484   7.522 -1.1926 -0.4514 -0.2387
 7912SOL    HW235196   3.274   0.560   7.422 -0.8124 -0.0352 -0.1591
 7913SOL     OW35197   0.344   4.376   8.279  0.2389 -0.1013 -0.0123
 7913SOL    HW135198   0.408   4.438   8.244 -0.8858 -0.0495 -1.9769
 7913SOL    HW235199   0.321   4.419   8.362 -0.7795  3.2613 -2.0314
 7914SOL     OW35200   1.049   0.265   3.265 -0.3785  0.5346  0.2628
 7914SOL    HW135201   1.130   0.297   3.304  1.2349 -0.3257 -2.3676
 7914SOL    HW235202   1.073   0.174   3.250  0.8125  1.3199 -2.6986
 7915SOL     OW35203   0.080   1.989   2.949  0.6959  0.0847  0.3575
 7915SOL    HW135204   0.029   1.909   2.932  0.9213 -0.3833  1.8714
 7915SOL    HW235205   0.157   1.958   2.902 -1.3985 -1.9349 -1.7632
 7916SOL     OW35206   2.834   2.809   2.972 -0.2257 -0.1673  0.3461
 7916SOL    HW135207   2.827   2.742   3.040 -0.1497 -0.8586 -0.3306
 7916SOL    HW235208   2.921   2.783   2.944 -0.5775 -0.8025 -0.1602
 7917SOL     OW35209   1.993   0.179   5.476 -0.4587  0.1289  0.3836
 7917SOL    HW135210   2.044   0.098   5.471 -1.2592 -0.4404  1.3996
 7917SOL    HW235211   1.979   0.187   5.570  0.2036 -0.2447  0.5119
 7918SOL     OW35212   2.320   0.853   8.687 -0.6046  0.2706 -0.1629
 7918SOL    HW135213   2.282   0.861   8.599 -0.0156  2.0793 -0.2411
 7918SOL    HW235214   2.298   0.759   8.687  1.0481 -0.1177 -0.9406
 7919SOL     OW35215   4.582   0.244   5.732 -0.0903  0.0283  1.1282
 7919SOL    HW135216   4.563   0.209   5.646 -2.0177 -0.1120  1.6026
 7919SOL    HW235217   4.595   0.336   5.707 -0.3534 -0.8025 -2.0005
 7920SOL     OW35218   0.246   1.565   9.583  0.1021  0.1982  0.4040
 7920SOL    HW135219   0.186   1.492   9.574  1.9609 -1.0888 -1.6114
 7920SOL    HW235220   0.319   1.514   9.618  0.4807  0.6713  0.3244
 7921SOL     OW35221   0.241   4.302   1.645  0.4574  0.1879  0.5147
 7921SOL    HW135222   0.232   4.276   1.737 -1.1624  0.7722  0.5250
 7921SOL    HW235223   0.283   4.386   1.658 -1.0571  1.4827 -3.0420
 7922SOL     OW35224   2.328   3.252   5.092 -0.2125  0.2803 -0.0343
 7922SOL    HW135225   2.239   3.288   5.093  0.1441  1.1367  0.9891
 7922SOL    HW235226   2.385   3.314   5.138  0.0018 -1.3411  1.8920
 7923SOL     OW35227   0.427   1.373  16.307  0.6269  0.4409  0.0074
 7923SOL    HW135228   0.442   1.465  16.285  0.4831  0.2313 -0.9647
 7923SOL    HW235229   0.436   1.390  16.400  1.1442  3.0723 -0.5369
 7924SOL     OW35230   4.216   0.949   3.311  0.0082 -0.6617  0.4812
 7924SOL    HW135231   4.254   0.930   3.397 -0.9052  1.1459  1.2716
 7924SOL    HW235232   4.297   0.954   3.261 -1.2549 -0.0081 -1.5291
 7925SOL     OW35233   0.543   2.489   8.634 -0.4129 -0.1252 -0.2289
 7925SOL    HW135234   0.552   2.568   8.687  0.1593 -1.5335  1.7505
 7925SOL    HW235235   0.550   2.527   8.546  0.8817  1.8345  0.7358
 7926SOL     OW35236   2.103   3.744   6.734 -0.4690  0.3418 -1.1042
 7926SOL    HW135237   2.129   3.728   6.643  0.0275  0.2492 -0.9470
 7926SOL    HW235238   2.105   3.657   6.772  1.6670  0.3083 -1.3134
 7927SOL     OW35239   2.242   0.285  11.247 -0.4555 -0.4794  0.0593
 7927SOL    HW135240   2.268   0.311  11.158  2.1162 -0.0676  0.9259
 7927SOL    HW235241   2.309   0.220  11.266 -1.4701 -1.6052 -0.2508
 7928SOL     OW35242   0.745   4.067   5.228  0.3611 -0.4207  0.0704
 7928SOL    HW135243   0.760   4.056   5.322  2.0431  2.2293  0.1232
 7928SOL    HW235244   0.652   4.092   5.229  0.4590 -0.0499  0.0888
 7929SOL     OW35245   2.101   3.972   5.970 -0.3546 -0.0769 -0.3777
 7929SOL    HW135246   2.044   3.992   5.896 -1.7889  1.9572  1.2764
 7929SOL    HW235247   2.190   4.002   5.950 -0.3098 -0.8500 -1.2852
 7930SOL     OW35248   2.826   2.227   7.234  0.3028 -0.5495 -0.2767
 7930SOL    HW135249   2.868   2.190   7.311 -1.5974  0.8821  1.4549
 7930SOL    HW235250   2.835   2.320   7.256  0.9554 -1.0086  1.3619
 7931SOL     OW35251   0.447   0.970   5.504 -0.4154  0.6775  0.3812
 7931SOL    HW135252   0.530   1.015   5.489 -0.6655  1.6369  1.8321
 7931SOL    HW235253   0.384   1.030   5.464 -0.4966  0.0302 -0.4502
 7932SOL     OW35254   0.237   2.761  10.783  0.2284  0.1627  0.0946
 7932SOL    HW135255   0.321   2.804  10.802  0.5699  0.6846 -2.6314
 7932SOL    HW235256   0.227   2.705  10.860  0.4238 -1.0614 -0.7567
 7933SOL     OW35257   3.146   3.845  10.999 -0.4317 -0.0942 -0.5953
 7933SOL    HW135258   3.240   3.864  11.005 -0.2518 -0.8554 -0.9981
 7933SOL    HW235259   3.132   3.819  11.090  0.7462  0.2045 -0.3300
 7934SOL     OW35260   4.603   4.016   7.852  0.2986 -0.6664 -0.2654
 7934SOL    HW135261   4.652   4.069   7.789 -0.5745 -0.2995 -0.6234
 7934SOL    HW235262   4.675   3.973   7.899 -0.9905 -1.2399  1.2016
 7935SOL     OW35263   1.481   1.527   9.611  0.0077  0.5770 -0.5348
 7935SOL    HW135264   1.534   1.589   9.560  0.8393 -0.2724 -0.7125
 7935SOL    HW235265   1.534   1.449   9.592  1.7195  1.1713  1.8060
 7936SOL     OW35266   0.165   0.719   3.473 -0.2063  0.0959  0.0208
 7936SOL    HW135267   0.247   0.671   3.487  0.9342  2.0971  0.1860
 7936SOL    HW235268   0.189   0.771   3.396  1.2066  1.0226  1.0865
 7937SOL     OW35269   4.241   2.552   8.240  0.5684 -0.0412  0.3274
 7937SOL    HW135270   4.300   2.484   8.207  0.2163  0.2923 -1.0208
 7937SOL    HW235271   4.302   2.622   8.216  0.6405 -0.3325 -0.3412
 7938SOL     OW35272   3.406   0.655  14.867  0.0418  0.6933 -0.1919
 7938SOL    HW135273   3.413   0.603  14.787 -2.6085 -0.0815  0.0785
 7938SOL    HW235274   3.311   0.663  14.875 -0.2512  0.0623 -3.1999
 7939SOL     OW35275   3.170   1.963   3.066  0.0322 -0.0185 -0.5618
 7939SOL    HW135276   3.209   1.911   3.135 -0.6423  1.8531  1.2152
 7939SOL    HW235277   3.076   1.958   3.082  0.4319  0.9167  2.0384
 7940SOL     OW35278   3.159   1.378   8.922  0.0875  0.3192  0.3281
 7940SOL    HW135279   3.235   1.362   8.866 -0.4952  1.4847 -0.7818
 7940SOL    HW235280   3.185   1.466   8.951  1.1934  0.7558 -2.0127
 7941SOL     OW35281   1.245   0.460   4.384 -0.1432 -0.0771 -0.2698
 7941SOL    HW135282   1.321   0.419   4.424 -0.4427  2.2965  2.7028
 7941SOL    HW235283   1.185   0.464   4.459 -0.6911 -0.3664 -0.6956
 7942SOL     OW35284   1.524   1.279   5.545 -0.4957 -0.1392  0.2286
 7942SOL    HW135285   1.586   1.278   5.618  1.1021  0.0588 -1.1147
 7942SOL    HW235286   1.554   1.364   5.513 -2.5369  1.3812  2.3572
 7943SOL     OW35287   0.821   3.574   9.785 -0.1846  0.3138  0.1169
 7943SOL    HW135288   0.874   3.651   9.766 -1.7102  1.1885 -0.6321
 7943SOL    HW235289   0.888   3.508   9.766 -0.5229  0.0985 -0.3262
 7944SOL     OW35290   0.170   4.691   3.671 -0.6341 -0.2617  0.3900
 7944SOL    HW135291   0.084   4.666   3.704 -1.6990  2.3388 -0.4314
 7944SOL    HW235292   0.221   4.613   3.692  0.9932  0.8513  0.5856
 7945SOL     OW35293   4.338   2.342  12.275  0.0536  0.5320  0.4794
 7945SOL    HW135294   4.247   2.368  12.290 -0.1514 -0.1555  0.4222
 7945SOL    HW235295   4.352   2.337  12.181  2.8860 -0.5476  0.9617
 7946SOL     OW35296   4.385   2.197  10.029  0.1025 -0.2061 -0.3524
 7946SOL    HW135297   4.439   2.163  10.100 -0.8029  2.1619  1.4834
 7946SOL    HW235298   4.416   2.287  10.021  0.1173 -0.2726 -0.9879
 7947SOL     OW35299   2.845   3.554  12.836 -0.3135 -0.4096  0.4727
 7947SOL    HW135300   2.897   3.484  12.796  0.5652  0.4982  0.0303
 7947SOL    HW235301   2.895   3.636  12.837 -0.3653 -0.3584 -1.0171
 7948SOL     OW35302   0.364   2.876   3.205 -0.0919  0.5457  0.6075
 7948SOL    HW135303   0.314   2.811   3.155 -1.9350  1.6475  1.0145
 7948SOL    HW235304   0.298   2.896   3.272 -0.7140 -1.0887  0.4833
 7949SOL     OW35305   3.867   4.459   4.990  0.6522 -0.4446  1.2287
 7949SOL    HW135306   3.781   4.430   5.021  1.2094 -0.3909  2.8242
 7949SOL    HW235307   3.840   4.537   4.943 -0.6319 -0.9202  1.1881
 7950SOL     OW35308   3.097   2.516   6.000  0.1364 -0.4706 -0.3334
 7950SOL    HW135309   3.056   2.491   5.917 -0.8433 -0.0564  0.0174
 7950SOL    HW235310   3.120   2.429   6.034  0.9516 -0.1500 -0.0752
 7951SOL     OW35311   2.361   3.789   1.395  0.6409  0.5290  0.4071
 7951SOL    HW135312   2.339   3.698   1.376  0.1954  1.1777 -2.1993
 7951SOL    HW235313   2.283   3.842   1.381  1.1287  1.6597  2.0663
 7952SOL     OW35314   1.855   0.311   7.017  0.1308 -0.0189  0.9498
 7952SOL    HW135315   1.927   0.249   7.003  0.0956  0.5215 -1.6158
 7952SOL    HW235316   1.890   0.385   6.968  1.5591 -1.7299 -0.6489
 7953SOL     OW35317   3.029   4.602   4.069 -0.0337 -0.0671 -0.1789
 7953SOL    HW135318   3.089   4.546   4.020 -1.0598  2.1174 -3.9253
 7953SOL    HW235319   3.084   4.679   4.076 -1.1988  0.7027  0.5994
 7954SOL     OW35320   3.932   0.468   6.080 -0.0086 -0.5393 -0.6214
 7954SOL    HW135321   3.868   0.425   6.023 -2.1472  1.1764  0.4996
 7954SOL    HW235322   4.015   0.464   6.032  0.7483  1.5171  0.4767
 7955SOL     OW35323   4.269   1.848   8.750  0.5214  0.5003 -0.1532
 7955SOL    HW135324   4.177   1.863   8.774  0.6352  3.3207 -1.5096
 7955SOL    HW235325   4.309   1.860   8.835 -1.3360  0.3006  0.7612
 7956SOL     OW35326   2.553   2.941   9.360 -0.4334 -0.1681 -0.0142
 7956SOL    HW135327   2.492   2.873   9.390  0.2944 -0.2529  1.2806
 7956SOL    HW235328   2.603   2.957   9.440  1.2734 -0.8082 -0.9526
 7957SOL     OW35329   3.037   3.823   6.993  0.4068  0.4294 -0.3418
 7957SOL    HW135330   3.043   3.875   7.073  0.5903  0.6199 -0.4800
 7957SOL    HW235331   3.018   3.737   7.030  1.5393 -0.4883 -1.9142
 7958SOL     OW35332   1.906   0.336  16.927  0.2912 -0.6352 -0.1560
 7958SOL    HW135333   1.862   0.388  16.859 -0.7903 -1.1192  0.1591
 7958SOL    HW235334   1.850   0.262  16.904  0.5024 -0.4955 -1.1550
 7959SOL     OW35335   3.292   4.328   7.675  0.3096 -0.0472  0.2117
 7959SOL    HW135336   3.380   4.315   7.640 -0.9994 -1.7772 -2.5046
 7959SOL    HW235337   3.254   4.255   7.625 -0.1530 -0.6924  1.4977
 7960SOL     OW35338   4.062   2.088   8.620 -0.3824  0.6384 -0.5041
 7960SOL    HW135339   4.153   2.083   8.648 -1.2864  0.9559  2.4461
 7960SOL    HW235340   4.022   2.070   8.705 -1.9435  0.2610 -1.3106
 7961SOL     OW35341   2.221   3.523  15.709  0.1553  0.8571 -0.6242
 7961SOL    HW135342   2.142   3.532  15.655 -1.5180 -2.1092  1.3437
 7961SOL    HW235343   2.188   3.518  15.799 -0.3928  1.2738 -0.8037
 7962SOL     OW35344   3.208   2.227   8.330  0.3922 -0.1456 -0.3115
 7962SOL    HW135345   3.142   2.233   8.399  0.2450  0.8636 -0.5474
 7962SOL    HW235346   3.164   2.225   8.245  2.1827 -2.1986 -1.1884
 7963SOL     OW35347   3.153   3.890   4.429  0.3448 -0.2388  0.2004
 7963SOL    HW135348   3.211   3.924   4.361  0.4729 -0.5579  0.1500
 7963SOL    HW235349   3.068   3.912   4.391  0.3886 -0.9974 -0.3370
 7964SOL     OW35350   0.178   0.177  16.455 -0.0574 -0.8123 -0.0334
 7964SOL    HW135351   0.137   0.117  16.393  0.8569  0.9643 -2.3178
 7964SOL    HW235352   0.270   0.161  16.433 -0.2780  1.5619 -2.5978
 7965SOL     OW35353   4.631   3.459   3.958  0.2843 -0.1734 -0.3587
 7965SOL    HW135354   0.004   3.466   3.972  0.2191 -1.1864  0.5794
 7965SOL    HW235355   4.600   3.538   4.002 -2.6514 -0.3051 -2.2304
 7966SOL     OW35356   0.656   1.129   5.456 -0.4627  0.5525 -1.1823
 7966SOL    HW135357   0.647   1.221   5.482  1.8608  0.0440  1.3331
 7966SOL    HW235358   0.702   1.142   5.373  0.2612  0.5214 -0.7883
 7967SOL     OW35359   0.242   1.769  17.144  0.2404  0.2991 -0.2405
 7967SOL    HW135360   0.175   1.814  17.092  0.8078  0.1833 -1.0699
 7967SOL    HW235361   0.186   1.754  17.221 -1.6647  0.6937 -1.5521
 7968SOL     OW35362   4.419   2.227   5.974  0.7578  0.3721 -0.1038
 7968SOL    HW135363   4.364   2.277   6.034  2.5568  1.1251  0.9135
 7968SOL    HW235364   4.424   2.294   5.906 -0.5630  0.2538 -0.3172
 7969SOL     OW35365   4.616   3.556  10.122 -0.4678  0.0979  0.6306
 7969SOL    HW135366   4.647   3.475  10.162  0.2617  0.0816  0.0312
 7969SOL    HW235367   4.521   3.541  10.120 -0.4230  0.2180 -3.6529
 7970SOL     OW35368   0.104   3.418   6.611  0.3994  0.2037 -0.2197
 7970SOL    HW135369   0.071   3.478   6.678 -2.5348 -1.0166 -0.5742
 7970SOL    HW235370   0.191   3.403   6.649 -0.0376 -0.2721  0.6088
 7971SOL     OW35371   4.632   2.654   5.529 -0.1045  0.0560  0.3808
 7971SOL    HW135372   4.651   2.723   5.592  0.6054 -2.1032  2.5407
 7971SOL    HW235373   4.702   2.592   5.553 -0.6918 -1.9781 -3.1772
 7972SOL     OW35374   1.860   2.028   5.516 -0.7168 -0.0340  0.9515
 7972SOL    HW135375   1.790   2.082   5.481 -0.7830 -0.4484  0.4471
 7972SOL    HW235376   1.871   1.969   5.441 -2.1586  0.8257  0.0625
 7973SOL     OW35377   3.275   2.825   5.725 -0.5979 -0.5152  0.1106
 7973SOL    HW135378   3.315   2.748   5.764 -2.8148 -1.2798  0.8601
 7973SOL    HW235379   3.325   2.889   5.776  3.0349 -3.7670  0.5667
 7974SOL     OW35380   1.927   1.425  12.325  0.1190 -0.0094  0.3811
 7974SOL    HW135381   1.957   1.367  12.255  3.0159  1.4384  0.4193
 7974SOL    HW235382   1.972   1.387  12.400 -1.6311 -0.7834  1.0365
 7975SOL     OW35383   2.877   3.634  14.885  0.0413  0.1224 -0.3123
 7975SOL    HW135384   2.853   3.716  14.841 -0.0814 -0.3840 -1.1892
 7975SOL    HW235385   2.817   3.644  14.959 -0.0320 -0.0826 -0.3465
 7976SOL     OW35386   0.923   2.623  17.528  0.1540  0.7629 -0.5308
 7976SOL    HW135387   0.878   2.632  17.444  0.4455  1.0843 -0.6520
 7976SOL    HW235388   0.936   2.717  17.544 -1.2569  0.4526  2.5122
 7977SOL     OW35389   1.111   4.513   2.288 -0.2785 -0.6518  0.2700
 7977SOL    HW135390   1.042   4.456   2.321 -1.0013 -0.2896 -0.6089
 7977SOL    HW235391   1.089   4.490   2.198  0.6326  1.5167 -0.5158
 7978SOL     OW35392   2.566   3.357   3.471  0.0647  0.1845  0.0522
 7978SOL    HW135393   2.533   3.417   3.405 -0.3673  0.0470  0.1408
 7978SOL    HW235394   2.654   3.338   3.440 -0.1159 -0.9797  0.2190
 7979SOL     OW35395   3.470   2.685   9.342  0.5157 -0.3254  0.0448
 7979SOL    HW135396   3.561   2.662   9.322  0.7059 -0.6418  1.2783
 7979SOL    HW235397   3.485   2.748   9.412  2.1008  1.5798 -2.0147
 7980SOL     OW35398   0.188   2.901  10.522 -0.1347  0.0353 -0.5594
 7980SOL    HW135399   0.255   2.967  10.507  1.1416 -0.7359  1.7379
 7980SOL    HW235400   0.210   2.857  10.604  1.7710  1.0265 -0.5514
 7981SOL     OW35401   2.741   0.782   8.997 -0.4385  0.3916 -0.0230
 7981SOL    HW135402   2.740   0.776   8.901  2.3406 -0.6158  0.0187
 7981SOL    HW235403   2.832   0.807   9.009 -0.0262 -0.8675 -0.4484
 7982SOL     OW35404   4.571   3.970   2.920  0.3259 -0.2988  0.5403
 7982SOL    HW135405   4.495   3.940   2.971 -0.9972  1.4131 -0.4366
 7982SOL    HW235406   4.546   3.952   2.829 -0.3927  1.4043  0.3979
 7983SOL     OW35407   2.994   2.709   7.779  0.2032 -0.4359 -0.4016
 7983SOL    HW135408   2.944   2.628   7.786 -0.1628 -0.2984 -1.5164
 7983SOL    HW235409   3.023   2.710   7.870 -0.4401  0.0655 -0.2086
 7984SOL     OW35410   4.687   3.865   9.514 -0.5355 -0.2442  0.4673
 7984SOL    HW135411   0.031   3.918   9.560  2.2108 -2.4959 -0.7488
 7984SOL    HW235412   0.018   3.789   9.487  0.5117  0.2580  1.0744
 7985SOL     OW35413   2.837   1.374   5.788  0.0011 -0.1893  0.3974
 7985SOL    HW135414   2.761   1.355   5.734  0.8679 -0.3700 -0.7612
 7985SOL    HW235415   2.874   1.440   5.728 -0.4096 -0.0559  0.2956
 7986SOL     OW35416   2.743   2.236   9.165  0.8297  0.0290 -0.7064
 7986SOL    HW135417   2.713   2.263   9.252  1.6256 -2.3911  0.3328
 7986SOL    HW235418   2.688   2.281   9.102 -1.3960  0.3417  1.4604
 7987SOL     OW35419   4.244   2.136   3.099 -0.0560  0.1546 -0.1064
 7987SOL    HW135420   4.234   2.171   3.188 -1.1860  1.5894 -0.7999
 7987SOL    HW235421   4.167   2.079   3.102  0.8883 -1.1328 -0.1650
 7988SOL     OW35422   4.540   0.511   2.886 -0.4484 -0.2507  0.4942
 7988SOL    HW135423   4.525   0.416   2.886  1.7532 -0.6157 -3.0452
 7988SOL    HW235424   4.629   0.508   2.852 -0.1870  0.2654  1.1426
 7989SOL     OW35425   4.474   0.974   3.176  0.2230  0.6227 -0.1241
 7989SOL    HW135426   4.472   0.924   3.095  0.6973  2.0005 -0.9867
 7989SOL    HW235427   4.564   0.998   3.195 -0.3134  0.6505  2.3894
 7990SOL     OW35428   1.618   4.628  16.570 -0.5592  0.2390  0.2373
 7990SOL    HW135429   1.575   4.689  16.631  0.2813  3.0816 -1.9848
 7990SOL    HW235430   1.551   4.560  16.562 -0.3471  0.2808 -1.8879
 7991SOL     OW35431   0.293   3.083   2.151  0.8469  0.1676  0.6502
 7991SOL    HW135432   0.239   3.006   2.132 -1.9536  1.6889  2.4167
 7991SOL    HW235433   0.348   3.054   2.223  0.3831  1.0517  1.3595
 7992SOL     OW35434   1.654   4.163   3.815  0.3773 -0.3529 -0.1873
 7992SOL    HW135435   1.599   4.238   3.839  1.9138  0.1913  1.6958
 7992SOL    HW235436   1.684   4.186   3.727 -2.1514  3.6414 -0.0261
 7993SOL     OW35437   2.846   3.080   3.028 -0.2052  0.2437 -0.6310
 7993SOL    HW135438   2.848   2.986   3.013 -1.2491 -0.3309  2.8879
 7993SOL    HW235439   2.757   3.098   3.000 -0.8446 -0.0993  1.1940
 7994SOL     OW35440   2.227   4.355   8.236  0.2724 -0.1168  0.0474
 7994SOL    HW135441   2.182   4.416   8.294  2.2753  0.4320  1.0083
 7994SOL    HW235442   2.314   4.393   8.220 -1.0439  3.6915  1.9769
 7995SOL     OW35443   0.838   1.636   7.776  0.4723 -0.8358  0.1369
 7995SOL    HW135444   0.813   1.687   7.699 -0.2568 -1.8060 -0.2789
 7995SOL    HW235445   0.779   1.659   7.847  3.3454 -2.5586  3.0872
 7996SOL     OW35446   0.758   2.353   9.950  0.2572 -0.2136  0.3383
 7996SOL    HW135447   0.701   2.307  10.012 -0.8327  0.3271 -0.2686
 7996SOL    HW235448   0.794   2.422  10.006  1.4131 -1.4012  1.0637
 7997SOL     OW35449   3.062   3.157   7.862 -0.2100  0.2090  0.4690
 7997SOL    HW135450   3.115   3.095   7.912  1.4814  2.1977  1.1513
 7997SOL    HW235451   3.039   3.220   7.931  2.1868  0.8164  0.6948
 7998SOL     OW35452   4.593   2.914  11.654 -0.0818 -0.3258 -0.6052
 7998SOL    HW135453   4.570   2.843  11.714  1.1337 -1.1372 -1.1071
 7998SOL    HW235454   4.536   2.902  11.578  0.0210  2.7431 -1.1822
 7999SOL     OW35455   4.368   2.580   9.539 -0.0978 -0.1828  0.3967
 7999SOL    HW135456   4.273   2.576   9.542 -0.0459 -1.5484  0.2443
 7999SOL    HW235457   4.399   2.638   9.469  0.6747 -0.9164  0.1276
 8000SOL     OW35458   2.583   1.603   3.262 -0.0865  0.2124  0.0556
 8000SOL    HW135459   2.648   1.669   3.286  1.6159 -1.2127 -0.6302
 8000SOL    HW235460   2.520   1.659   3.217 -0.9387 -2.1273 -1.6686
 8001SOL     OW35461   0.977   1.736   7.472 -0.8827  0.2753  0.1413
 8001SOL    HW135462   0.949   1.822   7.502  1.8241  0.7883  1.2253
 8001SOL    HW235463   0.965   1.756   7.379 -0.0112 -0.1421 -0.0607
 8002SOL     OW35464   1.017   2.667   9.973 -0.0100  0.8157  0.2370
 8002SOL    HW135465   0.984   2.608  10.041 -1.8848 -0.3633 -1.6705
 8002SOL    HW235466   0.987   2.638   9.887  1.2729  0.1127  0.0255
 8003SOL     OW35467   0.465   3.803   4.707 -0.4136  0.3381  0.6214
 8003SOL    HW135468   0.432   3.716   4.731 -0.7283 -0.2063 -1.8049
 8003SOL    HW235469   0.389   3.857   4.731  0.8642  1.5246  2.0444
 8004SOL     OW35470   2.027   1.532   2.710 -0.0771 -0.8179 -0.3259
 8004SOL    HW135471   2.000   1.444   2.686 -1.0618 -0.2805 -1.1530
 8004SOL    HW235472   2.068   1.559   2.628  0.3300  0.7202  0.3622
 8005SOL     OW35473   0.035   2.785   9.227 -0.0498 -0.0406  0.3211
 8005SOL    HW135474   0.122   2.770   9.264 -0.1988 -0.1879  0.6166
 8005SOL    HW235475   0.057   2.869   9.187  0.3234 -0.9373 -1.3294
 8006SOL     OW35476   2.384   1.584  14.536 -0.3939  0.0323 -0.2280
 8006SOL    HW135477   2.424   1.559  14.452 -1.3285 -1.0894 -0.3340
 8006SOL    HW235478   2.307   1.531  14.517 -1.2629  0.9880  0.6188
 8007SOL     OW35479   3.408   2.938   8.378  0.1094  0.1750 -0.0835
 8007SOL    HW135480   3.436   2.894   8.298 -1.0416 -0.0677 -0.3559
 8007SOL    HW235481   3.490   2.980   8.405 -0.1812 -0.9551  2.5996
 8008SOL     OW35482   3.106   1.673   4.776 -0.3329  0.2518 -0.2698
 8008SOL    HW135483   3.041   1.655   4.844  0.4004  0.1428  0.3871
 8008SOL    HW235484   3.041   1.682   4.706 -0.5181  0.9478 -0.0102
 8009SOL     OW35485   1.267   4.170  12.155 -0.1054 -0.3383  0.0660
 8009SOL    HW135486   1.223   4.112  12.093 -0.0036  1.5371 -1.7792
 8009SOL    HW235487   1.329   4.110  12.197 -1.8296 -0.9851  1.6673
 8010SOL     OW35488   1.056   0.860  10.779 -0.1269  0.1430 -0.4128
 8010SOL    HW135489   1.098   0.780  10.746  0.6354  0.2977  0.2015
 8010SOL    HW235490   1.019   0.895  10.697  1.3661 -0.3233 -1.2955
 8011SOL     OW35491   0.813   4.025   4.591  0.0445 -0.3641  0.0939
 8011SOL    HW135492   0.890   4.045   4.539  0.7739 -0.5269  1.1069
 8011SOL    HW235493   0.740   4.072   4.551  0.3838  2.6121  2.9992
 8012SOL     OW35494   4.016   3.621  11.357  0.0243  0.0578 -0.5187
 8012SOL    HW135495   3.982   3.552  11.301  2.8595 -1.1104 -0.8132
 8012SOL    HW235496   4.029   3.564  11.432  0.0549 -0.7385 -1.1310
 8013SOL     OW35497   3.416   2.810   0.557 -0.0723 -0.0276  0.5938
 8013SOL    HW135498   3.390   2.821   0.648 -0.4117 -0.6822  0.5788
 8013SOL    HW235499   3.495   2.755   0.561 -1.6820 -2.3978  0.0333
 8014SOL     OW35500   4.661   0.551   3.571 -0.2043  0.5723 -0.5158
 8014SOL    HW135501   0.022   0.593   3.544 -1.0028  0.8061 -2.5831
 8014SOL    HW235502   4.658   0.488   3.499 -1.5045  0.9149 -0.7589
 8015SOL     OW35503   1.218   1.122   5.171 -0.6471  0.0178  0.0483
 8015SOL    HW135504   1.227   1.035   5.212  0.8070 -0.0195 -0.3527
 8015SOL    HW235505   1.129   1.126   5.136 -0.1980 -0.4257 -1.1224
 8016SOL     OW35506   0.393   2.339   8.002  0.1891 -0.3045 -0.2198
 8016SOL    HW135507   0.380   2.335   7.907 -2.2774  1.7588  0.0267
 8016SOL    HW235508   0.423   2.430   8.001 -0.2810 -0.1665 -1.4119
 8017SOL     OW35509   0.003   4.225   6.241 -0.2073 -0.0466 -0.7725
 8017SOL    HW135510   4.655   4.181   6.190 -0.3522 -0.6509 -0.0582
 8017SOL    HW235511   4.699   4.317   6.233  1.8451  0.5667 -0.0950
 8018SOL     OW35512   3.300   1.553   4.915  0.6044  0.2902 -0.4311
 8018SOL    HW135513   3.334   1.632   4.957 -0.5339  0.6582 -0.2056
 8018SOL    HW235514   3.247   1.599   4.850 -3.0600 -1.4450  1.2841
 8019SOL     OW35515   2.379   1.389  10.102 -0.2208 -0.0651 -0.2315
 8019SOL    HW135516   2.472   1.397  10.120  0.1370 -0.8229 -1.8132
 8019SOL    HW235517   2.369   1.477  10.065 -0.4228  0.3231  0.7170
 8020SOL     OW35518   0.518   4.715   8.682  0.0182  0.0374  0.2639
 8020SOL    HW135519   0.571   0.071   8.704  1.1330 -0.3745 -0.9754
 8020SOL    HW235520   0.541   4.652   8.750  0.3446 -0.6802 -0.5100
 8021SOL     OW35521   1.984   4.673   7.222 -0.6063 -0.4280 -0.0035
 8021SOL    HW135522   1.982   0.046   7.235 -0.4609 -0.1997 -1.6835
 8021SOL    HW235523   1.893   4.652   7.245 -0.4422  1.3876  2.2457
 8022SOL     OW35524   2.275   1.660   2.159  0.7179  0.2109  0.2154
 8022SOL    HW135525   2.297   1.578   2.204 -1.3143  0.4527  1.6554
 8022SOL    HW235526   2.359   1.705   2.160  0.8426 -0.0301  0.6958
 8023SOL     OW35527   4.192   4.206   9.217 -0.2557 -0.1417 -0.0614
 8023SOL    HW135528   4.180   4.260   9.295 -1.5763 -0.6900  0.1178
 8023SOL    HW235529   4.217   4.123   9.257 -0.8018 -0.3665 -0.1877
 8024SOL     OW35530   4.538   0.125   7.224 -0.0241  0.5815 -0.7180
 8024SOL    HW135531   4.630   0.102   7.231 -0.4194 -1.0030 -0.4950
 8024SOL    HW235532   4.537   0.168   7.139  0.8742  1.1901 -0.4187
 8025SOL     OW35533   4.363   2.367   1.051 -0.0620  0.0014  0.3115
 8025SOL    HW135534   4.296   2.359   1.119 -1.3986  1.2285 -0.8509
 8025SOL    HW235535   4.366   2.281   1.008 -1.2690 -0.5049  1.2527
 8026SOL     OW35536   3.471   2.043   3.828 -0.0859  0.3147  0.1477
 8026SOL    HW135537   3.519   1.965   3.857 -0.0700  1.1357  2.3697
 8026SOL    HW235538   3.390   2.023   3.875 -1.3713  0.2253 -2.1115
 8027SOL     OW35539   1.640   1.288   8.765  0.1010  0.3440 -0.2350
 8027SOL    HW135540   1.604   1.203   8.792 -1.4889  1.3134  0.7285
 8027SOL    HW235541   1.571   1.348   8.794 -0.5548  1.0259 -3.1648
 8028SOL     OW35542   4.419   2.011   1.942 -0.3543 -0.3404  0.0318
 8028SOL    HW135543   4.429   1.936   1.883 -0.8485 -0.0911 -0.3648
 8028SOL    HW235544   4.327   2.005   1.968 -0.7596 -1.1060 -1.5867
 8029SOL     OW35545   3.162   4.396   4.519 -0.5627  0.3288 -0.1284
 8029SOL    HW135546   3.115   4.480   4.521  0.6108  1.0028 -0.9485
 8029SOL    HW235547   3.093   4.330   4.515 -0.4721  0.2808 -0.9023
 8030SOL     OW35548   1.092   2.589   3.616  0.2249  0.2522  0.0620
 8030SOL    HW135549   1.139   2.672   3.618  0.0911  0.3340 -0.2204
 8030SOL    HW235550   1.035   2.596   3.693  0.0647  2.1488 -0.2264
 8031SOL     OW35551   1.329   2.466   6.233 -0.3797 -0.2018 -0.0596
 8031SOL    HW135552   1.266   2.515   6.286 -0.9439 -0.7873 -0.2025
 8031SOL    HW235553   1.271   2.421   6.173 -0.4880 -1.4333  0.9633
 8032SOL     OW35554   3.446   1.157   4.147  0.3022  0.4097 -0.0320
 8032SOL    HW135555   3.510   1.205   4.095 -0.8014  0.0043 -1.7713
 8032SOL    HW235556   3.426   1.216   4.220 -0.3736  2.0414 -1.5573
 8033SOL     OW35557   2.236   1.613   8.086  0.1355  0.0895 -0.4423
 8033SOL    HW135558   2.214   1.552   8.157 -0.0702 -1.0613 -1.4954
 8033SOL    HW235559   2.278   1.555   8.023  2.6979  1.8842 -0.3815
 8034SOL     OW35560   2.601   4.373   7.467  0.3299 -1.0103  0.0357
 8034SOL    HW135561   2.520   4.423   7.455  0.3541 -1.4342 -1.9578
 8034SOL    HW235562   2.602   4.331   7.381  1.3612  1.3831 -1.1466
 8035SOL     OW35563   1.637   2.762  11.015  0.2488  0.4245  0.0701
 8035SOL    HW135564   1.643   2.815  11.094  2.2479 -0.2024  0.3144
 8035SOL    HW235565   1.543   2.750  11.032  0.4027 -1.4086 -0.3332
 8036SOL     OW35566   3.990   1.645  13.847 -0.0852 -0.5045  0.2173
 8036SOL    HW135567   4.062   1.662  13.907  0.5479 -1.0886 -0.3896
 8036SOL    HW235568   3.923   1.696  13.893 -0.2758 -1.0986  0.5933
 8037SOL     OW35569   2.640   1.071   5.473  0.3493 -0.2748 -0.0967
 8037SOL    HW135570   2.550   1.057   5.444 -0.3784  0.9234  1.5808
 8037SOL    HW235571   2.682   1.045   5.391 -1.1760  0.6855 -1.1952
 8038SOL     OW35572   3.354   0.927   2.474 -0.3710 -0.2583 -0.2072
 8038SOL    HW135573   3.357   0.831   2.480 -1.2684 -0.1763  1.5451
 8038SOL    HW235574   3.446   0.936   2.448  0.5231 -1.8720  2.3819
 8039SOL     OW35575   2.011   4.324  11.890  0.3031  0.4716 -0.4858
 8039SOL    HW135576   2.064   4.300  11.966 -1.3541  0.1100  0.5841
 8039SOL    HW235577   2.005   4.236  11.853  0.3630 -0.3111  1.3301
 8040SOL     OW35578   0.032   4.617  10.555 -0.0029 -0.0878  0.2910
 8040SOL    HW135579   4.693   4.690  10.565  1.0239  0.9243 -1.1221
 8040SOL    HW235580   0.036   4.578  10.643  1.3344 -0.5016  0.0594
 8041SOL     OW35581   0.557   0.795  17.136 -0.4489 -0.0926 -0.1498
 8041SOL    HW135582   0.528   0.767  17.049 -3.3232  0.9451  0.4603
 8041SOL    HW235583   0.620   0.725  17.153  2.2743  2.6216  0.7646
 8042SOL     OW35584   1.456   3.689  15.304 -0.1551 -0.4610 -0.2109
 8042SOL    HW135585   1.378   3.649  15.264 -0.1007 -2.1740  1.4053
 8042SOL    HW235586   1.432   3.693  15.397 -1.6834 -1.3025 -0.5508
 8043SOL     OW35587   0.867   4.466   1.830 -0.0421 -0.6708 -0.3408
 8043SOL    HW135588   0.782   4.421   1.823  1.3434 -3.3478  0.0746
 8043SOL    HW235589   0.849   4.525   1.756  0.0478  1.2552  1.1747
 8044SOL     OW35590   1.487   3.891  16.176 -0.4581 -0.0716  0.0102
 8044SOL    HW135591   1.537   3.887  16.258  0.1085  0.2445 -0.3213
 8044SOL    HW235592   1.544   3.863  16.105  0.2966  1.4488  0.0338
 8045SOL     OW35593   2.605   3.146   2.851  0.4939 -0.0189  0.0400
 8045SOL    HW135594   2.614   3.064   2.803  0.8546  0.2052 -0.2791
 8045SOL    HW235595   2.534   3.179   2.795  0.7467  0.1596 -0.1793
 8046SOL     OW35596   0.972   0.186   6.750  0.1133  0.1142  0.1165
 8046SOL    HW135597   1.033   0.118   6.722  0.8661  1.2245 -0.9490
 8046SOL    HW235598   1.017   0.222   6.826  2.4983 -2.7226  0.0621
 8047SOL     OW35599   1.454   4.226   7.853  0.0460 -0.2940  0.4780
 8047SOL    HW135600   1.476   4.158   7.917  1.4928 -0.7495 -0.5057
 8047SOL    HW235601   1.379   4.182   7.812 -0.0469  1.2960 -1.0603
 8048SOL     OW35602   1.315   2.437  16.589 -0.0113  1.1018  0.0778
 8048SOL    HW135603   1.232   2.472  16.556 -0.6195  0.4430  0.9097
 8048SOL    HW235604   1.272   2.415  16.672  0.2452  0.3705  0.0186
 8049SOL     OW35605   3.985   0.229   9.317 -0.3716  0.7527 -0.1500
 8049SOL    HW135606   3.943   0.270   9.392  1.5618  2.1345  0.1847
 8049SOL    HW235607   4.067   0.192   9.351 -0.7256 -0.0564 -0.1702
 8050SOL     OW35608   4.436   3.133   5.417 -0.5693  0.0596 -0.1975
 8050SOL    HW135609   4.531   3.137   5.424 -0.3995  3.2328 -3.6902
 8050SOL    HW235610   4.430   3.169   5.328  0.8394 -1.3377 -0.8519
 8051SOL     OW35611   0.218   2.491   8.626  0.0438 -0.2704 -0.1012
 8051SOL    HW135612   0.310   2.465   8.636 -0.0965 -1.1952 -1.2696
 8051SOL    HW235613   0.190   2.458   8.711  0.6726 -1.5202 -0.3730
 8052SOL     OW35614   0.134   0.245   9.163  0.7334  0.0023 -0.3157
 8052SOL    HW135615   0.091   0.213   9.084  0.3319  2.0177 -0.9110
 8052SOL    HW235616   0.141   0.157   9.201  0.1298 -0.5436 -1.4523
 8053SOL     OW35617   2.030   2.671   5.996 -0.1408  0.0327 -0.2900
 8053SOL    HW135618   2.094   2.609   6.030  1.1564  0.5281 -1.8320
 8053SOL    HW235619   1.946   2.629   6.015  0.1435 -1.7861 -2.9381
 8054SOL     OW35620   4.114   0.106   2.790  0.1168  0.1880  0.3143
 8054SOL    HW135621   4.158   0.023   2.769  0.8387  0.6221  0.1174
 8054SOL    HW235622   4.052   0.105   2.717  0.8541 -2.3477 -0.2694
 8055SOL     OW35623   4.554   0.632   2.328  0.0218  0.5208 -0.4029
 8055SOL    HW135624   4.512   0.590   2.404  0.5362  2.2966  0.8649
 8055SOL    HW235625   4.635   0.581   2.319 -0.1298  0.0019  1.0584
 8056SOL     OW35626   4.249   2.316   4.195 -1.3327  0.5702 -0.3448
 8056SOL    HW135627   4.229   2.247   4.258 -0.5471  1.8258  1.2707
 8056SOL    HW235628   4.235   2.271   4.112  1.3963 -0.9184  0.0169
 8057SOL     OW35629   1.867   2.303   1.774  0.2158  0.1843  0.3544
 8057SOL    HW135630   1.856   2.398   1.778 -0.6007  0.0428  1.4670
 8057SOL    HW235631   1.943   2.300   1.716  0.6060  0.8793  0.8284
 8058SOL     OW35632   1.386   4.246   2.216 -0.1368  0.1369  0.4580
 8058SOL    HW135633   1.378   4.184   2.144  1.4619 -0.9180  1.1937
 8058SOL    HW235634   1.324   4.311   2.182 -0.6388 -1.0334 -0.8258
 8059SOL     OW35635   4.523   4.039   8.424 -0.0533  0.3990 -0.6325
 8059SOL    HW135636   4.595   4.071   8.478 -1.6455  1.4878  0.8477
 8059SOL    HW235637   4.567   4.013   8.344 -0.9627  1.9267 -1.6464
 8060SOL     OW35638   1.257   1.926   2.858 -0.7848  0.2112 -0.6058
 8060SOL    HW135639   1.351   1.939   2.852 -0.3783 -1.2282  3.1692
 8060SOL    HW235640   1.231   2.017   2.842 -1.1736  0.0550 -0.8807
 8061SOL     OW35641   1.233   2.069  12.717 -0.2940  0.3131  0.3945
 8061SOL    HW135642   1.200   2.077  12.807  1.4741 -0.6670  1.1112
 8061SOL    HW235643   1.218   1.975  12.706  0.9624  0.0427  1.0719
 8062SOL     OW35644   0.934   1.834   8.252  0.2403  0.4389  0.2188
 8062SOL    HW135645   0.868   1.853   8.319  1.4022  3.3497  0.5521
 8062SOL    HW235646   1.000   1.902   8.269  2.5812 -1.6623 -0.5299
 8063SOL     OW35647   1.624   1.726   9.483 -0.8700  0.6294 -0.0203
 8063SOL    HW135648   1.670   1.809   9.494 -2.0568  1.3486 -0.4569
 8063SOL    HW235649   1.682   1.689   9.416  1.8853 -0.5101  2.9837
 8064SOL     OW35650   2.979   0.408   6.551 -0.8366  0.0002 -0.1836
 8064SOL    HW135651   2.956   0.444   6.636 -0.2632  0.4164 -0.2041
 8064SOL    HW235652   3.073   0.402   6.564 -0.5749  1.7095 -1.2313
 8065SOL     OW35653   1.591   0.463   4.401 -0.0954 -0.1388 -0.1598
 8065SOL    HW135654   1.673   0.414   4.406  0.1309  0.1317 -1.2175
 8065SOL    HW235655   1.602   0.514   4.481  0.9396  0.8867 -0.9541
 8066SOL     OW35656   3.196   0.173  13.250  0.0428 -0.6703  0.3192
 8066SOL    HW135657   3.272   0.129  13.290 -0.7039 -2.4173 -0.1689
 8066SOL    HW235658   3.249   0.242  13.210 -0.1125 -0.3507  0.6777
 8067SOL     OW35659   4.443   3.255   4.837  0.1099 -0.1462  0.0649
 8067SOL    HW135660   4.364   3.286   4.882  1.9967 -0.3893  3.4969
 8067SOL    HW235661   4.421   3.164   4.859  0.7214  0.7547  4.3367
 8068SOL     OW35662   4.439   0.178   4.821  0.2627 -0.0157  0.0385
 8068SOL    HW135663   4.506   0.111   4.829  0.1232 -0.1800 -0.1545
 8068SOL    HW235664   4.410   0.158   4.732 -1.2222  0.0465  0.5034
 8069SOL     OW35665   0.259   2.088  17.258  0.1565  0.2581 -0.2951
 8069SOL    HW135666   0.221   2.069  17.172 -2.8151  0.5789  0.9682
 8069SOL    HW235667   0.182   2.091  17.315 -0.1927  0.0628 -0.7558
 8070SOL     OW35668   4.297   3.146   5.832 -0.3215 -0.5494  0.2017
 8070SOL    HW135669   4.211   3.114   5.858 -0.4942  0.2742  0.6429
 8070SOL    HW235670   4.327   3.082   5.767 -0.9352 -1.5190  0.8740
 8071SOL     OW35671   4.045   1.937  11.770 -0.6776  0.6498  0.0026
 8071SOL    HW135672   4.124   1.990  11.759 -0.8164  0.6499 -0.9253
 8071SOL    HW235673   4.032   1.945  11.865 -1.5284 -0.7724  0.0220
 8072SOL     OW35674   1.262   4.122  17.404 -0.2075 -0.0769 -0.5798
 8072SOL    HW135675   1.322   4.197  17.399 -0.8966  0.4353 -1.1249
 8072SOL    HW235676   1.308   4.054  17.355  1.3038  0.0115  0.6957
 8073SOL     OW35677   0.023   1.613   6.058 -0.1819  0.2098 -0.0335
 8073SOL    HW135678   0.051   1.604   6.149 -0.3041 -1.9292 -0.2078
 8073SOL    HW235679   4.693   1.692   6.078  0.9000  0.5616  1.3334
 8074SOL     OW35680   2.032   0.308   8.878 -0.1630 -0.1660 -0.0701
 8074SOL    HW135681   2.023   0.361   8.799  1.0670 -0.3221 -0.3202
 8074SOL    HW235682   1.947   0.263   8.874  0.2621 -1.0642  1.1145
 8075SOL     OW35683   0.160   1.824   7.860  0.8283 -0.0099 -0.3582
 8075SOL    HW135684   0.239   1.852   7.906  0.3135 -0.1075  0.5809
 8075SOL    HW235685   0.121   1.771   7.929  0.6556  0.0057 -0.4458
 8076SOL     OW35686   2.875   1.042   8.338  0.3094  0.1238 -0.0038
 8076SOL    HW135687   2.871   0.994   8.422 -0.3709  0.9032  0.4083
 8076SOL    HW235688   2.929   0.978   8.291 -0.8713 -0.2984 -0.7817
 8077SOL     OW35689   3.120   2.041   5.444  0.4706  0.7873  0.1698
 8077SOL    HW135690   3.069   2.070   5.368  1.7397  3.0391  0.1839
 8077SOL    HW235691   3.181   1.981   5.401 -0.5070  0.3432 -0.5968
 8078SOL     OW35692   0.579   4.220   3.192 -0.0202  0.1525 -0.3308
 8078SOL    HW135693   0.660   4.200   3.239 -1.3554 -0.2210  1.7869
 8078SOL    HW235694   0.541   4.134   3.207  0.6541  0.0579  0.8532
 8079SOL     OW35695   0.194   0.837  16.779  0.1752  0.6027  0.2672
 8079SOL    HW135696   0.179   0.916  16.726  0.1583  0.6104  0.2832
 8079SOL    HW235697   0.134   0.778  16.734 -0.3488  0.5951  0.9775
 8080SOL     OW35698   2.586   3.635   8.468  0.0988  0.0683 -0.1696
 8080SOL    HW135699   2.675   3.602   8.456 -0.9492 -2.4195 -1.0958
 8080SOL    HW235700   2.578   3.613   8.560 -1.2268 -0.4199 -0.3992
 8081SOL     OW35701   0.219   3.132   6.298 -0.7851  0.2538  0.2601
 8081SOL    HW135702   0.173   3.138   6.214  2.7420 -1.4369 -1.7722
 8081SOL    HW235703   0.207   3.224   6.324  1.6075  0.8056 -0.6008
 8082SOL     OW35704   0.814   0.683   9.203  0.1153  0.4674  0.3595
 8082SOL    HW135705   0.850   0.771   9.188  1.2628 -0.0201  0.2428
 8082SOL    HW235706   0.722   0.695   9.225  0.3730  0.4531  1.4649
 8083SOL     OW35707   1.903   0.436   2.599  0.8285 -0.3523 -0.5154
 8083SOL    HW135708   1.980   0.417   2.545  1.3614  1.8607 -0.5275
 8083SOL    HW235709   1.894   0.357   2.653  1.7187 -0.3496 -0.3564
 8084SOL     OW35710   3.044   2.765   7.531  0.3114 -0.3082 -0.6849
 8084SOL    HW135711   3.122   2.820   7.523  0.3248 -0.3893 -1.1457
 8084SOL    HW235712   3.024   2.759   7.624  2.6446  0.1276 -0.1548
 8085SOL     OW35713   2.311   3.738  14.095 -0.0934  0.5133 -0.1336
 8085SOL    HW135714   2.244   3.737  14.027 -0.7072  0.4378  0.4669
 8085SOL    HW235715   2.381   3.687  14.055  0.2613  0.9207 -0.0309
 8086SOL     OW35716   3.651   3.335  12.880  0.3760  0.1050  0.0243
 8086SOL    HW135717   3.718   3.376  12.826 -0.3224 -0.0946 -0.9959
 8086SOL    HW235718   3.631   3.254  12.832  2.1606 -0.6494  0.5585
 8087SOL     OW35719   2.006   1.465   6.897  0.3247 -0.1067  0.1875
 8087SOL    HW135720   1.982   1.545   6.851  0.3143  0.9224  1.9928
 8087SOL    HW235721   1.930   1.409   6.911 -1.2372  1.7850 -0.7596
 8088SOL     OW35722   0.197   1.315   4.594 -0.3668 -0.1230 -0.0929
 8088SOL    HW135723   0.202   1.294   4.687  0.0155  1.5292  0.2460
 8088SOL    HW235724   0.190   1.228   4.554 -0.0003  0.7968 -2.1444
 8089SOL     OW35725   3.099   3.019  16.430 -0.6355 -0.1399  0.5782
 8089SOL    HW135726   3.113   2.989  16.520  1.7374 -2.5017 -0.6101
 8089SOL    HW235727   3.181   3.031  16.383 -1.8201  1.2161 -1.1385
 8090SOL     OW35728   1.628   2.357   1.580 -0.0575 -0.3736 -0.1945
 8090SOL    HW135729   1.670   2.439   1.602  0.8130 -0.9190  0.1642
 8090SOL    HW235730   1.651   2.341   1.489  1.5430 -2.7359  0.6203
 8091SOL     OW35731   0.690   2.828   2.617 -0.4972 -0.3045  0.3157
 8091SOL    HW135732   0.736   2.758   2.663 -2.2726 -1.4543  0.3732
 8091SOL    HW235733   0.610   2.784   2.588 -1.4386  1.1093  0.7704
 8092SOL     OW35734   2.401   2.023   6.502  0.0466 -0.1996  0.3865
 8092SOL    HW135735   2.431   2.031   6.412  1.8666  0.9573  1.0883
 8092SOL    HW235736   2.444   2.094   6.550  0.3656  1.3737 -2.2564
 8093SOL     OW35737   2.523   0.700   2.926 -0.1875 -0.5920 -0.5252
 8093SOL    HW135738   2.476   0.634   2.977 -1.7579  1.3021  0.4870
 8093SOL    HW235739   2.616   0.679   2.937 -0.9752 -3.4118  0.5857
 8094SOL     OW35740   0.995   1.805  10.216  0.4417  0.4831  0.2199
 8094SOL    HW135741   1.086   1.785  10.238 -0.0488 -0.0427  1.8367
 8094SOL    HW235742   0.999   1.889  10.263  0.5172  0.0747  0.9503
 8095SOL     OW35743   4.143   0.301   4.934 -0.5853 -0.2386  0.1713
 8095SOL    HW135744   4.200   0.377   4.948  2.7030 -2.5155 -0.7023
 8095SOL    HW235745   4.197   0.231   4.973  0.3875  0.1775 -0.4174
 8096SOL     OW35746   2.283   2.178   4.710 -0.9749  0.1321  0.1352
 8096SOL    HW135747   2.214   2.236   4.743 -0.4135  0.5013  0.6514
 8096SOL    HW235748   2.287   2.108   4.775  0.9674  1.4866  1.4655
 8097SOL     OW35749   1.574   4.235   9.519 -0.4623  0.2181  0.7786
 8097SOL    HW135750   1.525   4.166   9.564 -2.8173  1.7675  0.5926
 8097SOL    HW235751   1.623   4.273   9.591 -1.3199  1.8580  0.4973
 8098SOL     OW35752   4.143   3.451   7.661  0.3017  0.6685  0.7750
 8098SOL    HW135753   4.236   3.455   7.683  0.3061 -0.6966  1.0422
 8098SOL    HW235754   4.125   3.360   7.685  1.1671  0.1214 -0.6030
 8099SOL     OW35755   1.685   2.186   9.723  0.1144  0.0187  0.1471
 8099SOL    HW135756   1.746   2.117   9.697 -0.4726  0.6547 -2.8804
 8099SOL    HW235757   1.610   2.128   9.734  0.4688 -0.4380  0.1690
 8100SOL     OW35758   4.376   4.516   7.437  0.2132  0.8919  0.0948
 8100SOL    HW135759   4.357   4.606   7.466 -0.7677  0.2532  1.4624
 8100SOL    HW235760   4.311   4.518   7.366 -0.9904  1.2498  1.1908
 8101SOL     OW35761   3.398   4.556   9.223  0.1238  0.0874  0.3202
 8101SOL    HW135762   3.347   4.501   9.282 -1.4556  2.4573  1.1895
 8101SOL    HW235763   3.445   4.489   9.173 -0.1120 -0.2675  0.5772
 8102SOL     OW35764   2.632   3.287  17.646  0.3538 -0.4639 -0.3304
 8102SOL    HW135765   2.591   3.371  17.624  2.0241  0.1111 -1.2319
 8102SOL    HW235766   2.714   3.307  17.601  1.2544  1.3925  2.1323
 8103SOL     OW35767   2.379   4.167   5.583  0.3374  0.1976 -0.2597
 8103SOL    HW135768   2.348   4.077   5.574 -2.0229  0.8785  1.3396
 8103SOL    HW235769   2.471   4.148   5.604 -0.0843 -1.5693 -0.0230
 8104SOL     OW35770   0.781   2.056   9.446 -0.1142 -0.8115  0.2407
 8104SOL    HW135771   0.838   2.133   9.446 -1.0325 -0.0931 -3.3448
 8104SOL    HW235772   0.808   2.003   9.521 -0.3783  0.5499  1.3011
 8105SOL     OW35773   0.198   3.700   2.940 -0.6830  0.3200  0.2553
 8105SOL    HW135774   0.124   3.717   2.998 -1.6438 -1.9380 -0.2960
 8105SOL    HW235775   0.167   3.723   2.852  1.6561 -0.0870 -0.6697
 8106SOL     OW35776   0.407   4.239   3.905 -0.2236  0.0897  0.4051
 8106SOL    HW135777   0.331   4.287   3.871 -1.0687 -1.0624  0.6534
 8106SOL    HW235778   0.370   4.165   3.954 -0.6734  0.3885  0.5156
 8107SOL     OW35779   0.586   0.183   3.598  0.2446  0.0857  0.2584
 8107SOL    HW135780   0.525   0.194   3.671 -0.7071 -1.7397 -0.2814
 8107SOL    HW235781   0.661   0.149   3.646  0.5143  0.8837  0.4159
 8108SOL     OW35782   3.138   0.640   9.630 -0.2605 -0.4085  0.2247
 8108SOL    HW135783   3.187   0.683   9.560  0.1434  0.6168  1.1507
 8108SOL    HW235784   3.206   0.626   9.695 -0.0013  0.8106  0.2118
 8109SOL     OW35785   1.225   3.143   4.709  0.1966  0.0921  0.3037
 8109SOL    HW135786   1.244   3.056   4.744  1.8975 -0.3187 -1.6251
 8109SOL    HW235787   1.246   3.125   4.617  0.9131 -0.7712  0.6327
 8110SOL     OW35788   4.355   4.514   0.121  0.0230 -0.1476  0.2281
 8110SOL    HW135789   4.402   4.438   0.087  0.1233  0.4111 -0.8934
 8110SOL    HW235790   4.298   4.464   0.178  0.3717  0.7017  1.3465
 8111SOL     OW35791   3.916   1.274  10.592 -0.0715  0.0400  0.7037
 8111SOL    HW135792   3.913   1.211  10.520 -1.0428  1.3280 -0.3803
 8111SOL    HW235793   3.824   1.273  10.619 -0.0226 -0.0565  0.8710
 8112SOL     OW35794   4.398   3.960   8.869  0.6740  0.2884  0.0229
 8112SOL    HW135795   4.453   3.903   8.815  0.3432 -0.3431  0.3496
 8112SOL    HW235796   4.319   3.906   8.873  1.7149 -1.2861 -0.3461
 8113SOL     OW35797   0.058   1.945   3.699  0.3015 -0.1678 -0.1822
 8113SOL    HW135798   0.148   1.969   3.720 -0.5940  2.3882  0.6732
 8113SOL    HW235799   0.068   1.851   3.683 -1.7170 -0.6731  1.6290
 8114SOL     OW35800   0.360   0.976   1.423 -0.4442  0.2291 -0.2104
 8114SOL    HW135801   0.337   0.883   1.424  0.3218  0.0562  1.8652
 8114SOL    HW235802   0.328   0.989   1.333 -0.4302  0.3723 -0.1957
 8115SOL     OW35803   2.578   3.822   0.309  0.2823 -0.1268  0.7096
 8115SOL    HW135804   2.508   3.756   0.308 -1.7363  2.0736 -2.8015
 8115SOL    HW235805   2.543   3.910   0.295  0.6471  0.2710  2.2579
 8116SOL     OW35806   3.078   0.900  10.005  0.1570 -0.0459  0.5909
 8116SOL    HW135807   2.993   0.945  10.005 -0.1672 -0.6897 -2.8927
 8116SOL    HW235808   3.127   0.959  10.062 -0.6085 -0.3884  1.6115
 8117SOL     OW35809   2.588   2.266   3.100 -0.2378  0.2310  0.0161
 8117SOL    HW135810   2.632   2.350   3.117 -1.5744  0.8247  0.5294
 8117SOL    HW235811   2.600   2.260   3.005  0.7265  2.1994  0.0048
 8118SOL     OW35812   1.479   4.224   9.103 -0.2388  0.1805 -0.1930
 8118SOL    HW135813   1.456   4.268   9.184 -2.0755  0.0613 -0.6606
 8118SOL    HW235814   1.503   4.137   9.135 -0.3938 -0.0767 -0.7700
 8119SOL     OW35815   0.750   3.064  13.040  0.0840 -0.2488  0.0604
 8119SOL    HW135816   0.733   2.990  12.982 -0.6538 -0.6960  0.8426
 8119SOL    HW235817   0.700   3.128  12.989  1.1560 -0.1918 -0.9141
 8120SOL     OW35818   4.300   2.811   2.256  0.2684 -0.5523  0.5100
 8120SOL    HW135819   4.333   2.842   2.172 -0.9358 -2.2133 -0.5792
 8120SOL    HW235820   4.290   2.892   2.307 -1.3557 -1.4126  1.5682
 8121SOL     OW35821   0.425   4.037  10.773  0.1441  0.1941  0.4527
 8121SOL    HW135822   0.427   4.017  10.679 -1.6836 -0.8599  0.6266
 8121SOL    HW235823   0.513   4.066  10.796  0.5377 -0.6686  0.0660
 8122SOL     OW35824   2.560   4.673   1.263 -0.5368 -0.0368 -0.5220
 8122SOL    HW135825   2.502   0.025   1.287  2.0473  0.8000  3.1122
 8122SOL    HW235826   2.518   4.646   1.181 -1.7062  1.8372 -0.5437
 8123SOL     OW35827   2.345   0.257   8.105  0.0471 -0.7453  0.0823
 8123SOL    HW135828   2.326   0.313   8.030  0.4473  1.5962  1.7434
 8123SOL    HW235829   2.265   0.206   8.114 -0.8917  0.5665 -0.8269
 8124SOL     OW35830   0.784   3.349  17.555 -0.6058 -0.3770  0.2136
 8124SOL    HW135831   0.717   3.341  17.488 -0.1761 -0.7308 -0.1760
 8124SOL    HW235832   0.858   3.385  17.507 -1.8048  2.2791  0.3634
 8125SOL     OW35833   3.763   1.122  17.184 -0.5113  0.2668  0.2444
 8125SOL    HW135834   3.780   1.043  17.134  0.6053  1.3949 -1.1713
 8125SOL    HW235835   3.852   1.156  17.184 -0.7035  0.7589 -1.5581
 8126SOL     OW35836   4.050   3.678   5.918 -0.1929 -0.0601 -0.1348
 8126SOL    HW135837   3.969   3.633   5.943 -0.7040 -0.3512 -2.3119
 8126SOL    HW235838   4.102   3.692   5.998 -0.6066 -0.9547  0.2927
 8127SOL     OW35839   4.085   0.896   9.476  0.0614 -0.1163 -0.1873
 8127SOL    HW135840   4.087   0.911   9.381 -3.1054 -3.5420 -0.7860
 8127SOL    HW235841   4.071   0.802   9.472 -1.1952  0.0098  1.2418
 8128SOL     OW35842   2.186   2.437  12.674  0.6176 -0.1337 -0.2692
 8128SOL    HW135843   2.281   2.432  12.666  0.7058 -1.6963  1.8388
 8128SOL    HW235844   2.165   2.443  12.581 -0.0622 -1.7780 -0.2190
 8129SOL     OW35845   0.944   3.044   3.654 -0.5241  0.5954 -1.0274
 8129SOL    HW135846   0.941   2.986   3.730  0.1411  2.0447  0.0925
 8129SOL    HW235847   0.997   2.992   3.593 -0.1266  0.0518 -0.2170
 8130SOL     OW35848   1.296   2.842   4.419  0.5181  0.0139  0.2585
 8130SOL    HW135849   1.298   2.937   4.409 -0.6200  0.0666  0.5002
 8130SOL    HW235850   1.384   2.810   4.401  0.9373  1.1510  0.2814
 8131SOL     OW35851   2.202   3.170   7.399  0.0275 -0.0690  0.4004
 8131SOL    HW135852   2.263   3.100   7.376  0.9327  0.9717 -0.3930
 8131SOL    HW235853   2.172   3.192   7.311 -2.6694 -1.7445  0.8934
 8132SOL     OW35854   2.035   2.993   5.194  0.1545  0.4751 -0.3850
 8132SOL    HW135855   1.961   3.048   5.221 -2.1299 -3.0450  0.4934
 8132SOL    HW235856   2.062   3.028   5.109  1.3431 -0.3232 -0.3230
 8133SOL     OW35857   1.475   3.259  11.202 -0.0692 -0.1047  0.1595
 8133SOL    HW135858   1.395   3.305  11.228  0.7733 -0.1684  2.8611
 8133SOL    HW235859   1.434   3.178  11.171 -0.7360  0.9743 -1.7759
 8134SOL     OW35860   1.297   2.746  14.554  0.3560 -0.0945  0.3492
 8134SOL    HW135861   1.209   2.777  14.575  0.8545  0.7013  1.2877
 8134SOL    HW235862   1.270   2.654  14.564 -0.7247  0.3636  1.6462
 8135SOL     OW35863   2.136   3.348  13.441 -0.1878  0.5022 -0.2078
 8135SOL    HW135864   2.189   3.385  13.369 -0.2386  0.9484 -0.0163
 8135SOL    HW235865   2.055   3.396  13.422 -0.4539 -0.5778 -1.8351
 8136SOL     OW35866   0.868   1.775   5.465 -0.2129  0.0677 -0.4718
 8136SOL    HW135867   0.955   1.738   5.453 -0.8172 -0.7469 -2.5017
 8136SOL    HW235868   0.859   1.753   5.557  0.1202 -0.3137 -0.5350
 8137SOL     OW35869   2.487   0.334  17.221 -0.6530 -0.4576  0.4033
 8137SOL    HW135870   2.508   0.336  17.314 -0.9188 -2.3121  0.5111
 8137SOL    HW235871   2.434   0.414  17.219 -3.3834 -2.1751  3.2160
 8138SOL     OW35872   4.505   1.206  16.110  0.0211  0.4600  0.2275
 8138SOL    HW135873   4.548   1.233  16.191 -1.5698 -2.3436  2.0013
 8138SOL    HW235874   4.478   1.118  16.139 -0.0154 -0.2179 -1.8724
 8139SOL     OW35875   0.771   3.635   4.764 -0.3156 -0.2448 -0.5181
 8139SOL    HW135876   0.766   3.550   4.807  0.8548  0.9258  1.9481
 8139SOL    HW235877   0.700   3.621   4.701 -1.1564  0.2599  0.3202
 8140SOL     OW35878   1.462   2.399  11.627  0.0252 -0.1016  0.0017
 8140SOL    HW135879   1.367   2.390  11.622 -0.3698  3.2265  1.6384
 8140SOL    HW235880   1.482   2.348  11.705 -0.8251  0.1985  0.4132
 8141SOL     OW35881   3.084   4.001   3.937  0.1290  0.3138  0.1137
 8141SOL    HW135882   3.151   3.934   3.947  0.8508  0.8848 -0.8987
 8141SOL    HW235883   3.019   3.992   4.007 -1.5212  0.0808 -1.4432
 8142SOL     OW35884   3.684   1.387  14.978  0.4399  0.2819 -0.2037
 8142SOL    HW135885   3.637   1.314  14.939 -1.2296  0.8576  0.6986
 8142SOL    HW235886   3.621   1.431  15.035  0.9884  0.8560 -0.0376
 8143SOL     OW35887   0.974   1.066  15.705  0.7124 -0.0652 -0.4267
 8143SOL    HW135888   0.975   1.021  15.790  0.1068 -0.7624 -0.7894
 8143SOL    HW235889   1.033   1.005  15.660  1.4436  0.7031 -0.4983
 8144SOL     OW35890   3.113   1.175   9.245 -0.5510 -0.0020  0.3607
 8144SOL    HW135891   3.019   1.189   9.228 -0.6799 -0.4332  0.7462
 8144SOL    HW235892   3.115   1.170   9.340 -1.3166 -0.8334  0.3294
 8145SOL     OW35893   1.065   3.130   2.536 -0.0267  0.0805 -0.4451
 8145SOL    HW135894   0.996   3.093   2.482 -1.2014  0.6845  0.6365
 8145SOL    HW235895   1.042   3.223   2.540  1.9335  0.5747 -0.3448
 8146SOL     OW35896   2.046   3.205   6.981  0.4170  0.4302 -0.3480
 8146SOL    HW135897   2.003   3.158   7.052  2.1662 -0.1277  0.3329
 8146SOL    HW235898   2.070   3.133   6.923 -0.6840  0.6535 -1.0669
 8147SOL     OW35899   0.354   0.593   6.466  0.3133  0.4364 -0.1149
 8147SOL    HW135900   0.327   0.672   6.512 -1.9262  0.6209 -1.7410
 8147SOL    HW235901   0.429   0.627   6.416 -2.2221  1.1058 -3.4586
 8148SOL     OW35902   1.848   1.407   6.232  0.2424 -0.0771 -0.0366
 8148SOL    HW135903   1.759   1.430   6.205  0.5749  1.3414  0.0729
 8148SOL    HW235904   1.873   1.494   6.264 -1.6952  0.1995  0.7450
 8149SOL     OW35905   4.288   2.069   3.704  0.2063  0.2619 -0.5115
 8149SOL    HW135906   4.327   2.085   3.618  0.8175  0.4912 -0.1930
 8149SOL    HW235907   4.242   1.985   3.695 -0.6851  0.8932 -1.8975
 8150SOL     OW35908   2.916   3.548   0.953  0.6468  0.5672  0.3353
 8150SOL    HW135909   2.833   3.512   0.986  0.3950  0.0586 -0.8441
 8150SOL    HW235910   2.893   3.640   0.940 -0.5440 -0.0879 -2.2145
 8151SOL     OW35911   3.717   1.950   8.245  0.3556  0.0368  0.1853
 8151SOL    HW135912   3.665   1.957   8.165  0.3102 -0.5045  0.1666
 8151SOL    HW235913   3.772   1.872   8.236 -0.6381 -0.7479  0.9091
 8152SOL     OW35914   1.134   3.104  12.491  0.2169 -0.2856 -0.3940
 8152SOL    HW135915   1.094   3.118  12.405 -0.4746 -1.3268 -0.2404
 8152SOL    HW235916   1.214   3.154  12.478  0.5339 -1.2648 -2.2020
 8153SOL     OW35917   3.064   3.086  13.410 -0.9143 -0.2247  0.2915
 8153SOL    HW135918   3.031   3.173  13.386  2.5998  0.7695 -0.9223
 8153SOL    HW235919   3.037   3.027  13.340 -0.8139  0.2168 -0.1183
 8154SOL     OW35920   2.413   4.707   2.076  0.0791 -0.0623 -0.1827
 8154SOL    HW135921   2.361   0.055   2.119 -0.9018 -0.9234  0.0177
 8154SOL    HW235922   2.344   4.681   2.015  1.5494  1.4423 -2.4704
 8155SOL     OW35923   3.082   1.711  14.352  0.0146 -0.0574 -0.1605
 8155SOL    HW135924   3.034   1.663  14.419 -0.0632 -1.0488 -0.9258
 8155SOL    HW235925   3.057   1.660  14.275 -0.2902 -0.7030  0.3712
 8156SOL     OW35926   1.786   1.983   7.316 -0.2417  0.4685 -0.3067
 8156SOL    HW135927   1.750   2.060   7.358 -0.8882 -0.4744  0.8427
 8156SOL    HW235928   1.850   1.956   7.382  0.6217 -1.4550 -1.8924
 8157SOL     OW35929   0.523   4.059   2.843 -0.6079 -0.0388 -0.5056
 8157SOL    HW135930   0.475   4.002   2.782 -0.3882 -0.7744  0.0005
 8157SOL    HW235931   0.612   4.039   2.816 -0.1011 -1.0915  1.9700
 8158SOL     OW35932   3.209   2.158   2.070 -0.4610  0.5871  0.2515
 8158SOL    HW135933   3.243   2.231   2.121 -0.0671  1.4867 -1.3030
 8158SOL    HW235934   3.116   2.177   2.084 -0.4431 -0.2865  1.4685
 8159SOL     OW35935   3.501   0.171  10.836  0.9127  0.4843 -0.1299
 8159SOL    HW135936   3.425   0.126  10.872  0.9193  0.6213  0.0608
 8159SOL    HW235937   3.485   0.153  10.744 -3.0938 -1.1292  0.9247
 8160SOL     OW35938   0.368   2.798   5.035 -0.3812  0.1795 -0.1586
 8160SOL    HW135939   0.295   2.816   4.976 -0.2509  0.2874 -0.2865
 8160SOL    HW235940   0.374   2.875   5.091 -1.6980 -0.5683  1.0303
 8161SOL     OW35941   1.819   4.209   7.066 -0.2439 -0.0636  0.3979
 8161SOL    HW135942   1.730   4.191   7.096  0.4096  0.5675  2.7071
 8161SOL    HW235943   1.807   4.302   7.045  3.0240  0.2988  0.1289
 8162SOL     OW35944   3.529   1.341   6.151 -0.0047  0.2704 -0.0369
 8162SOL    HW135945   3.435   1.328   6.143  0.3145 -0.6562 -2.2272
 8162SOL    HW235946   3.560   1.343   6.060 -3.5416  1.2559 -1.2113
 8163SOL     OW35947   4.523   2.584   9.217 -0.1640  0.3966  0.2078
 8163SOL    HW135948   4.436   2.559   9.185  0.6029  0.4965 -1.9472
 8163SOL    HW235949   4.545   2.498   9.255 -0.5208  0.3130  0.2294
 8164SOL     OW35950   1.931   2.800  17.448  0.8355 -0.3959 -0.0635
 8164SOL    HW135951   1.888   2.736  17.391 -3.8947  1.5864  1.1923
 8164SOL    HW235952   1.945   2.871  17.385 -0.4141  1.5046  1.7703
 8165SOL     OW35953   4.572   0.399   8.954  0.8401  0.2200 -0.3071
 8165SOL    HW135954   4.536   0.486   8.970 -0.2341 -0.2726 -0.0506
 8165SOL    HW235955   4.522   0.380   8.875  1.8215  1.8499 -1.3126
 8166SOL     OW35956   0.096   3.263   7.127 -0.3083 -0.0642 -0.1341
 8166SOL    HW135957   0.187   3.240   7.147 -1.2710 -1.4729  2.7214
 8166SOL    HW235958   0.053   3.180   7.149  0.9190 -0.4609  0.8269
 8167SOL     OW35959   0.826   1.203   9.233  0.2795  0.3360 -0.7951
 8167SOL    HW135960   0.815   1.279   9.176 -3.0514 -1.9485 -3.2222
 8167SOL    HW235961   0.798   1.231   9.320  3.1234  0.9557 -0.0649
 8168SOL     OW35962   0.755   2.929   8.790  0.0041 -0.1679  0.5724
 8168SOL    HW135963   0.807   2.853   8.763  1.6417  0.2884  2.4425
 8168SOL    HW235964   0.776   2.942   8.883  0.1062 -3.1506  0.9751
 8169SOL     OW35965   1.690   2.645   1.580 -0.3424  1.3427  0.2004
 8169SOL    HW135966   1.683   2.710   1.650 -0.0867  2.4962 -0.8281
 8169SOL    HW235967   1.617   2.671   1.523  1.1517  0.3189 -2.1711
 8170SOL     OW35968   2.116   0.844   7.922 -0.0504  0.2905  0.0608
 8170SOL    HW135969   2.056   0.917   7.937 -0.5210  0.4535 -2.5521
 8170SOL    HW235970   2.187   0.886   7.874 -0.7587 -0.5955 -1.8022
 8171SOL     OW35971   0.453   0.556   4.919  0.0270 -0.2482 -0.0880
 8171SOL    HW135972   0.528   0.615   4.920 -0.0911 -0.0976 -0.0781
 8171SOL    HW235973   0.485   0.487   4.979  0.4415 -0.0169 -0.0466
 8172SOL     OW35974   4.190   3.838   8.544 -0.6088 -0.3160 -0.0011
 8172SOL    HW135975   4.115   3.780   8.550 -0.4876 -0.5665 -0.8591
 8172SOL    HW235976   4.164   3.927   8.569 -1.5237 -0.3928 -0.6647
 8173SOL     OW35977   4.322   3.074   1.101  0.0225 -0.4586  0.7562
 8173SOL    HW135978   4.317   3.104   1.011  3.1231  2.5235  1.5487
 8173SOL    HW235979   4.403   3.119   1.127  1.0899 -1.1900 -1.3753
 8174SOL     OW35980   1.444   1.659   4.018  0.1564 -0.0976 -0.2756
 8174SOL    HW135981   1.442   1.622   4.106  0.7003 -2.3696 -1.2242
 8174SOL    HW235982   1.452   1.577   3.970  1.0039  0.4179 -1.0205
 8175SOL     OW35983   4.041   0.688   9.272  0.2110 -0.1070  0.2513
 8175SOL    HW135984   4.014   0.597   9.255  2.5630 -0.6084 -0.9028
 8175SOL    HW235985   3.967   0.734   9.232  0.6527  1.4384  1.2536
 8176SOL     OW35986   4.252   4.093   3.425 -0.1978 -0.2906  0.2863
 8176SOL    HW135987   4.211   4.151   3.361  0.3307 -0.8765 -0.5825
 8176SOL    HW235988   4.343   4.095   3.396  0.0918 -0.5542  1.1803
 8177SOL     OW35989   1.851   2.290   7.011 -0.0327 -0.5817  0.4264
 8177SOL    HW135990   1.815   2.322   6.928 -3.0530  1.1276  2.3663
 8177SOL    HW235991   1.813   2.360   7.065  0.2063  1.3067 -1.8384
 8178SOL     OW35992   0.460   4.608   3.678  0.5658  0.4014 -0.5513
 8178SOL    HW135993   0.467   4.698   3.711 -0.1906 -0.1867  1.1847
 8178SOL    HW235994   0.482   4.623   3.586  4.7579 -1.9175  0.0769
 8179SOL     OW35995   4.571   1.091   7.942  0.4481  0.2606  0.5355
 8179SOL    HW135996   4.550   1.001   7.969  0.6834 -0.3938 -1.4426
 8179SOL    HW235997   4.492   1.144   7.952 -0.8027 -1.0952 -1.9792
 8180SOL     OW35998   0.594   1.081   0.529  1.0537  0.0956  0.4163
 8180SOL    HW135999   0.634   1.054   0.446 -2.2153 -0.2913 -1.0560
 8180SOL    HW236000   0.532   1.010   0.548  2.1312 -0.5010  1.6822
 8181SOL     OW36001   4.606   2.543   2.766  0.4547 -0.0947 -0.3772
 8181SOL    HW136002   4.629   2.505   2.681  2.4188 -0.2502  0.2319
 8181SOL    HW236003   4.517   2.509   2.777  0.0333  1.3592  0.6706
 8182SOL     OW36004   2.512   0.508   9.854  0.5514  0.2506  0.2426
 8182SOL    HW136005   2.429   0.554   9.847 -0.1574 -1.2263 -0.8995
 8182SOL    HW236006   2.506   0.493   9.949 -0.3620 -0.3836  0.0862
 8183SOL     OW36007   1.431   1.205   4.623 -0.3614  0.2858 -0.0839
 8183SOL    HW136008   1.336   1.212   4.611 -0.2669  1.2921 -0.2040
 8183SOL    HW236009   1.454   1.223   4.714 -0.9508  0.4884  0.0273
 8184SOL     OW36010   2.602   1.975  16.921  0.3255  0.0385 -0.2835
 8184SOL    HW136011   2.667   2.038  16.952  1.3096 -0.5845 -1.0778
 8184SOL    HW236012   2.623   1.974  16.828  1.4840 -4.1200  0.0058
 8185SOL     OW36013   1.397   3.235  11.506  0.2103  0.0074 -0.5033
 8185SOL    HW136014   1.341   3.261  11.432 -1.9265 -0.2610  1.0164
 8185SOL    HW236015   1.417   3.144  11.487 -0.3546 -0.0384 -0.9118
 8186SOL     OW36016   0.073   3.400   3.550  0.1150 -0.1330 -0.1864
 8186SOL    HW136017   0.106   3.327   3.602  0.0522  0.7690  1.0975
 8186SOL    HW236018   0.068   3.476   3.607  0.5686  0.1984 -0.5884
 8187SOL     OW36019   2.806   3.469   4.091 -0.5894  0.4684  0.8573
 8187SOL    HW136020   2.793   3.446   3.999  2.7494 -1.1480  0.7885
 8187SOL    HW236021   2.882   3.524   4.073 -0.4581 -0.3071 -0.9695
 8188SOL     OW36022   3.354   2.019  10.480  0.0410 -0.1423 -0.2612
 8188SOL    HW136023   3.384   2.086  10.419 -2.4221  0.9320 -0.3137
 8188SOL    HW236024   3.306   2.079  10.537  1.3093  3.5715 -3.1083
 8189SOL     OW36025   3.340   1.128   9.108 -0.9847 -0.2882 -0.4896
 8189SOL    HW136026   3.268   1.158   9.163  0.4856  0.3372  1.0946
 8189SOL    HW236027   3.382   1.206   9.072  0.7148 -0.0479  2.0189
 8190SOL     OW36028   4.452   1.559  11.203  0.1772  0.3938 -0.6370
 8190SOL    HW136029   4.497   1.590  11.282 -1.7089 -1.0690  0.9991
 8190SOL    HW236030   4.393   1.634  11.192 -0.8972 -0.7175 -2.4177
 8191SOL     OW36031   4.190   1.419   7.598 -0.2505  0.2866 -0.0716
 8191SOL    HW136032   4.212   1.417   7.505 -0.3564  0.7940 -0.1094
 8191SOL    HW236033   4.181   1.325   7.617  2.8189  0.3942  1.7664
 8192SOL     OW36034   2.854   2.594   3.507 -0.0058  0.3353  0.3835
 8192SOL    HW136035   2.775   2.638   3.540 -1.8575 -2.0487 -0.8359
 8192SOL    HW236036   2.919   2.602   3.576  1.4486  4.1746 -1.4107
 8193SOL     OW36037   1.109   3.029   7.555 -0.0126 -0.7194  0.3796
 8193SOL    HW136038   1.089   3.111   7.511  0.8642 -1.3178 -1.1286
 8193SOL    HW236039   1.024   3.015   7.599 -1.1584 -0.0662 -1.6382
 8194SOL     OW36040   1.075   1.386   3.745 -0.2754  0.0857  0.3480
 8194SOL    HW136041   1.151   1.353   3.794 -0.0413 -0.7996 -0.6213
 8194SOL    HW236042   0.998   1.358   3.795 -0.0463  0.1570  0.7467
 8195SOL     OW36043   1.513   1.864  12.110  0.7643  0.3109  0.2503
 8195SOL    HW136044   1.600   1.835  12.083  0.5973 -0.0462  0.0821
 8195SOL    HW236045   1.502   1.795  12.175 -1.3390  0.2733 -0.1303
 8196SOL     OW36046   1.590   2.158   6.767  0.1591  0.0546  0.2645
 8196SOL    HW136047   1.620   2.225   6.706 -0.1063 -0.5122 -0.4865
 8196SOL    HW236048   1.674   2.115   6.785  0.6553  0.4772 -1.0223
 8197SOL     OW36049   1.810   1.596  16.919  0.1066 -0.4187  0.5749
 8197SOL    HW136050   1.854   1.514  16.899  0.1165  0.4175 -2.7546
 8197SOL    HW236051   1.846   1.654  16.852 -2.0508 -0.8056 -0.9187
 8198SOL     OW36052   2.350   4.705  15.385  0.3366  0.8297 -0.3109
 8198SOL    HW136053   2.431   4.661  15.360 -0.5333 -1.2223  0.4656
 8198SOL    HW236054   2.341   4.685  15.478 -0.9621  2.4475 -0.0964
 8199SOL     OW36055   2.290   2.083   2.711 -0.0835 -0.6205 -0.7036
 8199SOL    HW136056   2.255   2.136   2.782  2.4786  2.6913 -1.9130
 8199SOL    HW236057   2.377   2.122   2.705 -0.5464  0.5832  0.6973
 8200SOL     OW36058   3.793   3.319  17.062  0.1079 -0.2860 -0.3911
 8200SOL    HW136059   3.724   3.373  17.101  0.2953  0.0293 -0.4971
 8200SOL    HW236060   3.821   3.364  16.982  0.9994  1.6763  1.0319
 8201SOL     OW36061   3.490   0.606   6.021  0.5081  0.6144 -0.0482
 8201SOL    HW136062   3.479   0.591   5.927 -2.4480 -0.6104  0.4995
 8201SOL    HW236063   3.426   0.556   6.072  0.1553  1.0767 -0.0468
 8202SOL     OW36064   0.917   3.363   1.596  0.7168  0.2475  0.0101
 8202SOL    HW136065   0.850   3.374   1.529 -0.7407 -2.7920  0.9735
 8202SOL    HW236066   0.992   3.389   1.542  0.4726  0.8395 -0.0404
 8203SOL     OW36067   4.080   4.019   5.961  0.3011 -0.3356  0.2951
 8203SOL    HW136068   4.121   4.039   5.877  1.3094  0.2947  0.9169
 8203SOL    HW236069   4.124   3.940   5.992 -0.3241 -0.5932  0.5094
 8204SOL     OW36070   2.559   1.593   7.522  0.3583  0.1045 -0.1722
 8204SOL    HW136071   2.624   1.586   7.452 -0.7781  0.1706 -1.2143
 8204SOL    HW236072   2.616   1.626   7.592 -0.3566  1.9842 -0.4956
 8205SOL     OW36073   0.299   3.967   1.405  0.1124 -0.0257 -0.3422
 8205SOL    HW136074   0.234   3.937   1.341  1.0785 -0.8180 -0.9566
 8205SOL    HW236075   0.360   3.893   1.405 -1.2849 -1.1613  1.2603
 8206SOL     OW36076   2.528   2.469   7.753  0.0536  0.0809  0.1273
 8206SOL    HW136077   2.477   2.392   7.778 -0.3582  0.9579  1.9533
 8206SOL    HW236078   2.465   2.537   7.776 -0.0053  0.1636 -0.2721
 8207SOL     OW36079   1.642   0.428   2.381 -0.0919  0.5751  0.4242
 8207SOL    HW136080   1.689   0.505   2.348  1.8463 -0.9692 -0.4235
 8207SOL    HW236081   1.668   0.445   2.471 -1.6752  0.3894  0.9254
 8208SOL     OW36082   3.652   0.290   4.109  0.4107  0.1792 -0.0072
 8208SOL    HW136083   3.699   0.208   4.095  2.2456  1.3077 -0.4215
 8208SOL    HW236084   3.692   0.348   4.044  1.3880  0.1690  0.5894
 8209SOL     OW36085   0.364   1.484   2.275 -0.7155  0.3049  0.1037
 8209SOL    HW136086   0.407   1.409   2.314 -2.0392 -0.3579  0.2751
 8209SOL    HW236087   0.288   1.509   2.328 -2.9880  1.8016 -3.8137
 8210SOL     OW36088   3.921   4.250   0.252 -0.1661 -0.1548 -0.7750
 8210SOL    HW136089   3.909   4.227   0.344  1.1470 -0.2049 -0.6065
 8210SOL    HW236090   3.844   4.213   0.208 -0.0622 -0.8714 -0.3602
 8211SOL     OW36091   0.887   2.310   0.215 -0.2765 -0.6865 -0.3705
 8211SOL    HW136092   0.966   2.363   0.227  1.1734 -2.8935 -0.1328
 8211SOL    HW236093   0.888   2.315   0.120  0.0521  0.3747 -0.3124
 8212SOL     OW36094   2.206   0.444   7.379  0.4318  0.1562  0.1408
 8212SOL    HW136095   2.199   0.495   7.460 -0.1239  1.6492 -0.8632
 8212SOL    HW236096   2.192   0.352   7.404  1.0224  0.4653  1.6427
 8213SOL     OW36097   4.432   2.037   0.580  0.6085 -0.6628 -0.0356
 8213SOL    HW136098   4.439   2.037   0.484  1.1257 -0.8761 -0.0027
 8213SOL    HW236099   4.480   2.117   0.602  0.9063 -0.5311 -1.1290
 8214SOL     OW36100   0.877   1.262   8.399 -0.1418 -0.4681  0.3945
 8214SOL    HW136101   0.953   1.304   8.441 -0.6529  1.0743 -0.2027
 8214SOL    HW236102   0.858   1.320   8.325 -0.6718  0.2660  1.0996
 8215SOL     OW36103   0.762   1.134  15.550  0.2783 -0.0799 -0.4003
 8215SOL    HW136104   0.816   1.190  15.495 -1.5918 -0.7878 -2.9841
 8215SOL    HW236105   0.827   1.111  15.616  0.8907 -3.8089 -2.2692
 8216SOL     OW36106   2.753   3.806  15.324 -0.5577  0.2633 -0.6810
 8216SOL    HW136107   2.722   3.751  15.251 -0.8555 -0.4732  0.0063
 8216SOL    HW236108   2.749   3.731  15.383  1.2968  1.1311  0.5169
 8217SOL     OW36109   3.148   3.791  14.166 -0.2506  0.3180 -0.3427
 8217SOL    HW136110   3.089   3.777  14.092  0.0695 -1.4503 -0.2785
 8217SOL    HW236111   3.127   3.883  14.183 -1.8083  0.4530 -3.1047
 8218SOL     OW36112   2.858   1.783   8.885 -0.3805  0.5304  0.1043
 8218SOL    HW136113   2.922   1.765   8.954  0.9484 -0.5222 -1.3998
 8218SOL    HW236114   2.867   1.878   8.882  1.1740  0.4929  3.2432
 8219SOL     OW36115   3.417   3.320   9.116 -0.4913  0.1946 -0.3370
 8219SOL    HW136116   3.478   3.341   9.045 -0.4830 -0.2687 -0.4657
 8219SOL    HW236117   3.480   3.269   9.166 -0.3140 -1.3676 -2.1544
 8220SOL     OW36118   3.608   2.608  11.340 -0.3718  0.0416 -0.2707
 8220SOL    HW136119   3.659   2.528  11.326  0.2873  0.3849  0.1972
 8220SOL    HW236120   3.520   2.570  11.347 -0.5836  0.2710 -1.6556
 8221SOL     OW36121   2.518   3.999  11.196  0.1061  1.0459 -0.2255
 8221SOL    HW136122   2.572   4.075  11.177 -1.2018  1.9196 -0.4782
 8221SOL    HW236123   2.512   3.963  11.108  3.2257 -2.0659  0.8423
 8222SOL     OW36124   2.513   2.490   4.312 -0.3059  0.5086  0.3310
 8222SOL    HW136125   2.445   2.425   4.332  1.2362 -0.9790  0.7367
 8222SOL    HW236126   2.546   2.493   4.402  0.2242 -0.1890  0.1545
 8223SOL     OW36127   3.348   0.232   2.231  0.4560 -0.1265  0.0958
 8223SOL    HW136128   3.286   0.168   2.267 -0.6317  1.0701  0.3452
 8223SOL    HW236129   3.309   0.319   2.231  1.5607  0.3721  0.2921
 8224SOL     OW36130   2.584   2.351   4.590  0.1829  0.2821  0.2985
 8224SOL    HW136131   2.521   2.386   4.654 -0.2518 -0.1531  0.1086
 8224SOL    HW236132   2.668   2.390   4.615  1.3804 -2.0872 -0.0226
 8225SOL     OW36133   2.532   1.486  11.006  0.0858 -0.1649 -0.4258
 8225SOL    HW136134   2.553   1.413  11.064 -2.0374  0.9547  1.7599
 8225SOL    HW236135   2.466   1.442  10.954  1.3473 -0.2701 -1.9479
 8226SOL     OW36136   0.593   0.449  17.147  0.2382 -0.1597 -0.1502
 8226SOL    HW136137   0.570   0.358  17.129  0.2227  0.5168 -3.5640
 8226SOL    HW236138   0.544   0.474  17.225  1.0024 -1.1871  0.6507
 8227SOL     OW36139   1.067   3.685   1.239  0.3507  0.7237 -0.1779
 8227SOL    HW136140   1.078   3.706   1.146 -1.9535  2.1329 -0.1376
 8227SOL    HW236141   0.989   3.740   1.250  0.2280  0.0805  2.2031
 8228SOL     OW36142   2.318   0.004  16.170 -0.0242  0.0181  0.4279
 8228SOL    HW136143   2.306   4.709  16.076  3.8048 -1.5107  0.1938
 8228SOL    HW236144   2.368   0.083  16.189  0.4082  0.1215 -1.1793
 8229SOL     OW36145   2.180   3.581   3.773  0.3144  0.1642 -0.0972
 8229SOL    HW136146   2.228   3.656   3.808  3.2822 -1.4079 -0.8353
 8229SOL    HW236147   2.240   3.550   3.705  0.7020 -0.9044  0.7354
 8230SOL     OW36148   4.402   4.098   5.196  0.0023  0.3960  0.1265
 8230SOL    HW136149   4.487   4.095   5.240 -0.3319 -0.0734  0.7373
 8230SOL    HW236150   4.402   4.177   5.142  1.4505  0.9941  0.9964
 8231SOL     OW36151   4.267   1.397   9.175  0.2522 -0.0421 -0.0604
 8231SOL    HW136152   4.234   1.396   9.265 -0.1314 -1.9016 -0.2146
 8231SOL    HW236153   4.184   1.394   9.127  0.3638 -0.8800 -0.2134
 8232SOL     OW36154   1.440   2.071  16.629  0.2513  0.6423 -0.2690
 8232SOL    HW136155   1.461   2.157  16.664  0.7486  0.3262  0.1981
 8232SOL    HW236156   1.352   2.051  16.661 -0.0909 -0.5885 -1.9502
 8233SOL     OW36157   4.628   0.328  11.124 -0.6524  0.2249  0.1755
 8233SOL    HW136158   4.581   0.246  11.114  2.2809 -1.7201  2.2585
 8233SOL    HW236159   4.626   0.372  11.039  0.9277 -0.8164 -0.4114
 8234SOL     OW36160   1.087   0.419   6.565  0.0122  0.1808 -0.0117
 8234SOL    HW136161   1.029   0.343   6.555  0.6752 -0.4823  1.1972
 8234SOL    HW236162   1.166   0.369   6.585 -0.8860 -1.3871 -0.3581
 8235SOL     OW36163   3.541   1.568  12.426 -0.3085 -0.6731  0.3946
 8235SOL    HW136164   3.594   1.595  12.502  0.4852 -0.1804 -0.3253
 8235SOL    HW236165   3.454   1.601  12.448 -1.1695 -1.6226 -1.6188
 8236SOL     OW36166   0.588   2.714   4.646 -0.0930  0.3543 -0.2853
 8236SOL    HW136167   0.654   2.701   4.578 -2.1326 -1.8630 -1.8315
 8236SOL    HW236168   0.639   2.773   4.702 -1.8708  1.1813  0.4540
 8237SOL     OW36169   0.185   1.147   9.903 -0.1738 -0.2584 -0.3444
 8237SOL    HW136170   0.212   1.073   9.849  0.1848 -0.4884  0.1553
 8237SOL    HW236171   0.256   1.144   9.967 -1.5844  1.2255  1.2911
 8238SOL     OW36172   4.277   1.049   4.372 -0.0469 -0.2762 -0.2552
 8238SOL    HW136173   4.242   1.113   4.309  1.3849 -1.0855 -1.8643
 8238SOL    HW236174   4.348   1.004   4.327  1.1533 -0.5451  1.9039
 8239SOL     OW36175   0.839   1.637   9.393 -0.8706  0.3887 -0.1563
 8239SOL    HW136176   0.882   1.600   9.316  0.6440  0.6493  0.5645
 8239SOL    HW236177   0.779   1.699   9.351  1.0261  1.3050 -1.5376
 8240SOL     OW36178   2.374   2.807   6.991  0.2651  0.3463  0.4915
 8240SOL    HW136179   2.315   2.848   6.927 -0.0909 -0.9358 -0.0090
 8240SOL    HW236180   2.339   2.718   6.995 -1.8560  1.1955  0.7737
 8241SOL     OW36181   2.105   3.424   5.120 -0.0517 -0.3746  0.2948
 8241SOL    HW136182   2.085   3.507   5.078  0.6738 -0.3809 -0.0638
 8241SOL    HW236183   2.035   3.364   5.093  0.8953 -1.1574 -0.4311
 8242SOL     OW36184   0.954   4.218   1.071  0.4383 -0.3063 -0.0162
 8242SOL    HW136185   0.915   4.195   1.155 -1.5684 -2.0797 -1.4125
 8242SOL    HW236186   1.015   4.287   1.096  0.8210  0.4158 -2.9129
 8243SOL     OW36187   2.802   1.733  10.827 -0.2419  0.0239  0.0777
 8243SOL    HW136188   2.711   1.712  10.805 -0.2493  1.3156 -1.1152
 8243SOL    HW236189   2.800   1.823  10.795  0.4491 -1.4238 -4.1288
 8244SOL     OW36190   1.365   3.922   3.634  0.5745  0.3864 -0.4382
 8244SOL    HW136191   1.293   3.899   3.694 -0.9211 -1.1176 -2.8072
 8244SOL    HW236192   1.433   3.929   3.701 -1.1683  0.1126  1.3696
 8245SOL     OW36193   3.141   3.921   3.427 -0.1839  0.6109  0.0199
 8245SOL    HW136194   3.089   3.975   3.487 -0.7144  1.5694 -1.2975
 8245SOL    HW236195   3.139   3.968   3.344  0.1588  4.0851  1.9401
 8246SOL     OW36196   4.650   2.361   6.465  0.1437 -0.3169 -0.6056
 8246SOL    HW136197   4.695   2.301   6.407  0.5740  0.4349 -1.0509
 8246SOL    HW236198   4.666   2.442   6.417  0.0484  1.0052  1.5711
 8247SOL     OW36199   1.090   0.008   3.893 -0.0369 -0.3532  0.0806
 8247SOL    HW136200   1.074   4.634   3.897 -0.7531 -0.2732 -0.7135
 8247SOL    HW236201   1.160   0.013   3.957  2.0229  0.6718 -2.2586
 8248SOL     OW36202   0.481   1.287   8.824 -0.3563 -0.0940 -0.1031
 8248SOL    HW136203   0.537   1.239   8.884 -0.1161 -0.0750 -0.3119
 8248SOL    HW236204   0.419   1.223   8.788 -1.2741  1.6789 -1.6734
 8249SOL     OW36205   3.621   3.821   1.592  0.5636  0.3919 -0.7836
 8249SOL    HW136206   3.670   3.788   1.668 -0.8792 -1.5436 -0.6866
 8249SOL    HW236207   3.622   3.916   1.602  1.0073  0.5270 -2.1556
 8250SOL     OW36208   0.741   2.399  12.176  0.0851  0.4393  1.0051
 8250SOL    HW136209   0.757   2.470  12.239  1.4760 -1.0680  2.3528
 8250SOL    HW236210   0.778   2.326  12.226 -1.3068  0.7371  2.4649
 8251SOL     OW36211   1.715   3.388   3.998 -0.1151  0.3645 -0.1686
 8251SOL    HW136212   1.788   3.351   3.948  1.9060  0.9630  2.3357
 8251SOL    HW236213   1.702   3.460   3.937 -2.7632 -1.9040 -2.2725
 8252SOL     OW36214   0.055   2.727   6.575 -0.2142  0.0331 -0.5992
 8252SOL    HW136215   0.012   2.728   6.490  1.2246 -1.8614 -1.3547
 8252SOL    HW236216   0.135   2.774   6.549  1.1600 -0.7592  2.1650
 8253SOL     OW36217   4.477   4.425   4.757  0.5223 -0.7263 -0.6718
 8253SOL    HW136218   4.529   4.347   4.779 -1.4023 -1.3709  1.5858
 8253SOL    HW236219   4.391   4.383   4.762 -0.2897  0.9106 -1.2049
 8254SOL     OW36220   1.414   3.559   6.970  0.7556  0.0948  0.1565
 8254SOL    HW136221   1.464   3.506   7.033 -0.2299 -0.4022  0.5291
 8254SOL    HW236222   1.438   3.650   6.984  1.3314 -0.1582  0.8660
 8255SOL     OW36223   2.560   0.721   6.315 -0.4231 -0.6259 -0.0260
 8255SOL    HW136224   2.493   0.751   6.376  0.1714  2.4454 -0.8922
 8255SOL    HW236225   2.505   0.715   6.237  0.3893  0.7586 -0.7167
 8256SOL     OW36226   2.901   3.291   4.553 -0.4953 -0.0140 -0.0765
 8256SOL    HW136227   2.872   3.338   4.475 -1.6517 -2.5385 -1.1682
 8256SOL    HW236228   2.955   3.358   4.594 -0.4136 -0.0248 -0.1672
 8257SOL     OW36229   4.713   1.436   7.360  0.0443  0.1384 -0.6403
 8257SOL    HW136230   4.651   1.364   7.356 -0.0107  0.2414 -1.7057
 8257SOL    HW236231   4.683   1.493   7.289  1.2938 -2.2366 -3.0926
 8258SOL     OW36232   2.198   3.982  15.591 -0.4392 -0.1088 -0.1989
 8258SOL    HW136233   2.255   3.922  15.638  0.6554  2.4635  1.7532
 8258SOL    HW236234   2.195   4.051  15.657 -1.1030  0.1408 -0.4883
 8259SOL     OW36235   4.094   3.299   5.126 -0.5130  0.2034  0.8926
 8259SOL    HW136236   4.052   3.215   5.142  0.0040 -0.0362  0.9962
 8259SOL    HW236237   4.103   3.331   5.216 -1.1699 -0.4282  1.1771
 8260SOL     OW36238   3.188   4.572  12.165  0.5810  0.2966  0.1889
 8260SOL    HW136239   3.119   4.520  12.124  0.3160  0.1998  0.7518
 8260SOL    HW236240   3.142   4.624  12.230 -0.9091  0.3288 -0.9035
 8261SOL     OW36241   0.531   4.003   4.288 -0.1615  0.4703 -0.0068
 8261SOL    HW136242   0.503   3.968   4.203 -1.9979 -0.5157  1.0090
 8261SOL    HW236243   0.546   3.922   4.336 -0.7800  0.0894 -0.4497
 8262SOL     OW36244   2.024   0.419  13.245 -0.4392  0.0385  0.2543
 8262SOL    HW136245   2.098   0.433  13.304  0.3138  1.0109 -0.9188
 8262SOL    HW236246   1.963   0.394  13.315 -0.0208 -3.1308 -0.4755
 8263SOL     OW36247   3.334   0.043   1.963  0.1851 -0.5904  0.6913
 8263SOL    HW136248   3.307   0.134   1.971  0.0408 -0.6202  0.5346
 8263SOL    HW236249   3.421   0.033   2.002  1.5459  1.2543 -1.9168
 8264SOL     OW36250   1.962   3.518   3.397 -0.0578 -0.3789  1.1760
 8264SOL    HW136251   1.926   3.441   3.354  0.8288  0.8921 -1.8741
 8264SOL    HW236252   1.911   3.511   3.478 -2.2372  0.9525 -0.0667
 8265SOL     OW36253   0.980   1.610   4.598  0.1774 -0.5475  0.8963
 8265SOL    HW136254   1.014   1.654   4.520 -0.7893 -0.9413  0.2466
 8265SOL    HW236255   0.891   1.647   4.601 -0.2122 -1.2697 -1.4715
 8266SOL     OW36256   4.547   0.966  10.954  0.1459 -1.0119 -0.3745
 8266SOL    HW136257   4.590   1.024  11.017  2.3184  0.5148 -3.2424
 8266SOL    HW236258   4.618   0.967  10.890 -2.2380  1.6158 -2.9179
 8267SOL     OW36259   0.253   1.449   3.495 -0.3790 -0.2241  0.4606
 8267SOL    HW136260   0.298   1.457   3.579 -0.6355  4.0614  0.2060
 8267SOL    HW236261   0.289   1.536   3.477 -0.5644 -0.2493 -0.0371
 8268SOL     OW36262   2.109   0.113   8.084 -0.2513  0.4205  0.2455
 8268SOL    HW136263   2.030   0.135   8.134  0.1274 -0.0157  1.0335
 8268SOL    HW236264   2.070   0.060   8.015 -0.5814  0.2415  0.5729
 8269SOL     OW36265   0.607   4.405   4.452 -0.2684 -0.1119  0.5292
 8269SOL    HW136266   0.681   4.398   4.512 -1.0453  0.0725  1.5132
 8269SOL    HW236267   0.636   4.365   4.370  0.7669  1.4448  0.1392
 8270SOL     OW36268   3.377   4.383   2.401 -0.6142  0.4722 -0.0028
 8270SOL    HW136269   3.472   4.393   2.403 -0.6345  0.7152 -0.3530
 8270SOL    HW236270   3.348   4.474   2.411 -1.2487  0.1343  1.3040
 8271SOL     OW36271   3.902   3.157   6.669 -0.2023 -0.7758 -0.4948
 8271SOL    HW136272   3.833   3.213   6.705  0.7827 -1.2876  2.1551
 8271SOL    HW236273   3.938   3.118   6.748  0.9472 -0.0694 -0.6743
 8272SOL     OW36274   1.223   4.293   0.285 -0.5763 -0.2013 -0.1245
 8272SOL    HW136275   1.272   4.344   0.220 -1.9335  0.0586 -0.9357
 8272SOL    HW236276   1.228   4.353   0.359  0.7715  0.8963 -1.0936
 8273SOL     OW36277   1.767   4.394   2.859 -0.1113 -0.3828  0.0457
 8273SOL    HW136278   1.790   4.309   2.821 -0.8852  0.0041 -1.3181
 8273SOL    HW236279   1.678   4.379   2.892  0.3890 -0.1926  1.4778
 8274SOL     OW36280   1.518   4.238  11.369  0.2595 -0.5789 -0.4394
 8274SOL    HW136281   1.451   4.248  11.438 -0.9408 -1.1390 -1.5226
 8274SOL    HW236282   1.593   4.248  11.427 -1.1423  2.4956  0.8101
 8275SOL     OW36283   0.177   1.793   4.379 -0.1975  0.7350  0.7438
 8275SOL    HW136284   0.086   1.764   4.374  0.9220 -2.5161 -0.9198
 8275SOL    HW236285   0.163   1.878   4.420 -1.6277  0.9801 -0.2633
 8276SOL     OW36286   2.213   0.810   4.984  0.1961 -0.1448 -0.1828
 8276SOL    HW136287   2.289   0.809   4.925 -1.0964 -3.7308 -1.7641
 8276SOL    HW236288   2.241   0.738   5.040 -0.5598 -0.2711  0.0241
 8277SOL     OW36289   3.561   3.373   5.968 -0.1896 -0.0720  0.8308
 8277SOL    HW136290   3.606   3.435   6.024 -0.8810  2.1188 -1.0236
 8277SOL    HW236291   3.491   3.432   5.940 -0.7623 -0.8292  0.6557
 8278SOL     OW36292   4.635   0.870  15.164 -0.2209 -0.0958 -0.3356
 8278SOL    HW136293   4.655   0.777  15.156 -0.7218 -0.0772 -1.7727
 8278SOL    HW236294   4.716   0.910  15.195 -0.5758  1.5676 -1.5327
 8279SOL     OW36295   1.884   2.379  11.538  0.0334  0.3668 -0.1216
 8279SOL    HW136296   1.799   2.387  11.495  1.0520 -0.6193 -2.3403
 8279SOL    HW236297   1.945   2.399  11.467 -0.1662 -1.2821 -0.7719
 8280SOL     OW36298   3.939   4.360   2.799 -0.1908  0.6582  0.3871
 8280SOL    HW136299   3.868   4.332   2.741  0.4977  0.7334 -0.4918
 8280SOL    HW236300   3.901   4.332   2.882  0.4628  1.6970  1.0300
 8281SOL     OW36301   3.417   2.618   8.078 -0.2233 -0.0677  0.2446
 8281SOL    HW136302   3.443   2.565   8.003  1.4488 -0.3001  0.9749
 8281SOL    HW236303   3.405   2.552   8.146 -1.9235  0.1332  0.1380
 8282SOL     OW36304   3.497   4.633   6.525  0.0898  0.6781  0.6894
 8282SOL    HW136305   3.545   4.550   6.515 -2.4206 -0.4081 -2.0634
 8282SOL    HW236306   3.439   4.616   6.451 -2.0724  3.4085  1.7575
 8283SOL     OW36307   3.683   3.183   1.065 -0.2452  0.0719 -0.3968
 8283SOL    HW136308   3.749   3.114   1.074 -1.8059 -1.2788  0.7253
 8283SOL    HW236309   3.721   3.242   1.000 -1.0218  0.4555 -0.5086
 8284SOL     OW36310   1.065   1.345   4.318 -0.0701 -0.1294 -0.2923
 8284SOL    HW136311   1.113   1.382   4.391 -1.8352  1.5377  0.0289
 8284SOL    HW236312   1.088   1.404   4.247 -0.4419  0.6095  0.2030
 8285SOL     OW36313   1.202   3.439  12.240  0.1747  0.2608 -0.4105
 8285SOL    HW136314   1.224   3.357  12.197 -3.2955 -0.1444 -1.3873
 8285SOL    HW236315   1.110   3.443  12.215 -0.3822 -3.5323  1.0090
 8286SOL     OW36316   1.879   1.990   8.324 -0.2034  0.0602 -0.3979
 8286SOL    HW136317   1.933   2.039   8.386  0.7772  0.4390 -1.5505
 8286SOL    HW236318   1.842   1.920   8.377 -1.2353 -0.9525 -2.4571
 8287SOL     OW36319   1.580   2.589   7.546  0.0084 -0.2221  1.3945
 8287SOL    HW136320   1.641   2.638   7.492 -3.2868  0.1996 -1.9710
 8287SOL    HW236321   1.564   2.652   7.616  0.1734  0.0251  1.2094
 8288SOL     OW36322   0.827   3.414   4.914 -0.5653  0.4934 -0.3046
 8288SOL    HW136323   0.863   3.447   4.996  1.9270 -1.7687 -0.4569
 8288SOL    HW236324   0.906   3.369   4.883  0.1820  3.4364 -2.6430
 8289SOL     OW36325   0.988   2.886  10.404 -0.2354  0.1434 -0.1520
 8289SOL    HW136326   0.928   2.813  10.391 -1.6699  1.2937 -0.0299
 8289SOL    HW236327   1.031   2.886  10.319  0.0244  3.5516 -0.0212
 8290SOL     OW36328   4.222   1.074   9.287 -0.4430  0.2820  0.4387
 8290SOL    HW136329   4.301   1.127   9.296  0.0201 -0.5295  1.1722
 8290SOL    HW236330   4.207   1.060   9.381  0.8718  1.2164  0.7923
 8291SOL     OW36331   4.298   4.416  16.945 -1.0161  0.3592 -0.0895
 8291SOL    HW136332   4.208   4.443  16.967 -0.6596  1.7110 -0.2773
 8291SOL    HW236333   4.343   4.496  16.972 -1.0064  0.4065 -0.2439
 8292SOL     OW36334   3.756   2.200   8.445  0.0538 -0.7553  0.2718
 8292SOL    HW136335   3.849   2.180   8.433 -0.0446 -1.7880  1.2517
 8292SOL    HW236336   3.761   2.272   8.508  0.2070 -1.0385  0.5881
 8293SOL     OW36337   3.385   2.244  14.750 -0.2933  0.0432 -0.0441
 8293SOL    HW136338   3.411   2.333  14.729  1.8448 -0.3196  1.1043
 8293SOL    HW236339   3.403   2.196  14.668 -1.2837  0.1486 -0.3208
 8294SOL     OW36340   3.380   0.017  12.060  0.3321 -0.3612 -0.0647
 8294SOL    HW136341   3.332   0.012  11.977  0.0831  0.9771  0.0053
 8294SOL    HW236342   3.332   4.675  12.115 -2.2851  1.2443 -0.4961
 8295SOL     OW36343   3.585   0.772   9.487 -0.0659 -0.4724  0.4542
 8295SOL    HW136344   3.667   0.756   9.440  0.5187  2.5235  0.4268
 8295SOL    HW236345   3.620   0.778   9.576  0.3103 -0.5443  0.3099
 8296SOL     OW36346   1.292   1.110   1.964 -0.3954 -1.1209 -0.3352
 8296SOL    HW136347   1.223   1.174   1.982  2.6656  1.0407  3.8785
 8296SOL    HW236348   1.366   1.164   1.991 -0.4492 -1.1010 -0.2275
 8297SOL     OW36349   0.452   1.157   7.309  0.6421 -0.2637  0.1810
 8297SOL    HW136350   0.408   1.234   7.346 -0.7843 -0.3026 -1.4190
 8297SOL    HW236351   0.458   1.177   7.216 -1.2935 -0.7969 -0.0636
 8298SOL     OW36352   4.230   1.623  14.815 -0.2129  0.1298  0.1699
 8298SOL    HW136353   4.255   1.554  14.877  0.7398  0.0991 -0.2455
 8298SOL    HW236354   4.316   1.651  14.783 -0.4447  0.5582 -0.0829
 8299SOL     OW36355   4.129   0.246   3.286  0.0907 -0.3351  0.6905
 8299SOL    HW136356   4.147   0.282   3.373 -0.8631  0.2450  0.6511
 8299SOL    HW236357   4.160   0.325   3.242 -0.8278 -2.4092 -3.6826
 8300SOL     OW36358   1.930   1.714   4.090 -0.0604 -0.4339 -0.1013
 8300SOL    HW136359   1.918   1.643   4.027  3.3370 -0.4787 -0.7257
 8300SOL    HW236360   1.907   1.790   4.037 -1.3493  0.7741  2.2078
 8301SOL     OW36361   4.400   1.262   8.305  0.5405  0.5588 -0.2812
 8301SOL    HW136362   4.352   1.263   8.222  1.7431 -4.8112 -1.0389
 8301SOL    HW236363   4.492   1.267   8.282  0.5364 -0.2004 -0.4659
 8302SOL     OW36364   2.828   2.449   2.385 -0.4732  0.5687 -0.8437
 8302SOL    HW136365   2.851   2.358   2.401 -1.0529  0.6283  0.3595
 8302SOL    HW236366   2.916   2.488   2.391 -0.1606  0.0647 -2.1573
 8303SOL     OW36367   3.254   1.111   5.758 -0.3869  0.2254  0.3193
 8303SOL    HW136368   3.240   1.030   5.806 -0.0509 -0.3970 -0.6227
 8303SOL    HW236369   3.245   1.183   5.820 -0.4793 -0.5219  1.1671
 8304SOL     OW36370   4.710   1.848  17.071 -0.1484  0.0531  0.2520
 8304SOL    HW136371   4.639   1.880  17.127 -0.0609  0.7475 -0.0320
 8304SOL    HW236372   4.682   1.760  17.047  1.1303 -0.6175  1.2277
 8305SOL     OW36373   2.132   2.052   6.519  0.0398  0.2296  0.3138
 8305SOL    HW136374   2.227   2.043   6.524 -0.0466 -1.2757 -0.7566
 8305SOL    HW236375   2.111   2.031   6.428  1.3507  0.8892 -0.1335
 8306SOL     OW36376   2.688   4.586   5.635 -0.0192  0.5315  0.6616
 8306SOL    HW136377   2.635   4.620   5.563 -0.2825  0.0627  0.6271
 8306SOL    HW236378   2.692   4.652   5.703 -1.5064  1.5095 -0.1921
 8307SOL     OW36379   2.471   0.072   7.396  0.5361 -0.4791 -0.4485
 8307SOL    HW136380   2.439   0.048   7.483  2.8546 -2.4025 -0.1437
 8307SOL    HW236381   2.459   4.708   7.353 -1.7836  0.0266 -0.8140
 8308SOL     OW36382   1.954   4.371   8.820  0.3197  0.3542 -0.4900
 8308SOL    HW136383   2.025   4.378   8.757  0.1399 -0.8682 -0.8243
 8308SOL    HW236384   1.932   4.278   8.822  0.2847  0.3414 -1.3133
 8309SOL     OW36385   2.033   2.286   6.274 -0.3568  0.0982 -0.3205
 8309SOL    HW136386   2.123   2.289   6.307  0.1113 -1.0332 -1.4928
 8309SOL    HW236387   2.046   2.273   6.180 -1.0877 -3.7331  0.1033
 8310SOL     OW36388   4.293   1.220   8.050 -0.3967 -0.5081 -0.4478
 8310SOL    HW136389   4.315   1.240   7.959 -0.2540 -0.0737 -0.3195
 8310SOL    HW236390   4.209   1.175   8.038 -0.9248  0.8835 -1.9099
 8311SOL     OW36391   1.154   0.953   3.097  0.0701 -0.0007  0.7842
 8311SOL    HW136392   1.102   1.012   3.152  0.5520 -0.9218  2.2287
 8311SOL    HW236393   1.120   0.867   3.119 -0.5787 -0.1475 -0.8451
 8312SOL     OW36394   3.339   4.363  14.399 -0.2160  0.2256  0.3485
 8312SOL    HW136395   3.293   4.309  14.463  1.9245 -0.9591  0.8847
 8312SOL    HW236396   3.384   4.425  14.456  0.7859 -0.0187 -0.1748
 8313SOL     OW36397   4.209   3.606   4.534  0.0348 -0.2125  0.3558
 8313SOL    HW136398   4.202   3.515   4.504 -0.2863  0.5436 -1.8383
 8313SOL    HW236399   4.263   3.637   4.462  0.4326  1.0475  1.2074
 8314SOL     OW36400   1.333   0.173   3.001 -0.1733  0.2512 -0.0557
 8314SOL    HW136401   1.269   0.227   2.956 -1.6715 -2.3088 -0.9528
 8314SOL    HW236402   1.399   0.232   3.039 -1.4745  1.2473  0.6581
 8315SOL     OW36403   0.732   4.480  10.094  0.2258 -0.5944  0.0703
 8315SOL    HW136404   0.748   4.500  10.002  1.5885  0.1389  0.4717
 8315SOL    HW236405   0.637   4.490  10.104 -0.0174 -0.7059 -2.0081
 8316SOL     OW36406   1.370   2.822   2.165  0.7204 -0.3391  0.1042
 8316SOL    HW136407   1.369   2.888   2.096  1.1693 -1.0241 -0.5480
 8316SOL    HW236408   1.448   2.843   2.216  0.3004  0.4500  0.4237
 8317SOL     OW36409   4.146   2.161  11.062 -0.4075  0.2314  0.2697
 8317SOL    HW136410   4.120   2.182  11.152 -1.1003 -0.0756  0.1364
 8317SOL    HW236411   4.119   2.069  11.061 -2.5586  0.8823 -2.0133
 8318SOL     OW36412   0.629   4.329   9.803  0.6606  0.2424  1.3181
 8318SOL    HW136413   0.711   4.289   9.831  1.1550 -0.0932 -0.6192
 8318SOL    HW236414   0.646   4.421   9.822 -0.2581 -0.0768  3.7575
 8319SOL     OW36415   0.067   0.044   6.191 -0.6790  0.2999 -0.2069
 8319SOL    HW136416   0.123   0.119   6.211  0.9355 -0.7364 -0.9082
 8319SOL    HW236417   0.028   0.076   6.109  0.0126 -1.0228 -1.0386
 8320SOL     OW36418   3.978   3.724   1.673 -0.4586  0.4788 -0.2122
 8320SOL    HW136419   4.032   3.698   1.748 -0.9951 -1.6932 -0.5759
 8320SOL    HW236420   3.897   3.742   1.720 -0.1980  1.1265 -0.0154
 8321SOL     OW36421   0.551   1.580   0.480  0.2271 -0.7674  0.3836
 8321SOL    HW136422   0.524   1.531   0.558  2.6263 -3.3657 -0.4241
 8321SOL    HW236423   0.521   1.521   0.411 -1.1377 -0.7542  0.9590
 8322SOL     OW36424   1.709   1.196   2.292 -0.4172  0.3443  0.5175
 8322SOL    HW136425   1.658   1.275   2.276 -0.9333 -0.1843 -0.4205
 8322SOL    HW236426   1.791   1.212   2.244  0.0729 -1.2108  0.8450
 8323SOL     OW36427   2.817   3.983  10.922  0.3092 -0.8360  0.2469
 8323SOL    HW136428   2.794   4.005  10.831  0.0376  0.1932  0.5591
 8323SOL    HW236429   2.744   4.016  10.974  0.3648  0.7489 -0.6583
 8324SOL     OW36430   3.396   2.892   8.758  0.8261  0.3822 -0.1209
 8324SOL    HW136431   3.462   2.943   8.711  1.3394  0.6298  0.8794
 8324SOL    HW236432   3.371   2.960   8.820  0.0274 -1.6423  1.7483
 8325SOL     OW36433   4.208   3.004  13.248  0.0868 -0.1021 -0.0906
 8325SOL    HW136434   4.131   3.024  13.195 -0.2082 -0.1798  0.3069
 8325SOL    HW236435   4.196   3.057  13.327  0.9901  0.6399 -0.4513
 8326SOL     OW36436   1.934   4.632   1.251 -0.8483 -1.0133  0.7846
 8326SOL    HW136437   2.019   4.618   1.293  0.0578 -1.9827 -1.3888
 8326SOL    HW236438   1.878   4.669   1.320  1.9452  0.2019  2.3750
 8327SOL     OW36439   1.817   2.033   8.793  0.3182  0.3467  0.1919
 8327SOL    HW136440   1.865   1.975   8.851 -0.2025 -0.4326 -0.1502
 8327SOL    HW236441   1.739   2.046   8.847  1.5236  1.3657  1.6910
 8328SOL     OW36442   0.053   2.046   5.761  0.3262 -0.5679  0.0566
 8328SOL    HW136443   4.690   2.077   5.726  1.6580  2.1796 -0.7512
 8328SOL    HW236444   0.105   2.126   5.770  0.5175 -0.8757  1.7384
 8329SOL     OW36445   3.128   4.565  17.311  0.7239  0.0096  0.1666
 8329SOL    HW136446   3.033   4.574  17.304  0.8005  0.3860 -0.3953
 8329SOL    HW236447   3.149   4.508  17.237  1.1793 -0.3165  0.5474
 8330SOL     OW36448   2.186   4.712  12.559 -0.5074  0.2243  0.6460
 8330SOL    HW136449   2.130   0.058  12.599 -0.2563  2.6295 -2.9736
 8330SOL    HW236450   2.123   4.670  12.502  1.5019 -1.8634 -0.0341
 8331SOL     OW36451   2.289   0.078   5.242  0.2015  0.1128 -0.2821
 8331SOL    HW136452   2.361   0.140   5.235 -0.5767  0.8454 -1.7304
 8331SOL    HW236453   2.218   0.129   5.204  0.5383  0.4870 -0.3991
 8332SOL     OW36454   4.057   0.038   5.349 -0.2409 -0.3975 -0.7806
 8332SOL    HW136455   3.974   0.043   5.302 -0.0951 -0.7565 -1.0781
 8332SOL    HW236456   4.050   4.669   5.384 -0.9466  0.6586  1.8269
 8333SOL     OW36457   1.606   0.638   8.175  0.0064 -0.1822  0.9526
 8333SOL    HW136458   1.689   0.615   8.217  0.7322  0.4600 -0.1303
 8333SOL    HW236459   1.622   0.731   8.162 -0.0371 -0.4941 -1.3652
 8334SOL     OW36460   1.796   1.996   4.235  0.3117 -0.0935 -0.2114
 8334SOL    HW136461   1.816   1.959   4.149 -1.7512  0.9502 -1.1519
 8334SOL    HW236462   1.716   1.944   4.247 -0.3767  0.7849 -0.9431
 8335SOL     OW36463   0.023   2.436   6.212  0.4881 -0.5662  0.1312
 8335SOL    HW136464   0.112   2.472   6.211  0.3694 -0.3618 -3.4792
 8335SOL    HW236465   0.035   2.357   6.159 -0.4255  0.3967 -1.5060
 8336SOL     OW36466   4.387   4.200   7.177  0.7738 -0.2768 -0.1455
 8336SOL    HW136467   4.458   4.187   7.115  2.4135  1.1683  1.4398
 8336SOL    HW236468   4.382   4.295   7.169  0.2684 -0.4046 -1.3158
 8337SOL     OW36469   4.363   4.095  14.861 -0.3961  0.0578 -0.4735
 8337SOL    HW136470   4.415   4.155  14.808 -2.3404  0.7168 -1.6459
 8337SOL    HW236471   4.383   4.121  14.951  0.0258  0.7151 -0.7598
 8338SOL     OW36472   1.658   1.953  10.127  0.2211 -0.7105  0.2356
 8338SOL    HW136473   1.629   1.959  10.218 -1.3587  0.0093 -0.3165
 8338SOL    HW236474   1.611   2.027  10.089  0.5074  0.1793  1.5790
 8339SOL     OW36475   3.948   4.561   4.475  0.4104 -0.0667 -0.3931
 8339SOL    HW136476   3.873   4.583   4.530 -2.0497  0.4921 -3.9535
 8339SOL    HW236477   4.023   4.549   4.534 -0.2771  0.2003  0.5269
 8340SOL     OW36478   1.499   2.659   6.150  0.3748  0.0763 -0.6434
 8340SOL    HW136479   1.434   2.595   6.180  1.3221 -0.6120 -0.0651
 8340SOL    HW236480   1.445   2.737   6.138 -0.1076 -0.3855 -1.5287
 8341SOL     OW36481   3.410   2.032   2.643 -0.4408  0.1960 -0.4536
 8341SOL    HW136482   3.352   1.989   2.706  1.6330  1.0594  2.0198
 8341SOL    HW236483   3.433   1.963   2.581 -1.3030 -0.5549  0.0520
 8342SOL     OW36484   3.401   1.723   0.462  0.5393  0.1046  0.4216
 8342SOL    HW136485   3.345   1.667   0.515 -2.2337  1.0292 -1.5409
 8342SOL    HW236486   3.380   1.805   0.506 -0.7102 -1.2704  2.3744
 8343SOL     OW36487   0.912   2.971   8.374 -0.2534  0.2527 -0.4234
 8343SOL    HW136488   0.925   3.063   8.353  0.9090  0.1719 -0.0577
 8343SOL    HW236489   0.884   2.944   8.286  0.7765 -1.3162 -0.2822
 8344SOL     OW36490   1.102   0.993   1.733 -0.2945 -0.4333 -0.9233
 8344SOL    HW136491   1.088   1.038   1.816  1.7196 -0.1921 -0.7184
 8344SOL    HW236492   1.031   1.025   1.677 -0.2761  0.4057 -0.4712
 8345SOL     OW36493   0.961   1.853   7.195  0.4931  0.3230  0.0654
 8345SOL    HW136494   0.916   1.870   7.112 -1.2150 -1.3093  0.6487
 8345SOL    HW236495   1.030   1.918   7.206  0.7467 -0.0143  0.4735
 8346SOL     OW36496   1.201   4.640   8.909 -0.0239 -0.6856 -0.3976
 8346SOL    HW136497   1.130   4.577   8.922  0.1967 -1.2577 -2.0017
 8346SOL    HW236498   1.264   4.612   8.975 -1.1610 -0.8020  0.6477
 8347SOL     OW36499   4.678   0.891   7.640  0.5458  0.0012 -0.1183
 8347SOL    HW136500   4.601   0.873   7.586  0.0391 -1.0859  0.9640
 8347SOL    HW236501   4.702   0.816   7.695  0.6525  0.4758  0.4762
 8348SOL     OW36502   1.269   4.072   8.999  0.5041  0.4370 -0.4099
 8348SOL    HW136503   1.284   4.161   9.031 -2.0122  0.1053  1.6435
 8348SOL    HW236504   1.337   4.017   9.038  0.5709  1.7633  1.3642
 8349SOL     OW36505   3.207   0.515   7.846 -0.6116 -0.1992  0.3652
 8349SOL    HW136506   3.158   0.542   7.769  0.2480 -0.7396 -0.3779
 8349SOL    HW236507   3.169   0.427   7.850  0.7796 -0.9402 -2.8484
 8350SOL     OW36508   1.065   0.950  10.167  0.0995  0.2966 -0.2125
 8350SOL    HW136509   1.062   0.939  10.072 -0.6864 -1.5743  0.0123
 8350SOL    HW236510   1.138   1.011  10.177  1.9740 -1.7964 -1.1015
 8351SOL     OW36511   1.365   3.060  13.772  0.0668 -0.0324 -0.4760
 8351SOL    HW136512   1.356   3.092  13.682  0.1097  0.8639 -0.1634
 8351SOL    HW236513   1.446   3.009  13.765 -0.7771 -1.1803 -1.8667
 8352SOL     OW36514   3.531   3.944  15.977  0.5792 -0.6311 -0.2601
 8352SOL    HW136515   3.516   3.909  15.889 -0.2444 -2.0388  0.4388
 8352SOL    HW236516   3.512   4.037  15.966 -0.6916 -0.6327  1.9506
 8353SOL     OW36517   2.151   2.890   3.021  0.0908 -0.3181 -0.0833
 8353SOL    HW136518   2.199   2.828   3.075 -0.2815  0.0168  0.6375
 8353SOL    HW236519   2.067   2.847   3.033 -1.3239  2.1939 -0.9276
 8354SOL     OW36520   3.514   4.228   7.554  0.2510 -0.0779  0.1908
 8354SOL    HW136521   3.601   4.252   7.586  0.7490 -0.1202 -1.1504
 8354SOL    HW236522   3.523   4.228   7.459  1.3100 -0.2045  0.2921
 8355SOL     OW36523   2.402   3.460   4.342 -0.1152 -0.2477 -0.0370
 8355SOL    HW136524   2.401   3.550   4.374  2.6322 -0.2704  0.0861
 8355SOL    HW236525   2.473   3.477   4.280 -1.1470 -0.4481 -1.2862
 8356SOL     OW36526   4.208   3.471   8.975 -0.4058 -0.3104 -0.6197
 8356SOL    HW136527   4.187   3.427   9.057 -3.6269  2.3637 -0.0055
 8356SOL    HW236528   4.117   3.482   8.948 -0.6189  0.8637  0.5558
 8357SOL     OW36529   1.414   2.153  15.148 -0.1914 -0.4249 -0.0209
 8357SOL    HW136530   1.435   2.180  15.237  0.1521  0.3689 -0.3417
 8357SOL    HW236531   1.429   2.059  15.154  1.8864  0.0333  1.9271
 8358SOL     OW36532   2.253   3.067   8.542 -0.4100 -0.1991 -0.0585
 8358SOL    HW136533   2.184   3.001   8.552 -0.5944 -0.0310 -0.2157
 8358SOL    HW236534   2.201   3.143   8.516 -0.8988 -0.4870  0.0788
 8359SOL     OW36535   2.113   0.465   0.527  0.3448  0.3329  0.2144
 8359SOL    HW136536   2.169   0.411   0.582  0.1888 -1.1410 -1.0698
 8359SOL    HW236537   2.051   0.481   0.597 -1.4598 -0.6669 -1.1573
 8360SOL     OW36538   4.361   1.908   4.687 -0.1229  0.5753  0.1853
 8360SOL    HW136539   4.437   1.911   4.629 -1.5383 -0.0710 -1.7007
 8360SOL    HW236540   4.405   1.923   4.771 -1.2438  1.6151  0.5823
 8361SOL     OW36541   3.840   1.405   7.540 -0.2424  0.4846 -0.2291
 8361SOL    HW136542   3.877   1.488   7.511  2.5591  0.1827  2.5221
 8361SOL    HW236543   3.890   1.337   7.494  1.2126  0.2885  1.6105
 8362SOL     OW36544   2.423   0.545  14.856 -0.4479  0.0242 -0.3380
 8362SOL    HW136545   2.368   0.495  14.796 -2.1899  0.8173  0.6126
 8362SOL    HW236546   2.352   0.607  14.868 -0.1716  0.3935 -0.6234
 8363SOL     OW36547   3.178   2.499   7.983  0.8236 -0.1009 -0.5755
 8363SOL    HW136548   3.234   2.520   8.058  0.2103  1.3283 -0.5187
 8363SOL    HW236549   3.131   2.582   7.969 -1.3571 -1.2050  0.0998
 8364SOL     OW36550   3.757   3.098  16.887 -0.1544  0.2870 -1.2304
 8364SOL    HW136551   3.767   3.147  16.969 -2.6966  1.2299 -1.4656
 8364SOL    HW236552   3.836   3.116  16.836  0.2423  0.1000 -0.6841
 8365SOL     OW36553   1.148   0.242   4.752  0.5460  0.3076 -0.5540
 8365SOL    HW136554   1.150   0.215   4.844  1.2681  1.7599 -0.1295
 8365SOL    HW236555   1.241   0.228   4.731  0.5278 -0.5005 -0.0593
 8366SOL     OW36556   0.850   2.184  16.201 -0.1389  0.1573 -0.1296
 8366SOL    HW136557   0.848   2.171  16.296 -0.7863  2.0002  0.1080
 8366SOL    HW236558   0.850   2.280  16.198 -1.0198  0.1717  0.3032
 8367SOL     OW36559   4.638   4.460   6.184 -0.3494  0.3862  0.0851
 8367SOL    HW136560   4.590   4.522   6.129 -1.6984  1.6783  2.7362
 8367SOL    HW236561   0.008   4.489   6.184 -1.2643  3.2731 -0.2821
 8368SOL     OW36562   2.503   0.523   3.288  0.2897  0.2543 -0.0455
 8368SOL    HW136563   2.581   0.573   3.264 -0.2304  0.8213 -0.5538
 8368SOL    HW236564   2.489   0.557   3.376  1.9143 -1.9861  1.0758
 8369SOL     OW36565   0.098   1.348   6.194  0.5266 -0.3142 -0.1650
 8369SOL    HW136566   0.125   1.433   6.159 -1.2532  0.5346  0.5111
 8369SOL    HW236567   0.170   1.325   6.252 -1.5680 -1.3376  2.0267
 8370SOL     OW36568   0.542   3.771  15.851  0.4174 -0.3840 -0.2447
 8370SOL    HW136569   0.506   3.785  15.763  1.3705 -0.7887 -0.6967
 8370SOL    HW236570   0.602   3.845  15.862 -0.3364  0.3055 -0.7350
 8371SOL     OW36571   0.318   1.915   5.882  0.1648  0.1632 -1.0208
 8371SOL    HW136572   0.367   1.980   5.832  0.7016 -0.7015 -1.6196
 8371SOL    HW236573   0.306   1.856   5.808 -0.9103  1.4004 -1.8320
 8372SOL     OW36574   3.615   3.218   5.722 -0.1181  0.6641  0.3136
 8372SOL    HW136575   3.696   3.169   5.706 -0.0596  1.0952 -0.6709
 8372SOL    HW236576   3.624   3.241   5.814 -0.1861  1.6799  0.0602
 8373SOL     OW36577   2.871   3.859   4.988  0.1268 -0.4103  0.0059
 8373SOL    HW136578   2.960   3.834   4.966  1.3492  2.4004  1.7338
 8373SOL    HW236579   2.835   3.781   5.030 -0.8926  0.9498  1.6621
 8374SOL     OW36580   0.783   2.431  16.514 -0.1878 -0.7035  0.3526
 8374SOL    HW136581   0.744   2.466  16.433  0.1220  0.6428  0.7819
 8374SOL    HW236582   0.793   2.340  16.488  0.6186 -0.7501  0.8574
 8375SOL     OW36583   1.610   0.422   7.444 -0.0500  0.1601  0.6927
 8375SOL    HW136584   1.581   0.343   7.490 -0.2973 -0.6633 -0.8923
 8375SOL    HW236585   1.616   0.399   7.351 -0.6180  2.5450  0.0741
 8376SOL     OW36586   4.390   1.167   4.639  0.5500  0.2396  0.3547
 8376SOL    HW136587   4.336   1.134   4.566  1.8489 -2.3104  0.5500
 8376SOL    HW236588   4.472   1.127   4.609 -0.6880 -0.1178 -2.5356
 8377SOL     OW36589   0.168   4.695   9.276  0.1225 -0.0667  0.2836
 8377SOL    HW136590   0.259   4.704   9.304  1.5059 -1.2406 -3.9369
 8377SOL    HW236591   0.158   4.600   9.270  1.1808 -0.2534  1.3819
 8378SOL     OW36592   0.937   1.953   6.418  0.1693 -0.4544 -0.0872
 8378SOL    HW136593   0.876   2.003   6.471 -0.6975 -2.1642  0.5347
 8378SOL    HW236594   0.877   1.879   6.404 -0.8716  0.0819  1.5364
 8379SOL     OW36595   3.147   2.755   4.139  0.1784  0.3135  0.3251
 8379SOL    HW136596   3.113   2.666   4.150  2.6186 -0.5826  0.7733
 8379SOL    HW236597   3.241   2.735   4.132  0.2740  0.2668  1.7358
 8380SOL     OW36598   4.066   0.486  11.346  0.2974 -0.5911 -0.0841
 8380SOL    HW136599   4.031   0.569  11.313  2.5888  1.3276  2.1857
 8380SOL    HW236600   4.155   0.513  11.369 -0.2778  0.8002  0.5649
 8381SOL     OW36601   4.320   0.934   5.284 -0.1469 -0.1085 -0.8442
 8381SOL    HW136602   4.271   0.980   5.216  0.9713  0.2000 -1.4308
 8381SOL    HW236603   4.406   0.973   5.273  0.3957 -0.2477  2.8399
 8382SOL     OW36604   3.481   2.906  15.970  0.2069 -0.7195  0.1549
 8382SOL    HW136605   3.475   2.993  15.930 -2.8955 -0.1794  1.7288
 8382SOL    HW236606   3.532   2.936  16.045 -0.6834  2.5290 -0.5206
 8383SOL     OW36607   4.182   2.591   8.836 -0.1424 -0.2822 -1.0733
 8383SOL    HW136608   4.107   2.535   8.854 -0.7497  1.3476  1.4394
 8383SOL    HW236609   4.229   2.537   8.773  2.3718 -0.0682  0.5939
 8384SOL     OW36610   3.735   1.034   2.662  0.3541  0.1032 -0.6823
 8384SOL    HW136611   3.826   1.055   2.641  1.1201 -0.7757  1.6827
 8384SOL    HW236612   3.690   1.118   2.670  1.0318  0.4033  0.0097
 8385SOL     OW36613   2.902   3.540   4.842 -0.1618 -0.7032  0.4345
 8385SOL    HW136614   2.945   3.522   4.925  3.0556 -0.5552 -1.1894
 8385SOL    HW236615   2.963   3.496   4.783  0.4954 -0.4033  0.8937
 8386SOL     OW36616   0.589   3.082  11.258  0.3767  0.2520 -0.2879
 8386SOL    HW136617   0.532   3.099  11.333 -0.3922 -0.0045 -0.8094
 8386SOL    HW236618   0.531   3.121  11.192 -0.3731  1.0745  0.8738
 8387SOL     OW36619   1.799   3.288   8.644 -0.6145 -0.3349  0.0857
 8387SOL    HW136620   1.738   3.356   8.617 -0.1402 -0.1701 -0.5551
 8387SOL    HW236621   1.832   3.315   8.730  0.4624  0.4198 -0.5642
 8388SOL     OW36622   1.838   3.548  16.484 -0.7677 -0.3322  0.0289
 8388SOL    HW136623   1.803   3.459  16.489 -0.0511 -0.5849  0.6121
 8388SOL    HW236624   1.914   3.538  16.542  0.8285  0.2365 -1.9687
 8389SOL     OW36625   3.207   3.184   6.057 -0.5706  0.4111  0.5652
 8389SOL    HW136626   3.225   3.110   6.114 -1.5951  0.0948  0.4685
 8389SOL    HW236627   3.150   3.142   5.993 -0.2110  1.5359 -0.5050
 8390SOL     OW36628   3.327   3.255   4.512  0.3907 -0.0480 -0.3149
 8390SOL    HW136629   3.315   3.306   4.432 -1.1246  1.1039  0.6313
 8390SOL    HW236630   3.242   3.210   4.518  1.4631 -1.7178  2.2468
 8391SOL     OW36631   0.965   3.252   3.121  0.2696  0.2507 -0.2182
 8391SOL    HW136632   0.938   3.264   3.030 -0.1969 -1.3375 -0.3034
 8391SOL    HW236633   0.979   3.157   3.122  2.1503  0.5305  0.6257
 8392SOL     OW36634   1.622   2.598  16.078  0.1424 -0.2262 -0.3080
 8392SOL    HW136635   1.612   2.637  16.165 -0.6922 -0.4372 -0.3094
 8392SOL    HW236636   1.601   2.510  16.110 -0.4806  0.4328  1.0934
 8393SOL     OW36637   4.210   1.804   4.458  0.6150 -0.2413 -0.3634
 8393SOL    HW136638   4.161   1.732   4.499 -0.9493  1.7963  1.3634
 8393SOL    HW236639   4.259   1.840   4.531  0.8211 -0.1615 -0.5412
 8394SOL     OW36640   1.296   3.949   4.477  0.1268 -0.3846 -0.5013
 8394SOL    HW136641   1.225   4.014   4.476 -0.0126 -0.5279  0.2121
 8394SOL    HW236642   1.336   3.957   4.564  2.5642 -2.1135 -1.4541
 8395SOL     OW36643   3.055   0.668   6.417  0.0879  0.1222 -0.4039
 8395SOL    HW136644   2.978   0.700   6.369 -0.3001 -1.6318 -0.9677
 8395SOL    HW236645   3.123   0.723   6.379 -0.0426  0.7399  0.2545
 8396SOL     OW36646   0.476   4.321  12.392  0.1837 -0.0083  0.1719
 8396SOL    HW136647   0.431   4.367  12.320 -1.5298  1.1879  2.0029
 8396SOL    HW236648   0.558   4.366  12.410  0.3425  0.9057 -2.8190
 8397SOL     OW36649   3.297   3.521   5.410 -0.0292  0.6614  0.8036
 8397SOL    HW136650   3.364   3.589   5.402  1.2240 -0.9209 -2.2195
 8397SOL    HW236651   3.344   3.442   5.435  1.4813  1.4581  0.4854
 8398SOL     OW36652   1.250   2.562  11.853 -0.4002  0.6278  0.0470
 8398SOL    HW136653   1.180   2.498  11.839  0.1566 -0.1261  0.6543
 8398SOL    HW236654   1.304   2.503  11.906 -0.9600  1.1153  1.1678
 8399SOL     OW36655   1.437   4.099   9.708  0.1520 -0.3773 -0.5121
 8399SOL    HW136656   1.343   4.116   9.717  0.1846 -0.2924 -0.3385
 8399SOL    HW236657   1.434   4.005   9.689  0.7538 -0.4643 -0.1839
 8400SOL     OW36658   0.429   1.063   4.666  0.0477  0.2672 -0.0402
 8400SOL    HW136659   0.506   1.117   4.652 -0.2053  1.2397  2.4703
 8400SOL    HW236660   0.444   1.032   4.755 -1.5076 -1.1777 -0.2643
 8401SOL     OW36661   0.796   2.629  17.294 -0.0229 -0.3713 -0.0107
 8401SOL    HW136662   0.746   2.710  17.298 -1.9792 -1.6249  1.1210
 8401SOL    HW236663   0.726   2.567  17.274 -0.2629  0.0017 -0.3264
 8402SOL     OW36664   3.915   1.339   6.952 -0.3498 -0.0728  0.5380
 8402SOL    HW136665   3.855   1.400   6.910 -0.3659 -0.9693 -0.7757
 8402SOL    HW236666   3.959   1.296   6.878 -0.3080 -0.6093  0.8724
 8403SOL     OW36667   1.677   2.584   2.176  0.2785  0.1331 -0.3275
 8403SOL    HW136668   1.611   2.562   2.110  0.1027 -1.0154  0.2364
 8403SOL    HW236669   1.692   2.494   2.204 -0.8837  0.8725  2.7238
 8404SOL     OW36670   3.870   3.575   5.073 -0.3691 -0.3116  0.3535
 8404SOL    HW136671   3.856   3.670   5.071 -1.7003 -0.5199 -1.0091
 8404SOL    HW236672   3.958   3.572   5.108 -0.4059  0.0928  0.4771
 8405SOL     OW36673   0.324   4.237   1.399  0.4275 -0.1723 -0.5763
 8405SOL    HW136674   0.301   4.144   1.393  0.0101 -0.0880 -0.2752
 8405SOL    HW236675   0.302   4.249   1.491  0.3870 -0.0587 -0.6008
 8406SOL     OW36676   0.247   4.116   6.309 -0.0802  0.0579  0.0843
 8406SOL    HW136677   0.172   4.173   6.292  0.3078  0.4948 -0.1993
 8406SOL    HW236678   0.220   4.071   6.388  0.9052 -0.4163  0.1492
 8407SOL     OW36679   0.616   1.749   5.934 -0.1676 -0.3355 -0.0271
 8407SOL    HW136680   0.534   1.754   5.983 -0.2848 -2.0229 -0.0509
 8407SOL    HW236681   0.684   1.719   5.994  0.9262 -0.6569 -1.4120
 8408SOL     OW36682   3.363   3.861  17.063 -0.7066  0.5466 -0.0054
 8408SOL    HW136683   3.284   3.830  17.019 -1.1334  0.5320  0.7652
 8408SOL    HW236684   3.337   3.937  17.115 -1.9765 -0.1478  0.3830
 8409SOL     OW36685   3.234   4.117   5.506  0.4702 -0.1931 -0.1108
 8409SOL    HW136686   3.291   4.171   5.561  1.5670  0.5548 -1.9902
 8409SOL    HW236687   3.164   4.173   5.474 -0.6650 -1.0824  0.7963
 8410SOL     OW36688   4.402   1.950   2.473 -0.5943  0.3790 -0.2609
 8410SOL    HW136689   4.322   1.949   2.525  0.7338  2.9280  1.8237
 8410SOL    HW236690   4.409   1.858   2.449  1.8131  0.6296 -0.5659
 8411SOL     OW36691   2.407   3.378   5.871 -0.9366  0.5681  0.1315
 8411SOL    HW136692   2.420   3.461   5.916  3.3651 -0.0645  0.1123
 8411SOL    HW236693   2.481   3.368   5.810  0.2357  2.5409  1.2184
 8412SOL     OW36694   2.826   2.487   6.104 -0.2977  0.2521  0.5175
 8412SOL    HW136695   2.887   2.502   6.031 -0.4038  1.8215  0.7509
 8412SOL    HW236696   2.742   2.484   6.057  0.2275  2.0819 -0.5798
 8413SOL     OW36697   0.179   2.588  11.536  0.4840  0.3852  0.2731
 8413SOL    HW136698   0.240   2.522  11.504 -0.8058  0.2688 -1.9174
 8413SOL    HW236699   0.184   2.560  11.627 -2.1121 -1.2683 -0.1098
 8414SOL     OW36700   1.686   0.968   4.718  0.5822 -0.0786  0.1382
 8414SOL    HW136701   1.727   0.931   4.640 -0.8097 -2.0092  0.3219
 8414SOL    HW236702   1.718   1.056   4.736  2.9628 -0.6180 -1.5004
 8415SOL     OW36703   3.080   3.199   9.140  0.2171  0.1425  0.6933
 8415SOL    HW136704   3.077   3.235   9.229  1.4428  1.8077  0.0568
 8415SOL    HW236705   3.155   3.248   9.109 -1.2679  2.7681  1.2012
 8416SOL     OW36706   4.682   4.088   5.325 -0.3289  0.3802 -0.2010
 8416SOL    HW136707   0.014   4.030   5.271 -0.2463  0.0231  0.2631
 8416SOL    HW236708   4.633   4.033   5.386  0.8692  0.9458  1.2799
 8417SOL     OW36709   0.371   3.763  12.135  0.7238 -0.8642 -0.1234
 8417SOL    HW136710   0.437   3.730  12.074  2.6222 -1.2232  2.1237
 8417SOL    HW236711   0.381   3.858  12.129  0.1093 -0.7967 -0.1540
 8418SOL     OW36712   2.173   1.014   6.301 -0.3891 -0.1130 -0.0005
 8418SOL    HW136713   2.133   1.100   6.283 -1.4353 -1.0385 -2.0389
 8418SOL    HW236714   2.101   0.969   6.344  0.3574 -0.5305  0.8028
 8419SOL     OW36715   3.560   2.779   4.506  0.3074 -0.2365 -0.0238
 8419SOL    HW136716   3.527   2.703   4.554 -0.7457  1.1980  1.5529
 8419SOL    HW236717   3.474   2.800   4.469 -0.1493 -0.6857  0.7594
 8420SOL     OW36718   1.742   0.361  14.940  0.6096  0.5228  0.7845
 8420SOL    HW136719   1.826   0.353  14.985  1.3449 -0.7924 -0.8445
 8420SOL    HW236720   1.690   0.324  15.012  1.0480  2.6501  2.2082
 8421SOL     OW36721   3.744   3.800   7.999  0.5039  0.0371  0.4364
 8421SOL    HW136722   3.785   3.779   8.083 -1.0311 -0.9392  0.9303
 8421SOL    HW236723   3.728   3.709   7.974  1.2046 -0.3615  1.4172
 8422SOL     OW36724   1.686   2.809   4.853 -0.9694  0.6797 -0.3940
 8422SOL    HW136725   1.757   2.783   4.795 -3.1186  1.5283 -3.4104
 8422SOL    HW236726   1.676   2.903   4.837  0.4692  0.5937 -1.7720
 8423SOL     OW36727   1.616   3.898   8.978 -0.1432  0.4580  0.2988
 8423SOL    HW136728   1.561   3.924   9.053  0.1643  0.8386  0.3937
 8423SOL    HW236729   1.702   3.885   9.018  0.3035 -1.7704 -1.3784
 8424SOL     OW36730   2.631   3.256   3.700 -0.4169  0.3879  0.2021
 8424SOL    HW136731   2.600   3.272   3.611  0.4209 -0.1064 -0.1780
 8424SOL    HW236732   2.681   3.334   3.724 -0.7783  0.7445 -0.2168
 8425SOL     OW36733   2.267   1.432   4.236  0.5004 -0.4053  0.4063
 8425SOL    HW136734   2.240   1.522   4.217  1.7947 -0.4164 -1.4731
 8425SOL    HW236735   2.288   1.404   4.147 -0.7372  2.3412 -0.7461
 8426SOL     OW36736   0.862   3.178  14.800 -0.0485 -0.4739  0.5906
 8426SOL    HW136737   0.811   3.117  14.854 -1.5584  0.3430  0.0921
 8426SOL    HW236738   0.813   3.260  14.800  0.8199  0.0380 -2.8374
 8427SOL     OW36739   0.105   4.473   2.635 -0.8620  0.0692 -0.2798
 8427SOL    HW136740   0.197   4.497   2.646 -0.7844 -0.2627 -0.1977
 8427SOL    HW236741   0.122   4.420   2.557  0.9778  2.0658 -1.2383
 8428SOL     OW36742   0.051   4.249   9.117  0.0103 -0.1573 -0.3527
 8428SOL    HW136743   0.019   4.217   9.033  2.0973  0.6037 -1.4333
 8428SOL    HW236744   0.005   4.187   9.173  0.1747  0.1486  0.1177
 8429SOL     OW36745   2.098   2.917   8.108  0.2352  0.2903  0.4844
 8429SOL    HW136746   2.151   2.960   8.175  0.5029  1.5045 -0.4998
 8429SOL    HW236747   2.167   2.878   8.054 -2.8162 -0.1817 -3.1519
 8430SOL     OW36748   2.882   4.344   2.645 -0.0947 -0.5530  0.1595
 8430SOL    HW136749   2.868   4.386   2.730  0.9236  0.5280 -0.2234
 8430SOL    HW236750   2.941   4.272   2.666 -1.3933 -1.6558  0.0860
 8431SOL     OW36751   3.699   2.053   7.669  0.0724  0.4325  0.6944
 8431SOL    HW136752   3.756   2.032   7.744 -1.9243 -1.1307  1.7703
 8431SOL    HW236753   3.761   2.096   7.610 -0.2432  0.9822  0.7651
 8432SOL     OW36754   2.416   0.992   5.354  0.5064  0.6163 -0.3795
 8432SOL    HW136755   2.454   0.912   5.317 -0.6969  0.3657 -1.0764
 8432SOL    HW236756   2.329   0.963   5.382  1.2538 -2.8691 -1.5879
 8433SOL     OW36757   3.428   4.281   5.199  0.6208  0.1301 -0.0614
 8433SOL    HW136758   3.433   4.211   5.264  0.4979 -0.9121 -1.1590
 8433SOL    HW236759   3.348   4.264   5.148  0.8222 -1.4127  0.1338
 8434SOL     OW36760   1.249   2.419   7.723  0.4729  0.6966 -0.0705
 8434SOL    HW136761   1.340   2.414   7.693  0.4937  1.7990 -0.1750
 8434SOL    HW236762   1.250   2.511   7.748 -0.5430  1.2132 -1.9148
 8435SOL     OW36763   1.726   4.457  16.350 -0.1038  0.6153 -0.7761
 8435SOL    HW136764   1.733   4.541  16.394  1.8136  0.0833 -0.0341
 8435SOL    HW236765   1.648   4.413  16.384  0.1192 -0.6275 -1.8628
 8436SOL     OW36766   0.029   1.064   2.555  0.0506 -0.0901 -0.2027
 8436SOL    HW136767   4.694   0.995   2.518  0.2987 -0.4435  0.0704
 8436SOL    HW236768   0.008   1.073   2.648  1.8066  0.6537  0.1236
 8437SOL     OW36769   3.839   2.013   7.222 -0.1201  0.4546  0.1509
 8437SOL    HW136770   3.857   1.925   7.256 -0.5511  0.8565  1.4138
 8437SOL    HW236771   3.923   2.059   7.220  0.5160 -0.6352  1.5142
 8438SOL     OW36772   4.575   1.462  14.705  0.3868 -0.2103  0.4585
 8438SOL    HW136773   4.640   1.478  14.637  0.1320  0.3459  0.3449
 8438SOL    HW236774   4.545   1.551  14.724 -0.7375 -0.3946 -0.4538
 8439SOL     OW36775   4.106   3.292   7.130 -0.0460  0.5090 -0.6028
 8439SOL    HW136776   4.105   3.283   7.226  1.0211 -0.2967 -0.6710
 8439SOL    HW236777   4.186   3.344   7.121  0.1292  0.6192  1.4002
 8440SOL     OW36778   4.622   0.181  10.510  0.0979  0.4644  0.2620
 8440SOL    HW136779   4.649   0.235  10.435 -0.4685 -2.5898 -2.1476
 8440SOL    HW236780   4.689   0.205  10.575 -0.0489  0.4373  0.4226
 8441SOL     OW36781   0.412   3.642   3.502  0.1202  0.4957 -0.0323
 8441SOL    HW136782   0.483   3.604   3.554 -1.5199  0.7122  2.3862
 8441SOL    HW236783   0.396   3.723   3.550  3.3604  0.8893  0.3832
 8442SOL     OW36784   3.664   4.118   5.141 -0.5088  0.2359  0.2488
 8442SOL    HW136785   3.616   4.185   5.092 -0.2882 -0.2186 -0.5945
 8442SOL    HW236786   3.614   4.102   5.220  0.3315 -1.2225  0.4896
 8443SOL     OW36787   0.400   4.566   8.060 -0.5338 -0.5701 -0.1221
 8443SOL    HW136788   0.422   4.655   8.033  0.9432 -0.5477  1.1536
 8443SOL    HW236789   0.304   4.564   8.055 -0.4126 -3.0805 -1.6889
 8444SOL     OW36790   0.754   0.238   4.898  0.2234  0.2428 -0.1669
 8444SOL    HW136791   0.778   0.194   4.817  0.9183  0.5630 -0.1398
 8444SOL    HW236792   0.832   0.284   4.931 -1.1022 -1.4761  5.4262
 8445SOL     OW36793   1.658   2.183   6.083 -0.1979 -0.3976  0.3594
 8445SOL    HW136794   1.648   2.113   6.147  2.6057 -1.5964 -0.5039
 8445SOL    HW236795   1.677   2.264   6.131 -0.2217 -0.4156  0.3990
 8446SOL     OW36796   3.011   3.408   5.632 -0.5288  0.1969  0.0564
 8446SOL    HW136797   3.043   3.492   5.665 -0.7767  0.5589 -0.6246
 8446SOL    HW236798   3.089   3.353   5.643 -0.2402  0.4659 -0.6276
 8447SOL     OW36799   3.079   1.372   8.304  0.0183 -0.2462 -0.4780
 8447SOL    HW136800   3.125   1.411   8.230  0.0177  1.8411  0.6214
 8447SOL    HW236801   3.007   1.324   8.262 -1.3444 -0.6328  2.3089
 8448SOL     OW36802   2.752   3.879   6.994 -0.3123 -0.2078  0.6474
 8448SOL    HW136803   2.813   3.827   6.941 -0.6361  1.7856 -1.7111
 8448SOL    HW236804   2.774   3.846   7.081  0.1817  0.6387  0.8377
 8449SOL     OW36805   0.955   2.584   6.979 -0.3200  0.1030  0.3518
 8449SOL    HW136806   0.995   2.622   6.901  0.9980 -0.2259  0.8559
 8449SOL    HW236807   1.038   2.577   7.027 -1.1565 -0.4363  1.7187
 8450SOL     OW36808   3.551   2.115   4.686  0.4171 -0.2725 -0.1344
 8450SOL    HW136809   3.567   2.170   4.609 -0.2900 -2.0774 -1.5517
 8450SOL    HW236810   3.484   2.059   4.646 -0.0672  1.7480 -2.1604
 8451SOL     OW36811   2.242   2.006   3.486  0.2525  0.1866 -0.1808
 8451SOL    HW136812   2.170   1.989   3.548  0.1322 -0.6619 -0.5528
 8451SOL    HW236813   2.202   2.048   3.409  0.3466 -0.7836 -0.7489
 8452SOL     OW36814   2.220   4.450  14.183  0.1630 -0.4533  0.1165
 8452SOL    HW136815   2.299   4.398  14.172  0.2008 -0.3408 -0.1563
 8452SOL    HW236816   2.238   4.490  14.268 -1.5176 -1.3851  0.9128
 8453SOL     OW36817   0.032   3.224   4.774  0.2506  0.3235 -0.0996
 8453SOL    HW136818   4.658   3.239   4.776  0.1912 -0.3865  1.7860
 8453SOL    HW236819   0.048   3.198   4.864  0.4343 -0.2336 -0.2875
 8454SOL     OW36820   2.795   0.535  16.543 -0.0816 -0.0635 -0.1409
 8454SOL    HW136821   2.881   0.503  16.569  0.3360 -0.4892 -2.0388
 8454SOL    HW236822   2.748   0.534  16.626  0.9249 -2.3126  0.4059
 8455SOL     OW36823   2.489   2.207   6.992 -0.0343 -0.1752 -0.2893
 8455SOL    HW136824   2.488   2.218   7.087 -0.5887  0.8136 -0.4042
 8455SOL    HW236825   2.395   2.210   6.970 -0.3983 -1.0401  1.1766
 8456SOL     OW36826   4.635   2.506  12.557  0.5052  0.2265  0.0022
 8456SOL    HW136827   4.578   2.544  12.490 -0.0340  0.4196  0.5689
 8456SOL    HW236828   4.572   2.454  12.608 -2.3075  0.5688 -3.1147
 8457SOL     OW36829   1.219   3.775  17.480 -0.1800 -0.0153 -0.6507
 8457SOL    HW136830   1.254   3.716  17.414  1.6122  0.2228  0.0774
 8457SOL    HW236831   1.295   3.791  17.536 -1.0139 -0.8710  0.7332
 8458SOL     OW36832   3.484   2.505   7.816 -0.0926  0.1034  0.0441
 8458SOL    HW136833   3.510   2.426   7.769  0.9273 -0.2836  1.2935
 8458SOL    HW236834   3.573   2.536   7.831 -0.7630  2.1163 -0.1035
 8459SOL     OW36835   3.202   4.558   5.652  0.5074  0.1425 -0.6182
 8459SOL    HW136836   3.183   4.570   5.558  0.4121  2.1548 -0.3571
 8459SOL    HW236837   3.149   4.629   5.689  1.8691  0.1058  1.3934
 8460SOL     OW36838   1.955   0.455   3.149  0.7053  0.0299  0.9005
 8460SOL    HW136839   2.041   0.413   3.154 -0.3451 -2.0118  1.5318
 8460SOL    HW236840   1.972   0.503   3.068 -1.9686  1.0471  0.9175
 8461SOL     OW36841   4.666   4.177   4.013  0.4927 -0.3871  0.3254
 8461SOL    HW136842   4.638   4.192   3.923  2.4459  0.6315 -0.1180
 8461SOL    HW236843   0.028   4.138   3.987  1.6893  2.2154  0.1953
 8462SOL     OW36844   1.119   0.006   2.480  0.1432 -0.6496 -0.2515
 8462SOL    HW136845   1.029   0.023   2.453  0.3196  1.1504  0.3284
 8462SOL    HW236846   1.150   4.667   2.412  3.5408  0.1714  0.5823
 8463SOL     OW36847   4.559   1.262   6.315  0.3114  0.5504 -0.0651
 8463SOL    HW136848   4.647   1.234   6.291 -0.0577 -0.2728 -0.4859
 8463SOL    HW236849   4.580   1.348   6.352  1.7740  0.7213 -1.3320
 8464SOL     OW36850   1.246   0.848   2.860 -0.6398 -0.1800 -0.6578
 8464SOL    HW136851   1.226   0.894   2.942  0.1268 -2.6271  0.8925
 8464SOL    HW236852   1.304   0.782   2.897 -0.7234  0.9850  1.5681
 8465SOL     OW36853   2.907   4.393  13.268 -0.0643  0.3421  0.3839
 8465SOL    HW136854   2.989   4.386  13.220 -0.5614 -0.0013 -0.4004
 8465SOL    HW236855   2.931   4.340  13.344  0.0221 -1.5801 -1.0167
 8466SOL     OW36856   2.492   0.126  13.787 -0.1804  0.6350  0.2116
 8466SOL    HW136857   2.563   0.186  13.764  0.4868  0.1682  1.0942
 8466SOL    HW236858   2.428   0.186  13.825 -1.8899 -1.5690  0.8277
 8467SOL     OW36859   3.365   0.729   7.928 -0.0740 -0.2924 -0.3321
 8467SOL    HW136860   3.415   0.686   7.997 -2.5864  1.4717  2.6086
 8467SOL    HW236861   3.290   0.671   7.915 -1.2503  1.2043 -0.3112
 8468SOL     OW36862   3.057   1.853   3.292 -0.5790 -0.1576  0.0604
 8468SOL    HW136863   2.981   1.911   3.292  0.3856  1.1149 -0.9953
 8468SOL    HW236864   3.026   1.792   3.225  1.9713  0.3751 -1.5919
 8469SOL     OW36865   0.852   0.731  13.940  0.5441  0.2332  0.1487
 8469SOL    HW136866   0.759   0.732  13.959  0.6356  1.6772  0.6019
 8469SOL    HW236867   0.882   0.685  14.018  1.8594  0.1802 -0.3825
 8470SOL     OW36868   4.162   0.031  11.984  0.0615  0.5785 -0.3025
 8470SOL    HW136869   4.112   0.073  11.914  0.1491  0.4688 -0.4291
 8470SOL    HW236870   4.174   0.108  12.040 -0.2114  0.8353 -0.6034
 8471SOL     OW36871   1.792   2.857  14.672 -0.1232  0.1779 -0.7047
 8471SOL    HW136872   1.789   2.926  14.738  1.4248  0.2069 -0.6759
 8471SOL    HW236873   1.701   2.848  14.645  0.0727  0.0599 -1.3237
 8472SOL     OW36874   0.875   3.042   9.629  0.0167 -0.2832 -0.1542
 8472SOL    HW136875   0.962   3.080   9.634 -1.0841  2.1577  0.6296
 8472SOL    HW236876   0.909   2.953   9.626 -0.3184 -0.4505  0.9099
 8473SOL     OW36877   2.629   4.492   9.242 -0.1112 -0.6645  0.1281
 8473SOL    HW136878   2.631   4.540   9.159  1.5497  0.8622  1.0468
 8473SOL    HW236879   2.716   4.452   9.249  0.4139  0.4705  0.0112
 8474SOL     OW36880   1.204   2.708   5.342 -0.4933 -0.2487  0.1275
 8474SOL    HW136881   1.115   2.728   5.371  0.1301  0.5480  1.4926
 8474SOL    HW236882   1.197   2.612   5.341  0.2475 -0.2800 -3.4404
 8475SOL     OW36883   4.153   2.189  10.182 -0.0530  0.1190  0.2920
 8475SOL    HW136884   4.185   2.193  10.272 -1.3381  0.0082  0.7607
 8475SOL    HW236885   4.238   2.178  10.139 -0.7527  0.6808 -1.2610
 8476SOL     OW36886   3.389   1.379   8.444  0.0899 -0.1974  0.3252
 8476SOL    HW136887   3.366   1.457   8.394  0.6262  1.2250  2.3087
 8476SOL    HW236888   3.316   1.318   8.434 -0.1147 -0.0587  0.9563
 8477SOL     OW36889   1.584   2.709   4.032 -0.0841 -1.0179  0.0187
 8477SOL    HW136890   1.646   2.713   4.104 -1.6032  1.5289  1.1703
 8477SOL    HW236891   1.525   2.782   4.048  1.5569  0.5159 -0.8817
 8478SOL     OW36892   2.509   4.657   3.538 -0.0277  0.1470  0.3942
 8478SOL    HW136893   2.578   0.002   3.540 -0.5375  0.6536  1.4423
 8478SOL    HW236894   2.493   4.636   3.631  1.1562 -0.5016  0.4615
 8479SOL     OW36895   3.330   1.383   0.647 -0.1442  0.1297 -0.0066
 8479SOL    HW136896   3.414   1.354   0.683 -0.3592  0.1638  0.5252
 8479SOL    HW236897   3.328   1.477   0.661 -2.2412 -0.0608  0.9146
 8480SOL     OW36898   1.137   1.147   2.894 -0.3177  0.7031  0.2924
 8480SOL    HW136899   1.054   1.110   2.863  1.0564 -1.6752 -0.5875
 8480SOL    HW236900   1.144   1.097   2.975  0.8225 -0.1652 -0.3271
 8481SOL     OW36901   0.577   1.103   4.192  0.0996 -0.1271 -0.0387
 8481SOL    HW136902   0.620   1.057   4.264 -1.1526 -1.1088  0.0803
 8481SOL    HW236903   0.597   1.190   4.228 -0.6621  0.0378 -0.0217
 8482SOL     OW36904   0.843   0.933   3.311  0.1681  0.1499 -0.3547
 8482SOL    HW136905   0.809   0.903   3.396 -0.2860 -0.0583 -0.6146
 8482SOL    HW236906   0.909   1.000   3.331  0.6823 -0.0532 -1.3929
 8483SOL     OW36907   4.035   2.183   8.358 -0.1256  0.1072  0.2429
 8483SOL    HW136908   4.035   2.188   8.454 -0.0233  2.3011  0.1306
 8483SOL    HW236909   4.103   2.117   8.345 -0.0520  0.0718  0.7761
 8484SOL     OW36910   4.571   2.294   4.303  0.7387 -0.2251  0.1557
 8484SOL    HW136911   4.532   2.330   4.383 -2.0261 -1.1396 -0.7741
 8484SOL    HW236912   4.520   2.219   4.272 -2.0303  2.0841 -0.8656
 8485SOL     OW36913   1.635   4.207  15.855 -0.4164  0.1117 -0.3916
 8485SOL    HW136914   1.656   4.202  15.948 -0.0173  1.8368 -0.3932
 8485SOL    HW236915   1.705   4.268  15.831 -2.3553  2.1862 -0.7866
 8486SOL     OW36916   3.170   1.338   6.451 -0.0350 -0.0164  0.4681
 8486SOL    HW136917   3.108   1.379   6.512 -0.5352  1.8131 -1.2679
 8486SOL    HW236918   3.212   1.415   6.414 -1.5253  0.8824  0.6616
 8487SOL     OW36919   2.581   3.881  12.405  0.4743  0.5904  0.2208
 8487SOL    HW136920   2.570   3.815  12.336 -2.1547  0.3993  0.8123
 8487SOL    HW236921   2.611   3.831  12.481 -0.9181 -0.7957 -0.1361
 8488SOL     OW36922   0.531   4.572   2.457  0.3930  0.6342  0.0409
 8488SOL    HW136923   0.500   4.541   2.542  1.0545  1.1434  0.4672
 8488SOL    HW236924   0.449   4.609   2.423 -0.1070  0.3176  0.9004
 8489SOL     OW36925   3.240   2.808   8.544 -0.5075 -0.6109 -0.8281
 8489SOL    HW136926   3.290   2.848   8.615 -0.2109 -2.0460 -0.2431
 8489SOL    HW236927   3.300   2.834   8.474 -1.4032  2.8735 -0.3196
 8490SOL     OW36928   4.355   0.896  15.819 -0.5208  0.3816 -0.4060
 8490SOL    HW136929   4.283   0.936  15.770  0.7136  2.2288 -0.7426
 8490SOL    HW236930   4.400   0.978  15.843  0.8428 -0.7372  0.8511
 8491SOL     OW36931   1.198   2.776  10.844  0.5079  0.2392 -0.4449
 8491SOL    HW136932   1.212   2.795  10.751 -1.6167 -0.3564 -0.8772
 8491SOL    HW236933   1.119   2.829  10.851  1.1783  0.8065  2.8558
 8492SOL     OW36934   0.338   3.422   2.378  0.0546 -0.3033 -0.5849
 8492SOL    HW136935   0.249   3.449   2.356 -0.7424  0.0924  3.1171
 8492SOL    HW236936   0.367   3.392   2.293 -0.3930  1.3050 -1.3110
 8493SOL     OW36937   2.817   3.334   3.352 -0.6944  0.9446  0.0090
 8493SOL    HW136938   2.776   3.363   3.270 -1.8492 -1.6083 -0.3272
 8493SOL    HW236939   2.877   3.273   3.308  0.2221  2.5637 -0.9844
 8494SOL     OW36940   4.695   3.049   4.501  0.1237  0.0270 -0.8217
 8494SOL    HW136941   4.662   2.960   4.498 -0.8187  0.2314  3.0557
 8494SOL    HW236942   4.719   3.061   4.593 -0.2285 -0.4141 -0.6713
 8495SOL     OW36943   2.925   2.835   0.473 -0.2310 -0.5955  0.7159
 8495SOL    HW136944   2.915   2.755   0.421 -0.3191  1.2822 -2.0984
 8495SOL    HW236945   3.010   2.807   0.508  0.0326 -1.9371 -0.9897
 8496SOL     OW36946   3.025   4.012  16.114 -0.0823 -0.7163  0.2397
 8496SOL    HW136947   2.951   4.011  16.053  0.7395 -2.0619 -0.7284
 8496SOL    HW236948   3.082   3.964  16.055 -0.3323  0.7510 -1.1944
 8497SOL     OW36949   2.857   1.956   7.813 -0.2820 -0.5623 -0.2251
 8497SOL    HW136950   2.810   1.878   7.842  0.1422 -0.1242  1.6384
 8497SOL    HW236951   2.916   1.986   7.882 -1.1782 -0.1746  0.3660
 8498SOL     OW36952   1.924   1.382   5.348  0.3948 -0.3982  0.2231
 8498SOL    HW136953   1.861   1.414   5.283  0.9729 -0.2822 -0.2796
 8498SOL    HW236954   1.965   1.464   5.376 -1.3996  0.9163 -0.9735
 8499SOL     OW36955   2.231   1.687   6.598 -0.8446  0.2148  0.1966
 8499SOL    HW136956   2.161   1.682   6.663 -0.4719  1.6192  0.6976
 8499SOL    HW236957   2.212   1.605   6.552  0.0041  0.4043 -0.4929
 8500SOL     OW36958   2.178   0.143  13.447  0.3685 -0.1809  0.1444
 8500SOL    HW136959   2.259   0.154  13.496  0.0959  0.0230  0.5493
 8500SOL    HW236960   2.130   0.224  13.462  0.2131 -0.1968 -0.2430
 8501SOL     OW36961   3.593   3.513   4.546 -0.2667 -0.2892 -0.1172
 8501SOL    HW136962   3.575   3.505   4.453  0.7644 -1.9163 -0.1734
 8501SOL    HW236963   3.623   3.604   4.552  0.5140 -0.6774  1.9954
 8502SOL     OW36964   4.223   4.086   7.350 -0.0144  0.0125  0.2904
 8502SOL    HW136965   4.285   4.014   7.359  0.1934 -0.0833 -1.7841
 8502SOL    HW236966   4.267   4.132   7.278 -0.6059  1.3164  0.7707
 8503SOL     OW36967   2.044   4.286   2.330 -0.4816 -0.5533 -0.3837
 8503SOL    HW136968   2.121   4.245   2.290  0.1519  1.4287 -1.2047
 8503SOL    HW236969   2.094   4.364   2.355 -0.3785  0.0483 -2.4176
 8504SOL     OW36970   4.204   3.216   6.395 -0.3697  0.0215  0.1689
 8504SOL    HW136971   4.259   3.178   6.464 -1.1112  1.9078  1.7866
 8504SOL    HW236972   4.174   3.137   6.349  0.2432  0.0307 -0.2493
 8505SOL     OW36973   3.920   2.417   5.599 -0.0508  0.0866 -0.3400
 8505SOL    HW136974   3.941   2.351   5.665 -1.0303 -0.4332 -0.5612
 8505SOL    HW236975   3.827   2.409   5.577  0.0106 -2.0590  0.2098
 8506SOL     OW36976   1.148   0.322   7.353 -0.2555  0.1577  0.2427
 8506SOL    HW136977   1.203   0.323   7.431 -0.8075 -2.1673  0.6767
 8506SOL    HW236978   1.196   0.384   7.298 -0.1838  1.8337  2.2020
 8507SOL     OW36979   2.419   3.726  12.702 -0.1117 -0.2653 -0.3462
 8507SOL    HW136980   2.416   3.677  12.785 -2.0304  0.7171  0.1661
 8507SOL    HW236981   2.325   3.740  12.690 -0.9530 -1.5661  4.5968
 8508SOL     OW36982   2.122   3.221  16.791 -0.1119  0.2049 -0.5626
 8508SOL    HW136983   2.159   3.304  16.761 -0.8477  1.4692  2.0869
 8508SOL    HW236984   2.157   3.200  16.877 -0.5326  0.1954 -0.3971
 8509SOL     OW36985   0.527   2.290   6.918  0.0792 -0.3181 -0.0490
 8509SOL    HW136986   0.589   2.363   6.921  0.3921 -0.5474 -0.7152
 8509SOL    HW236987   0.568   2.231   6.982 -0.7796 -1.3217 -0.4196
 8510SOL     OW36988   4.143   3.393   5.757 -0.3279 -0.0802  0.0383
 8510SOL    HW136989   4.145   3.356   5.845 -1.7750 -0.7392 -0.1994
 8510SOL    HW236990   4.079   3.462   5.775  1.1302  1.2131  0.2393
 8511SOL     OW36991   0.537   2.292  14.366  0.0917  0.1680 -0.2485
 8511SOL    HW136992   0.475   2.365  14.362  0.8490  0.8794  1.0087
 8511SOL    HW236993   0.613   2.349  14.365 -0.1473  0.4946 -0.0405
 8512SOL     OW36994   4.185   3.733   6.175 -0.6739 -0.6971 -0.8546
 8512SOL    HW136995   4.203   3.644   6.206  0.3973  0.4790  1.9411
 8512SOL    HW236996   4.269   3.778   6.170 -0.4307 -0.7252  2.4077
 8513SOL     OW36997   3.370   1.934   8.222  0.4460 -0.4160  0.1719
 8513SOL    HW136998   3.374   1.879   8.300 -0.7546 -1.4715 -0.5012
 8513SOL    HW236999   3.274   1.942   8.220  0.3088 -1.6335  1.8167
 8514SOL     OW37000   2.740   4.039   7.931 -0.7430 -0.1800 -0.1324
 8514SOL    HW137001   2.819   3.997   7.966  0.8299  2.0316 -1.0582
 8514SOL    HW237002   2.692   3.970   7.886 -1.9132  1.1413 -0.9333
 8515SOL     OW37003   0.949   0.964   5.667 -0.0790  0.6849  0.1126
 8515SOL    HW137004   0.963   0.910   5.590 -0.2838  1.1924 -0.2804
 8515SOL    HW237005   0.855   0.944   5.670  0.1015 -0.3244 -0.9912
 8516SOL     OW37006   4.297   1.059   6.899 -0.7799  0.0651  0.3941
 8516SOL    HW137007   4.259   0.972   6.911  0.1800 -0.1401  2.0002
 8516SOL    HW237008   4.241   1.092   6.829  1.1278 -1.2599 -1.7617
 8517SOL     OW37009   2.783   3.409   1.247  0.8066  0.4864 -0.1996
 8517SOL    HW137010   2.773   3.478   1.313 -0.8812 -2.5527  2.6833
 8517SOL    HW237011   2.878   3.413   1.234  0.9367 -0.6596  0.3867
 8518SOL     OW37012   2.232   3.452   9.330  0.1061 -0.0019 -0.3251
 8518SOL    HW137013   2.233   3.519   9.399  1.6196  1.3702 -1.6791
 8518SOL    HW237014   2.326   3.430   9.332  0.2121  0.5120  1.0142
 8519SOL     OW37015   2.129   0.572   2.979 -0.3232  0.0933 -0.4061
 8519SOL    HW137016   2.211   0.569   3.028 -0.4936 -1.4043 -0.2288
 8519SOL    HW237017   2.164   0.574   2.890  1.8458  0.0232  0.4544
 8520SOL     OW37018   0.129   0.352   4.888  0.2963  0.6045  0.1436
 8520SOL    HW137019   0.200   0.416   4.889 -0.1415  1.1252 -1.7386
 8520SOL    HW237020   0.054   0.409   4.873 -0.7458 -0.6969  0.3946
 8521SOL     OW37021   4.558   2.679   6.755  0.3661  0.2700 -0.2434
 8521SOL    HW137022   4.629   2.673   6.691  1.3415  0.2122  0.8331
 8521SOL    HW237023   4.502   2.741   6.708 -1.2283 -0.9294  0.0874
 8522SOL     OW37024   0.532   1.844   4.186  0.4849  0.3969 -0.3613
 8522SOL    HW137025   0.511   1.917   4.129  0.5351  0.5857 -0.1389
 8522SOL    HW237026   0.619   1.826   4.151  1.2115 -0.1524  1.7316
 8523SOL     OW37027   0.615   4.247   7.363  0.4851  0.3767 -0.5707
 8523SOL    HW137028   0.580   4.271   7.448  0.5177 -1.0664 -0.1486
 8523SOL    HW237029   0.577   4.316   7.308  2.9218  0.8629 -1.6989
 8524SOL     OW37030   3.860   3.479   5.795 -0.1244 -0.1841 -0.3556
 8524SOL    HW137031   3.850   3.385   5.814  1.2990  0.2722  2.5407
 8524SOL    HW237032   3.823   3.519   5.873  1.6178 -0.5436  0.6320
 8525SOL     OW37033   1.554   0.916   6.899 -0.5113  0.5196 -0.1617
 8525SOL    HW137034   1.585   0.975   6.968 -0.4194  0.0115  0.2290
 8525SOL    HW237035   1.517   0.844   6.950 -1.0924  0.8778 -0.0841
 8526SOL     OW37036   0.185   4.221   9.497  0.4445 -0.1444 -0.4606
 8526SOL    HW137037   0.208   4.135   9.461 -1.9358  0.9997 -4.6513
 8526SOL    HW237038   0.226   4.210   9.583  1.4890 -0.2365 -0.9693
 8527SOL     OW37039   1.794   1.352   2.995 -0.3893 -0.1381  0.1811
 8527SOL    HW137040   1.770   1.280   2.938 -2.7511 -0.7345  1.9333
 8527SOL    HW237041   1.739   1.335   3.071  0.0441  0.1226  0.5557
 8528SOL     OW37042   2.703   3.792  12.640  0.1917  0.2556  0.1940
 8528SOL    HW137043   2.753   3.747  12.709  0.1209  1.4649  1.0243
 8528SOL    HW237044   2.611   3.778  12.659  0.2105  1.8472  1.3861
 8529SOL     OW37045   3.324   0.218   6.606 -0.0192  0.6084  0.4628
 8529SOL    HW137046   3.400   0.187   6.557 -1.0183 -0.1182 -0.6308
 8529SOL    HW237047   3.315   0.297   6.554 -0.1496  0.3403  0.0750
 8530SOL     OW37048   0.067   3.766   6.568 -0.0095 -0.4080 -0.6319
 8530SOL    HW137049   0.040   3.849   6.529 -4.3854 -0.9007  1.4389
 8530SOL    HW237050   0.159   3.780   6.591 -0.5824  2.9962 -0.2946
 8531SOL     OW37051   2.554   3.452  14.261  0.4750 -0.2107  0.0557
 8531SOL    HW137052   2.599   3.402  14.329 -0.4277 -0.6489  0.3361
 8531SOL    HW237053   2.517   3.518  14.321 -1.1024 -1.3598  0.3511
 8532SOL     OW37054   4.294   1.391   6.879 -0.5770 -0.0648  0.3838
 8532SOL    HW137055   4.257   1.341   6.953 -1.3119  1.6679  1.1771
 8532SOL    HW237056   4.382   1.355   6.891 -0.5411 -0.2187 -0.3341
 8533SOL     OW37057   4.298   4.122   9.531  0.6240  0.4570  0.2395
 8533SOL    HW137058   4.321   4.043   9.579  1.4581 -0.0884 -1.0847
 8533SOL    HW237059   4.377   4.173   9.548  0.7767 -0.1245  1.2818
 8534SOL     OW37060   3.493   0.008   8.078  0.0062  0.2256 -0.1733
 8534SOL    HW137061   3.514   4.689   8.162  1.4098 -2.5325 -1.8511
 8534SOL    HW237062   3.398   0.023   8.082 -0.2747 -1.7024  0.1776
 8535SOL     OW37063   2.844   0.140   5.055 -0.5653 -0.0353 -0.2473
 8535SOL    HW137064   2.796   0.206   5.004  1.1009 -0.0366 -1.7966
 8535SOL    HW237065   2.930   0.137   5.013 -0.3875  0.6445  0.0720
 8536SOL     OW37066   3.067   1.998   7.183 -0.0323  0.2459 -0.0429
 8536SOL    HW137067   3.024   2.061   7.126  0.0489  0.3029 -0.0407
 8536SOL    HW237068   3.036   1.916   7.145 -1.8124  0.3331  1.2454
 8537SOL     OW37069   1.557   2.716   8.975  0.3796 -0.0432 -0.4686
 8537SOL    HW137070   1.498   2.706   8.901  1.7022  1.5961 -1.7664
 8537SOL    HW237071   1.581   2.625   8.993 -2.5698 -0.4189  1.5494
 8538SOL     OW37072   3.931   3.541  15.472 -0.1079  0.2186 -0.2373
 8538SOL    HW137073   3.927   3.537  15.568 -2.1474 -0.7844 -0.3575
 8538SOL    HW237074   3.873   3.468  15.451  0.2981  0.0819 -0.8828
 8539SOL     OW37075   2.177   2.947  15.445  0.5265 -0.0316  0.1729
 8539SOL    HW137076   2.185   2.891  15.368 -0.8122  0.0846 -0.0486
 8539SOL    HW237077   2.150   3.033  15.412 -1.4624 -0.5607  0.4184
 8540SOL     OW37078   3.743   3.976  13.182 -0.0430 -0.0497 -0.1775
 8540SOL    HW137079   3.722   3.908  13.246 -1.2630  0.0387 -0.4785
 8540SOL    HW237080   3.837   3.967  13.167 -0.0498 -0.9410  0.3407
 8541SOL     OW37081   3.947   2.644   4.988 -0.1924 -0.8500  0.5365
 8541SOL    HW137082   3.893   2.680   5.058 -1.7554 -3.1411  0.5107
 8541SOL    HW237083   3.901   2.689   4.917  0.2130  1.8607  2.0201
 8542SOL     OW37084   2.779   1.055  10.893  0.3199 -0.1954 -0.3759
 8542SOL    HW137085   2.698   1.030  10.848  0.0341 -0.0142  0.0460
 8542SOL    HW237086   2.839   1.014  10.830  2.3252 -1.7055  2.5376
 8543SOL     OW37087   2.858   2.354  14.258  0.3955  0.1630  0.2162
 8543SOL    HW137088   2.887   2.442  14.283  0.2406 -0.0907  1.2678
 8543SOL    HW237089   2.763   2.366  14.250  0.6303  2.1791  0.3722
 8544SOL     OW37090   1.537   0.868   4.389 -0.4151 -0.3548  1.0788
 8544SOL    HW137091   1.469   0.815   4.431 -1.0643 -0.7544 -0.4920
 8544SOL    HW237092   1.616   0.869   4.443  0.4321 -0.1082 -0.1737
 8545SOL     OW37093   0.958   4.571  16.476  0.3185 -0.1966 -0.3528
 8545SOL    HW137094   0.956   4.506  16.546 -0.2420  0.3674  0.1566
 8545SOL    HW237095   0.870   4.568  16.439  0.0345 -2.7579  0.5651
 8546SOL     OW37096   4.195   1.601  16.528  0.0330 -0.0834 -0.0974
 8546SOL    HW137097   4.132   1.625  16.597  0.6751  0.1650  0.3982
 8546SOL    HW237098   4.191   1.684  16.479  1.7975  0.0873  0.0794
 8547SOL     OW37099   0.327   0.344  11.069 -0.2537 -0.6323  0.5111
 8547SOL    HW137100   0.353   0.267  11.121  3.3090  0.5584  0.5174
 8547SOL    HW237101   0.372   0.424  11.097 -0.1796 -0.2913 -0.5860
 8548SOL     OW37102   0.085   3.845   9.200  0.7010  0.6948  0.3373
 8548SOL    HW137103   0.136   3.802   9.131 -0.0451  1.1065 -0.4740
 8548SOL    HW237104   0.003   3.797   9.194  1.5135 -0.7483  0.5734
 8549SOL     OW37105   0.382   0.584   7.683 -0.2482  0.6199  0.3336
 8549SOL    HW137106   0.313   0.566   7.620 -0.5654  0.3419  0.7577
 8549SOL    HW237107   0.367   0.678   7.690 -1.0792  0.3894  1.6319
 8550SOL     OW37108   0.809   2.300   8.587 -0.0281  0.5459 -0.3078
 8550SOL    HW137109   0.738   2.290   8.651 -0.8366 -1.9783 -1.5903
 8550SOL    HW237110   0.760   2.358   8.529 -2.0552  0.1887  1.0470
 8551SOL     OW37111   2.668   2.588   6.367 -0.5459  0.4723 -0.2342
 8551SOL    HW137112   2.755   2.625   6.352 -0.9026  0.4764 -2.3091
 8551SOL    HW237113   2.626   2.674   6.375 -1.1783  0.2929 -1.7655
 8552SOL     OW37114   2.533   2.832   6.344 -0.8830 -0.5790 -0.0145
 8552SOL    HW137115   2.578   2.914   6.361 -1.8005  0.0379 -0.5463
 8552SOL    HW237116   2.442   2.856   6.361 -0.6817 -0.2808  0.6275
 8553SOL     OW37117   3.769   1.617  12.584  0.1291  0.1934 -0.0306
 8553SOL    HW137118   3.767   1.591  12.676  1.6512  0.9933  0.2236
 8553SOL    HW237119   3.783   1.711  12.599  4.1056 -0.2896 -0.6286
 8554SOL     OW37120   3.952   3.762  12.577 -0.6675  0.0560  0.0935
 8554SOL    HW137121   4.006   3.683  12.584 -3.7085 -2.1928 -1.6118
 8554SOL    HW237122   3.986   3.810  12.501 -1.5477  1.8460  0.8235
 8555SOL     OW37123   3.437   2.288  10.399  0.5082  0.3517 -0.0836
 8555SOL    HW137124   3.463   2.354  10.464  1.9571 -0.2538 -0.0648
 8555SOL    HW237125   3.511   2.279  10.339 -0.0961 -2.2313 -0.4101
 8556SOL     OW37126   3.123   0.991  10.755 -0.4946 -0.0325 -0.5312
 8556SOL    HW137127   3.064   0.918  10.736  1.5092 -2.0622  1.1160
 8556SOL    HW237128   3.102   1.004  10.847  0.4410  1.4382 -0.5208
 8557SOL     OW37129   2.737   1.580   8.745 -0.9601 -0.4366  0.1019
 8557SOL    HW137130   2.775   1.634   8.814 -1.0326 -0.6447  0.3061
 8557SOL    HW237131   2.682   1.528   8.805 -0.1192 -1.9985 -0.4690
 8558SOL     OW37132   4.133   1.258   8.630 -0.4090  0.7613  0.0434
 8558SOL    HW137133   4.136   1.227   8.721 -1.0290 -1.7066 -0.7790
 8558SOL    HW237134   4.043   1.243   8.603  0.2439 -2.0869 -0.5519
 8559SOL     OW37135   3.535   0.173   2.995  1.1505  0.5123 -0.3167
 8559SOL    HW137136   3.444   0.153   2.975  1.2180 -2.1375  2.0533
 8559SOL    HW237137   3.582   0.103   2.950 -1.6154 -1.9811  0.7138
 8560SOL     OW37138   3.558   2.615  16.716  1.1151  0.6542 -0.4789
 8560SOL    HW137139   3.532   2.523  16.717  0.3909  0.8709  1.6133
 8560SOL    HW237140   3.630   2.613  16.779 -1.0009 -0.5717  1.9212
 8561SOL     OW37141   0.493   2.929   2.335  0.2016 -0.3819  0.1130
 8561SOL    HW137142   0.564   2.992   2.331  0.3458 -0.3817  2.8906
 8561SOL    HW237143   0.426   2.971   2.390  0.4791 -0.3535  0.4318
 8562SOL     OW37144   1.958   0.838   3.186 -0.4316 -0.0860 -0.1205
 8562SOL    HW137145   2.007   0.879   3.114  0.6273  1.4647  1.5037
 8562SOL    HW237146   1.942   0.755   3.141 -1.5464  1.4415 -2.5753
 8563SOL     OW37147   3.641   4.275   8.333  0.1316  0.1001  0.0210
 8563SOL    HW137148   3.590   4.303   8.408  0.7926  0.6336  0.2708
 8563SOL    HW237149   3.731   4.279   8.367 -0.1111 -0.4256  0.7105
 8564SOL     OW37150   2.266   4.030   3.257 -0.4646 -0.1050 -0.1506
 8564SOL    HW137151   2.203   4.047   3.186 -2.6663 -1.6675  1.4125
 8564SOL    HW237152   2.308   4.115   3.246 -0.2173 -0.4095 -1.4861
 8565SOL     OW37153   4.112   2.991   3.170  0.3524 -0.1662  0.6719
 8565SOL    HW137154   4.159   2.912   3.198 -0.1056 -0.4693  0.5885
 8565SOL    HW237155   4.181   3.054   3.151  0.0547  0.0439  0.3066
 8566SOL     OW37156   4.506   2.088   5.638 -0.1487  0.0746 -0.1606
 8566SOL    HW137157   4.516   2.029   5.564  2.8307  0.4044  0.0059
 8566SOL    HW237158   4.412   2.107   5.637 -0.9275 -3.7829 -0.7476
 8567SOL     OW37159   0.083   3.479   8.447 -0.1926  0.1054  0.7969
 8567SOL    HW137160   0.020   3.550   8.432 -0.5789  0.0865  2.2949
 8567SOL    HW237161   0.064   3.460   8.539 -0.1068  0.8924  0.9782
 8568SOL     OW37162   2.394   1.468   2.342 -0.0697  0.3071 -0.5082
 8568SOL    HW137163   2.478   1.513   2.335 -0.7015  1.5295 -0.0705
 8568SOL    HW237164   2.427   1.383   2.373  1.1454  1.1026  0.3832
 8569SOL     OW37165   0.334   4.597  14.929 -0.2837 -0.1892 -0.7275
 8569SOL    HW137166   0.265   4.663  14.920  0.2806  0.7406  1.6705
 8569SOL    HW237167   0.380   4.629  15.008 -2.6832  2.7647 -0.5309
 8570SOL     OW37168   3.507   0.079  10.587 -0.5431 -0.0549 -0.2199
 8570SOL    HW137169   3.478   0.041  10.504 -0.9389  0.0969 -0.1550
 8570SOL    HW237170   3.580   0.021  10.604 -1.1609 -1.0609 -1.0121
 8571SOL     OW37171   3.820   1.701  11.311 -0.4015 -0.7136 -0.0632
 8571SOL    HW137172   3.828   1.753  11.391 -0.8135 -0.8966  0.0985
 8571SOL    HW237173   3.865   1.622  11.342  0.2712 -0.1636  0.3532
 8572SOL     OW37174   2.459   1.312   5.353 -0.5827 -0.6852 -0.3559
 8572SOL    HW137175   2.452   1.217   5.361 -0.0501 -0.8513 -1.8321
 8572SOL    HW237176   2.372   1.330   5.387 -1.4226 -0.3451 -2.7153
 8573SOL     OW37177   1.857   1.450   8.755 -0.1202 -0.2236  0.1347
 8573SOL    HW137178   1.797   1.377   8.767 -1.4574  1.2204  2.1477
 8573SOL    HW237179   1.793   1.520   8.741 -0.3783 -0.5107 -0.1188
 8574SOL     OW37180   1.858   0.546   8.986 -0.1266  0.3236 -0.6116
 8574SOL    HW137181   1.826   0.458   9.006 -2.0638  1.8596  3.0759
 8574SOL    HW237182   1.880   0.564   9.077 -2.0579 -1.2981  0.1847
 8575SOL     OW37183   2.406   3.070  14.923 -0.0451 -0.2175  0.5000
 8575SOL    HW137184   2.460   3.034  14.993 -0.1485  0.4402  0.9152
 8575SOL    HW237185   2.352   3.128  14.976  0.5821 -0.0167  0.9195
 8576SOL     OW37186   4.711   0.967  15.708  0.0285 -0.0175 -0.0765
 8576SOL    HW137187   4.638   1.026  15.724  1.5727  1.4310  1.7010
 8576SOL    HW237188   0.005   0.987  15.615  1.3827 -2.4001 -0.3670
 8577SOL     OW37189   0.442   3.338   4.283 -0.4717  0.2416  0.0423
 8577SOL    HW137190   0.526   3.314   4.243 -0.4899 -0.6294  0.5095
 8577SOL    HW237191   0.431   3.425   4.245  1.3466  1.2307  1.7968
 8578SOL     OW37192   0.879   4.705   4.213  0.0448 -0.1106  0.4366
 8578SOL    HW137193   0.825   0.062   4.201 -3.0431 -2.4242 -0.6903
 8578SOL    HW237194   0.887   4.694   4.308  2.7919  1.2355  0.3488
 8579SOL     OW37195   4.704   2.508   4.568  0.6825  0.4349 -0.2986
 8579SOL    HW137196   4.613   2.479   4.564 -0.0109  2.4473  0.9403
 8579SOL    HW237197   0.034   2.442   4.521 -1.5247  0.0358 -2.1120
 8580SOL     OW37198   2.444   3.269  13.800  0.5026 -0.6726  0.5066
 8580SOL    HW137199   2.381   3.326  13.754  0.5754  1.0063  2.4783
 8580SOL    HW237200   2.387   3.260  13.876 -0.9984 -0.1197 -0.5454
 8581SOL     OW37201   0.196   4.059   3.976 -0.2334  0.1861 -0.0396
 8581SOL    HW137202   0.178   3.966   3.967 -1.5276  0.4632 -0.2753
 8581SOL    HW237203   0.188   4.073   4.071  1.7470 -0.5808  0.2392
 8582SOL     OW37204   4.562   3.049  12.071 -0.0413  0.0065  0.1501
 8582SOL    HW137205   4.616   3.080  12.144  0.6152  2.0251 -1.2007
 8582SOL    HW237206   4.630   2.991  12.035  2.0376  2.6842 -0.2781
 8583SOL     OW37207   4.562   3.299   1.269 -0.3315 -0.2723 -0.0908
 8583SOL    HW137208   4.513   3.347   1.203  2.5780  1.9887 -0.5781
 8583SOL    HW237209   4.606   3.374   1.309  0.3926 -0.0942 -1.2089
 8584SOL     OW37210   1.029   1.058   8.759  0.0327  0.6407 -0.5391
 8584SOL    HW137211   0.966   1.123   8.728 -0.9775 -0.6861 -1.2515
 8584SOL    HW237212   0.971   0.986   8.784  0.9661 -0.6836 -2.1903
 8585SOL     OW37213   1.034   0.309   5.081 -0.4357 -0.4348 -0.0235
 8585SOL    HW137214   0.965   0.302   5.147 -0.8915  0.0484 -0.4466
 8585SOL    HW237215   1.062   0.220   5.060 -2.2680 -1.2592  1.0040
 8586SOL     OW37216   3.996   2.419   4.028 -0.0196  0.2628  0.0204
 8586SOL    HW137217   3.996   2.338   4.080 -1.4304 -0.4415 -1.0822
 8586SOL    HW237218   4.004   2.484   4.098 -0.3725 -0.1516  0.4429
 8587SOL     OW37219   1.087   2.288  14.422 -0.0764 -0.3391  0.1213
 8587SOL    HW137220   1.149   2.353  14.453 -1.7743  0.6885  1.3709
 8587SOL    HW237221   1.019   2.284  14.489  0.6210 -0.8750  0.7996
 8588SOL     OW37222   4.225   0.701   7.745 -0.4887 -0.6096 -0.5255
 8588SOL    HW137223   4.151   0.655   7.786 -0.4003  0.4500  0.8414
 8588SOL    HW237224   4.287   0.680   7.815  0.8317 -1.6785 -2.0294
 8589SOL     OW37225   3.825   0.011   4.903  0.2764 -0.2035  0.2596
 8589SOL    HW137226   3.836   0.099   4.869  0.1699  0.2552  1.4186
 8589SOL    HW237227   3.792   4.689   4.824 -0.3756 -1.0559  0.9901
 8590SOL     OW37228   4.127   2.124   1.915  0.2259 -0.9425 -0.0241
 8590SOL    HW137229   4.048   2.179   1.917  0.5054 -0.5245 -0.6186
 8590SOL    HW237230   4.192   2.192   1.935 -2.9027  1.8050  0.9031
 8591SOL     OW37231   1.311   0.632   6.565  0.5139  0.1730 -0.1157
 8591SOL    HW137232   1.381   0.686   6.530  2.2129 -0.4382  2.3388
 8591SOL    HW237233   1.336   0.550   6.521  2.3969  0.3766  0.5854
 8592SOL     OW37234   1.449   0.709   8.389 -0.2956 -0.4346  0.3317
 8592SOL    HW137235   1.543   0.720   8.400 -0.1975 -0.6800 -0.2770
 8592SOL    HW237236   1.448   0.655   8.310  1.1613  2.1817 -1.4868
 8593SOL     OW37237   4.436   1.328  13.988  0.3885  0.1094  0.2787
 8593SOL    HW137238   4.495   1.347  14.061 -1.2419  0.6021  1.4838
 8593SOL    HW237239   4.444   1.233  13.997  0.2304  0.3813  3.2380
 8594SOL     OW37240   0.746   2.415   7.010 -0.2308  0.1417  0.7531
 8594SOL    HW137241   0.782   2.327   7.024 -0.4770  0.0936  1.0676
 8594SOL    HW237242   0.829   2.463   7.004 -1.4055  2.1013  0.2999
 8595SOL     OW37243   3.225   0.329   3.852 -0.5278 -0.1545  0.2058
 8595SOL    HW137244   3.289   0.376   3.906 -1.1001 -1.4757  2.0163
 8595SOL    HW237245   3.290   0.271   3.812 -0.1840  0.1179  0.3691
 8596SOL     OW37246   0.727   2.226   9.065  0.3007 -0.0483 -0.7288
 8596SOL    HW137247   0.656   2.245   9.126 -1.0934 -2.0779 -1.7380
 8596SOL    HW237248   0.775   2.308   9.050  1.2442 -0.6298 -0.8952
 8597SOL     OW37249   3.432   2.254   7.294  0.8052  0.0322 -0.2157
 8597SOL    HW137250   3.417   2.335   7.245  1.4484  0.7999  0.8570
 8597SOL    HW237251   3.472   2.208   7.220 -1.3427 -0.6874 -0.9605
 8598SOL     OW37252   0.891   3.924   8.534 -0.1172  0.6656 -0.0649
 8598SOL    HW137253   0.987   3.915   8.531 -0.0659  1.4150 -0.7968
 8598SOL    HW237254   0.876   3.921   8.628  0.1243  1.6397  0.0059
 8599SOL     OW37255   3.367   3.232  16.057 -0.8314 -0.4549  0.1582
 8599SOL    HW137256   3.343   3.321  16.081 -1.1953 -0.2056 -1.1573
 8599SOL    HW237257   3.377   3.242  15.962  0.5862  1.4899  0.5052
 8600SOL     OW37258   1.811   0.718  16.773  0.5721  0.4817  0.0593
 8600SOL    HW137259   1.786   0.646  16.714  0.6325 -0.7473  1.5298
 8600SOL    HW237260   1.883   0.753  16.721  0.5075 -0.2837 -0.5580
 8601SOL     OW37261   4.172   1.811   0.045 -0.1121  0.2293  0.2145
 8601SOL    HW137262   4.118   1.832   0.121 -1.1083 -0.4925 -0.3052
 8601SOL    HW237263   4.261   1.826   0.079 -0.0823  1.1942 -0.2810
 8602SOL     OW37264   3.849   4.712  16.903 -0.6326 -0.1602  0.2391
 8602SOL    HW137265   3.814   4.641  16.849 -0.2313 -0.1097 -0.0940
 8602SOL    HW237266   3.926   0.025  16.856 -0.8288 -2.1198 -1.5104
 8603SOL     OW37267   0.752   1.328   5.257 -0.2446 -0.3772  0.1821
 8603SOL    HW137268   0.710   1.384   5.323 -0.5702 -0.3463 -0.0518
 8603SOL    HW237269   0.683   1.333   5.192 -0.9819 -2.1648  0.8253
 8604SOL     OW37270   2.328   4.526   8.877 -0.5107  0.3564  0.2564
 8604SOL    HW137271   2.243   4.564   8.897  0.1482  2.5514 -1.1576
 8604SOL    HW237272   2.347   4.478   8.958 -1.3040 -1.5514 -0.6807
 8605SOL     OW37273   1.096   3.526   3.981 -0.0736  0.4789 -0.4005
 8605SOL    HW137274   1.013   3.482   3.962 -0.1769  0.8483 -0.7993
 8605SOL    HW237275   1.065   3.593   4.043 -2.3927 -0.4614 -0.5576
 8606SOL     OW37276   4.634   3.254   8.796  0.1630 -0.3266  0.2937
 8606SOL    HW137277   4.596   3.272   8.710 -1.3907 -0.7327  0.8939
 8606SOL    HW237278   4.561   3.252   8.858  1.2992  0.4207  1.6498
 8607SOL     OW37279   2.465   0.194   4.950 -0.0311 -0.3588 -0.3956
 8607SOL    HW137280   2.474   0.101   4.970 -3.2569 -0.2787  1.5060
 8607SOL    HW237281   2.525   0.203   4.877  1.0961 -3.2520  0.1893
 8608SOL     OW37282   1.662   2.934   7.134 -0.1079  0.0943  0.0617
 8608SOL    HW137283   1.619   2.927   7.049 -1.3716 -2.1243  0.8583
 8608SOL    HW237284   1.613   3.001   7.182 -0.1308 -0.1203  0.3387
 8609SOL     OW37285   2.884   1.081   8.663  0.3445  0.2090 -0.5155
 8609SOL    HW137286   2.822   1.154   8.668  0.4970  0.4585 -2.1320
 8609SOL    HW237287   2.938   1.100   8.740  0.5322  1.2188 -0.8962
 8610SOL     OW37288   4.601   0.180   2.429  0.1689  0.3038 -0.3123
 8610SOL    HW137289   4.507   0.178   2.448 -0.1432  0.1405 -1.8502
 8610SOL    HW237290   4.617   0.086   2.421  1.1767  0.6151 -1.9534
 8611SOL     OW37291   3.528   3.081  10.110 -0.1433 -0.1783 -0.2228
 8611SOL    HW137292   3.485   3.049  10.189  2.3887  1.0143  1.6715
 8611SOL    HW237293   3.613   3.038  10.118 -0.8696 -1.3097  1.4335
 8612SOL     OW37294   2.480   0.747   9.387  0.1693  0.0421 -0.0256
 8612SOL    HW137295   2.386   0.757   9.369 -0.2186 -0.1375  1.9513
 8612SOL    HW237296   2.512   0.744   9.296  1.3446 -0.8315  0.4093
 8613SOL     OW37297   2.348   4.288   3.182 -0.3135  0.6654  0.3431
 8613SOL    HW137298   2.372   4.319   3.095  1.2096 -0.7409  0.2603
 8613SOL    HW237299   2.309   4.367   3.220  0.6455  1.2143  0.1883
 8614SOL     OW37300   4.384   1.921   6.328  0.1967  0.0531 -0.3048
 8614SOL    HW137301   4.375   1.833   6.365 -1.9106  0.6150  0.4791
 8614SOL    HW237302   4.383   1.969   6.411 -1.3126  1.1380 -0.9507
 8615SOL     OW37303   2.823   1.232   3.645  0.5615  0.0021  0.2433
 8615SOL    HW137304   2.824   1.327   3.657 -0.1209 -0.1141  1.1784
 8615SOL    HW237305   2.901   1.224   3.590 -1.0064  0.3397 -2.0259
 8616SOL     OW37306   1.182   2.821   5.060 -0.1730 -0.2928 -0.2801
 8616SOL    HW137307   1.257   2.835   5.117 -1.1189 -1.2031  1.1728
 8616SOL    HW237308   1.128   2.759   5.108  1.0537 -1.2998 -0.2092
 8617SOL     OW37309   1.588   0.012   5.844  0.0471  0.2019  0.0892
 8617SOL    HW137310   1.614   4.707   5.932  1.5929 -0.0814 -0.4557
 8617SOL    HW237311   1.524   0.081   5.861 -0.7563 -0.2591 -1.0251
 8618SOL     OW37312   3.078   4.118  12.739  0.1812 -0.2711 -0.4946
 8618SOL    HW137313   2.985   4.142  12.741 -0.2289 -2.0479  0.8473
 8618SOL    HW237314   3.059   4.030  12.708 -0.8674  0.2402 -1.3330
 8619SOL     OW37315   3.824   1.845   1.037 -0.2662 -0.1626  0.1847
 8619SOL    HW137316   3.826   1.749   1.045  3.4541 -0.0821 -0.0902
 8619SOL    HW237317   3.913   1.871   1.014 -0.9358  0.1134 -2.0814
 8620SOL     OW37318   0.313   3.236   9.469  0.2515 -0.4533  0.1161
 8620SOL    HW137319   0.280   3.221   9.558  0.6708  0.1765  0.3744
 8620SOL    HW237320   0.232   3.270   9.431  0.4749  1.4181  1.3002
 8621SOL     OW37321   2.639   0.607   0.732 -0.5015 -0.4399  0.1619
 8621SOL    HW137322   2.680   0.565   0.807  2.8831  1.3869 -0.6770
 8621SOL    HW237323   2.616   0.696   0.757  1.9691  0.9398 -2.4008
 8622SOL     OW37324   1.896   4.435   8.375  0.0019 -0.1386  0.5445
 8622SOL    HW137325   1.805   4.463   8.382  0.8574  2.4606  1.4382
 8622SOL    HW237326   1.893   4.410   8.282 -1.5536 -0.8549  0.7929
 8623SOL     OW37327   1.448   4.525  17.114  0.3126 -0.2460  0.3629
 8623SOL    HW137328   1.535   4.548  17.083 -0.9204  1.1455 -2.1186
 8623SOL    HW237329   1.391   4.602  17.116 -0.2859 -0.6146 -3.0627
 8624SOL     OW37330   1.550   3.433  15.227 -0.2557  0.2054  0.3181
 8624SOL    HW137331   1.514   3.508  15.275  1.1641  0.8985  0.3276
 8624SOL    HW237332   1.494   3.432  15.150  0.2926  0.7560 -0.0917
 8625SOL     OW37333   2.610   0.825  13.913  0.2306 -0.7128  0.0894
 8625SOL    HW137334   2.662   0.792  13.840 -1.4852 -0.7532 -1.1171
 8625SOL    HW237335   2.531   0.783  13.877  0.7829 -0.5723 -1.2907
 8626SOL     OW37336   1.323   2.890  12.743  0.0269 -0.1047 -0.5486
 8626SOL    HW137337   1.379   2.928  12.675 -1.0519  0.6904 -0.9795
 8626SOL    HW237338   1.338   2.954  12.812 -2.6321  0.1618 -0.2330
 8627SOL     OW37339   3.265   0.072   9.134  0.2970 -0.0672  0.0624
 8627SOL    HW137340   3.171   0.054   9.142  0.3679  0.1662  1.4111
 8627SOL    HW237341   3.302   4.713   9.170  0.7064 -1.0015 -2.4648
 8628SOL     OW37342   4.035   3.345   2.722  0.8084  0.0741  0.1471
 8628SOL    HW137343   4.042   3.407   2.794 -0.0917  1.9671 -1.4125
 8628SOL    HW237344   4.099   3.280   2.752  0.5544  0.9213  2.5432
 8629SOL     OW37345   0.197   3.846  17.401 -0.3558 -0.0525  0.0418
 8629SOL    HW137346   0.133   3.797  17.350  1.3447 -1.0088 -1.1592
 8629SOL    HW237347   0.219   3.921  17.346 -2.9349  0.1574 -0.6828
 8630SOL     OW37348   0.159   2.087  16.317 -0.2734 -0.2225 -0.4307
 8630SOL    HW137349   0.069   2.080  16.285 -0.1297 -1.5090 -0.5519
 8630SOL    HW237350   0.173   2.182  16.323  4.0973 -0.9080 -0.0702
 8631SOL     OW37351   3.867   1.570   6.144 -0.4386  0.3443  0.0020
 8631SOL    HW137352   3.917   1.645   6.176  0.6133  0.2893 -1.4589
 8631SOL    HW237353   3.800   1.613   6.090  0.3046  2.5830  0.8551
 8632SOL     OW37354   0.450   4.540  10.079  0.2018 -0.5215 -0.0375
 8632SOL    HW137355   0.376   4.552  10.139  0.4732 -1.2072  0.4323
 8632SOL    HW237356   0.474   4.629  10.051 -0.8221  0.4313  2.0803
 8633SOL     OW37357   0.389   1.333   7.525 -0.0333 -0.5091 -0.5267
 8633SOL    HW137358   0.477   1.322   7.560 -1.0076  0.3096  2.1950
 8633SOL    HW237359   0.341   1.309   7.605 -0.6447  0.7037 -0.5216
 8634SOL     OW37360   3.388   1.339   8.749  0.4844 -0.3198 -0.1015
 8634SOL    HW137361   3.348   1.338   8.662 -1.8052  2.0021  0.9347
 8634SOL    HW237362   3.479   1.331   8.720  0.2980 -1.8602 -0.2643
 8635SOL     OW37363   4.398   4.372  12.017 -0.4942  0.6386  0.1047
 8635SOL    HW137364   4.345   4.437  12.064 -0.9802 -0.6297  1.2910
 8635SOL    HW237365   4.322   4.339  11.969 -0.5059  1.5971 -0.5477
 8636SOL     OW37366   1.734   0.531   5.640  0.6192 -0.1778  0.3413
 8636SOL    HW137367   1.656   0.581   5.614 -0.1027 -1.4006  0.1283
 8636SOL    HW237368   1.736   0.455   5.582 -3.0463 -0.9098  1.1253
 8637SOL     OW37369   2.104   3.184   4.248 -0.2545  0.2905 -0.4092
 8637SOL    HW137370   2.019   3.216   4.217 -0.8757  0.0049  0.9802
 8637SOL    HW237371   2.165   3.235   4.195 -1.8251  2.6757  0.0931
 8638SOL     OW37372   4.078   0.543   1.690  0.0706  0.0750  0.6584
 8638SOL    HW137373   4.088   0.454   1.724 -0.3541  0.3830  1.5930
 8638SOL    HW237374   4.032   0.530   1.607  0.2485 -0.2072  0.6031
 8639SOL     OW37375   1.943   4.040  10.586  0.3131 -0.4642 -0.7966
 8639SOL    HW137376   1.892   4.039  10.667 -0.4076 -0.5603 -1.2550
 8639SOL    HW237377   1.892   4.102  10.534 -1.1725  0.8424  2.2394
 8640SOL     OW37378   4.449   0.685  13.277 -0.7440  0.4266 -0.0993
 8640SOL    HW137379   4.527   0.698  13.330 -1.7912  0.8015  1.3587
 8640SOL    HW237380   4.441   0.589  13.281  1.1263  0.1918 -2.0803
 8641SOL     OW37381   0.060   2.374   5.381 -0.2572 -0.2014 -0.4233
 8641SOL    HW137382   4.721   2.325   5.325  1.2999 -0.5801 -1.7738
 8641SOL    HW237383   0.024   2.355   5.467  1.0728 -3.1043 -0.5338
 8642SOL     OW37384   0.713   4.660   7.624 -0.1059  0.0477  0.0016
 8642SOL    HW137385   0.771   4.589   7.595  1.0882  0.5526  1.1799
 8642SOL    HW237386   0.764   4.703   7.692 -1.3346 -1.9079  2.1590
 8643SOL     OW37387   2.057   1.445  11.403 -0.4140  0.1169 -0.0714
 8643SOL    HW137388   2.101   1.374  11.448 -1.3556 -0.9493 -0.8361
 8643SOL    HW237389   1.967   1.420  11.423  0.0085 -0.2402  1.3625
 8644SOL     OW37390   0.620   1.641  10.717  0.4897 -0.3090 -0.1924
 8644SOL    HW137391   0.614   1.590  10.798 -1.4322  0.7818  0.3547
 8644SOL    HW237392   0.533   1.681  10.708  0.6681  0.1722  0.2529
 8645SOL     OW37393   2.529   0.338  10.500  0.4147 -0.4944  0.0136
 8645SOL    HW137394   2.621   0.325  10.479  0.6670 -0.3192  1.0033
 8645SOL    HW237395   2.543   0.403  10.569  0.7185 -1.7815  1.1692
 8646SOL     OW37396   0.372   1.207   7.789 -0.0152 -0.3761 -0.9027
 8646SOL    HW137397   0.367   1.289   7.837  1.3254 -0.6543 -0.3014
 8646SOL    HW237398   0.466   1.196   7.802  0.2535  2.8416 -0.1661
 8647SOL     OW37399   1.440   3.186   0.669 -0.0607 -0.4701 -0.0133
 8647SOL    HW137400   1.468   3.155   0.583  0.0896 -1.1216  0.2650
 8647SOL    HW237401   1.514   3.164   0.726  0.7420  2.9996  0.2944
 8648SOL     OW37402   3.347   4.272   0.393  0.1683 -0.6035  0.0997
 8648SOL    HW137403   3.320   4.183   0.369 -1.1191 -0.7881  2.2168
 8648SOL    HW237404   3.441   4.258   0.376  0.2598 -0.2031  0.2819
 8649SOL     OW37405   4.221   1.370  10.126 -0.4873 -0.4879 -0.0947
 8649SOL    HW137406   4.253   1.308  10.191  0.1657 -0.9936 -0.9015
 8649SOL    HW237407   4.172   1.315  10.065  0.7188 -1.7428  0.0881
 8650SOL     OW37408   0.747   3.033   7.421 -0.4088  0.1888  0.4408
 8650SOL    HW137409   0.761   3.032   7.515  1.0568 -2.8967  0.2001
 8650SOL    HW237410   0.749   2.938   7.406  0.9663  0.4215 -0.8879
 8651SOL     OW37411   3.184   2.588   2.679 -0.3238  0.1856 -0.0648
 8651SOL    HW137412   3.171   2.506   2.728  0.9105 -0.4491 -0.8267
 8651SOL    HW237413   3.274   2.591   2.649 -0.0284 -0.3581  0.7745
 8652SOL     OW37414   0.159   0.283  13.081  0.0139 -0.3667  0.1553
 8652SOL    HW137415   0.156   0.190  13.102  0.3964 -0.8885 -2.0323
 8652SOL    HW237416   0.066   0.295  13.063 -0.2369 -1.0954  1.0179
 8653SOL     OW37417   2.096   3.952   3.445  0.1725  0.0464  0.1641
 8653SOL    HW137418   2.039   3.886   3.406 -0.9710 -0.6260  2.9528
 8653SOL    HW237419   2.168   3.961   3.384  0.5814  0.2962  0.6825
 8654SOL     OW37420   2.715   4.545   8.942 -0.1128  0.3245  0.0290
 8654SOL    HW137421   2.782   4.524   8.877 -0.7459 -3.1538  0.4767
 8654SOL    HW237422   2.720   4.639   8.955 -0.4616  0.2815  0.4625
 8655SOL     OW37423   3.265   1.742   4.522 -0.0659 -0.3282  0.7693
 8655SOL    HW137424   3.187   1.693   4.550 -0.0670 -0.4256  0.5947
 8655SOL    HW237425   3.306   1.667   4.479 -0.4042  1.2904 -2.3883
 8656SOL     OW37426   2.679   1.247   8.348 -0.3381  0.4444 -0.2864
 8656SOL    HW137427   2.611   1.199   8.395  1.0309  1.7909  3.0286
 8656SOL    HW237428   2.736   1.177   8.318  1.1939  1.7841 -0.5042
 8657SOL     OW37429   1.254   0.691  10.689  0.2034  0.1913 -0.5901
 8657SOL    HW137430   1.337   0.714  10.648  1.0223 -0.4616  0.7376
 8657SOL    HW237431   1.202   0.664  10.613  1.1977  0.1846 -1.2675
 8658SOL     OW37432   0.912   3.227   1.286 -0.0521 -0.4352  0.0724
 8658SOL    HW137433   0.824   3.256   1.262  0.5689  0.0462 -1.6721
 8658SOL    HW237434   0.972   3.275   1.229 -1.1765 -0.6179 -1.2646
 8659SOL     OW37435   4.718   0.009   3.922 -0.5311 -0.2919 -0.4293
 8659SOL    HW137436   4.718   0.093   3.876 -2.4116  0.5723  1.1435
 8659SOL    HW237437   4.639   0.021   3.975 -0.3945 -2.7820  0.3653
 8660SOL     OW37438   1.880   2.739   5.416  0.3352 -0.2307  0.5304
 8660SOL    HW137439   1.869   2.790   5.496 -0.8251  0.4512 -0.0671
 8660SOL    HW237440   1.790   2.740   5.384  0.0025  0.7376  1.4782
 8661SOL     OW37441   4.388   3.038  13.033  0.3689 -0.0212  0.7140
 8661SOL    HW137442   4.319   3.021  12.969  0.8739  1.3158 -0.1715
 8661SOL    HW237443   4.360   2.999  13.116  1.5398 -0.0124  1.1137
 8662SOL     OW37444   0.939   1.338   4.633  0.0284  0.0726 -0.4735
 8662SOL    HW137445   0.990   1.418   4.618  1.2997 -0.9077 -1.3063
 8662SOL    HW237446   1.001   1.290   4.688 -1.0135 -0.1298  0.5373
 8663SOL     OW37447   4.409   2.542   5.389  0.3349 -0.5810  0.0267
 8663SOL    HW137448   4.479   2.585   5.438  0.9080 -0.9563 -0.4570
 8663SOL    HW237449   4.453   2.465   5.353  2.2399 -0.2290  1.6195
 8664SOL     OW37450   1.676   0.258   5.517  0.4118  0.6898 -0.3302
 8664SOL    HW137451   1.633   0.211   5.445 -1.0140  0.2392  0.7964
 8664SOL    HW237452   1.721   0.191   5.568  2.5885  1.4886 -1.2078
 8665SOL     OW37453   4.436   1.645  12.843 -0.6369 -0.4259  0.4223
 8665SOL    HW137454   4.498   1.682  12.780 -0.7907  3.6511  2.6294
 8665SOL    HW237455   4.431   1.552  12.821 -0.7663  0.5685 -3.6421
 8666SOL     OW37456   0.623   2.648   1.805  0.4098  1.0589  0.3185
 8666SOL    HW137457   0.654   2.734   1.778  1.5249  0.3509 -0.6347
 8666SOL    HW237458   0.704   2.598   1.798 -0.9581 -0.8721 -1.5734
 8667SOL     OW37459   3.295   2.883   4.409 -0.3663  0.1720 -0.5054
 8667SOL    HW137460   3.335   2.961   4.369 -1.2845  0.7687 -0.2576
 8667SOL    HW237461   3.206   2.889   4.375 -0.6709  0.1239  0.2914
 8668SOL     OW37462   4.403   2.364   7.230 -0.0204  0.2235 -0.6398
 8668SOL    HW137463   4.472   2.299   7.245 -0.4087 -0.5208 -2.0395
 8668SOL    HW237464   4.369   2.365   7.140 -0.8002 -1.8467 -0.3768
 8669SOL     OW37465   3.336   0.673   8.255  0.4962 -0.0947 -0.1843
 8669SOL    HW137466   3.309   0.619   8.330  0.1070  0.2497 -0.0774
 8669SOL    HW237467   3.414   0.630   8.220  1.0482  0.0968  0.8001
 8670SOL     OW37468   1.863   2.756   4.636 -0.0633  0.0036 -0.6032
 8670SOL    HW137469   1.905   2.833   4.600  3.3301 -1.5378  0.0779
 8670SOL    HW237470   1.900   2.686   4.583  3.2382 -0.4577  2.2807
 8671SOL     OW37471   4.507   3.873  15.181  0.0198 -1.1071  0.5635
 8671SOL    HW137472   4.502   3.798  15.122 -1.3337 -1.0137  0.5690
 8671SOL    HW237473   4.419   3.904  15.203  0.1585 -1.4851  1.6949
 8672SOL     OW37474   4.417   2.190  10.919 -0.4005  0.3761  0.1996
 8672SOL    HW137475   4.355   2.133  10.966 -0.8142 -0.3777 -1.2584
 8672SOL    HW237476   4.480   2.208  10.988 -0.0794  0.9917 -0.2565
 8673SOL     OW37477   1.738   1.500   5.196 -0.3901  0.1638 -0.6170
 8673SOL    HW137478   1.740   1.468   5.106 -3.0490  1.5724 -1.1723
 8673SOL    HW237479   1.666   1.452   5.237 -1.2161  2.1930  0.3042
 8674SOL     OW37480   2.976   1.982   3.683 -0.0250 -0.3272 -0.2485
 8674SOL    HW137481   3.045   1.983   3.750 -1.4095  1.3237  1.1692
 8674SOL    HW237482   3.028   1.980   3.603 -0.3174  0.1542 -0.4524
 8675SOL     OW37483   1.049   2.394  11.854 -0.2611  0.8407 -0.0076
 8675SOL    HW137484   1.024   2.345  11.776  1.4721 -1.6243  1.0123
 8675SOL    HW237485   0.968   2.439  11.881 -1.2679 -1.1371  0.2491
 8676SOL     OW37486   0.441   3.250   8.537  0.2307 -0.2852  0.1440
 8676SOL    HW137487   0.508   3.247   8.469  0.0323 -0.3464 -0.0487
 8676SOL    HW237488   0.422   3.344   8.546 -0.9819 -0.7237  2.3115
 8677SOL     OW37489   2.704   2.593   2.191  0.2950  0.1856  0.0631
 8677SOL    HW137490   2.738   2.538   2.262 -0.5393  1.3692  1.3842
 8677SOL    HW237491   2.677   2.526   2.129  0.2939 -2.0225  2.4619
 8678SOL     OW37492   1.207   2.862  13.608 -0.0433 -0.2784 -0.7675
 8678SOL    HW137493   1.226   2.953  13.587 -2.5326  0.3292 -0.4546
 8678SOL    HW237494   1.166   2.864  13.695 -2.0105 -0.6027 -1.6821
 8679SOL     OW37495   3.246   3.921   5.291 -0.3764 -0.2794 -0.4464
 8679SOL    HW137496   3.279   3.998   5.339 -0.0350  0.2372 -1.5164
 8679SOL    HW237497   3.293   3.854   5.340  2.0026  1.7895  0.0840
 8680SOL     OW37498   0.823   0.395   1.882 -0.4288  0.4860 -0.3495
 8680SOL    HW137499   0.814   0.490   1.870 -0.9998  0.2305 -2.0312
 8680SOL    HW237500   0.853   0.375   1.793 -0.5902 -3.1055  0.4059
 8681SOL     OW37501   0.176   1.587  11.431 -0.7795 -0.0808  0.4988
 8681SOL    HW137502   0.251   1.565  11.376 -1.2720 -3.0413  1.0050
 8681SOL    HW237503   0.209   1.582  11.521  0.1135  2.5174  0.3037
 8682SOL     OW37504   0.152   2.257   3.601 -0.0102 -0.2282 -0.1162
 8682SOL    HW137505   0.125   2.323   3.536 -1.0313  1.0738  1.6177
 8682SOL    HW237506   0.238   2.288   3.628  0.2967 -0.1116 -1.2357
 8683SOL     OW37507   1.937   2.411  17.141  0.6734 -0.2205 -0.2325
 8683SOL    HW137508   1.898   2.459  17.213  1.5009 -1.9638  1.3882
 8683SOL    HW237509   1.882   2.447  17.071 -0.9789 -0.8920  0.7112
 8684SOL     OW37510   3.163   1.908   7.438  0.7951 -0.2007  0.3160
 8684SOL    HW137511   3.212   1.980   7.478 -1.0306  1.3237 -0.1709
 8684SOL    HW237512   3.135   1.954   7.359  0.6772  0.5835  0.8094
 8685SOL     OW37513   3.417   0.250   2.615  0.3949  0.3295  0.3171
 8685SOL    HW137514   3.398   0.164   2.577 -0.7295  0.9731 -0.6158
 8685SOL    HW237515   3.510   0.241   2.630  0.3433 -1.5643 -0.5376
 8686SOL     OW37516   1.646   3.816   2.026 -0.5713  0.1323  0.2895
 8686SOL    HW137517   1.712   3.751   2.002 -0.5147 -0.2543  1.5034
 8686SOL    HW237518   1.595   3.764   2.088 -0.1614  1.3104  1.6083
 8687SOL     OW37519   4.440   3.933   7.039 -0.0040  0.4023 -0.4535
 8687SOL    HW137520   4.418   3.909   7.129 -2.2055 -0.1617 -1.1580
 8687SOL    HW237521   4.508   3.874   7.005 -0.8011  0.2377 -1.7718
 8688SOL     OW37522   2.436   3.990  14.177  0.0975 -0.3867  0.1616
 8688SOL    HW137523   2.389   3.970  14.096  1.3521  0.3960 -0.7633
 8688SOL    HW237524   2.500   3.919  14.169 -1.0137 -1.3197 -0.5438
 8689SOL     OW37525   2.294   2.711   6.586  0.0648 -0.1127  0.1631
 8689SOL    HW137526   2.289   2.794   6.537 -1.0409  0.8013  1.8033
 8689SOL    HW237527   2.211   2.664   6.573 -0.6835  1.0761  0.5658
 8690SOL     OW37528   3.237   3.765   3.763 -0.5625 -0.1466 -0.0412
 8690SOL    HW137529   3.272   3.852   3.783  0.2590 -0.6897  0.9022
 8690SOL    HW237530   3.245   3.771   3.667  2.8621  0.1178  0.2431
 8691SOL     OW37531   2.025   4.071   4.968 -0.0094  0.3813  0.3278
 8691SOL    HW137532   1.942   4.024   4.980  0.4148 -0.5247 -0.2697
 8691SOL    HW237533   2.057   4.014   4.898 -0.1238  0.1493  0.4633
 8692SOL     OW37534   1.617   4.579   8.051 -0.1824 -0.9266 -0.3698
 8692SOL    HW137535   1.583   4.511   8.109  0.5273  0.1314  1.2877
 8692SOL    HW237536   1.604   4.658   8.103  0.5953 -1.6138  0.8892
 8693SOL     OW37537   3.492   0.965   8.326 -0.3196  0.1048  0.0265
 8693SOL    HW137538   3.527   0.876   8.325  1.0124  0.6640 -1.7059
 8693SOL    HW237539   3.403   0.938   8.350 -0.9084  0.0948 -2.2077
 8694SOL     OW37540   3.008   3.590   5.393 -0.7395 -0.2641 -0.3379
 8694SOL    HW137541   3.099   3.572   5.418 -0.2151  1.0098 -1.3511
 8694SOL    HW237542   2.973   3.588   5.482 -1.1358  1.8961 -0.4608
 8695SOL     OW37543   3.381   1.766  15.850  0.0260  0.4106 -0.4484
 8695SOL    HW137544   3.349   1.856  15.853  2.6940  1.3134  1.1140
 8695SOL    HW237545   3.356   1.741  15.761 -0.0441 -1.3201  0.0600
 8696SOL     OW37546   1.040   3.339   6.653  0.8564  1.2173  0.5218
 8696SOL    HW137547   0.971   3.405   6.661 -0.0914  0.5217 -1.7847
 8696SOL    HW237548   1.123   3.383   6.670  1.1185 -0.1762  2.8106
 8697SOL     OW37549   1.221   3.584   6.223  0.1651 -0.1514 -0.3782
 8697SOL    HW137550   1.191   3.533   6.148  2.4194 -1.2645 -0.5303
 8697SOL    HW237551   1.233   3.669   6.182  0.1317 -0.1554 -0.3963
 8698SOL     OW37552   1.967   2.683  12.956  0.2509  0.3809 -0.1682
 8698SOL    HW137553   2.051   2.723  12.935 -0.8948  3.7857  1.6389
 8698SOL    HW237554   1.919   2.759  12.922  0.0348 -0.0479 -0.8154
 8699SOL     OW37555   1.816   3.234   6.252 -0.2405  0.3895  0.4069
 8699SOL    HW137556   1.767   3.313   6.275  0.7902  1.7509 -2.0769
 8699SOL    HW237557   1.816   3.188   6.336  0.1253  0.0935  0.2429
 8700SOL     OW37558   1.505   4.066  14.476  0.2634  0.0359  0.2198
 8700SOL    HW137559   1.591   4.107  14.466  1.1060 -1.7141  0.2423
 8700SOL    HW237560   1.495   4.010  14.399  1.0861 -0.3076  0.3673
 8701SOL     OW37561   4.384   4.460   6.304 -0.2784 -0.3220 -0.4098
 8701SOL    HW137562   4.479   4.465   6.293 -0.2289  0.2862  0.2931
 8701SOL    HW237563   4.375   4.451   6.398 -1.6940  0.4338 -0.4794
 8702SOL     OW37564   1.664   3.610   3.843 -0.2058 -0.0884  0.5591
 8702SOL    HW137565   1.746   3.640   3.805 -0.2597  0.0310  0.5341
 8702SOL    HW237566   1.616   3.631   3.763  1.0796  1.6201  0.2233
 8703SOL     OW37567   1.709   3.445   4.491  0.0535 -0.0911  0.6981
 8703SOL    HW137568   1.712   3.387   4.415  0.9394 -0.1251  0.7625
 8703SOL    HW237569   1.719   3.534   4.457  2.8384 -1.2169 -1.4456
 8704SOL     OW37570   0.260   2.573   2.233 -0.8345  0.3576  0.4831
 8704SOL    HW137571   0.309   2.509   2.285 -0.1381  0.8621  0.4511
 8704SOL    HW237572   0.290   2.659   2.262 -0.7238  0.4381  0.1343
 8705SOL     OW37573   3.612   0.659   5.281 -0.4834  0.3107  0.5591
 8705SOL    HW137574   3.569   0.719   5.342 -1.0818 -1.1393  1.5814
 8705SOL    HW237575   3.651   0.598   5.344  1.5738 -0.5047 -1.5191
 8706SOL     OW37576   3.315   3.988   2.383  0.1083  0.0935 -0.0059
 8706SOL    HW137577   3.357   3.972   2.299  1.3474 -0.1085  0.6458
 8706SOL    HW237578   3.270   4.070   2.364 -0.7259 -0.1215  1.0373
 8707SOL     OW37579   4.344   1.643   2.926  0.0327  0.1393  0.1847
 8707SOL    HW137580   4.302   1.580   2.867  1.7234  1.1669 -2.0908
 8707SOL    HW237581   4.290   1.628   3.004  0.4868  0.8323  0.6191
 8708SOL     OW37582   1.717   1.652   8.143  0.2297  0.7089  0.1927
 8708SOL    HW137583   1.642   1.611   8.185 -1.0607  0.4091 -2.4048
 8708SOL    HW237584   1.785   1.637   8.209  2.3267 -0.4440 -2.2409
 8709SOL     OW37585   0.487   3.946  10.516 -0.1150  1.1939  0.1521
 8709SOL    HW137586   0.461   3.912  10.430  0.5558  1.9622 -0.3478
 8709SOL    HW237587   0.577   3.977  10.509  0.2327 -0.1493 -1.5004
 8710SOL     OW37588   0.201   4.174   2.157  0.3347  0.1503 -0.1440
 8710SOL    HW137589   0.293   4.161   2.178  0.6401  0.9721 -0.9541
 8710SOL    HW237590   0.174   4.084   2.140  0.3878 -0.2100  1.7020
 8711SOL     OW37591   2.690   2.708   8.344  0.5688  0.5265  0.2704
 8711SOL    HW137592   2.689   2.770   8.271 -0.4817 -1.8604 -1.7036
 8711SOL    HW237593   2.751   2.643   8.309  0.2382  1.6672 -2.4483
 8712SOL     OW37594   1.086   3.807   0.082  0.2898 -0.4554 -0.3811
 8712SOL    HW137595   1.031   3.845   0.014  0.5769  1.9676  0.7377
 8712SOL    HW237596   1.114   3.885   0.130 -0.6331  1.3007 -2.6968
 8713SOL     OW37597   4.527   0.757   8.842 -0.0164 -0.3312 -0.0538
 8713SOL    HW137598   4.432   0.750   8.853 -0.3590  1.4255 -1.9952
 8713SOL    HW237599   4.564   0.696   8.907 -0.1023  0.3011  0.5905
 8714SOL     OW37600   1.881   0.920  17.011  0.4246  0.1430 -0.2937
 8714SOL    HW137601   1.822   0.844  17.014 -0.6345  0.9597 -0.6851
 8714SOL    HW237602   1.834   0.987  16.962  0.6432  0.4198 -0.1239
 8715SOL     OW37603   1.639   0.246   7.941  0.4120 -0.2054  0.4565
 8715SOL    HW137604   1.583   0.308   7.989  0.3663 -0.8764  1.2680
 8715SOL    HW237605   1.729   0.277   7.953  0.7993 -1.0819 -0.2051
 8716SOL     OW37606   2.896   1.905  13.869 -0.0289 -0.0701  0.2377
 8716SOL    HW137607   2.842   1.927  13.793  0.3809  1.0344  0.2711
 8716SOL    HW237608   2.845   1.950  13.937  2.2588  2.0467  0.5602
 8717SOL     OW37609   1.278   2.521   3.956  0.0275 -0.7322 -0.3869
 8717SOL    HW137610   1.347   2.501   4.019 -1.0654 -3.0898  0.0344
 8717SOL    HW237611   1.214   2.463   3.996 -1.1304  0.5729 -0.3578
 8718SOL     OW37612   3.737   0.663   8.964  0.2896  0.0880 -0.0539
 8718SOL    HW137613   3.695   0.592   9.012 -0.1375 -1.6424 -3.0093
 8718SOL    HW237614   3.667   0.727   8.955  3.3181  3.2410 -1.3443
 8719SOL     OW37615   2.089   2.514  12.153 -0.0636  0.0496 -0.0526
 8719SOL    HW137616   2.042   2.447  12.104 -0.3979 -0.2511  0.6796
 8719SOL    HW237617   2.176   2.512  12.114 -1.0533 -2.0861 -2.1093
 8720SOL     OW37618   1.962   4.409   4.076  0.0252 -0.0846  0.2533
 8720SOL    HW137619   1.961   4.500   4.047 -1.2309 -0.1570  0.0578
 8720SOL    HW237620   1.979   4.370   3.990  2.4286 -1.8783  1.5401
 8721SOL     OW37621   2.510   0.952   4.526 -0.2659 -0.1500 -0.0913
 8721SOL    HW137622   2.462   0.901   4.591 -0.9797  0.0972 -0.4156
 8721SOL    HW237623   2.453   0.930   4.453  0.2877 -0.8622 -0.3040
 8722SOL     OW37624   3.668   1.502   3.214 -0.3415 -0.5720  0.4506
 8722SOL    HW137625   3.641   1.591   3.238 -0.1613 -0.7821  1.4355
 8722SOL    HW237626   3.588   1.451   3.227 -0.4614 -1.1178 -2.4497
 8723SOL     OW37627   1.352   1.165   2.769 -0.6644  0.2682 -0.2581
 8723SOL    HW137628   1.320   1.183   2.681  2.5311  0.2219 -1.4034
 8723SOL    HW237629   1.279   1.159   2.830  0.2501 -1.8509  0.6241
 8724SOL     OW37630   3.014   1.258  11.215  0.0965 -0.3522  0.2071
 8724SOL    HW137631   2.990   1.350  11.229  1.7958 -0.2537  2.3742
 8724SOL    HW237632   3.022   1.222  11.303 -1.2914  2.5296  1.4916
 8725SOL     OW37633   0.776   2.774   5.192 -0.0134 -0.0356 -0.0825
 8725SOL    HW137634   0.722   2.737   5.262  0.6938  0.9007  0.9563
 8725SOL    HW237635   0.762   2.868   5.200 -0.2339 -0.0273 -0.5422
 8726SOL     OW37636   2.616   2.502   2.601  0.0430  0.1119 -0.8885
 8726SOL    HW137637   2.654   2.583   2.636 -1.3673  0.0231  0.8390
 8726SOL    HW237638   2.686   2.478   2.540 -0.7489 -0.4062 -1.5930
 8727SOL     OW37639   2.191   3.480  12.129 -0.0160 -0.0343 -0.3220
 8727SOL    HW137640   2.255   3.462  12.198 -0.4384  2.9651  0.8597
 8727SOL    HW237641   2.111   3.495  12.180 -0.3773 -1.3992 -0.5127
 8728SOL     OW37642   1.889   0.876  13.133  0.1025  0.1745 -0.1180
 8728SOL    HW137643   1.933   0.805  13.180  0.7230 -0.2170 -1.3042
 8728SOL    HW237644   1.906   0.941  13.202 -1.2092  0.7549 -0.3343
 8729SOL     OW37645   1.812   3.828   6.483  0.5248  0.2527  0.0000
 8729SOL    HW137646   1.788   3.840   6.575  2.2746  1.1418  0.3258
 8729SOL    HW237647   1.727   3.802   6.447  0.5541 -1.6081  1.2711
 8730SOL     OW37648   1.951   0.212   7.323 -0.2539 -0.1689 -0.8786
 8730SOL    HW137649   2.027   0.260   7.356  0.3558  0.2832 -2.9860
 8730SOL    HW237650   1.889   0.282   7.301 -0.4872 -0.1165 -0.0845
 8731SOL     OW37651   2.012   1.098   7.911 -0.7136  0.0298  0.8788
 8731SOL    HW137652   2.095   1.144   7.920 -1.0449  0.7531  0.1460
 8731SOL    HW237653   1.953   1.173   7.917 -1.7542 -0.8342  1.6164
 8732SOL     OW37654   2.819   2.616   4.925  0.1802  0.2307  0.3323
 8732SOL    HW137655   2.771   2.664   4.992  0.8570  2.6676 -0.9250
 8732SOL    HW237656   2.904   2.608   4.968 -0.4034 -0.8503  1.2820
 8733SOL     OW37657   1.015   1.562   6.981 -0.2975 -0.7323  0.5059
 8733SOL    HW137658   0.974   1.643   6.948 -1.5898 -1.0159  1.4189
 8733SOL    HW237659   1.021   1.509   6.902  0.1714  0.5602 -0.3409
 8734SOL     OW37660   1.039   3.247  17.099  0.4068 -0.4922 -1.0241
 8734SOL    HW137661   1.105   3.290  17.153 -0.9870  0.7790 -0.3380
 8734SOL    HW237662   0.965   3.257  17.159  1.7980  0.4681  0.5447
 8735SOL     OW37663   0.357   1.626  11.215 -0.5081  0.1623 -0.1420
 8735SOL    HW137664   0.302   1.597  11.142 -0.1042 -0.7670 -0.0786
 8735SOL    HW237665   0.385   1.713  11.188 -0.0410 -0.4071 -1.5043
 8736SOL     OW37666   3.950   1.214   2.595  0.1316 -0.3749 -0.0643
 8736SOL    HW137667   3.951   1.307   2.616  0.8619 -0.4862  0.4035
 8736SOL    HW237668   3.916   1.204   2.506 -1.0351  0.4417  0.2952
 8737SOL     OW37669   3.013   2.702  16.026  0.2469 -0.2515  1.0469
 8737SOL    HW137670   3.049   2.786  16.053 -1.1691  1.2871 -1.8867
 8737SOL    HW237671   2.977   2.723  15.940  0.3567 -0.1991  1.0138
 8738SOL     OW37672   0.822   2.952  11.181  0.0473  0.5347  0.2030
 8738SOL    HW137673   0.829   3.025  11.120  2.3516  2.4025  2.7169
 8738SOL    HW237674   0.739   2.980  11.219  1.2329  1.8280  1.8432
 8739SOL     OW37675   4.220   2.354   5.478 -0.3382 -0.3095  0.6376
 8739SOL    HW137676   4.284   2.424   5.468  0.1993 -0.9740 -0.6169
 8739SOL    HW237677   4.154   2.401   5.426 -0.8627  0.3651  1.9269
 8740SOL     OW37678   4.391   3.196   9.984  0.1773 -0.2797  0.1182
 8740SOL    HW137679   4.383   3.124  10.047 -3.3583  0.9321  1.0707
 8740SOL    HW237680   4.409   3.267  10.045  0.6979  0.1503 -0.5400
 8741SOL     OW37681   3.927   2.262  11.754 -0.1133 -0.0656  0.4851
 8741SOL    HW137682   3.985   2.225  11.822  0.6353 -1.7387 -1.0528
 8741SOL    HW237683   3.984   2.245  11.679  2.2176  1.3866  1.9215
 8742SOL     OW37684   3.610   4.643   8.737  0.7364  0.2552  0.6792
 8742SOL    HW137685   3.601   4.626   8.831 -0.0800  0.7309  0.6854
 8742SOL    HW237686   3.689   4.596   8.709  0.8496  1.0056 -0.2589
 8743SOL     OW37687   3.215   3.224   3.053 -0.0088  0.4969  0.4749
 8743SOL    HW137688   3.285   3.167   3.019 -1.6585  0.6675 -3.2127
 8743SOL    HW237689   3.258   3.258   3.131  0.6887 -0.4067  0.4908
 8744SOL     OW37690   2.369   3.662   5.977  0.2695 -0.4375  0.0857
 8744SOL    HW137691   2.361   3.755   5.959  0.3245 -0.4680 -0.0942
 8744SOL    HW237692   2.457   3.669   6.013  0.4579  0.1061 -0.4793
 8745SOL     OW37693   3.736   1.056  16.821  0.4246 -0.2506  0.4613
 8745SOL    HW137694   3.671   1.011  16.767  0.2687  0.2531  0.2280
 8745SOL    HW237695   3.746   0.984  16.883 -0.0967  0.0554  0.9004
 8746SOL     OW37696   2.286   1.003  13.437  0.1761  0.1727  0.7683
 8746SOL    HW137697   2.309   0.954  13.517  0.6566  0.6234  0.9030
 8746SOL    HW237698   2.334   0.959  13.367  0.3314  0.5199  0.6618
 8747SOL     OW37699   1.028   1.161   3.293 -0.3238  0.2405  0.6225
 8747SOL    HW137700   1.121   1.180   3.304 -0.2518  1.3135 -1.7733
 8747SOL    HW237701   0.990   1.215   3.362  1.3440  1.8508  0.2911
 8748SOL     OW37702   2.110   0.616   0.209  0.1164  0.1780  0.0433
 8748SOL    HW137703   2.020   0.602   0.236  0.8766  1.8454  3.4888
 8748SOL    HW237704   2.135   0.694   0.259  0.0123  0.0926  0.2287
 8749SOL     OW37705   1.705   0.060   9.982  0.2650  0.1732  0.6836
 8749SOL    HW137706   1.658   0.102   9.910 -3.1743  0.6961  3.2484
 8749SOL    HW237707   1.796   0.079   9.958  1.0028 -1.8038  1.9574
 8750SOL     OW37708   2.474   2.307   4.053 -0.1165  0.5720  0.0368
 8750SOL    HW137709   2.431   2.281   3.972  0.8154  2.2842 -0.9953
 8750SOL    HW237710   2.461   2.401   4.061 -0.7725  0.5657 -0.9712
 8751SOL     OW37711   1.583   2.937  13.634  0.0355 -1.0132 -0.2713
 8751SOL    HW137712   1.549   2.871  13.574 -0.6330 -0.3687 -0.6118
 8751SOL    HW237713   1.676   2.915  13.629  0.3086  0.3242 -1.0822
 8752SOL     OW37714   2.206   2.414  16.162 -0.4088 -0.3237 -0.5608
 8752SOL    HW137715   2.127   2.438  16.114 -2.0099  0.7675  2.5978
 8752SOL    HW237716   2.251   2.361  16.096 -2.3872 -0.7941 -1.5443
 8753SOL     OW37717   1.021   2.197   2.625 -0.1593 -0.6947  0.0164
 8753SOL    HW137718   0.952   2.256   2.652  0.9371  0.3933  0.4593
 8753SOL    HW237719   1.017   2.219   2.532 -1.9576 -0.2700  0.2059
 8754SOL     OW37720   4.503   2.683  11.756  0.5271  0.5307  0.0367
 8754SOL    HW137721   4.542   2.650  11.675 -0.4448  1.7268 -0.9011
 8754SOL    HW237722   4.417   2.640  11.755  0.4270  0.7586 -0.8820
 8755SOL     OW37723   1.124   3.868   6.988 -0.4625 -0.3450 -0.4116
 8755SOL    HW137724   1.159   3.956   6.977 -2.4254  0.7935  2.3839
 8755SOL    HW237725   1.097   3.853   6.898 -0.2925  2.0382 -0.8370
 8756SOL     OW37726   2.493   0.506  10.139  0.4215  0.2631  0.3350
 8756SOL    HW137727   2.582   0.501  10.174  0.8429  0.4474 -0.6922
 8756SOL    HW237728   2.457   0.560  10.209 -0.5901  1.0123 -0.7567
 8757SOL     OW37729   3.040   3.132   7.388  0.4516 -0.2656 -0.7011
 8757SOL    HW137730   3.010   3.176   7.468  2.4966  2.6962 -1.5575
 8757SOL    HW237731   3.132   3.131   7.415  0.1960 -1.2820  0.1008
 8758SOL     OW37732   4.076   3.610  11.702 -0.5252 -0.5327 -0.0704
 8758SOL    HW137733   4.144   3.636  11.640 -1.4816 -2.3894 -1.9045
 8758SOL    HW237734   4.132   3.607  11.780  1.3260 -0.3872 -1.3970
 8759SOL     OW37735   2.618   3.682  14.686 -0.0846  0.0304 -0.0026
 8759SOL    HW137736   2.668   3.708  14.609  1.8022  1.2529  1.6349
 8759SOL    HW237737   2.647   3.754  14.741 -0.3247  1.5721 -1.9075
 8760SOL     OW37738   3.670   4.583   3.153 -0.2536  0.2729 -0.4808
 8760SOL    HW137739   3.637   4.658   3.203  0.5484 -0.5435  1.2779
 8760SOL    HW237740   3.621   4.594   3.072 -3.5695  1.1155  1.6237
 8761SOL     OW37741   0.749   0.553   7.181  0.0795  0.0564 -0.1248
 8761SOL    HW137742   0.770   0.469   7.221 -1.7596  0.1006  0.9257
 8761SOL    HW237743   0.791   0.610   7.245  1.8705 -2.7419  1.1893
 8762SOL     OW37744   1.164   3.002  11.622  0.0121  0.1476 -0.4942
 8762SOL    HW137745   1.070   3.016  11.609 -0.1487 -0.7353 -0.2554
 8762SOL    HW237746   1.201   3.027  11.537 -4.0992 -0.4743 -2.4637
 8763SOL     OW37747   3.271   2.151   7.499  0.2365  0.0251  0.3093
 8763SOL    HW137748   3.328   2.175   7.426 -1.7497  1.8339 -0.6401
 8763SOL    HW237749   3.293   2.212   7.569  1.7311  1.6903 -1.6161
 8764SOL     OW37750   4.509   0.379  17.260 -0.0490  0.4816 -0.1136
 8764SOL    HW137751   4.433   0.331  17.226 -0.3399  0.4719  0.5440
 8764SOL    HW237752   4.559   0.309  17.303  0.5259 -0.1511 -1.8001
 8765SOL     OW37753   0.707   4.060  10.852  0.2568 -0.6567  0.3234
 8765SOL    HW137754   0.773   3.991  10.854  0.9892  0.0950  1.7228
 8765SOL    HW237755   0.709   4.083  10.944 -0.3299 -0.2177  0.2267
 8766SOL     OW37756   0.099   1.697   1.150  0.0088  0.2047 -0.2794
 8766SOL    HW137757   0.192   1.681   1.141 -0.2862  0.5743 -4.1053
 8766SOL    HW237758   0.095   1.777   1.097  0.9113 -0.6860 -1.6675
 8767SOL     OW37759   2.128   2.016   5.476  0.0950 -0.3632 -0.2352
 8767SOL    HW137760   2.139   1.943   5.536 -0.4883 -2.0570 -2.1968
 8767SOL    HW237761   2.037   2.037   5.500  0.1991 -0.1393 -0.0362
 8768SOL     OW37762   1.242   1.789   0.780  0.0655 -0.2509 -0.0623
 8768SOL    HW137763   1.292   1.869   0.792  0.7692 -0.5631 -0.9520
 8768SOL    HW237764   1.276   1.734   0.851  0.7398  2.0427  1.3788
 8769SOL     OW37765   4.283   4.327   8.481 -0.5820 -0.3070 -0.2708
 8769SOL    HW137766   4.230   4.394   8.524 -0.1657 -0.7231  0.8862
 8769SOL    HW237767   4.368   4.372   8.474 -0.2457 -0.6838  1.4652
 8770SOL     OW37768   0.185   3.199   7.431 -0.6731  0.3912  0.3377
 8770SOL    HW137769   0.211   3.189   7.339  1.2591  1.7414  0.7299
 8770SOL    HW237770   0.265   3.168   7.475  0.6572  3.6475  0.2137
 8771SOL     OW37771   4.361   4.039   9.827 -0.5107 -0.2519  0.0161
 8771SOL    HW137772   4.448   4.001   9.831  0.0794  1.2402  1.2420
 8771SOL    HW237773   4.314   3.968   9.784 -2.1365  0.5683  0.4198
 8772SOL     OW37774   4.356   3.005  16.189  0.1555 -0.1420  0.0836
 8772SOL    HW137775   4.435   3.047  16.157 -0.5387  0.6028 -0.6482
 8772SOL    HW237776   4.396   2.927  16.226 -0.1514 -1.1061 -1.5790
 8773SOL     OW37777   1.372   2.216   9.152  0.1969 -0.0039 -0.3876
 8773SOL    HW137778   1.452   2.169   9.177 -0.2426 -0.6416 -0.1710
 8773SOL    HW237779   1.316   2.146   9.187 -1.3089  1.1281 -0.5423
 8774SOL     OW37780   4.165   0.318   9.038  0.7438  0.4303 -0.4118
 8774SOL    HW137781   4.092   0.272   9.081  1.7611 -0.2218  0.6039
 8774SOL    HW237782   4.240   0.260   9.045 -0.2280 -0.7766  0.1534
 8775SOL     OW37783   1.530   0.339  14.738 -0.2956  0.5582  0.4168
 8775SOL    HW137784   1.477   0.413  14.768 -0.0438  0.4801  1.0557
 8775SOL    HW237785   1.595   0.337  14.808 -1.0939 -1.5207  1.0786
 8776SOL     OW37786   1.809   3.252  15.465  0.1321 -0.1049 -0.0422
 8776SOL    HW137787   1.780   3.339  15.492  0.0629  0.1855 -1.0414
 8776SOL    HW237788   1.797   3.258  15.370  0.5092  1.1458 -0.0052
 8777SOL     OW37789   0.491   1.438   9.665  0.1413 -0.2316  0.1749
 8777SOL    HW137790   0.538   1.357   9.683 -0.6063 -0.7567 -0.2030
 8777SOL    HW237791   0.443   1.436   9.748 -0.2889 -0.5068 -0.0791
 8778SOL     OW37792   2.159   1.674   8.842  0.3114 -0.1721  0.0911
 8778SOL    HW137793   2.220   1.747   8.830  2.0051 -1.6460 -0.2587
 8778SOL    HW237794   2.094   1.717   8.898  0.0969 -0.2445 -0.1032
 8779SOL     OW37795   3.161   0.239   6.831  0.3017 -0.4907  0.4840
 8779SOL    HW137796   3.148   0.162   6.886 -2.3056  1.2263  2.2599
 8779SOL    HW237797   3.234   0.217   6.773  1.2065  3.0024  0.2889
 8780SOL     OW37798   0.497   3.610   6.002 -0.3701  0.4830 -0.8490
 8780SOL    HW137799   0.424   3.589   5.945  0.9718 -2.8583 -1.3131
 8780SOL    HW237800   0.471   3.698   6.030 -1.4421 -0.7378  2.0943
 8781SOL     OW37801   3.523   0.862  11.805  0.2105 -0.8250 -0.2415
 8781SOL    HW137802   3.569   0.803  11.865  0.6874  0.8656  1.0750
 8781SOL    HW237803   3.551   0.827  11.720  2.7132 -0.3742  0.3716
 8782SOL     OW37804   0.473   4.616  13.558 -0.3960 -0.0361 -0.5893
 8782SOL    HW137805   0.458   4.523  13.571 -0.7219  0.5480  3.0718
 8782SOL    HW237806   0.561   4.604  13.521 -0.0485 -0.2524  0.3168
 8783SOL     OW37807   4.574   2.955  10.195  0.1250  0.8135  0.5111
 8783SOL    HW137808   4.548   2.937  10.286 -1.3639 -1.3102 -0.3219
 8783SOL    HW237809   4.493   2.953  10.144 -0.6698 -1.0792  1.8367
 8784SOL     OW37810   3.404   2.117  11.917  0.3637  1.0443  0.1816
 8784SOL    HW137811   3.335   2.108  11.850  2.6214 -1.5304 -1.7966
 8784SOL    HW237812   3.483   2.145  11.871  0.5527  0.8816  0.4100
 8785SOL     OW37813   3.753   2.565  14.676 -0.2742 -0.2898  0.3402
 8785SOL    HW137814   3.726   2.636  14.617 -0.1079 -0.5956 -0.1078
 8785SOL    HW237815   3.846   2.577  14.658 -0.1679  0.2333  1.2551
 8786SOL     OW37816   3.465   0.550  15.112 -0.2235  0.2267 -0.6023
 8786SOL    HW137817   3.424   0.465  15.126 -2.8916  1.9358  2.0001
 8786SOL    HW237818   3.438   0.567  15.021  2.2212  0.1203 -1.3436
 8787SOL     OW37819   0.167   0.497   5.449 -0.1331 -0.3545 -0.3164
 8787SOL    HW137820   0.093   0.437   5.446 -0.3128 -0.2988  2.6486
 8787SOL    HW237821   0.197   0.477   5.538 -3.3182  1.0493  1.0529
 8788SOL     OW37822   1.557   1.268   4.917  0.2272 -0.1927  0.0722
 8788SOL    HW137823   1.640   1.225   4.934  0.2763 -1.2044 -2.8103
 8788SOL    HW237824   1.578   1.354   4.881  0.4797  0.2150  1.2039
 8789SOL     OW37825   3.871   0.662  14.318 -0.1728 -0.1952 -0.0163
 8789SOL    HW137826   3.953   0.622  14.347  0.7400  1.0058 -0.9749
 8789SOL    HW237827   3.815   0.585  14.313  0.7202 -1.0357  2.8002
 8790SOL     OW37828   4.493   0.479  12.344  0.0007  0.7669  0.5131
 8790SOL    HW137829   4.460   0.550  12.398 -2.0641 -1.3266  2.0273
 8790SOL    HW237830   4.485   0.412  12.412 -2.1080  1.7493  1.2310
 8791SOL     OW37831   0.124   0.603  17.418  0.2213 -0.3830 -0.0548
 8791SOL    HW137832   0.158   0.678  17.369 -1.3779  0.9201  0.8703
 8791SOL    HW237833   0.033   0.633  17.418  0.2847 -0.1713 -2.6336
 8792SOL     OW37834   3.048   3.921   8.432  0.1170 -0.3459 -0.4902
 8792SOL    HW137835   3.141   3.907   8.450 -0.9492 -2.3229  3.4387
 8792SOL    HW237836   3.025   3.847   8.488  0.1080 -0.9502 -1.3058
 8793SOL     OW37837   2.872   3.186   5.756 -0.0719 -0.6784  0.9030
 8793SOL    HW137838   2.911   3.270   5.734 -0.7945 -0.5761  0.0356
 8793SOL    HW237839   2.950   3.135   5.778 -0.4623 -2.3341 -1.5519
 8794SOL     OW37840   2.470   4.135   6.102  0.6583  0.3867 -0.0947
 8794SOL    HW137841   2.468   4.040   6.112 -1.9542  0.3637 -0.8636
 8794SOL    HW237842   2.492   4.158   6.192  0.4994 -3.6482  0.9361
 8795SOL     OW37843   2.537   3.209   8.800  0.3118  0.2881  0.0613
 8795SOL    HW137844   2.562   3.175   8.714  1.0421  0.1097  0.3413
 8795SOL    HW237845   2.446   3.182   8.808  0.7279 -1.4052 -0.9766
 8796SOL     OW37846   1.074   0.773   2.366  0.6766  0.5715 -0.8957
 8796SOL    HW137847   1.153   0.741   2.410  0.0154 -1.5870 -1.2844
 8796SOL    HW237848   1.023   0.694   2.350 -0.1435  1.1070 -0.9286
 8797SOL     OW37849   3.794   3.997  16.718  0.5899  0.2394  0.1153
 8797SOL    HW137850   3.701   3.980  16.702  0.5681  0.0640  0.4243
 8797SOL    HW237851   3.827   3.962  16.636 -0.6164 -0.2936 -0.1422
 8798SOL     OW37852   0.656   4.628   6.814 -0.4200 -0.0058  0.6306
 8798SOL    HW137853   0.635   4.717   6.784 -1.1097  0.0357  1.2418
 8798SOL    HW237854   0.683   4.628   6.905 -1.5552  2.2665  0.9648
 8799SOL     OW37855   0.007   2.695   3.767 -0.2099  0.4745  0.0359
 8799SOL    HW137856   4.663   2.628   3.788  0.2805 -0.4452 -1.3818
 8799SOL    HW237857   4.678   2.777   3.770 -0.2364  0.4067  1.3292
 8800SOL     OW37858   2.769   4.521   1.385 -0.4334 -0.1948  0.7912
 8800SOL    HW137859   2.816   4.472   1.318 -0.4175  0.2835  0.4585
 8800SOL    HW237860   2.737   4.592   1.329  0.9826  0.0306  0.2839
 8801SOL     OW37861   3.085   1.899  12.750 -0.9150 -0.3822  0.2220
 8801SOL    HW137862   3.160   1.946  12.712 -0.8167 -1.1827 -0.5674
 8801SOL    HW237863   3.083   1.825  12.690  0.3748  0.2427 -0.5998
 8802SOL     OW37864   1.145   0.540   4.979 -0.2857  0.0030  0.1586
 8802SOL    HW137865   1.101   0.455   4.986 -0.3622  0.2878  3.1472
 8802SOL    HW237866   1.154   0.567   5.070  1.1473  0.5956 -0.1486
 8803SOL     OW37867   2.262   1.434   6.930 -0.2235  0.5207 -0.1795
 8803SOL    HW137868   2.289   1.500   6.992  0.8588  1.4015 -1.6000
 8803SOL    HW237869   2.169   1.456   6.925  0.0022  1.4828 -0.1013
 8804SOL     OW37870   4.677   1.577   6.804  0.1548  0.1066  0.5176
 8804SOL    HW137871   4.693   1.554   6.895  0.8477 -0.1902  0.3256
 8804SOL    HW237872   0.026   1.536   6.753 -1.2193 -2.1250  0.4139
 8805SOL     OW37873   1.553   2.029   9.264 -0.3428 -0.2821  0.2671
 8805SOL    HW137874   1.636   2.013   9.308  0.8129  0.2542 -1.7529
 8805SOL    HW237875   1.487   2.007   9.331 -0.3733 -1.6165 -0.1903
 8806SOL     OW37876   1.159   4.671   0.722 -0.2477  0.1056 -0.2138
 8806SOL    HW137877   1.160   4.630   0.809  1.4373 -0.5344 -0.5211
 8806SOL    HW237878   1.133   0.040   0.742 -1.3681 -0.4091  0.6167
 8807SOL     OW37879   0.838   1.029   0.696 -0.6983 -0.1466  0.5022
 8807SOL    HW137880   0.760   1.047   0.643 -0.0900  1.1901  0.0505
 8807SOL    HW237881   0.903   1.079   0.646 -1.6226 -0.0566 -0.6126
 8808SOL     OW37882   1.248   2.527   1.598 -0.3077 -0.4718 -0.2144
 8808SOL    HW137883   1.313   2.595   1.581  0.0100 -0.7188  0.0379
 8808SOL    HW237884   1.169   2.567   1.634  0.1137  1.1122 -1.0497
 8809SOL     OW37885   2.282   3.785  12.008  0.1109 -0.5476  0.7539
 8809SOL    HW137886   2.220   3.712  12.013 -0.4577 -0.0491  1.0506
 8809SOL    HW237887   2.255   3.844  12.078  0.8945  0.4744  0.1859
 8810SOL     OW37888   1.200   1.624   7.589  0.1233  0.0621  0.1326
 8810SOL    HW137889   1.134   1.681   7.548  0.4952  1.7866  1.9189
 8810SOL    HW237890   1.149   1.602   7.668  1.3903 -1.5553  0.4945
 8811SOL     OW37891   4.614   0.063   0.035 -0.8000  0.4346  0.5152
 8811SOL    HW137892   4.613   4.694   0.001 -1.6881  0.6182  0.0623
 8811SOL    HW237893   4.636   0.061   0.128  0.0978 -0.6006  0.2962
 8812SOL     OW37894   1.028   2.297   3.381 -0.0868 -0.2780  0.9427
 8812SOL    HW137895   1.021   2.244   3.460  0.6310 -1.4121  0.2581
 8812SOL    HW237896   1.123   2.294   3.373 -0.0594  3.1174  0.1485
 8813SOL     OW37897   4.048   3.942   7.026 -0.3558  0.2433 -0.4280
 8813SOL    HW137898   4.028   4.027   7.065  0.5380 -0.9548  2.5873
 8813SOL    HW237899   3.992   3.885   7.079  0.4526  0.1308  0.2971
 8814SOL     OW37900   0.251   2.107   5.441 -0.0090  0.2396 -0.1364
 8814SOL    HW137901   0.209   2.176   5.390 -1.8200  0.3670  1.5638
 8814SOL    HW237902   0.207   2.039   5.390 -1.4881  1.1157 -0.0357
 8815SOL     OW37903   3.261   3.023   5.528 -0.3330 -0.6499  0.1456
 8815SOL    HW137904   3.342   3.012   5.477 -1.7403 -0.5559 -2.1020
 8815SOL    HW237905   3.268   2.951   5.591  0.6422  0.6225  1.4856
 8816SOL     OW37906   1.933   1.547   4.449  0.8389 -0.2205 -0.1573
 8816SOL    HW137907   1.841   1.536   4.425  0.7723  0.5518 -0.2675
 8816SOL    HW237908   1.950   1.641   4.460  1.2777 -0.5841  2.1245
 8817SOL     OW37909   1.105   1.508   4.094 -0.2497 -0.3705 -0.2167
 8817SOL    HW137910   1.170   1.567   4.055 -1.9537  1.6887  0.0650
 8817SOL    HW237911   1.018   1.526   4.060 -1.3258 -0.3254  2.5540
 8818SOL     OW37912   3.055   2.795   8.284 -0.0734  0.2808 -0.6768
 8818SOL    HW137913   2.998   2.859   8.328 -0.9868 -1.6947  0.9987
 8818SOL    HW237914   3.058   2.720   8.344  2.2068 -0.7025 -2.0406
 8819SOL     OW37915   0.874   3.022   7.687  0.7546  0.1902  0.0224
 8819SOL    HW137916   0.810   2.962   7.726  1.1427  0.7206  1.4829
 8819SOL    HW237917   0.877   3.090   7.755 -1.6171  0.2417  0.0986
 8820SOL     OW37918   0.205   1.728   3.416  0.1401  0.4046 -0.0245
 8820SOL    HW137919   0.228   1.817   3.443 -0.9509  0.6820 -0.0244
 8820SOL    HW237920   0.118   1.755   3.389 -0.6014 -3.8433 -1.8938
 8821SOL     OW37921   0.347   3.362  11.344  0.4192 -0.9491 -0.3834
 8821SOL    HW137922   0.433   3.384  11.379  0.9005 -2.0882 -0.8636
 8821SOL    HW237923   0.302   3.315  11.414 -2.8747  1.0374 -1.1894
 8822SOL     OW37924   0.462   0.606   5.683  0.5224 -0.2312  0.2229
 8822SOL    HW137925   0.388   0.547   5.666 -0.7604  1.0663  1.2683
 8822SOL    HW237926   0.500   0.576   5.766  1.0958 -0.1117  0.0032
 8823SOL     OW37927   4.653   0.827   1.039  0.1451 -0.3569  0.4258
 8823SOL    HW137928   4.672   0.844   0.947  0.5742 -1.9410  0.2332
 8823SOL    HW237929   4.558   0.835   1.049 -0.0932 -2.9581  0.2886
 8824SOL     OW37930   0.788   2.949   1.371 -0.2041  0.2869 -0.8960
 8824SOL    HW137931   0.716   2.988   1.421 -0.9900 -0.8406 -1.1649
 8824SOL    HW237932   0.802   3.032   1.325 -0.3611  0.0426 -1.3872
 8825SOL     OW37933   4.580   3.297   6.578  0.0908 -0.5555  0.1054
 8825SOL    HW137934   4.569   3.283   6.672  0.0456  0.2488  0.2173
 8825SOL    HW237935   4.666   3.338   6.578  0.3077 -1.0186 -1.0781
 8826SOL     OW37936   2.747   3.431   8.750 -0.3756 -0.0052  0.1756
 8826SOL    HW137937   2.765   3.368   8.820 -1.3939 -1.3996 -0.8042
 8826SOL    HW237938   2.743   3.371   8.676  0.3335 -0.5464  0.5859
 8827SOL     OW37939   2.171   0.202   7.479 -0.2532 -0.5263  0.4024
 8827SOL    HW137940   2.133   0.189   7.566 -1.2622 -1.6132 -0.2026
 8827SOL    HW237941   2.229   0.126   7.476  1.2145  0.5655  0.8475
 8828SOL     OW37942   3.027   3.544   5.104 -1.2111 -0.0433 -0.0899
 8828SOL    HW137943   2.943   3.499   5.105 -1.3719  0.2736  0.3991
 8828SOL    HW237944   3.036   3.570   5.195 -0.1815  1.4831 -0.6180
 8829SOL     OW37945   2.776   1.878   6.746 -0.4347  0.2174  0.3403
 8829SOL    HW137946   2.689   1.916   6.761 -0.5344 -0.1180  0.6172
 8829SOL    HW237947   2.832   1.944   6.706 -0.3980  1.7391  2.9414
 8830SOL     OW37948   0.241   0.980   6.023  0.0098  0.4538 -0.4384
 8830SOL    HW137949   0.231   0.933   5.940  1.4687  0.4424 -0.5996
 8830SOL    HW237950   0.281   1.061   5.992 -0.1445  0.3539 -0.8902
 8831SOL     OW37951   0.040   1.789   7.065  0.2794 -0.4583  0.6919
 8831SOL    HW137952   0.100   1.720   7.036 -0.9997 -1.1397 -0.3595
 8831SOL    HW237953   4.697   1.730   7.105 -1.0073  1.3351  1.2902
 8832SOL     OW37954   0.051   1.403   3.115 -0.1819 -0.0199 -0.8339
 8832SOL    HW137955   0.145   1.389   3.130  0.0739  2.0466 -0.4543
 8832SOL    HW237956   0.027   1.456   3.191 -1.3679  0.3236 -1.4522
 8833SOL     OW37957   3.423   3.028   5.832  0.3158  0.6432 -0.5086
 8833SOL    HW137958   3.493   3.079   5.793  0.2605  2.4390  1.7293
 8833SOL    HW237959   3.458   3.041   5.920 -0.8024  1.1281 -0.1350
 8834SOL     OW37960   1.453   2.094  12.226  0.1452  0.0799  0.0880
 8834SOL    HW137961   1.369   2.064  12.260 -0.3411 -0.3205 -1.4521
 8834SOL    HW237962   1.455   2.024  12.160  0.5503 -1.4131  1.6890
 8835SOL     OW37963   0.748   3.092   2.437 -0.1397  0.1020 -0.1199
 8835SOL    HW137964   0.700   3.108   2.518  1.2020  0.0212  0.6894
 8835SOL    HW237965   0.781   3.003   2.443 -2.3751 -0.7531 -0.5097
 8836SOL     OW37966   2.151   2.045   4.476  0.1031 -0.4656 -0.1750
 8836SOL    HW137967   2.244   2.044   4.456 -0.3780  0.1157 -2.4583
 8836SOL    HW237968   2.150   2.104   4.551 -1.6882 -0.7561  0.0362
 8837SOL     OW37969   0.981   3.073   4.230  0.1836 -0.1263 -0.3925
 8837SOL    HW137970   0.985   3.133   4.305 -0.5572 -0.2798 -0.2304
 8837SOL    HW237971   1.046   3.103   4.168 -0.0553 -0.4561 -0.8003
 8838SOL     OW37972   2.528   3.869   8.904 -0.6159 -0.5224 -0.2531
 8838SOL    HW137973   2.447   3.918   8.887 -2.5039 -4.0488 -1.5467
 8838SOL    HW237974   2.510   3.854   8.997  0.2244 -2.2064 -0.3622
 8839SOL     OW37975   2.152   1.593   2.426  0.3625 -0.1735  0.1578
 8839SOL    HW137976   2.228   1.543   2.398  0.7082  0.5476 -0.1868
 8839SOL    HW237977   2.099   1.573   2.349 -0.8573 -0.6116  1.0962
 8840SOL     OW37978   3.634   4.250   6.936  0.0297  0.2162  0.1538
 8840SOL    HW137979   3.658   4.328   6.885 -0.8354  0.3782 -0.0169
 8840SOL    HW237980   3.716   4.203   6.946  0.5742  0.9763 -0.6216
 8841SOL     OW37981   2.592   3.141  11.003 -0.3476  0.4108 -0.3954
 8841SOL    HW137982   2.532   3.104  11.068  0.3541  0.0230  0.0368
 8841SOL    HW237983   2.583   3.070  10.939  2.9517  1.2797 -1.7758
 8842SOL     OW37984   2.612   3.733   3.788 -0.0625 -0.3996 -0.1486
 8842SOL    HW137985   2.537   3.745   3.729 -0.7438  1.3140  1.0451
 8842SOL    HW237986   2.595   3.795   3.860 -2.9884  1.1400 -2.1604
 8843SOL     OW37987   2.699   2.326  17.487  0.1078  0.2362 -0.5319
 8843SOL    HW137988   2.709   2.406  17.436 -0.3548  1.3469  1.1000
 8843SOL    HW237989   2.791   2.314  17.513  0.2530  0.1440 -1.1028
 8844SOL     OW37990   4.451   4.182  15.103  0.6375  0.2931  0.0680
 8844SOL    HW137991   4.426   4.201  15.194 -0.8349 -0.7656 -0.1041
 8844SOL    HW237992   4.546   4.189  15.108  0.8819 -2.6253 -0.9341
 8845SOL     OW37993   3.768   3.117  15.918  0.0555 -0.0084 -0.4741
 8845SOL    HW137994   3.772   3.061  15.996 -0.6213 -1.0941 -1.2139
 8845SOL    HW237995   3.674   3.132  15.910  0.1577  1.0053  0.2680
 8846SOL     OW37996   2.460   2.071   9.052 -0.0831  0.2933  0.0367
 8846SOL    HW137997   2.420   2.157   9.064 -0.5905 -0.0361  0.7219
 8846SOL    HW237998   2.498   2.090   8.966 -0.4506  1.4318  0.1238
 8847SOL     OW37999   2.830   1.021   4.200  0.5921  0.5051  0.0355
 8847SOL    HW138000   2.789   0.984   4.123  2.0264  1.7731 -1.3420
 8847SOL    HW238001   2.809   1.114   4.190  0.3153  0.3035 -1.1719
 8848SOL     OW38002   2.446   0.082   6.418 -0.2858 -0.0229 -1.0687
 8848SOL    HW138003   2.507   0.089   6.492 -0.1334  2.2847 -1.4012
 8848SOL    HW238004   2.438   4.708   6.416  1.5361 -0.1691 -1.4041
 8849SOL     OW38005   3.243   4.345   9.323 -0.3545  0.3912  0.0132
 8849SOL    HW138006   3.281   4.323   9.408  0.8637 -0.5894 -0.7927
 8849SOL    HW238007   3.225   4.264   9.275  0.9659 -0.0514  0.2750
 8850SOL     OW38008   0.843   3.661   9.430 -0.2617 -0.1458 -0.5401
 8850SOL    HW138009   0.890   3.648   9.512 -1.8876 -2.8892 -0.0494
 8850SOL    HW238010   0.816   3.572   9.407 -1.5780  0.0722  0.1381
 8851SOL     OW38011   0.446   2.941   0.958 -0.0227 -0.3376  0.1487
 8851SOL    HW138012   0.460   2.992   0.878 -0.7158 -0.8987 -0.3256
 8851SOL    HW238013   0.351   2.953   0.957 -0.1465 -1.4850 -0.6282
 8852SOL     OW38014   1.059   3.331   0.430  0.6593 -0.3292 -0.2724
 8852SOL    HW138015   1.119   3.274   0.381 -0.5879 -1.8300 -0.0624
 8852SOL    HW238016   1.097   3.336   0.518  1.0254  1.9524 -0.5553
 8853SOL     OW38017   3.926   1.447   5.062  0.5853  0.8478  0.0854
 8853SOL    HW138018   3.831   1.438   5.073  0.1630  4.4682 -0.6026
 8853SOL    HW238019   3.956   1.444   5.153  0.4227  1.4422  0.1605
 8854SOL     OW38020   3.452   2.747   4.079  0.1700 -0.2412  0.2668
 8854SOL    HW138021   3.491   2.806   4.014  0.7426  0.5710  1.3373
 8854SOL    HW238022   3.487   2.665   4.046  2.4836  0.7470  0.2552
 8855SOL     OW38023   3.880   1.714   7.596 -0.8242  0.5387  0.3319
 8855SOL    HW138024   3.945   1.749   7.534 -1.8839  1.3393 -0.3424
 8855SOL    HW238025   3.929   1.657   7.655 -0.6632 -0.0893 -0.4052
 8856SOL     OW38026   3.259   3.562   0.656  0.4418 -0.4204 -0.6376
 8856SOL    HW138027   3.165   3.544   0.653 -0.0130  1.7905  0.5291
 8856SOL    HW238028   3.274   3.587   0.565  1.4675 -4.1251 -1.4864
 8857SOL     OW38029   2.991   2.761   1.570 -0.1234  0.2050  0.3951
 8857SOL    HW138030   3.050   2.688   1.551  0.8230  1.3552 -1.0337
 8857SOL    HW238031   3.033   2.833   1.522  0.6982 -0.1797  0.5359
 8858SOL     OW38032   4.295   1.191   6.331  0.3520 -0.0871 -0.1464
 8858SOL    HW138033   4.292   1.095   6.333 -0.1589 -0.1042 -2.0726
 8858SOL    HW238034   4.389   1.208   6.340  0.7818 -1.8910 -1.1169
 8859SOL     OW38035   0.461   4.485   2.089  0.3463 -0.2522  0.1361
 8859SOL    HW138036   0.522   4.547   2.129 -0.4701 -0.5322  1.8339
 8859SOL    HW238037   0.490   4.399   2.119 -0.8598 -0.6685  0.1115
 8860SOL     OW38038   2.717   3.939  13.990 -0.2070  0.0276 -0.4190
 8860SOL    HW138039   2.650   3.926  13.924  0.5418  0.6069 -1.2820
 8860SOL    HW238040   2.705   3.867  14.053 -2.1729  0.1200 -0.6837
 8861SOL     OW38041   0.086   0.114  11.633  0.2962 -0.5216  0.1622
 8861SOL    HW138042   0.162   0.093  11.579 -1.6996 -2.3459 -1.9645
 8861SOL    HW238043   0.013   0.123  11.572  1.3994 -1.2308 -1.2457
 8862SOL     OW38044   0.343   1.350   1.344  0.8941  0.4597  0.3950
 8862SOL    HW138045   0.429   1.325   1.311  1.4281  1.8321  0.7192
 8862SOL    HW238046   0.330   1.286   1.414 -2.3205  0.1556 -0.5065
 8863SOL     OW38047   3.759   4.242   7.629  0.0999  0.0294  0.4940
 8863SOL    HW138048   3.812   4.171   7.666  1.8449 -1.3339 -4.6538
 8863SOL    HW238049   3.767   4.292   7.710  2.2347 -0.7628  0.7639
 8864SOL     OW38050   4.490   0.425  13.272 -0.0627 -0.3475  0.2514
 8864SOL    HW138051   4.420   0.390  13.216 -0.9471 -0.7431  1.5975
 8864SOL    HW238052   4.531   0.340  13.289  0.0497 -0.4948 -0.7503
 8865SOL     OW38053   1.021   4.584  14.938  0.5355 -0.2545  0.0338
 8865SOL    HW138054   0.937   4.538  14.936  1.7764 -2.5794  1.6071
 8865SOL    HW238055   1.005   4.637  15.016 -1.6608  0.3504 -0.8146
 8866SOL     OW38056   4.201   1.994  16.644 -1.0433 -0.6236 -0.1545
 8866SOL    HW138057   4.171   2.074  16.687 -0.2713  0.0542 -0.9102
 8866SOL    HW238058   4.123   1.960  16.599 -2.2948  0.1833  1.4094
 8867SOL     OW38059   0.272   3.663   0.779  0.5564 -0.9002  0.1369
 8867SOL    HW138060   0.271   3.568   0.766 -0.4396 -0.6552 -1.5033
 8867SOL    HW238061   0.213   3.678   0.705  0.4846  2.1807  0.8267
 8868SOL     OW38062   4.614   3.334   8.039  0.1684  0.4976  0.2026
 8868SOL    HW138063   4.644   3.423   8.020  0.1949  0.1036 -1.5150
 8868SOL    HW238064   4.569   3.338   8.124 -1.7201  4.1239 -0.9599
 8869SOL     OW38065   0.565   0.537   2.448  0.2338  0.1640 -0.4289
 8869SOL    HW138066   0.486   0.563   2.399 -0.7259 -0.1353  0.9511
 8869SOL    HW238067   0.540   0.463   2.503  0.0242 -0.0035 -0.7469
 8870SOL     OW38068   2.412   0.425  16.926  0.5832 -0.4760 -0.2083
 8870SOL    HW138069   2.397   0.381  16.842  1.1898  0.5404 -0.8593
 8870SOL    HW238070   2.336   0.400  16.977 -0.7978 -0.2230 -2.1408
 8871SOL     OW38071   0.550   3.476   2.664 -0.4287  0.0151 -0.0853
 8871SOL    HW138072   0.616   3.545   2.654  1.4524 -1.8260 -0.4013
 8871SOL    HW238073   0.466   3.522   2.671  0.1991  0.8413  1.9807
 8872SOL     OW38074   4.248   0.418   4.664 -0.7109 -0.5727  0.1959
 8872SOL    HW138075   4.320   0.361   4.692 -1.0478 -1.8308 -1.4468
 8872SOL    HW238076   4.203   0.435   4.746  0.7544  1.2123  0.6334
 8873SOL     OW38077   3.012   1.449   6.050  0.5459  0.2931 -0.3199
 8873SOL    HW138078   2.937   1.428   5.995  3.1365 -0.9838 -3.3697
 8873SOL    HW238079   2.994   1.537   6.082 -0.6260  1.0916 -3.2070
 8874SOL     OW38080   0.559   1.914   0.983 -0.0818  0.5590 -0.3177
 8874SOL    HW138081   0.646   1.883   0.956  0.4160  1.7794 -0.0836
 8874SOL    HW238082   0.557   1.895   1.077  0.7989  0.3276 -0.3466
 8875SOL     OW38083   3.235   4.464   8.626 -0.1801 -0.3588  0.4545
 8875SOL    HW138084   3.222   4.556   8.650 -0.6347 -0.1089 -0.7126
 8875SOL    HW238085   3.151   4.450   8.581 -1.2029  1.4778  1.7800
 8876SOL     OW38086   0.991   0.780   7.122  0.1778  0.6802  0.1798
 8876SOL    HW138087   0.946   0.748   7.200 -0.1487  0.4056 -0.1191
 8876SOL    HW238088   0.924   0.836   7.081 -1.6154 -1.9264 -0.4961
 8877SOL     OW38089   3.568   0.597   2.616 -0.0755 -0.7304  0.2670
 8877SOL    HW138090   3.623   0.647   2.677  1.4404  0.0875 -1.7650
 8877SOL    HW238091   3.626   0.617   2.543 -3.3607  0.7836 -1.8877
 8878SOL     OW38092   4.388   3.534   8.780 -0.2078 -0.2357 -0.1847
 8878SOL    HW138093   4.324   3.550   8.850 -0.0411  0.4719 -0.1849
 8878SOL    HW238094   4.465   3.571   8.823 -1.2184  1.0444  0.5253
 8879SOL     OW38095   1.082   0.996   7.339 -0.2582  0.0474  0.1761
 8879SOL    HW138096   1.058   0.985   7.247 -0.0407  0.9958  0.0022
 8879SOL    HW238097   1.113   1.086   7.350 -1.2114  0.2700  1.1047
 8880SOL     OW38098   3.483   2.508   3.950  0.0279  0.4496  0.9672
 8880SOL    HW138099   3.519   2.447   4.014  4.3229  1.5513 -0.3291
 8880SOL    HW238100   3.496   2.448   3.876 -0.6477  1.5861 -0.0731
 8881SOL     OW38101   1.852   3.570   7.128  0.3328 -0.3112 -0.1507
 8881SOL    HW138102   1.926   3.548   7.184 -1.3283 -0.8224  1.8152
 8881SOL    HW238103   1.891   3.561   7.041 -1.8002 -1.3875 -0.9892
 8882SOL     OW38104   2.946   0.277  17.178  0.3219  0.5106 -0.4646
 8882SOL    HW138105   2.886   0.331  17.127  0.3495 -1.4671 -2.6194
 8882SOL    HW238106   2.950   0.337  17.252  0.9993 -0.2370  0.1123
 8883SOL     OW38107   0.788   1.437   2.658  0.1426  0.0958 -0.2203
 8883SOL    HW138108   0.859   1.492   2.624 -1.4639  0.6973 -2.5352
 8883SOL    HW238109   0.732   1.432   2.581 -1.3748  0.0455  0.8890
 8884SOL     OW38110   0.355   4.479   5.538 -0.4477  0.2604  0.2213
 8884SOL    HW138111   0.273   4.434   5.557  1.0127 -1.7554  1.9092
 8884SOL    HW238112   0.401   4.403   5.502  1.4534  0.1993  2.7107
 8885SOL     OW38113   1.816   0.974  13.479 -0.4875  0.5500  0.6477
 8885SOL    HW138114   1.886   0.982  13.414 -1.6391 -0.6033 -0.7396
 8885SOL    HW238115   1.861   0.996  13.561  0.5790 -0.7706  0.4292
 8886SOL     OW38116   2.084   2.543   8.158  0.1652 -0.5832 -0.5939
 8886SOL    HW138117   2.176   2.545   8.131  0.5692  0.0844  0.8379
 8886SOL    HW238118   2.060   2.451   8.171 -0.5267 -0.2816  0.2376
 8887SOL     OW38119   2.751   4.279   7.752 -0.1213  0.9449  0.4885
 8887SOL    HW138120   2.727   4.212   7.816  2.0343 -0.7643 -0.4675
 8887SOL    HW238121   2.845   4.264   7.742  0.2554  3.2032  0.5410
 8888SOL     OW38122   0.937   2.605   2.574  0.4903  0.5996  0.5774
 8888SOL    HW138123   1.024   2.580   2.541 -0.2904 -0.4534 -0.6764
 8888SOL    HW238124   0.933   2.694   2.538  1.1496  0.9916  1.4501
 8889SOL     OW38125   1.303   0.894   2.605 -0.5678 -0.3285 -0.1718
 8889SOL    HW138126   1.232   0.956   2.588 -0.8547 -0.1452  1.7741
 8889SOL    HW238127   1.285   0.884   2.698  0.4367  0.1243  0.0726
 8890SOL     OW38128   3.689   1.773   3.009 -0.0174  0.3463 -0.6345
 8890SOL    HW138129   3.648   1.808   3.088 -1.8867 -0.0395 -1.4327
 8890SOL    HW238130   3.683   1.847   2.948 -1.3007  2.9690  2.7237
 8891SOL     OW38131   3.596   3.041   8.628 -0.0301 -0.0372 -0.6489
 8891SOL    HW138132   3.602   3.099   8.552 -0.6784  1.3277  0.3353
 8891SOL    HW238133   3.689   3.030   8.647 -0.0771 -0.3133 -0.5725
 8892SOL     OW38134   4.488   4.610   4.964 -0.5123  0.3926  0.1700
 8892SOL    HW138135   4.432   4.556   5.020 -0.3146  0.4485  0.4209
 8892SOL    HW238136   4.485   4.550   4.890  2.0517  0.6100 -0.1066
 8893SOL     OW38137   1.893   1.802  16.769  1.0120  0.1646 -0.1470
 8893SOL    HW138138   1.851   1.877  16.727 -1.1105  0.0716  1.8005
 8893SOL    HW238139   1.985   1.826  16.765  0.6397  1.6118 -0.3574
 8894SOL     OW38140   0.071   0.744   6.371  0.1762 -0.4803 -0.4341
 8894SOL    HW138141   0.147   0.799   6.353  0.2515 -1.1194 -2.0040
 8894SOL    HW238142   0.035   0.770   6.456 -1.3645 -1.3736 -0.8052
 8895SOL     OW38143   0.260   3.415   6.347  0.3614  0.1822 -0.1038
 8895SOL    HW138144   0.228   3.449   6.430  0.6287  0.2043 -0.0095
 8895SOL    HW238145   0.354   3.413   6.363  0.0139 -0.6196  1.9180
 8896SOL     OW38146   0.752   0.569   5.147 -0.1489 -0.4954  0.5807
 8896SOL    HW138147   0.705   0.595   5.226 -0.0907 -0.8274  0.7260
 8896SOL    HW238148   0.806   0.493   5.168  1.7572  0.6791 -0.0791
 8897SOL     OW38149   1.957   2.735   5.155 -0.3669 -0.2644  0.1736
 8897SOL    HW138150   1.975   2.828   5.147 -0.2137 -0.1614  1.7145
 8897SOL    HW238151   1.942   2.725   5.249  1.6678  0.7093  0.5993
 8898SOL     OW38152   2.187   1.824  13.434  0.7773  0.3179  0.0079
 8898SOL    HW138153   2.264   1.833  13.490  0.9818  0.8314 -0.3555
 8898SOL    HW238154   2.228   1.766  13.369 -1.9053  0.0953 -1.5002
 8899SOL     OW38155   0.499   0.873   6.063  0.1378 -0.2337  0.3284
 8899SOL    HW138156   0.403   0.876   6.063  0.0211 -3.3883 -0.9322
 8899SOL    HW238157   0.527   0.963   6.076 -0.6339 -0.1654  1.4931
 8900SOL     OW38158   4.136   2.661  11.439 -0.0027  0.2781  0.4233
 8900SOL    HW138159   4.138   2.754  11.416 -2.4984 -0.3216 -2.1808
 8900SOL    HW238160   4.215   2.631  11.394  0.3602  1.5275  0.2108
 8901SOL     OW38161   1.569   3.892   3.814  0.1311  0.2481 -0.1710
 8901SOL    HW138162   1.591   3.980   3.845  0.8746  0.2341 -0.6581
 8901SOL    HW238163   1.632   3.872   3.745  0.5635 -0.7828  0.5223
 8902SOL     OW38164   3.873   2.334   8.203 -0.5123  1.0454 -0.1842
 8902SOL    HW138165   3.942   2.281   8.244 -0.4212  0.5075 -1.0338
 8902SOL    HW238166   3.793   2.324   8.254  0.4787  2.1317  1.5766
 8903SOL     OW38167   3.892   3.897   3.515 -0.1828  0.0365 -0.2486
 8903SOL    HW138168   3.870   3.978   3.561 -1.2591  1.2087 -2.8116
 8903SOL    HW238169   3.985   3.907   3.492  0.6874 -3.7509  1.5683
 8904SOL     OW38170   0.837   4.250   0.452  0.5091 -0.2883 -0.4331
 8904SOL    HW138171   0.865   4.326   0.400 -0.6179 -0.6118 -1.5214
 8904SOL    HW238172   0.890   4.184   0.408  1.3525  0.2774 -0.2651
 8905SOL     OW38173   2.539   2.816   0.667  0.2980 -0.0233 -0.3255
 8905SOL    HW138174   2.544   2.819   0.763 -0.6092  1.4109 -0.3310
 8905SOL    HW238175   2.590   2.736   0.654  0.5518 -0.1108  1.2027
 8906SOL     OW38176   3.165   2.156  13.236 -0.0531 -0.0105 -0.1192
 8906SOL    HW138177   3.163   2.244  13.272  1.0338 -0.0620  0.0901
 8906SOL    HW238178   3.257   2.130  13.230  0.1377  0.4398  0.8723
 8907SOL     OW38179   3.163   2.645   9.282  0.3766 -0.0380 -0.4508
 8907SOL    HW138180   3.142   2.739   9.277 -1.3068 -0.5284 -2.3746
 8907SOL    HW238181   3.258   2.646   9.270  0.4595  0.5149  0.2792
 8908SOL     OW38182   0.978   3.486  17.424 -0.4286 -0.3716  0.4112
 8908SOL    HW138183   1.032   3.440  17.489  0.0500 -0.3034  0.0617
 8908SOL    HW238184   1.028   3.459  17.347 -0.8556  0.2284 -0.0784
 8909SOL     OW38185   3.321   0.003   2.503 -0.1163  0.4036  0.4474
 8909SOL    HW138186   3.250   4.703   2.563 -2.0185  0.5891 -1.7663
 8909SOL    HW238187   3.266   0.015   2.426  0.4662 -0.2242 -0.0646
 8910SOL     OW38188   0.643   0.009   4.019 -0.3733  0.0945  0.2146
 8910SOL    HW138189   0.585   4.670   3.973  0.8836 -2.6917  2.3000
 8910SOL    HW238190   0.730   4.706   3.986  0.0986  2.3844 -0.2360
 8911SOL     OW38191   0.319   3.031   4.660  0.1724 -0.0964 -0.5252
 8911SOL    HW138192   0.381   3.050   4.589 -0.8319 -1.8800 -1.8822
 8911SOL    HW238193   0.251   3.087   4.622 -0.7900  0.2482  1.6796
 8912SOL     OW38194   4.343   3.294   7.736 -0.1151  0.2724 -0.2948
 8912SOL    HW138195   4.287   3.218   7.721  0.0773  0.1822 -0.5636
 8912SOL    HW238196   4.353   3.288   7.831 -0.9880  0.5026 -0.1942
 8913SOL     OW38197   2.497   1.947   3.443  0.0360 -0.3995  0.2225
 8913SOL    HW138198   2.404   1.959   3.462 -0.0701 -0.3793 -0.3211
 8913SOL    HW238199   2.509   2.038   3.416  0.2499 -0.3036  0.6363
 8914SOL     OW38200   0.947   3.956  17.568  0.3263  0.2916 -0.4463
 8914SOL    HW138201   0.956   3.906  17.487 -1.2430 -0.1795 -0.3225
 8914SOL    HW238202   1.011   4.027  17.562 -0.8870  1.4231  0.0304
 8915SOL     OW38203   3.867   1.870  11.060  0.2505 -0.0830  0.5204
 8915SOL    HW138204   3.867   1.780  11.030  1.6275 -0.7727  2.5485
 8915SOL    HW238205   3.868   1.863  11.156 -1.8702  0.5133  0.5918
 8916SOL     OW38206   0.438   3.487   0.144  0.2687  0.0280 -1.0466
 8916SOL    HW138207   0.364   3.513   0.089 -1.1974 -0.4999  0.6770
 8916SOL    HW238208   0.512   3.519   0.091  0.7390  0.0131 -0.3960
 8917SOL     OW38209   2.696   3.963   4.628  0.6027 -1.0580 -0.0981
 8917SOL    HW138210   2.670   3.876   4.659 -1.3953  0.1486  1.5913
 8917SOL    HW238211   2.758   3.989   4.696  1.8189 -1.2317 -1.1278
 8918SOL     OW38212   1.507   2.112   3.322  0.0220 -0.3828  0.5225
 8918SOL    HW138213   1.438   2.109   3.256 -1.1119  0.3592  1.7032
 8918SOL    HW238214   1.470   2.179   3.379 -0.8759 -0.9807  0.6371
 8919SOL     OW38215   2.787   1.042   9.714 -0.0644 -0.0780  0.0243
 8919SOL    HW138216   2.863   0.984   9.715 -2.0348 -2.6859 -1.6650
 8919SOL    HW238217   2.754   1.044   9.624 -1.3797  0.9726  0.5150
 8920SOL     OW38218   0.582   4.535   2.828 -0.4508  0.5132  0.5619
 8920SOL    HW138219   0.588   4.582   2.911 -0.6484  2.5157 -0.5708
 8920SOL    HW238220   0.610   4.448   2.856  0.9407  0.8247  0.1415
 8921SOL     OW38221   3.274   3.375   2.443  0.4030 -0.2821 -0.0850
 8921SOL    HW138222   3.252   3.409   2.530  0.0330 -0.6561 -0.0316
 8921SOL    HW238223   3.364   3.344   2.454 -0.3642 -3.3493 -2.3374
 8922SOL     OW38224   3.669   1.578   4.347 -0.5998 -0.3972  0.0565
 8922SOL    HW138225   3.704   1.577   4.436  0.4104  0.9185 -0.3278
 8922SOL    HW238226   3.585   1.537   4.367 -0.0696 -1.6506 -0.2411
 8923SOL     OW38227   0.619   0.722   5.448 -0.8140 -0.3262 -0.9634
 8923SOL    HW138228   0.574   0.763   5.521  1.0441 -0.4719  0.2710
 8923SOL    HW238229   0.603   0.628   5.463 -1.9480  0.0434  0.1373
 8924SOL     OW38230   0.162   2.463   2.958 -0.5404 -0.6628 -0.0873
 8924SOL    HW138231   0.144   2.379   2.918  1.2680 -2.0429  2.0048
 8924SOL    HW238232   0.071   2.492   2.954 -0.6270 -0.7327  1.6404
 8925SOL     OW38233   1.135   2.850  10.173  0.3920 -0.1554 -0.2427
 8925SOL    HW138234   1.151   2.916  10.106  0.2544 -0.0250 -0.1471
 8925SOL    HW238235   1.090   2.783  10.121  0.9772 -0.8298  0.1279
 8926SOL     OW38236   3.382   3.849  14.284  0.0424  0.1072 -0.2878
 8926SOL    HW138237   3.305   3.819  14.237 -0.4465  0.5671  0.2278
 8926SOL    HW238238   3.417   3.768  14.322  0.1009 -0.4367 -1.4951
 8927SOL     OW38239   1.760   2.750   8.124  0.0916  0.1229 -0.5681
 8927SOL    HW138240   1.808   2.697   8.060 -2.1467  0.8813 -2.8509
 8927SOL    HW238241   1.825   2.779   8.189 -0.6051 -2.4716  1.2584
 8928SOL     OW38242   0.479   2.898   0.335 -0.4787  0.6095  0.3349
 8928SOL    HW138243   0.405   2.838   0.333  2.2075 -2.6943 -0.8187
 8928SOL    HW238244   0.426   2.976   0.348  0.4780  1.5079 -1.1596
 8929SOL     OW38245   2.619   1.304  15.163 -0.1046 -0.4064  0.0975
 8929SOL    HW138246   2.652   1.237  15.222  2.1596  1.2447  0.7121
 8929SOL    HW238247   2.572   1.359  15.225 -0.1983 -0.4224  0.0420
 8930SOL     OW38248   3.403   3.898   2.879 -0.6744 -0.4643  0.0734
 8930SOL    HW138249   3.380   3.873   2.969  3.3608 -1.1154  0.9372
 8930SOL    HW238250   3.319   3.872   2.843  0.7424 -0.1917 -3.4045
 8931SOL     OW38251   2.389   1.686   4.398 -0.4262 -0.0084 -0.2542
 8931SOL    HW138252   2.425   1.769   4.365  0.8108 -0.4291  0.0656
 8931SOL    HW238253   2.302   1.692   4.358 -1.2197  2.4295  1.8340
 8932SOL     OW38254   1.872   4.499   9.070 -0.8146  0.2908 -0.3717
 8932SOL    HW138255   1.922   4.481   8.990 -0.1265 -1.9197  0.5513
 8932SOL    HW238256   1.889   4.414   9.112  0.2822 -0.2037 -1.7905
 8933SOL     OW38257   3.669   3.096   2.772 -0.0982 -0.1939 -0.1356
 8933SOL    HW138258   3.729   3.035   2.814  0.4618  0.6116  0.2267
 8933SOL    HW238259   3.737   3.133   2.716 -0.0938 -2.4595 -1.6744
 8934SOL     OW38260   0.556   1.224   3.754  0.4707 -0.0722  0.2856
 8934SOL    HW138261   0.498   1.184   3.689  1.6368 -1.4231  0.0555
 8934SOL    HW238262   0.568   1.156   3.821  0.6121  1.5476  1.9130
 8935SOL     OW38263   2.147   1.130   4.460  0.4756 -0.1261 -0.1685
 8935SOL    HW138264   2.159   1.223   4.479 -1.9992 -0.1541  1.5917
 8935SOL    HW238265   2.052   1.121   4.452  0.4810  0.9507 -1.5011
 8936SOL     OW38266   1.744   3.422   5.470 -0.1283  0.3206  0.0280
 8936SOL    HW138267   1.832   3.420   5.431  0.4506 -0.8290  1.3879
 8936SOL    HW238268   1.710   3.500   5.426  0.8751  0.4007 -0.6065
 8937SOL     OW38269   2.944   0.378  15.380  0.3986  0.2852 -0.0230
 8937SOL    HW138270   2.859   0.390  15.338 -0.5322 -0.7391  1.5816
 8937SOL    HW238271   2.996   0.448  15.341  0.6881  0.4320  0.6352
 8938SOL     OW38272   2.533   1.337  13.761  0.1633  0.9289 -0.2663
 8938SOL    HW138273   2.454   1.382  13.790  0.4396  2.5424 -2.0131
 8938SOL    HW238274   2.594   1.410  13.764 -0.3265  1.3273 -0.0296
 8939SOL     OW38275   0.858   0.195   2.677 -0.1690  0.0025  0.5346
 8939SOL    HW138276   0.784   0.139   2.655  0.9055 -0.9151 -0.7516
 8939SOL    HW238277   0.894   0.134   2.741  1.1739 -0.5507 -0.7446
 8940SOL     OW38278   4.239   0.732   6.166 -0.2999 -0.1971  0.4815
 8940SOL    HW138279   4.156   0.774   6.192 -0.5920  0.5006 -1.6108
 8940SOL    HW238280   4.294   0.776   6.231  0.0122 -1.5905  1.1661
 8941SOL     OW38281   0.870   3.785   3.936  0.7545 -0.3104  0.1117
 8941SOL    HW138282   0.921   3.759   4.012 -0.5222  1.1892  1.4656
 8941SOL    HW238283   0.815   3.857   3.966  0.2961 -1.5254  2.1661
 8942SOL     OW38284   4.583   0.160   5.471 -0.5437 -0.2662  0.0987
 8942SOL    HW138285   4.487   0.157   5.478 -0.5473 -0.0650  0.1436
 8942SOL    HW238286   4.584   0.181   5.378  0.5690 -1.1449 -0.0869
 8943SOL     OW38287   1.154   1.012  11.450  0.4908  0.4015 -0.1801
 8943SOL    HW138288   1.070   1.058  11.457 -1.3234 -2.9000 -0.2553
 8943SOL    HW238289   1.206   1.042  11.524  1.1324 -1.9208  0.2979
 8944SOL     OW38290   2.386   0.503   3.046 -0.5171 -0.1668 -0.4713
 8944SOL    HW138291   2.385   0.409   3.029  0.7457  0.1048 -2.1250
 8944SOL    HW238292   2.430   0.502   3.130 -3.7449  1.4306  1.2505
 8945SOL     OW38293   2.372   3.153   7.043  0.4710  0.0715 -0.4984
 8945SOL    HW138294   2.338   3.237   7.073 -1.0378 -0.2714 -1.2529
 8945SOL    HW238295   2.377   3.120   7.132  1.5083 -2.4597 -1.4886
 8946SOL     OW38296   4.189   0.336   8.706 -0.3700  0.2311  0.2316
 8946SOL    HW138297   4.093   0.337   8.700 -0.2937  0.1143 -0.8796
 8946SOL    HW238298   4.201   0.321   8.800  4.0709 -0.3883 -0.4805
 8947SOL     OW38299   2.621   0.472   2.117  0.2159  0.0826 -0.1458
 8947SOL    HW138300   2.618   0.495   2.210 -1.6264 -0.0610 -0.1835
 8947SOL    HW238301   2.704   0.425   2.121  0.1721  0.1185  1.2497
 8948SOL     OW38302   1.681   4.379   0.152 -0.3507 -0.2341  0.1451
 8948SOL    HW138303   1.677   4.474   0.165 -1.8678 -0.4391  1.2345
 8948SOL    HW238304   1.674   4.381   0.057  1.1610  0.3453  0.0444
 8949SOL     OW38305   4.226   4.311   7.567  0.0827 -0.3188 -0.0115
 8949SOL    HW138306   4.212   4.229   7.520 -2.2756  0.4375 -0.6495
 8949SOL    HW238307   4.283   4.361   7.509  0.5313 -0.2575  0.4759
 8950SOL     OW38308   0.729   3.823   3.337  0.1372 -0.6195  0.1565
 8950SOL    HW138309   0.788   3.857   3.270 -0.7567  2.3366  0.8953
 8950SOL    HW238310   0.709   3.737   3.299  1.0618 -1.1387  0.8612
 8951SOL     OW38311   2.942   4.029   1.003  0.2635 -0.2062 -0.1494
 8951SOL    HW138312   2.938   4.024   1.098  0.1364 -1.8515 -0.2446
 8951SOL    HW238313   3.019   3.976   0.980  0.4842 -0.4313  1.1316
 8952SOL     OW38314   2.868   0.210   6.880  0.0780 -0.0110  0.6149
 8952SOL    HW138315   2.821   0.264   6.943  0.8677  0.9374  0.4033
 8952SOL    HW238316   2.953   0.255   6.871 -0.4244  0.7104 -0.5096
 8953SOL     OW38317   3.946   3.027   0.773 -0.0320 -0.6866 -0.3441
 8953SOL    HW138318   3.900   3.077   0.705 -1.4035 -0.3025  0.8674
 8953SOL    HW238319   3.871   2.973   0.796  0.8727 -2.2075 -0.9962
 8954SOL     OW38320   2.509   1.361   5.944 -0.4813 -0.8931 -0.5430
 8954SOL    HW138321   2.417   1.340   5.961 -0.8071  0.0762 -1.0874
 8954SOL    HW238322   2.507   1.336   5.851 -2.2308 -0.4905 -0.6232
 8955SOL     OW38323   1.525   4.098   7.363  0.6115 -0.2127 -0.2417
 8955SOL    HW138324   1.443   4.062   7.396  0.9787 -2.1485 -1.4096
 8955SOL    HW238325   1.582   4.021   7.357 -1.9750 -2.3649  2.8684
 8956SOL     OW38326   1.678   1.591   4.389  0.5689  0.0670 -0.7802
 8956SOL    HW138327   1.669   1.676   4.344  0.8954  0.1485 -0.6884
 8956SOL    HW238328   1.644   1.538   4.317  1.0978 -2.5334  0.8867
 8957SOL     OW38329   2.805   0.007   9.333  0.2885  0.4037  0.1797
 8957SOL    HW138330   2.731   0.045   9.381 -1.2675 -2.1899 -0.1729
 8957SOL    HW238331   2.795   4.637   9.361 -0.4618  0.4277 -0.0021
 8958SOL     OW38332   1.548   0.812   6.645  0.0991 -0.2410  0.6711
 8958SOL    HW138333   1.642   0.803   6.663 -0.1291  0.5663  2.2715
 8958SOL    HW238334   1.513   0.832   6.732 -1.5607 -1.2567  0.2333
 8959SOL     OW38335   4.681   2.690   6.305 -0.4771  0.0183  0.7278
 8959SOL    HW138336   0.006   2.711   6.224  0.7746  0.9000  1.6754
 8959SOL    HW238337   4.672   2.596   6.288 -0.7779 -0.2012  2.0495
 8960SOL     OW38338   0.931   2.875   2.988 -0.1437 -0.4400 -0.0574
 8960SOL    HW138339   0.981   2.914   2.915  0.1301  0.3713  0.5666
 8960SOL    HW238340   0.890   2.797   2.951  0.2287 -0.9851  0.6853
 8961SOL     OW38341   3.741   2.602   5.840 -0.0350 -0.6159 -0.6514
 8961SOL    HW138342   3.686   2.572   5.768 -3.6940 -0.1737  1.9398
 8961SOL    HW238343   3.782   2.520   5.865 -0.9357 -0.4602  1.3581
 8962SOL     OW38344   0.796   2.510  11.950 -0.7128 -0.0755 -0.0294
 8962SOL    HW138345   0.763   2.467  12.029 -0.5726 -0.3716 -0.1309
 8962SOL    HW238346   0.830   2.590  11.990 -1.3124 -0.2398  0.8025
 8963SOL     OW38347   1.233   1.750   2.271 -0.0600 -0.4554 -0.2173
 8963SOL    HW138348   1.226   1.838   2.236  1.9712 -0.5665 -0.9275
 8963SOL    HW238349   1.285   1.773   2.348  0.8776 -0.0625 -0.9715
 8964SOL     OW38350   0.435   3.320   0.684 -0.5020 -0.7987  0.2588
 8964SOL    HW138351   0.436   3.367   0.601  0.6013 -2.4512 -0.6639
 8964SOL    HW238352   0.526   3.336   0.707 -1.3376 -0.5321  3.4193
 8965SOL     OW38353   1.674   0.241   3.350 -0.3142  0.4469  0.0082
 8965SOL    HW138354   1.720   0.159   3.370  0.9469  1.3062  0.6066
 8965SOL    HW238355   1.698   0.301   3.421  0.7146  1.9445 -1.6241
 8966SOL     OW38356   0.077   2.939  11.984 -0.5559 -0.1406 -0.2049
 8966SOL    HW138357   0.124   3.000  12.042 -4.3819 -0.1777  2.9252
 8966SOL    HW238358   0.090   2.857  12.032  2.0479  0.6782  0.4968
 8967SOL     OW38359   2.638   4.492   6.912 -0.2356 -0.0140 -0.3668
 8967SOL    HW138360   2.700   4.435   6.867  0.6484  1.0751 -0.5038
 8967SOL    HW238361   2.558   4.439   6.921 -1.0573  1.2268 -0.3619
 8968SOL     OW38362   3.127   0.956  15.627  0.1963  0.4166 -0.6516
 8968SOL    HW138363   3.179   1.005  15.692  2.5150 -0.2532 -2.0200
 8968SOL    HW238364   3.201   0.911  15.586  1.3357  0.0056  1.7923
 8969SOL     OW38365   1.336   0.714  16.243  0.2393  0.4739  0.6685
 8969SOL    HW138366   1.392   0.785  16.273  0.0872  1.1185 -0.5588
 8969SOL    HW238367   1.253   0.761  16.253 -0.0237 -0.0994  1.1509
 8970SOL     OW38368   1.027   0.290   0.166  0.6044  0.2494 -0.1835
 8970SOL    HW138369   1.048   0.294   0.259 -0.1303  0.7028 -0.0363
 8970SOL    HW238370   1.102   0.338   0.132  0.6200  0.3688  0.0179
 8971SOL     OW38371   3.552   4.169   7.275  0.5949 -0.0122 -0.1273
 8971SOL    HW138372   3.488   4.233   7.246 -1.2209 -0.7514  2.2306
 8971SOL    HW238373   3.593   4.145   7.192  0.1485  1.8037 -0.8546
 8972SOL     OW38374   1.083   0.551   9.842  0.0468 -0.0033  0.5334
 8972SOL    HW138375   1.153   0.563   9.778  1.3477  3.3255  2.5983
 8972SOL    HW238376   1.120   0.591   9.921  1.7556 -3.2824  1.3840
 8973SOL     OW38377   3.282   0.808   7.242  0.0802 -0.4614 -0.1063
 8973SOL    HW138378   3.362   0.768   7.207 -0.5312 -0.8984 -0.9795
 8973SOL    HW238379   3.291   0.790   7.336 -1.7033 -0.0867  0.1363
 8974SOL     OW38380   2.417   1.786   7.858 -0.2056  0.0741 -0.2086
 8974SOL    HW138381   2.360   1.781   7.934 -1.6459 -1.3820 -1.3743
 8974SOL    HW238382   2.361   1.784   7.780 -1.0586 -0.1891  0.4142
 8975SOL     OW38383   3.521   2.623   6.715  0.2161  0.1092  0.2869
 8975SOL    HW138384   3.531   2.675   6.794 -0.6472  1.0079 -0.1956
 8975SOL    HW238385   3.585   2.554   6.733  0.3440 -0.1334 -1.1043
 8976SOL     OW38386   2.438   2.761   9.526  0.0589 -0.1702  0.1237
 8976SOL    HW138387   2.393   2.699   9.583  2.7142 -1.4100  0.8752
 8976SOL    HW238388   2.513   2.705   9.505  0.3990  0.1910  0.3554
 8977SOL     OW38389   1.732   2.323   5.593 -0.4744 -0.4719 -0.0649
 8977SOL    HW138390   1.723   2.378   5.671  0.1732 -1.8045  0.9450
 8977SOL    HW238391   1.674   2.373   5.535 -1.9112 -0.2299  1.5675
 8978SOL     OW38392   2.085   3.522   7.301 -0.6264 -0.5278 -0.0969
 8978SOL    HW138393   2.101   3.610   7.266 -0.8719 -0.2634  0.4450
 8978SOL    HW238394   2.153   3.508   7.367  2.1947 -1.2716 -3.1299
 8979SOL     OW38395   0.255   4.586   5.254  0.3378 -0.1424 -0.1329
 8979SOL    HW138396   0.159   4.582   5.256  0.3392 -0.4708 -0.4879
 8979SOL    HW238397   0.266   4.529   5.330  1.9512  2.0905  1.2826
 8980SOL     OW38398   0.445   0.466   9.731  0.1770  0.2906  0.1166
 8980SOL    HW138399   0.487   0.502   9.653 -2.9468 -0.1054 -1.7332
 8980SOL    HW238400   0.512   0.486   9.796 -0.2042  0.3131  0.4979
 8981SOL     OW38401   2.071   0.611   5.983  0.0821  0.6158 -0.5770
 8981SOL    HW138402   2.037   0.615   5.894  0.4478 -0.7181 -0.7758
 8981SOL    HW238403   2.020   0.682   6.022  0.0244 -0.8122  1.9772
 8982SOL     OW38404   0.749   4.180  14.359 -0.2062  0.0388 -0.6763
 8982SOL    HW138405   0.714   4.259  14.399  0.7941  0.5419 -0.8006
 8982SOL    HW238406   0.727   4.110  14.420  0.0124 -1.4363 -2.2686
 8983SOL     OW38407   4.011   3.203   4.237 -0.3731  0.2566 -0.2307
 8983SOL    HW138408   4.011   3.265   4.309  0.0563  0.5531 -0.4826
 8983SOL    HW238409   3.921   3.206   4.205  0.6836 -1.0686 -3.3580
 8984SOL     OW38410   1.769   4.425   3.453  0.1189 -0.9933 -0.5790
 8984SOL    HW138411   1.713   4.433   3.376  0.1164  1.3350 -0.3235
 8984SOL    HW238412   1.740   4.502   3.501 -0.2800 -0.7022 -1.2976
 8985SOL     OW38413   4.238   1.464   1.167  0.2398 -0.0259  0.1671
 8985SOL    HW138414   4.173   1.534   1.163  1.2871  1.1181  3.2015
 8985SOL    HW238415   4.201   1.403   1.230 -1.6754 -0.4423 -1.3539
 8986SOL     OW38416   2.956   0.215   2.266  0.1677 -0.0425 -0.1920
 8986SOL    HW138417   3.027   0.265   2.305  0.4000 -0.7624  0.3202
 8986SOL    HW238418   2.922   0.288   2.214 -0.0404 -0.1771 -0.2432
 8987SOL     OW38419   4.026   2.730   4.166 -0.3719 -0.4353 -0.1717
 8987SOL    HW138420   4.032   2.709   4.259 -0.5809 -1.7256 -0.4546
 8987SOL    HW238421   4.107   2.685   4.143 -0.2787 -0.1901 -0.3279
 8988SOL     OW38422   3.685   2.982   4.667 -0.8908 -0.1996  0.2349
 8988SOL    HW138423   3.599   3.013   4.694  0.4710  1.1263  3.0919
 8988SOL    HW238424   3.658   2.915   4.605  0.7184 -0.4654 -0.1828
 8989SOL     OW38425   0.211   1.046   6.688 -0.6200  0.1084 -0.3187
 8989SOL    HW138426   0.141   1.046   6.623 -0.9896 -0.6331  0.0806
 8989SOL    HW238427   0.288   1.054   6.632 -1.1737 -1.3472 -1.2919
 8990SOL     OW38428   3.785   3.848  16.970  0.3007  0.1234 -0.3211
 8990SOL    HW138429   3.830   3.911  17.026  1.7500 -0.5930 -0.6860
 8990SOL    HW238430   3.800   3.887  16.884  3.7058 -0.1527  0.1320
 8991SOL     OW38431   2.386   1.787   3.147 -0.4275 -0.4126  0.4567
 8991SOL    HW138432   2.333   1.802   3.069 -1.7747 -1.5367  1.1591
 8991SOL    HW238433   2.319   1.735   3.192 -0.8828 -1.5668 -1.5947
 8992SOL     OW38434   2.933   1.523   2.781 -0.8129 -0.2319  0.6424
 8992SOL    HW138435   3.002   1.474   2.826  1.3435 -1.0858 -3.5911
 8992SOL    HW238436   2.911   1.472   2.703  0.5086 -1.8115  1.3023
 8993SOL     OW38437   3.616   3.300  16.285  0.0859 -0.7432 -0.0334
 8993SOL    HW138438   3.541   3.357  16.303  0.9874 -0.2323  2.0733
 8993SOL    HW238439   3.579   3.212  16.278 -1.5301 -0.1623  1.1477
 8994SOL     OW38440   1.214   4.123   6.982  0.3612 -0.2921  0.0908
 8994SOL    HW138441   1.167   4.111   6.899 -1.5422  3.5072  0.5869
 8994SOL    HW238442   1.269   4.200   6.968  1.0125 -0.3632  2.2532
 8995SOL     OW38443   0.627   3.440   2.378 -0.7386 -0.5080 -0.1122
 8995SOL    HW138444   0.574   3.458   2.455 -0.0701 -1.7768  0.6476
 8995SOL    HW238445   0.568   3.477   2.312  0.7099  2.4405  0.2610
 8996SOL     OW38446   1.058   0.574   7.540  0.7478  0.5330 -0.4211
 8996SOL    HW138447   1.147   0.608   7.536  1.0755 -0.0151  2.3380
 8996SOL    HW238448   1.019   0.617   7.464 -0.2750  2.7018  1.3114
 8997SOL     OW38449   3.155   1.871   2.676  0.0354  0.3560  0.2280
 8997SOL    HW138450   3.224   1.809   2.698 -0.4301 -0.1858  0.1608
 8997SOL    HW238451   3.121   1.838   2.593 -0.3227 -1.0984  0.9662
 8998SOL     OW38452   0.180   2.209   4.608 -0.4726 -0.2933 -0.2799
 8998SOL    HW138453   0.246   2.259   4.656 -3.8256  3.0281  0.8416
 8998SOL    HW238454   0.165   2.249   4.523 -0.9183  1.0069  0.4112
 8999SOL     OW38455   2.263   3.881   9.274 -0.0485 -0.4961 -0.8702
 8999SOL    HW138456   2.290   3.960   9.228 -1.9263  0.4897 -0.2700
 8999SOL    HW238457   2.214   3.843   9.200  0.5770 -0.5880 -1.2373
 9000SOL     OW38458   3.718   1.519   9.208 -0.5139  0.5739 -0.0051
 9000SOL    HW138459   3.624   1.531   9.193 -0.2219  1.7501 -0.9260
 9000SOL    HW238460   3.726   1.608   9.241  0.2526 -0.7283  3.2313
 9001SOL     OW38461   3.027   0.182   9.258 -0.1834 -0.2952  0.5051
 9001SOL    HW138462   2.954   0.128   9.287  1.8278 -2.5243  1.4695
 9001SOL    HW238463   2.991   0.268   9.278 -0.7647 -0.4653  0.1849
 9002SOL     OW38464   1.628   2.827  17.336 -0.0414 -0.4182 -0.4150
 9002SOL    HW138465   1.534   2.811  17.348  0.2096 -0.4953  1.5144
 9002SOL    HW238466   1.631   2.902  17.395  2.1316 -0.5972 -0.3287
 9003SOL     OW38467   3.986   3.945   7.347  0.5160  0.2526 -0.3054
 9003SOL    HW138468   4.071   3.989   7.338  1.6579 -1.9040 -0.0583
 9003SOL    HW238469   3.934   4.026   7.346 -1.8489 -1.2780  0.0599
 9004SOL     OW38470   2.226   3.232  13.943 -0.1108  0.0799  0.0943
 9004SOL    HW138471   2.269   3.293  14.003 -0.2995 -0.6305  0.9622
 9004SOL    HW238472   2.138   3.269  13.939 -0.2190 -0.1620  0.2369
 9005SOL     OW38473   4.238   4.557   7.209 -0.1710 -0.5499  0.1491
 9005SOL    HW138474   4.292   4.580   7.133 -0.3798  1.4816  0.6071
 9005SOL    HW238475   4.152   4.577   7.173  0.3554  1.3648 -0.0641
 9006SOL     OW38476   3.151   3.651  16.711 -0.0052  0.1112 -0.6926
 9006SOL    HW138477   3.158   3.631  16.618  0.0636  0.5392 -0.7785
 9006SOL    HW238478   3.144   3.561  16.741 -1.6379  0.4437 -0.0585
 9007SOL     OW38479   1.694   3.873   7.289 -0.2722 -0.0023 -0.1640
 9007SOL    HW138480   1.781   3.850   7.324 -1.3865 -1.7158  1.4691
 9007SOL    HW238481   1.645   3.797   7.318 -1.5352  1.1465  0.6971
 9008SOL     OW38482   3.063   4.647   4.412  0.4767 -0.2901 -0.1026
 9008SOL    HW138483   3.027   4.640   4.323  0.0211  0.7472 -0.0051
 9008SOL    HW238484   2.999   4.700   4.459 -0.3192  0.1123 -1.6241
 9009SOL     OW38485   0.040   2.291   5.009  0.2024 -0.1594 -0.1874
 9009SOL    HW138486   0.115   2.334   5.050  1.1922 -2.5938  0.5320
 9009SOL    HW238487   0.002   2.362   4.957 -1.2404  0.8888  2.2924
 9010SOL     OW38488   2.251   3.396   4.128 -0.4839 -0.5097  0.0852
 9010SOL    HW138489   2.309   3.386   4.053  0.4709  0.6128  0.6769
 9010SOL    HW238490   2.311   3.433   4.192  0.7866  0.6412 -1.7576
 9011SOL     OW38491   0.869   0.879  16.533  0.2730 -0.0404  0.5161
 9011SOL    HW138492   0.823   0.902  16.614  0.1929 -0.3784  0.5662
 9011SOL    HW238493   0.814   0.906  16.461  0.2507 -2.1763 -0.2734
 9012SOL     OW38494   0.070   0.381  11.484 -0.3782  0.5881  0.0836
 9012SOL    HW138495   0.125   0.316  11.440  2.8877  3.3110  0.1345
 9012SOL    HW238496   0.110   0.396  11.570 -0.3392  1.9286 -0.1657
 9013SOL     OW38497   0.074   3.193   6.065 -0.0684  0.0146 -0.3033
 9013SOL    HW138498   0.103   3.239   5.986  1.2025  0.7006  0.5642
 9013SOL    HW238499   4.716   3.240   6.091  0.3661 -0.4304  1.8050
 9014SOL     OW38500   1.359   2.003   8.894  0.0263 -0.3845 -0.2711
 9014SOL    HW138501   1.447   2.037   8.910 -0.8648  2.6257 -1.9203
 9014SOL    HW238502   1.304   2.049   8.957 -0.6466 -1.2422 -0.2340
 9015SOL     OW38503   1.211   1.751   7.099 -0.2233 -0.2046  0.8635
 9015SOL    HW138504   1.127   1.786   7.127 -0.6299  0.3391 -0.9851
 9015SOL    HW238505   1.188   1.662   7.071  1.0661  0.5157 -2.5548
 9016SOL     OW38506   0.727   1.388  12.968 -0.1948 -0.6007 -0.2308
 9016SOL    HW138507   0.723   1.450  13.041 -0.3101 -0.3257 -0.4743
 9016SOL    HW238508   0.708   1.310  13.021 -0.5600 -1.0006 -0.9569
 9017SOL     OW38509   1.878   3.177   6.528  0.1647  0.1322  0.2651
 9017SOL    HW138510   1.920   3.113   6.586 -1.4445 -2.6118 -1.5950
 9017SOL    HW238511   1.787   3.153   6.542  0.7490 -1.9892  0.4628
 9018SOL     OW38512   2.717   0.721   5.514 -0.3412  0.4102  0.1509
 9018SOL    HW138513   2.684   0.709   5.603 -2.7484 -0.1393 -0.8157
 9018SOL    HW238514   2.771   0.644   5.501 -0.8110  0.0371  0.3965
 9019SOL     OW38515   1.389   4.702   7.605 -0.2506  0.0129  0.1455
 9019SOL    HW138516   1.451   0.049   7.629 -2.1935  2.2818 -1.1690
 9019SOL    HW238517   1.441   4.623   7.620  0.0304  0.1131 -0.2818
 9020SOL     OW38518   3.578   1.044   7.530  0.1322  0.6347 -0.0979
 9020SOL    HW138519   3.561   0.997   7.612 -1.6217  0.7027 -0.4182
 9020SOL    HW238520   3.617   1.126   7.561  1.6980  0.0764 -0.5787
 9021SOL     OW38521   4.507   1.622   3.309 -0.2332 -0.4717  0.4122
 9021SOL    HW138522   4.589   1.575   3.323  0.3229 -0.1713 -1.7747
 9021SOL    HW238523   4.443   1.552   3.290 -2.1168  1.0758  1.0665
 9022SOL     OW38524   1.041   3.472  13.689 -0.3273 -0.4038  0.6440
 9022SOL    HW138525   1.120   3.433  13.726  0.4783  0.9682  0.3877
 9022SOL    HW238526   0.990   3.476  13.771 -1.7767 -0.4729 -0.2470
 9023SOL     OW38527   0.781   3.352   1.850 -0.2607 -0.5496  0.7592
 9023SOL    HW138528   0.753   3.265   1.880 -1.3957 -0.6123 -0.4589
 9023SOL    HW238529   0.850   3.344   1.785 -0.5070  2.0008  0.1899
 9024SOL     OW38530   1.585   4.193   6.140  0.8937  0.8819  0.1250
 9024SOL    HW138531   1.630   4.111   6.120  0.5741  0.8690 -0.5583
 9024SOL    HW238532   1.639   4.227   6.211  1.1201 -0.8364  0.7760
 9025SOL     OW38533   2.928   1.554   5.593  0.0392  0.2471  0.0271
 9025SOL    HW138534   2.943   1.544   5.499 -1.8898  1.4843 -0.3991
 9025SOL    HW238535   2.915   1.648   5.603 -0.7815  0.0602  0.7338
 9026SOL     OW38536   4.614   4.424  17.345 -1.2220  0.1856 -0.4250
 9026SOL    HW138537   4.519   4.417  17.357 -1.4956  0.2828 -2.5961
 9026SOL    HW238538   4.644   4.453  17.431  1.7451  0.8362 -1.7093
 9027SOL     OW38539   0.940   3.091  13.453 -0.3759  0.2556  0.1620
 9027SOL    HW138540   0.935   3.148  13.376 -0.6655 -0.9768 -0.7255
 9027SOL    HW238541   0.903   3.010  13.418  2.0844 -0.5746 -0.4693
 9028SOL     OW38542   3.155   1.852   4.291 -0.3012 -0.0745  0.6088
 9028SOL    HW138543   3.070   1.807   4.293 -0.3961  0.0287 -0.6552
 9028SOL    HW238544   3.195   1.831   4.375 -1.6890 -0.6814  1.1240
 9029SOL     OW38545   1.459   3.927  17.282 -0.3045  0.0831 -0.3816
 9029SOL    HW138546   1.534   3.981  17.305 -1.7070  1.4091  1.0412
 9029SOL    HW238547   1.483   3.846  17.327  1.0956  0.7773  0.1237
 9030SOL     OW38548   0.126   2.964   4.266  0.2992  0.0181  0.2473
 9030SOL    HW138549   0.082   2.886   4.232  2.4863 -1.2857  0.4174
 9030SOL    HW238550   0.077   2.990   4.344  0.4389 -0.9614  0.6644
 9031SOL     OW38551   4.292   4.585  10.179 -0.4075 -0.2394  0.2249
 9031SOL    HW138552   4.309   4.632  10.261 -0.4043 -2.4492  1.4836
 9031SOL    HW238553   4.253   4.500  10.199 -0.2036 -0.4104 -0.0998
 9032SOL     OW38554   1.900   3.365  11.323 -0.0781 -0.6791  0.2326
 9032SOL    HW138555   1.957   3.355  11.399  0.9675  1.8960 -0.2220
 9032SOL    HW238556   1.812   3.374  11.361 -0.0612 -3.5822  0.9319
 9033SOL     OW38557   1.007   0.697   2.800  0.9713  0.9032  0.0321
 9033SOL    HW138558   1.096   0.729   2.812  0.8619  1.5586 -0.9650
 9033SOL    HW238559   0.952   0.776   2.801  0.6251  0.6633 -0.0951
 9034SOL     OW38560   3.706   1.791   9.319  0.0759 -0.0812  0.2740
 9034SOL    HW138561   3.732   1.883   9.316  1.3893 -0.5595 -2.6546
 9034SOL    HW238562   3.702   1.777   9.414  1.7422  0.8008  0.4823
 9035SOL     OW38563   3.823   4.065   6.031  0.0369  0.2433 -0.4552
 9035SOL    HW138564   3.899   4.011   6.011  0.3246  0.6217 -0.3939
 9035SOL    HW238565   3.767   4.012   6.087 -1.0105  1.6998 -0.1371
 9036SOL     OW38566   4.173   1.255   5.733  0.2607 -0.3890  0.5217
 9036SOL    HW138567   4.167   1.179   5.792  0.4289 -0.6622  0.1913
 9036SOL    HW238568   4.258   1.291   5.758  0.0712  0.7693 -0.5135
 9037SOL     OW38569   2.488   1.471   8.306 -0.1452  0.9955 -0.0374
 9037SOL    HW138570   2.551   1.447   8.374 -1.3272  1.4573  1.2260
 9037SOL    HW238571   2.533   1.440   8.227 -2.3737  0.5388 -1.1136
 9038SOL     OW38572   1.588   0.560   6.209  0.9563  0.1760 -0.1160
 9038SOL    HW138573   1.568   0.466   6.209  0.2807  0.3209 -0.1632
 9038SOL    HW238574   1.594   0.561   6.114 -1.3644  1.8918 -0.2255
 9039SOL     OW38575   3.241   4.085   9.249  0.1221  0.0519  0.0415
 9039SOL    HW138576   3.325   4.071   9.291  0.6474  1.9954 -0.3339
 9039SOL    HW238577   3.275   4.047   9.168  0.5245  1.4133 -0.4375
 9040SOL     OW38578   0.923   1.404   5.880 -0.2174  0.1024  0.2736
 9040SOL    HW138579   0.884   1.430   5.796  2.7404 -1.6727 -1.6585
 9040SOL    HW238580   0.972   1.325   5.859 -3.0049 -1.5188 -0.1320
 9041SOL     OW38581   2.324   1.598   5.829  0.3978  0.1418  0.3503
 9041SOL    HW138582   2.340   1.564   5.918  1.4642 -1.7388 -0.5518
 9041SOL    HW238583   2.382   1.538   5.782 -0.1805  0.0715 -0.2705
 9042SOL     OW38584   2.771   2.934  14.957 -0.3447 -0.2633  0.3665
 9042SOL    HW138585   2.693   2.969  15.000 -1.3730  0.7780 -2.3677
 9042SOL    HW238586   2.775   2.983  14.875  1.3990 -1.1356 -0.0804
 9043SOL     OW38587   1.083   3.258   9.923 -0.0693 -0.8624 -0.2819
 9043SOL    HW138588   1.150   3.200   9.961 -0.4838  1.5041  4.0065
 9043SOL    HW238589   1.008   3.202   9.944 -0.9562  0.6885  0.6598
 9044SOL     OW38590   4.407   2.686   4.337 -0.3385 -0.7262 -0.1228
 9044SOL    HW138591   4.349   2.746   4.290 -2.0712 -0.3411  2.5236
 9044SOL    HW238592   4.444   2.632   4.267  1.0331  0.9160 -0.6448
 9045SOL     OW38593   2.910   4.425   2.144  0.4347  0.1367  0.1679
 9045SOL    HW138594   2.883   4.399   2.056  0.3751  0.2434  0.1548
 9045SOL    HW238595   2.883   4.517   2.136 -0.9251 -0.4388 -1.8532
 9046SOL     OW38596   3.362   1.530   4.405  0.6101 -0.0578  0.0886
 9046SOL    HW138597   3.379   1.436   4.409  0.6626  0.0248  1.7646
 9046SOL    HW238598   3.333   1.527   4.314 -0.0584 -0.6380  0.3221
 9047SOL     OW38599   1.211   3.262   6.364  0.2900 -0.0341  0.1516
 9047SOL    HW138600   1.151   3.332   6.391  1.1166  0.4906  0.6286
 9047SOL    HW238601   1.177   3.243   6.277  1.3760 -3.5505  0.4943
 9048SOL     OW38602   2.296   1.024  13.837 -0.1512 -0.2874  0.0460
 9048SOL    HW138603   2.348   0.994  13.911  0.6856 -1.3921 -0.9887
 9048SOL    HW238604   2.266   1.107  13.874  0.7221  0.3170 -0.5868
 9049SOL     OW38605   2.199   0.346   4.859  0.3206  0.4013  0.4996
 9049SOL    HW138606   2.250   0.290   4.917  0.5284 -0.6778 -0.7345
 9049SOL    HW238607   2.118   0.297   4.846  2.3001 -2.8753  0.5632
 9050SOL     OW38608   3.041   0.183   1.369 -0.4878 -0.5546 -0.1752
 9050SOL    HW138609   2.948   0.174   1.347 -0.8723  0.3138  1.0675
 9050SOL    HW238610   3.068   0.241   1.297  0.2071 -1.0759 -0.3332
 9051SOL     OW38611   3.573   4.086   2.802  0.3321  0.1556 -0.0786
 9051SOL    HW138612   3.583   4.056   2.711 -1.3709 -1.1998  0.1890
 9051SOL    HW238613   3.517   4.015   2.835  1.4285 -0.4959  0.3756
 9052SOL     OW38614   0.729   1.829   0.348 -0.0263 -0.2303 -0.2544
 9052SOL    HW138615   0.795   1.893   0.324 -0.2368  0.2859  0.5608
 9052SOL    HW238616   0.694   1.814   0.260 -4.0902 -0.4319  1.3970
 9053SOL     OW38617   4.187   2.892   9.485  0.0116  0.3395 -0.2492
 9053SOL    HW138618   4.180   2.892   9.581  1.8305 -1.0093 -0.1063
 9053SOL    HW238619   4.174   2.799   9.464 -0.4191  0.8393 -2.1520
 9054SOL     OW38620   0.873   0.592  10.079  0.1211  0.0815  0.6829
 9054SOL    HW138621   0.948   0.639  10.116 -1.5606  1.4522  2.2936
 9054SOL    HW238622   0.892   0.504  10.113 -0.7511  0.0450  1.0679
 9055SOL     OW38623   1.889   1.646   8.335  0.1201  0.1345 -0.3728
 9055SOL    HW138624   1.974   1.611   8.362  0.3429  0.6771 -0.3645
 9055SOL    HW238625   1.866   1.699   8.412 -1.6398  0.3165 -1.0252
 9056SOL     OW38626   3.467   1.339   3.247 -1.1624 -0.4362  0.0551
 9056SOL    HW138627   3.494   1.266   3.303  0.1490  1.9097  2.4716
 9056SOL    HW238628   3.439   1.287   3.172  1.1783 -1.3618 -0.1684
 9057SOL     OW38629   3.332   1.100   7.457  0.4838 -0.7960 -0.5954
 9057SOL    HW138630   3.302   1.137   7.540 -0.2780 -0.1112 -1.1817
 9057SOL    HW238631   3.415   1.059   7.482  0.5936  0.2986  0.8577
 9058SOL     OW38632   4.257   2.768   3.240 -0.1453 -0.7114  0.0450
 9058SOL    HW138633   4.290   2.679   3.230  0.6726 -0.2954 -0.8337
 9058SOL    HW238634   4.256   2.763   3.336  2.3315  0.9457  0.1602
 9059SOL     OW38635   4.119   1.876  13.478 -0.1808  0.0774 -0.5459
 9059SOL    HW138636   4.063   1.811  13.520  2.7529 -1.3661  1.1574
 9059SOL    HW238637   4.207   1.838  13.472 -0.5257 -0.8564  0.2340
 9060SOL     OW38638   0.652   2.286   1.906  0.1065  0.4977 -0.3633
 9060SOL    HW138639   0.653   2.261   1.998 -1.1092  1.6380 -0.0393
 9060SOL    HW238640   0.587   2.231   1.863 -1.3112  0.5477  1.7528
 9061SOL     OW38641   3.936   2.713   8.291 -0.3285 -0.3326  0.1279
 9061SOL    HW138642   3.980   2.658   8.225  2.0907 -0.3976  1.7906
 9061SOL    HW238643   3.983   2.681   8.368 -0.7787  1.0154  0.9489
 9062SOL     OW38644   2.599   3.543  15.365  0.1074  0.6761  0.3820
 9062SOL    HW138645   2.619   3.502  15.449 -0.9200 -0.4678  0.0711
 9062SOL    HW238646   2.506   3.563  15.379  0.0724  1.1465 -0.4682
 9063SOL     OW38647   3.215   4.171  14.903 -0.1241 -0.1310  0.0007
 9063SOL    HW138648   3.242   4.204  14.989 -0.0560  1.9931 -0.8418
 9063SOL    HW238649   3.300   4.152  14.864  0.3114 -2.6053  2.1356
 9064SOL     OW38650   3.121   3.689   0.384 -0.1408  0.1440 -0.2600
 9064SOL    HW138651   3.137   3.637   0.305 -2.1069 -1.0775  0.1318
 9064SOL    HW238652   3.060   3.757   0.356  2.3165  2.0062 -0.9754
 9065SOL     OW38653   3.141   0.578   4.116 -0.0086  0.2519  0.5627
 9065SOL    HW138654   3.167   0.490   4.145  0.3021  1.0076  2.5898
 9065SOL    HW238655   3.097   0.616   4.192  1.5127  2.9547  0.0735
 9066SOL     OW38656   3.964   3.509   8.863  0.2579 -0.0237  0.3626
 9066SOL    HW138657   3.966   3.530   8.769 -0.6016 -1.2598  0.0657
 9066SOL    HW238658   3.896   3.560   8.906  0.1749  1.4678 -1.5468
 9067SOL     OW38659   1.737   1.339   8.218 -0.3252  0.5196  0.4791
 9067SOL    HW138660   1.744   1.408   8.284 -0.0148  1.4811 -0.5552
 9067SOL    HW238661   1.643   1.322   8.215 -0.3060  0.7115 -1.2843
 9068SOL     OW38662   0.256   2.861   1.818  0.0749  0.3605 -0.2096
 9068SOL    HW138663   0.338   2.903   1.840  0.4436 -0.9207  0.8603
 9068SOL    HW238664   0.268   2.771   1.847  0.0125 -0.0227 -1.3477
 9069SOL     OW38665   1.298   3.796  14.493 -0.4569 -0.5710  0.2848
 9069SOL    HW138666   1.348   3.739  14.551 -0.0624 -0.6210 -0.1036
 9069SOL    HW238667   1.264   3.869  14.545  2.2609  2.3737 -2.0596
 9070SOL     OW38668   2.863   4.112   6.391  0.0622 -0.1767  0.5159
 9070SOL    HW138669   2.873   4.107   6.486 -0.5830 -1.7091  0.4958
 9070SOL    HW238670   2.952   4.103   6.357  0.3644  0.2436  1.1943
 9071SOL     OW38671   3.229   1.105  11.180  0.1304 -0.1200  0.1091
 9071SOL    HW138672   3.196   1.039  11.120  0.4725  0.2623 -0.4984
 9071SOL    HW238673   3.156   1.166  11.192 -1.1580 -1.4052 -1.2358
 9072SOL     OW38674   4.478   2.797   4.022 -0.5124 -0.1424  0.1126
 9072SOL    HW138675   4.462   2.711   3.982 -0.3550  0.8644 -2.1254
 9072SOL    HW238676   4.463   2.842   3.939 -0.5616 -0.4263 -0.0331
 9073SOL     OW38677   1.094   3.571  10.685 -0.0408 -0.1571 -0.3358
 9073SOL    HW138678   1.130   3.604  10.603  0.5798  3.0268  1.2041
 9073SOL    HW238679   1.145   3.621  10.749  0.5594 -1.7102  0.4202
 9074SOL     OW38680   3.332   1.607   6.783  0.2503  0.1018 -0.0355
 9074SOL    HW138681   3.245   1.597   6.823 -0.2042 -0.3418 -1.1222
 9074SOL    HW238682   3.390   1.614   6.858  0.9574  0.7976 -0.6493
 9075SOL     OW38683   4.706   2.025  14.894  0.9339  0.0408  0.2275
 9075SOL    HW138684   4.615   2.000  14.910  0.1866  1.4947 -1.6960
 9075SOL    HW238685   4.688   2.018  14.800  0.4252  0.3020  0.3018
 9076SOL     OW38686   1.891   0.688   2.938  0.6522 -0.0423  0.1762
 9076SOL    HW138687   1.889   0.779   2.907  0.3429  0.5913  2.0499
 9076SOL    HW238688   1.976   0.650   2.916  0.3684 -0.3864 -0.3223
 9077SOL     OW38689   1.353   4.668   3.978 -0.2020 -0.2609 -0.1075
 9077SOL    HW138690   1.436   4.623   3.992 -0.2025  0.6241  2.8501
 9077SOL    HW238691   1.389   0.020   3.927  0.2412 -0.1659  0.3368
 9078SOL     OW38692   1.612   2.505   1.939  0.1348 -0.1271  0.0080
 9078SOL    HW138693   1.693   2.523   1.891  1.4905 -0.1701  2.2763
 9078SOL    HW238694   1.629   2.418   1.976 -0.4877 -0.4830 -0.5474
 9079SOL     OW38695   3.009   0.943   2.733  0.6204  0.5056  0.2187
 9079SOL    HW138696   2.963   1.021   2.764  1.8752  1.2151  0.2842
 9079SOL    HW238697   3.102   0.965   2.740  0.9062 -1.0435  1.4399
 9080SOL     OW38698   3.739   0.294  15.277 -0.3040 -0.2373 -0.5107
 9080SOL    HW138699   3.686   0.217  15.297  0.3785  0.1460  2.7016
 9080SOL    HW238700   3.733   0.350  15.355 -1.7511  0.1278 -0.8761
 9081SOL     OW38701   1.733   1.606   7.851 -0.3017  0.2401  0.4413
 9081SOL    HW138702   1.705   1.515   7.848 -0.9836  0.5187 -1.3419
 9081SOL    HW238703   1.723   1.633   7.942 -1.0097  0.6807  0.2372
 9082SOL     OW38704   4.424   4.315  17.619 -0.1972  0.4014 -0.3643
 9082SOL    HW138705   4.391   4.327  17.530 -2.7486 -2.8505  0.1448
 9082SOL    HW238706   4.435   4.221  17.606  0.7309  0.3894  0.5646
 9083SOL     OW38707   4.502   2.806   9.371  0.1747  0.4889 -0.8981
 9083SOL    HW138708   4.499   2.735   9.306  1.4864 -1.0665  0.7321
 9083SOL    HW238709   4.592   2.824   9.343  1.3153 -0.3292  2.3372
 9084SOL     OW38710   4.261   2.030   8.312 -0.1645  0.0641  0.3779
 9084SOL    HW138711   4.281   1.953   8.364 -0.3215 -1.3395 -1.6413
 9084SOL    HW238712   4.349   2.067   8.307  0.4122 -1.6365 -1.9021
 9085SOL     OW38713   2.362   3.936  16.593 -0.4761  0.3436  0.2900
 9085SOL    HW138714   2.413   4.017  16.594 -1.8023  1.1953  0.0466
 9085SOL    HW238715   2.362   3.909  16.685  0.2992 -0.7420 -0.0329
 9086SOL     OW38716   3.404   3.967   3.872 -0.3551 -0.1686  0.1384
 9086SOL    HW138717   3.394   4.063   3.871  3.5806  0.2046 -1.3523
 9086SOL    HW238718   3.480   3.943   3.819 -0.1483  0.9108 -0.0710
 9087SOL     OW38719   1.159   4.300   9.174 -0.1175  0.3237 -0.4433
 9087SOL    HW138720   1.107   4.275   9.250  0.2309  1.8366  0.2883
 9087SOL    HW238721   1.246   4.328   9.203  0.2617 -3.1086  1.6821
 9088SOL     OW38722   3.812   0.773   7.905  0.1416  0.0883  0.3622
 9088SOL    HW138723   3.853   0.857   7.883  0.5416 -0.0582  0.5535
 9088SOL    HW238724   3.796   0.782   7.999 -0.5620 -1.3744  0.3819
 9089SOL     OW38725   0.910   2.304   6.558  0.1745 -0.0620  0.2856
 9089SOL    HW138726   0.894   2.384   6.608  0.5146  0.8664 -1.0941
 9089SOL    HW238727   0.977   2.333   6.496  0.6348  1.0818  1.3412
 9090SOL     OW38728   3.547   3.025  16.354  0.4676 -0.0467  0.0643
 9090SOL    HW138729   3.523   2.968  16.428  2.7945 -1.7709 -0.5325
 9090SOL    HW238730   3.461   3.027  16.311  1.2814 -0.0955 -1.5492
 9091SOL     OW38731   3.542   1.305   0.810 -0.4774  0.9193  0.1592
 9091SOL    HW138732   3.550   1.375   0.875  1.7275  0.0585  0.8418
 9091SOL    HW238733   3.637   1.305   0.797 -0.6088 -3.2996 -0.9625
 9092SOL     OW38734   3.245   2.951   3.919 -0.2686 -0.5743  0.1942
 9092SOL    HW138735   3.313   3.017   3.934  0.3162 -1.1501  0.0855
 9092SOL    HW238736   3.257   2.898   3.998 -0.4971 -1.2725 -0.2444
 9093SOL     OW38737   3.103   3.488   8.749  0.2471 -0.5351 -0.0800
 9093SOL    HW138738   3.134   3.482   8.839 -0.0914 -1.4096 -0.0264
 9093SOL    HW238739   3.024   3.437   8.761 -1.2031  1.4351 -1.2217
 9094SOL     OW38740   3.561   4.106  14.472  0.3945 -0.2019 -0.7234
 9094SOL    HW138741   3.634   4.054  14.440  1.7345 -0.1433  2.2908
 9094SOL    HW238742   3.593   4.196  14.466  0.4740 -0.3403 -2.3841
 9095SOL     OW38743   0.782   2.673   6.260 -0.0877 -0.3540  0.2556
 9095SOL    HW138744   0.708   2.713   6.306 -0.2384 -0.1780 -0.1386
 9095SOL    HW238745   0.845   2.743   6.275  0.5843 -1.2181  1.5734
 9096SOL     OW38746   4.306   4.699   2.414 -0.3318 -0.4753  0.5043
 9096SOL    HW138747   4.212   4.688   2.396 -0.5214  0.6078  0.7999
 9096SOL    HW238748   4.307   0.060   2.463  0.7640 -0.8268  1.0492
 9097SOL     OW38749   1.444   2.019   8.373 -0.5066 -0.4943 -0.6344
 9097SOL    HW138750   1.413   2.076   8.443 -3.4835  0.3856 -2.6316
 9097SOL    HW238751   1.442   2.075   8.295 -2.0853  0.7440  0.2886
 9098SOL     OW38752   4.433   3.222   8.986 -0.2703 -0.0748 -0.4807
 9098SOL    HW138753   4.345   3.255   8.966 -0.5637  1.1359  2.8403
 9098SOL    HW238754   4.445   3.255   9.075 -0.5554  3.1024 -1.5867
 9099SOL     OW38755   0.553   0.380   3.399  0.1432  0.4698  0.0363
 9099SOL    HW138756   0.577   0.324   3.472 -2.1419  1.5094  1.5935
 9099SOL    HW238757   0.573   0.318   3.329  0.8011  0.6651  0.0527
 9100SOL     OW38758   2.528   2.218  11.680 -0.4464  0.0649 -0.3569
 9100SOL    HW138759   2.505   2.179  11.765  0.9454 -0.6032 -0.2865
 9100SOL    HW238760   2.623   2.215  11.671 -0.5373  1.5087 -1.7147
 9101SOL     OW38761   3.774   1.621   1.255  0.3924  0.2134  0.5053
 9101SOL    HW138762   3.761   1.548   1.315 -0.9811  1.0360  1.2268
 9101SOL    HW238763   3.780   1.575   1.172  0.3652 -0.7875  1.0650
 9102SOL     OW38764   3.470   4.198  16.735 -0.0719  0.0857 -0.2956
 9102SOL    HW138765   3.411   4.140  16.686  0.3685 -0.9461  0.3833
 9102SOL    HW238766   3.448   4.149  16.814  2.6236 -0.2895  0.1915
 9103SOL     OW38767   1.320   1.501  16.325  0.2025  0.0443  0.1417
 9103SOL    HW138768   1.364   1.418  16.344  0.6842  0.4340  0.7385
 9103SOL    HW238769   1.393   1.561  16.338 -0.5869  0.9103  0.5296
 9104SOL     OW38770   4.434   3.019   8.476 -0.4213 -0.5714  0.6812
 9104SOL    HW138771   4.435   2.998   8.569  1.1019 -2.4197  0.2693
 9104SOL    HW238772   4.411   3.111   8.481  0.7581 -0.1830 -0.8390
 9105SOL     OW38773   1.011   2.750  11.761  0.2779  0.5805  0.5199
 9105SOL    HW138774   0.967   2.674  11.799  0.6852 -0.3138 -0.7870
 9105SOL    HW238775   0.936   2.798  11.727 -0.8036 -0.9416  0.7488
 9106SOL     OW38776   4.611   3.529  17.120 -0.3239 -0.0771 -0.3531
 9106SOL    HW138777   4.580   3.446  17.154  0.8031 -0.4005 -0.1392
 9106SOL    HW238778   4.690   3.544  17.171 -0.6396 -1.1317  0.4398
 9107SOL     OW38779   0.784   4.465   8.680  0.1429 -0.7888 -0.0527
 9107SOL    HW138780   0.878   4.486   8.684  0.5079 -2.1077 -1.5286
 9107SOL    HW238781   0.790   4.369   8.677  0.5927 -0.7479 -0.5104
 9108SOL     OW38782   3.845   1.341   5.976  0.2898 -0.3212 -0.0455
 9108SOL    HW138783   3.859   1.432   6.000 -2.8454 -0.1348  1.0561
 9108SOL    HW238784   3.751   1.348   5.961  0.6522  0.8075 -1.8239
 9109SOL     OW38785   1.983   1.025   6.803 -0.3933 -0.8615 -0.2438
 9109SOL    HW138786   2.047   1.065   6.862 -1.5873  1.1950 -0.3430
 9109SOL    HW238787   1.959   0.951   6.858 -0.1101  0.0675  1.1142
 9110SOL     OW38788   2.620   3.699   7.587  0.0456  0.2382 -0.3422
 9110SOL    HW138789   2.554   3.672   7.650 -0.8273  0.1832 -1.2939
 9110SOL    HW238790   2.699   3.648   7.605 -1.2656 -2.0803 -1.2771
 9111SOL     OW38791   1.198   1.267   8.862 -0.2467 -0.5350  0.0472
 9111SOL    HW138792   1.248   1.215   8.924  1.4275  0.8018 -0.1855
 9111SOL    HW238793   1.140   1.202   8.822 -1.3824 -0.1095  1.0175
 9112SOL     OW38794   0.428   3.429  16.534 -0.9574 -0.1551 -0.2570
 9112SOL    HW138795   0.481   3.365  16.486  0.7121  0.6835  0.4966
 9112SOL    HW238796   0.354   3.434  16.473 -1.1436  0.6764  0.0398
 9113SOL     OW38797   1.161   4.411   3.291  0.3661  0.0369 -0.1394
 9113SOL    HW138798   1.186   4.388   3.201  2.6341 -1.0605  0.7910
 9113SOL    HW238799   1.068   4.434   3.284  0.8284  1.6074 -0.8911
 9114SOL     OW38800   2.509   2.091  15.527  0.5339 -0.1158 -0.0630
 9114SOL    HW138801   2.548   2.159  15.473  1.1710  0.5820  1.2840
 9114SOL    HW238802   2.435   2.050  15.481 -0.2792 -0.2924  1.3780
 9115SOL     OW38803   3.231   0.598   7.064  0.1775  0.6211 -0.3684
 9115SOL    HW138804   3.242   0.651   6.985  1.9581  1.3668  0.3677
 9115SOL    HW238805   3.204   0.662   7.129 -1.9874 -1.2952  0.6039
 9116SOL     OW38806   2.561   3.007   6.942 -0.0765 -0.0638 -0.5105
 9116SOL    HW138807   2.480   3.052   6.965  0.5483 -0.5493  2.7103
 9116SOL    HW238808   2.533   2.915   6.942  0.2299 -0.1456 -2.6444
 9117SOL     OW38809   3.505   3.809   4.563 -0.2067  0.1501  0.0096
 9117SOL    HW138810   3.594   3.823   4.595 -1.1680  0.9085  2.3497
 9117SOL    HW238811   3.475   3.900   4.564 -1.1979 -0.1793  0.0055
 9118SOL     OW38812   0.417   4.154   2.517 -0.0164  0.1518  0.2700
 9118SOL    HW138813   0.492   4.108   2.480  0.2724 -0.0007  1.0320
 9118SOL    HW238814   0.379   4.083   2.570 -0.1650 -0.3863 -0.5629
 9119SOL     OW38815   3.335   2.206   8.697  0.3997 -0.1036 -0.0125
 9119SOL    HW138816   3.309   2.243   8.781 -1.3136 -1.0429 -0.1109
 9119SOL    HW238817   3.379   2.124   8.717  0.6514  0.1654  0.5144
 9120SOL     OW38818   1.179   3.569   7.429 -0.4246 -0.5638  0.5264
 9120SOL    HW138819   1.232   3.546   7.353  0.5948 -1.7739  1.5929
 9120SOL    HW238820   1.155   3.660   7.412  2.3606 -0.1265 -1.0994
 9121SOL     OW38821   1.014   2.637   1.670  0.2313 -0.1152  0.3627
 9121SOL    HW138822   1.046   2.714   1.716  0.4428  0.1850 -0.2985
 9121SOL    HW238823   0.967   2.587   1.737 -0.9544  1.0000  0.3709
 9122SOL     OW38824   1.220   3.493   4.219 -0.1515 -0.4789 -0.1896
 9122SOL    HW138825   1.186   3.510   4.131 -1.8248  1.0213  0.7682
 9122SOL    HW238826   1.288   3.557   4.241 -1.0375  0.3846  0.0154
 9123SOL     OW38827   2.911   4.108   6.684 -0.2458  0.2382 -0.2499
 9123SOL    HW138828   2.986   4.050   6.701 -2.6191 -2.7087  0.0738
 9123SOL    HW238829   2.839   4.052   6.713  1.3853 -1.4355  0.5612
 9124SOL     OW38830   1.177   4.336   6.630 -0.1962  0.2294 -0.6625
 9124SOL    HW138831   1.235   4.406   6.658  0.1075  0.0329 -0.8032
 9124SOL    HW238832   1.224   4.258   6.658  0.1826  0.3173 -1.0605
 9125SOL     OW38833   0.289   2.417   5.083 -0.1674 -0.4340 -0.0015
 9125SOL    HW138834   0.355   2.381   5.141  0.5719  1.3579  0.2944
 9125SOL    HW238835   0.326   2.405   4.995 -0.9506 -0.7520 -0.2898
 9126SOL     OW38836   0.684   3.255   5.125  0.2236 -0.4181  0.2256
 9126SOL    HW138837   0.737   3.267   5.047 -2.0228  0.3227 -1.1866
 9126SOL    HW238838   0.712   3.326   5.183  1.9485 -0.3225 -0.7492
 9127SOL     OW38839   3.108   1.387   1.182  0.4451 -0.2206  0.9243
 9127SOL    HW138840   3.170   1.396   1.110  1.0409  0.8001  1.5631
 9127SOL    HW238841   3.131   1.295   1.197  2.0310  0.3095  1.7838
 9128SOL     OW38842   2.815   3.014  10.256 -0.6630 -0.2925  0.5467
 9128SOL    HW138843   2.751   3.020  10.327 -3.8700 -0.8527 -2.2543
 9128SOL    HW238844   2.782   2.944  10.199  1.2014 -0.3180 -0.4735
 9129SOL     OW38845   1.206   3.251   2.967  0.0032  0.0726 -0.0505
 9129SOL    HW138846   1.267   3.323   2.982 -1.3992  1.3504 -0.4650
 9129SOL    HW238847   1.146   3.257   3.042 -0.0412 -1.0317  0.0013
 9130SOL     OW38848   1.713   0.687   2.347  0.5168  0.3125  0.0080
 9130SOL    HW138849   1.735   0.773   2.311 -0.0684  0.1631 -0.6940
 9130SOL    HW238850   1.626   0.714   2.377  0.9489 -0.1898  1.7504
 9131SOL     OW38851   3.946   1.410  16.373  0.2854 -0.0992  0.4065
 9131SOL    HW138852   3.971   1.500  16.394 -1.0161  1.2357 -3.8307
 9131SOL    HW238853   4.012   1.362  16.423  2.2052  2.0585 -0.0328
 9132SOL     OW38854   0.928   4.184   8.384 -0.1803  0.0207 -0.2380
 9132SOL    HW138855   0.957   4.100   8.350 -2.5104  0.5441 -3.5083
 9132SOL    HW238856   0.883   4.162   8.465 -0.6170 -0.7042 -0.6829
 9133SOL     OW38857   2.993   2.613   3.733 -0.8474  0.1232 -0.2571
 9133SOL    HW138858   2.941   2.612   3.814  0.9139  3.2918  0.8986
 9133SOL    HW238859   3.057   2.547   3.761 -0.7112 -0.1195 -1.1387
 9134SOL     OW38860   2.149   1.073   5.802  0.4008 -0.1731  0.0129
 9134SOL    HW138861   2.075   1.021   5.834  0.3300  0.9153  1.6092
 9134SOL    HW238862   2.171   1.134   5.873  1.8266  2.0309 -2.3466
 9135SOL     OW38863   0.472   1.361   3.997  0.0799  0.3210  0.4860
 9135SOL    HW138864   0.497   1.327   3.912 -0.3349  1.4995 -0.0956
 9135SOL    HW238865   0.554   1.359   4.046  0.8572 -2.9231 -0.9600
 9136SOL     OW38866   2.196   1.539   2.909  0.0588  0.6377 -0.6995
 9136SOL    HW138867   2.122   1.548   2.849  1.6431  1.2421 -2.5713
 9136SOL    HW238868   2.251   1.481   2.857 -1.3544 -1.2718 -0.0657
 9137SOL     OW38869   1.356   1.709  12.634 -0.4439  0.2055  0.0279
 9137SOL    HW138870   1.264   1.734  12.645 -0.2220  1.0605 -0.0561
 9137SOL    HW238871   1.369   1.641  12.701  0.6145 -0.6679 -1.0573
 9138SOL     OW38872   2.988   1.724   9.124  0.1994 -0.0875 -0.2945
 9138SOL    HW138873   2.992   1.636   9.164  2.3621  0.2120  0.1229
 9138SOL    HW238874   2.962   1.768   9.205  1.5633 -0.2490  0.2353
 9139SOL     OW38875   4.624   3.133   2.514 -0.3936 -0.4081 -0.9316
 9139SOL    HW138876   4.531   3.113   2.518  0.2087 -3.3650 -1.8406
 9139SOL    HW238877   4.662   3.077   2.582 -0.2133  1.9616  0.9445
 9140SOL     OW38878   1.883   3.889   9.435 -0.2882 -0.4959  0.1298
 9140SOL    HW138879   1.949   3.833   9.395 -0.8453 -0.9921 -0.0886
 9140SOL    HW238880   1.913   3.874   9.525  0.1629 -1.3264 -0.1689
 9141SOL     OW38881   1.096   2.816   7.293  0.1373  0.3032  0.5221
 9141SOL    HW138882   1.168   2.841   7.234 -0.5665 -2.7651 -1.6012
 9141SOL    HW238883   1.041   2.893   7.305 -0.8242 -0.4297  0.7798
 9142SOL     OW38884   4.701   3.258   6.853  0.4638  0.1951 -0.3593
 9142SOL    HW138885   0.044   3.208   6.802  0.1474 -0.3538 -0.2203
 9142SOL    HW238886   0.023   3.302   6.926 -0.9729 -0.5263  0.9338
 9143SOL     OW38887   0.060   1.871   7.453 -0.2821  0.5581  0.4954
 9143SOL    HW138888   0.137   1.862   7.395 -2.9558  1.0666 -3.1234
 9143SOL    HW238889   0.055   1.965   7.466  0.1562  0.7883 -0.9249
 9144SOL     OW38890   2.758   1.846   3.484 -0.5714 -0.0014 -0.0412
 9144SOL    HW138891   2.666   1.873   3.477  0.3027  2.9619  0.0385
 9144SOL    HW238892   2.788   1.920   3.431 -0.6089 -0.7588 -1.1345
 9145SOL     OW38893   4.053   1.260   6.509 -0.6253  0.0792 -0.2316
 9145SOL    HW138894   4.051   1.239   6.416  1.5157 -3.1509  0.4639
 9145SOL    HW238895   4.107   1.339   6.510  0.1322 -0.4530  2.0700
 9146SOL     OW38896   1.128   1.824  11.623 -0.1233  0.2737  0.5331
 9146SOL    HW138897   1.080   1.780  11.694 -1.4187  2.7816  1.1818
 9146SOL    HW238898   1.219   1.802  11.642  0.3839  2.0103  0.0297
 9147SOL     OW38899   3.266   2.270  10.097 -0.4847 -0.3079 -0.1732
 9147SOL    HW138900   3.261   2.278  10.002  1.0698  0.3117 -0.1887
 9147SOL    HW238901   3.331   2.201  10.106 -2.6652 -2.4034 -0.2202
 9148SOL     OW38902   3.052   3.231   3.959  0.0537  0.2815 -0.1703
 9148SOL    HW138903   3.103   3.263   3.885  2.4296  0.3952  1.5176
 9148SOL    HW238904   2.991   3.170   3.917 -0.7694 -0.2083  1.7508
 9149SOL     OW38905   3.145   1.560  16.282  0.4081 -0.0524 -0.3978
 9149SOL    HW138906   3.156   1.638  16.336  0.4605 -1.6756  1.9616
 9149SOL    HW238907   3.211   1.588  16.218  0.5493  1.5266  0.4366
 9150SOL     OW38908   1.187   4.289   2.706 -0.0125  0.2932  0.2133
 9150SOL    HW138909   1.134   4.348   2.652  0.0445 -1.5504 -1.8817
 9150SOL    HW238910   1.276   4.317   2.684 -1.0117  2.7253 -0.7170
 9151SOL     OW38911   2.836   0.800   9.340  0.3298 -0.2797 -0.2618
 9151SOL    HW138912   2.786   0.736   9.289 -1.4856  1.1890 -0.3355
 9151SOL    HW238913   2.921   0.768   9.310  1.0966  0.2898  1.3433
 9152SOL     OW38914   1.272   1.980   7.795 -0.2550  0.3340  0.1144
 9152SOL    HW138915   1.206   2.031   7.747  0.0865  0.1318 -0.5764
 9152SOL    HW238916   1.339   2.045   7.816  0.1611  0.9145 -2.9839
 9153SOL     OW38917   1.126   3.498   1.431  0.4049 -0.2379 -0.6209
 9153SOL    HW138918   1.161   3.556   1.499 -1.1658  0.6303 -0.5435
 9153SOL    HW238919   1.090   3.555   1.363 -0.2085 -0.8658 -0.8213
 9154SOL     OW38920   1.787   4.231   7.758  0.0561  0.4831 -0.4183
 9154SOL    HW138921   1.723   4.189   7.816  1.8926  0.5942  1.7152
 9154SOL    HW238922   1.746   4.317   7.746 -2.0245 -0.3519  0.7032
 9155SOL     OW38923   1.583   1.434   2.262 -0.5106 -0.3664 -0.5064
 9155SOL    HW138924   1.499   1.473   2.288  0.6895  1.6643  0.3283
 9155SOL    HW238925   1.633   1.515   2.253 -0.5786 -0.3031 -0.3136
 9156SOL     OW38926   1.415   0.873   0.944  0.0009 -0.0827 -0.2518
 9156SOL    HW138927   1.468   0.798   0.917 -0.0868  0.0592 -0.8012
 9156SOL    HW238928   1.478   0.927   0.992  2.0630 -1.7994 -1.0304
 9157SOL     OW38929   2.782   3.707   5.650  0.7391  0.5112 -0.3119
 9157SOL    HW138930   2.806   3.771   5.718  0.6204 -1.0859  1.2565
 9157SOL    HW238931   2.868   3.664   5.646 -1.3711 -3.8328  0.8732
 9158SOL     OW38932   0.508   2.154   9.518  0.0727  0.6219  0.1201
 9158SOL    HW138933   0.600   2.144   9.495  0.3738  3.1033  0.2223
 9158SOL    HW238934   0.514   2.191   9.606 -1.7761  1.6991 -0.1946
 9159SOL     OW38935   1.999   3.091  16.577 -0.6211 -0.4760 -0.1404
 9159SOL    HW138936   1.983   3.002  16.609 -1.1134 -0.1622  0.4912
 9159SOL    HW238937   2.025   3.138  16.656 -0.7715  1.8997 -1.5090
 9160SOL     OW38938   0.198   3.010   9.150 -0.6951  0.7945 -0.0211
 9160SOL    HW138939   0.216   3.101   9.128  0.0978  0.7066  0.2514
 9160SOL    HW238940   0.277   2.986   9.198 -2.2594 -0.7950  1.7499
 9161SOL     OW38941   1.434   1.430   6.911  0.0858  0.3149 -0.3202
 9161SOL    HW138942   1.434   1.340   6.878 -2.5602  0.0097  0.5154
 9161SOL    HW238943   1.386   1.421   6.993  1.5415 -2.4863  0.1900
 9162SOL     OW38944   3.307   3.888   8.761  0.2074 -0.0722  0.1977
 9162SOL    HW138945   3.366   3.905   8.688  0.5424 -1.1158  0.2224
 9162SOL    HW238946   3.243   3.829   8.721 -0.4573  1.1499 -0.5181
 9163SOL     OW38947   1.429   2.332  17.156  0.0442  0.5544 -0.1836
 9163SOL    HW138948   1.405   2.304  17.244  0.5539 -1.4639 -0.6909
 9163SOL    HW238949   1.521   2.312  17.172  0.0495  0.0296 -0.8741
 9164SOL     OW38950   1.513   0.220   3.746 -0.3601  0.2320 -0.2614
 9164SOL    HW138951   1.469   0.274   3.680  0.9849  1.0620 -0.4578
 9164SOL    HW238952   1.463   0.139   3.731  0.8674 -0.6094  0.1568
 9165SOL     OW38953   2.529   2.986  15.142  0.3618  0.1610 -0.4423
 9165SOL    HW138954   2.541   2.895  15.171 -0.2214  0.6220  1.2239
 9165SOL    HW238955   2.524   3.038  15.222 -0.8922 -0.0203 -0.4011
 9166SOL     OW38956   0.449   4.552   7.696  0.0506 -0.7971 -0.2587
 9166SOL    HW138957   0.379   4.616   7.689 -0.9126 -1.7066  0.9191
 9166SOL    HW238958   0.524   4.610   7.710 -0.2383 -0.6129  0.5156
 9167SOL     OW38959   2.883   2.502   7.224 -0.0906  0.4218  0.1555
 9167SOL    HW138960   2.924   2.588   7.231 -0.6622  0.7854 -1.1366
 9167SOL    HW238961   2.794   2.521   7.197  0.0621  1.2216  0.2157
 9168SOL     OW38962   3.369   4.090   4.301 -0.1332  0.0394  0.2397
 9168SOL    HW138963   3.455   4.086   4.260 -1.2547 -2.2445 -1.9053
 9168SOL    HW238964   3.402   4.098   4.390 -0.0238 -0.3546  0.2321
 9169SOL     OW38965   4.534   0.530   6.007 -0.1100  0.3222  0.2634
 9169SOL    HW138966   4.495   0.547   6.092 -0.0217  1.3088  0.1100
 9169SOL    HW238967   4.578   0.613   5.988  2.6129 -0.6382  2.4564
 9170SOL     OW38968   3.820   2.697  12.167  0.1239  0.1198 -0.4037
 9170SOL    HW138969   3.832   2.743  12.083 -1.7291  0.1118 -0.6652
 9170SOL    HW238970   3.911   2.685  12.195  0.1725  1.0717 -0.1862
 9171SOL     OW38971   4.623   0.833   7.216 -0.4788  0.6623 -0.0638
 9171SOL    HW138972   4.668   0.906   7.259 -0.2996  0.7096 -0.3327
 9171SOL    HW238973   4.692   0.783   7.173 -0.2981  0.4391  0.4874
 9172SOL     OW38974   4.535   0.362  11.547  0.0055 -0.6629 -0.0762
 9172SOL    HW138975   4.547   0.402  11.633  0.5780 -0.4955 -0.2341
 9172SOL    HW238976   4.625   0.360  11.512 -0.1310 -1.9045 -0.3361
 9173SOL     OW38977   2.103   3.204  13.675  0.6595 -0.1260  0.1660
 9173SOL    HW138978   2.152   3.272  13.721  0.6253  0.2391 -0.3387
 9173SOL    HW238979   2.087   3.259  13.599  2.4185 -0.8045 -0.6927
 9174SOL     OW38980   2.676   3.684   5.005  0.0538 -0.0023  0.2045
 9174SOL    HW138981   2.690   3.718   4.916  1.1960 -1.5788 -0.2127
 9174SOL    HW238982   2.709   3.595   5.001 -2.4138 -1.0096  2.1866
 9175SOL     OW38983   1.776   3.248  16.606 -0.1817 -0.0775 -0.0003
 9175SOL    HW138984   1.843   3.184  16.580 -2.1686 -2.2058  0.1525
 9175SOL    HW238985   1.744   3.269  16.518 -2.3043 -2.8813  0.1167
 9176SOL     OW38986   0.397   0.150   3.798  0.0830 -0.1993  0.7329
 9176SOL    HW138987   0.337   0.111   3.862  0.5147  1.0731  1.9061
 9176SOL    HW238988   0.353   0.234   3.785 -0.7028 -1.1220 -2.5785
 9177SOL     OW38989   2.989   0.399   3.974 -0.2585 -0.4755  0.0709
 9177SOL    HW138990   3.060   0.371   3.916 -1.8831  0.4723 -2.4327
 9177SOL    HW238991   3.030   0.481   3.999 -0.7986 -0.2619  0.2536
 9178SOL     OW38992   0.967   0.904   8.425  0.4475 -0.2041 -0.3475
 9178SOL    HW138993   0.900   0.905   8.357  0.7286  0.3637 -0.6139
 9178SOL    HW238994   0.995   0.995   8.439  0.2868 -0.0244 -1.2000
 9179SOL     OW38995   1.801   0.841   6.240  0.0548 -0.3586 -0.3503
 9179SOL    HW138996   1.806   0.747   6.223 -0.6203 -0.4726  0.0787
 9179SOL    HW238997   1.806   0.877   6.152  2.1075  1.4478  0.5127
 9180SOL     OW38998   2.634   3.813   5.265 -0.5867 -0.0412 -0.2167
 9180SOL    HW138999   2.660   3.775   5.181 -0.9761 -1.1277  0.1408
 9180SOL    HW239000   2.615   3.903   5.240 -3.1886 -0.6722 -0.5494
 9181SOL     OW39001   0.907   1.469   7.505  0.4366 -0.1997  0.3065
 9181SOL    HW139002   0.948   1.555   7.516  0.7442 -0.4063  0.8171
 9181SOL    HW239003   0.868   1.491   7.421  0.7356 -0.8777 -0.0107
 9182SOL     OW39004   0.813   4.399  17.338 -0.2949  0.5508  0.6040
 9182SOL    HW139005   0.866   4.346  17.398 -1.4120  0.1895  1.2823
 9182SOL    HW239006   0.845   4.488  17.345 -0.7848  0.6190  1.9004
 9183SOL     OW39007   1.459   3.497   8.031  0.5824  0.3768 -0.0891
 9183SOL    HW139008   1.528   3.546   7.987 -0.8361  2.2941 -0.2050
 9183SOL    HW239009   1.451   3.533   8.119 -0.8783  1.5428 -0.6950
 9184SOL     OW39010   4.397   4.307  15.932  0.0691  0.1600 -0.1602
 9184SOL    HW139011   4.371   4.308  16.024  0.4997 -0.8798 -0.0288
 9184SOL    HW239012   4.463   4.238  15.936 -1.4320 -0.9778  4.8073
 9185SOL     OW39013   3.898   0.182   5.990  0.1590  0.0359 -0.1168
 9185SOL    HW139014   3.990   0.156   5.997  0.2606  0.6534  0.7521
 9185SOL    HW239015   3.878   0.190   5.896  2.4772 -0.5509 -0.6672
 9186SOL     OW39016   3.215   2.487  16.000 -0.4092 -0.0755  0.2562
 9186SOL    HW139017   3.139   2.544  16.007  0.3478  0.9010  0.5233
 9186SOL    HW239018   3.282   2.544  15.963 -0.9552  0.1960 -0.3034
 9187SOL     OW39019   2.614   1.401   3.075 -0.1960  0.5817  0.9117
 9187SOL    HW139020   2.590   1.476   3.128 -1.2441  0.1181  1.0957
 9187SOL    HW239021   2.595   1.328   3.135  3.7038 -0.8936  0.3741
 9188SOL     OW39022   3.186   4.556  15.518 -0.0634 -0.2462  0.3765
 9188SOL    HW139023   3.138   4.522  15.594  1.5519 -0.4660  1.2930
 9188SOL    HW239024   3.113   4.547  15.457  0.8304 -2.4816 -0.3629
 9189SOL     OW39025   2.812   1.504   4.806 -0.0537  0.6205  0.4561
 9189SOL    HW139026   2.753   1.447   4.854 -0.3666  0.6732  0.1348
 9189SOL    HW239027   2.803   1.460   4.722  1.3716  4.6648 -1.8398
 9190SOL     OW39028   2.370   3.568   3.052 -0.5997  0.1482  0.0296
 9190SOL    HW139029   2.323   3.485   3.053 -0.6795  0.1938  0.0706
 9190SOL    HW239030   2.405   3.556   2.964  0.8409  1.9654  0.3544
 9191SOL     OW39031   3.914   1.535  14.870 -0.1822  0.1842  0.0984
 9191SOL    HW139032   3.958   1.539  14.955 -0.8266 -0.5585  0.4682
 9191SOL    HW239033   3.845   1.474  14.896  1.8457 -1.7585  0.8658
 9192SOL     OW39034   2.687   2.874   8.119 -0.2156  0.2077 -0.0675
 9192SOL    HW139035   2.712   2.795   8.072 -1.5537  0.4269 -1.1437
 9192SOL    HW239036   2.720   2.949   8.069 -0.0746 -0.5713 -1.1436
 9193SOL     OW39037   2.813   1.240   5.079  0.2243  0.0436  0.1577
 9193SOL    HW139038   2.856   1.176   5.023  2.7101  0.9361  1.0850
 9193SOL    HW239039   2.876   1.311   5.072  0.4451 -0.0141  1.4877
 9194SOL     OW39040   3.438   2.201   9.251 -0.0382  0.0075  0.0265
 9194SOL    HW139041   3.446   2.283   9.300 -4.3057 -1.4142  3.0854
 9194SOL    HW239042   3.377   2.148   9.302  0.2478 -1.0623 -0.7655
 9195SOL     OW39043   0.595   2.688   2.331 -0.2113  0.0615 -0.1115
 9195SOL    HW139044   0.575   2.652   2.418 -2.0888  2.0965  0.2907
 9195SOL    HW239045   0.537   2.763   2.320  0.9581  0.7316 -1.7011
 9196SOL     OW39046   0.693   2.389   5.236  0.3089 -0.3331  0.3047
 9196SOL    HW139047   0.612   2.341   5.253  0.4392 -0.5167  0.4174
 9196SOL    HW239048   0.705   2.443   5.315  0.9719  0.2583 -0.1993
 9197SOL     OW39049   2.737   3.838   1.290 -0.8648  0.5900  0.0338
 9197SOL    HW139050   2.801   3.909   1.282  0.6375 -0.8550 -0.5935
 9197SOL    HW239051   2.671   3.875   1.349 -0.4361 -0.9373  1.4661
 9198SOL     OW39052   3.174   3.461   9.020 -0.0502  0.1624  0.0050
 9198SOL    HW139053   3.231   3.455   9.096 -1.4582  2.8861  1.3046
 9198SOL    HW239054   3.106   3.520   9.054  0.6702  0.8833  0.1990
 9199SOL     OW39055   0.151   4.431   9.323  0.1009  0.2078  0.3172
 9199SOL    HW139056   0.167   4.353   9.377  0.0491 -1.4655 -2.1022
 9199SOL    HW239057   0.121   4.384   9.245  1.7882  4.3322 -2.8142
 9200SOL     OW39058   0.151   3.959  12.920 -0.8189 -0.4551  0.5370
 9200SOL    HW139059   0.206   4.008  12.981  0.2272 -3.0122  1.6479
 9200SOL    HW239060   0.113   3.892  12.976 -1.0569 -0.5853  0.2252
 9201SOL     OW39061   3.873   2.433  17.540 -0.0504  0.1315  0.0118
 9201SOL    HW139062   3.823   2.365  17.585 -0.7722 -0.0673 -1.0937
 9201SOL    HW239063   3.825   2.513  17.558  1.2810  0.5926  1.4836
 9202SOL     OW39064   1.859   1.930   3.943 -0.1018 -0.4482 -0.6728
 9202SOL    HW139065   1.778   1.895   3.906 -0.4684 -1.0955  0.7280
 9202SOL    HW239066   1.845   2.022   3.923 -1.5939 -0.9985 -2.2362
 9203SOL     OW39067   2.989   1.152   8.903 -0.4424  0.3365  0.1858
 9203SOL    HW139068   3.038   1.232   8.918 -1.2796  1.3128 -2.3884
 9203SOL    HW239069   3.062   1.090   8.908 -0.6359  0.2265  1.7975
 9204SOL     OW39070   1.435   1.763   7.638 -0.7520 -0.0554 -0.4536
 9204SOL    HW139071   1.381   1.807   7.704 -1.3113  0.3802 -1.2048
 9204SOL    HW239072   1.366   1.707   7.603 -1.7516  1.5338 -1.0245
 9205SOL     OW39073   0.455   2.184   6.495  0.2498  0.1166 -0.0015
 9205SOL    HW139074   0.441   2.278   6.487 -0.3795 -0.0880 -1.3212
 9205SOL    HW239075   0.438   2.169   6.588 -1.9916  1.9775 -0.1147
 9206SOL     OW39076   2.691   0.113   5.266  0.5051 -0.4627  0.1042
 9206SOL    HW139077   2.753   0.122   5.194  0.1639  0.6235 -0.0602
 9206SOL    HW239078   2.742   0.164   5.329 -0.2729 -1.5887  1.6523
 9207SOL     OW39079   4.417   0.137   3.754  0.0357  0.1645  0.2452
 9207SOL    HW139080   4.471   0.058   3.750  0.2697  0.3672 -0.6212
 9207SOL    HW239081   4.487   0.201   3.769 -0.4273  1.1031 -1.7473
 9208SOL     OW39082   2.171   3.895  15.182 -0.1114  0.5574 -0.2702
 9208SOL    HW139083   2.161   3.814  15.232 -0.7133  0.8949  0.1455
 9208SOL    HW239084   2.081   3.918  15.162  0.1346  1.1346 -0.7184
 9209SOL     OW39085   1.894   4.557   3.017 -0.1518  0.4784  0.3775
 9209SOL    HW139086   1.845   4.508   2.952  0.6466 -0.0496  0.1824
 9209SOL    HW239087   1.972   4.502   3.025 -0.5477  0.1794  2.1927
 9210SOL     OW39088   4.420   4.697   1.235 -0.3923 -0.2593  0.3754
 9210SOL    HW139089   4.358   4.679   1.164 -0.0294 -3.1532  0.8041
 9210SOL    HW239090   4.406   4.629   1.300 -0.6338 -0.0008  0.5943
 9211SOL     OW39091   1.363   2.976   9.489 -0.0177 -0.6244  0.0980
 9211SOL    HW139092   1.368   3.067   9.520  1.1577  0.3165 -2.7939
 9211SOL    HW239093   1.436   2.957   9.430  0.3285  1.6462 -0.2128
 9212SOL     OW39094   0.379   4.197  16.768 -0.3587  0.0414  0.0012
 9212SOL    HW139095   0.403   4.186  16.676  3.8935  1.2215  0.9444
 9212SOL    HW239096   0.456   4.157  16.809  0.3849  0.2132 -1.2429
 9213SOL     OW39097   1.633   3.903  14.685  0.0087 -0.3422 -0.4159
 9213SOL    HW139098   1.584   3.978  14.652 -1.0473 -0.7863  0.1050
 9213SOL    HW239099   1.555   3.849  14.700  1.0670 -2.1667 -1.4227
 9214SOL     OW39100   2.031   4.202  14.690 -0.0315  0.2966 -0.6089
 9214SOL    HW139101   1.975   4.277  14.672 -0.7197 -0.1744 -0.4280
 9214SOL    HW239102   1.969   4.134  14.717 -0.5758  1.1056  0.1660
 9215SOL     OW39103   1.236   2.161  16.317  0.1218 -0.0447  0.1978
 9215SOL    HW139104   1.210   2.108  16.391 -1.6792 -1.2968 -1.3366
 9215SOL    HW239105   1.226   2.102  16.242  2.3297 -1.6174  1.1400
 9216SOL     OW39106   3.928   1.898   4.354  0.0250  0.3246  0.1340
 9216SOL    HW139107   3.943   1.867   4.443 -0.3944  0.4399  0.2436
 9216SOL    HW239108   3.974   1.828   4.307  1.0054  1.7751 -1.0408
 9217SOL     OW39109   0.917   3.917   1.294 -0.1073 -0.0253 -0.3795
 9217SOL    HW139110   0.853   3.918   1.223 -1.2732  0.5487  0.6687
 9217SOL    HW239111   0.916   4.013   1.303 -1.2904 -0.0675 -0.0313
 9218SOL     OW39112   1.273   2.948   8.429 -0.4546  0.4056 -0.5964
 9218SOL    HW139113   1.356   2.995   8.427  0.2958 -0.7314  3.4849
 9218SOL    HW239114   1.234   2.988   8.507  0.5840 -2.3745  1.3491
 9219SOL     OW39115   1.897   3.952  15.161  0.7827 -0.1582 -0.3328
 9219SOL    HW139116   1.877   3.935  15.069  1.8102 -1.1478 -0.3798
 9219SOL    HW239117   1.829   3.901  15.205  2.4188  0.7803  3.2302
 9220SOL     OW39118   0.163   3.977   9.667  0.0286  0.0175 -0.0416
 9220SOL    HW139119   0.169   4.049   9.729  1.3959 -0.5886  0.5366
 9220SOL    HW239120   0.184   3.901   9.721  0.8080 -0.2283 -0.6821
 9221SOL     OW39121   2.755   0.467  10.175 -0.1539 -0.0485 -0.0166
 9221SOL    HW139122   2.790   0.382  10.198  0.6412  0.1235 -0.5877
 9221SOL    HW239123   2.829   0.518  10.143 -1.9881  1.9466 -1.1664
 9222SOL     OW39124   0.962   0.634  16.500  0.2523  0.5684 -0.0051
 9222SOL    HW139125   0.914   0.714  16.518 -1.6399 -0.5658 -0.0399
 9222SOL    HW239126   1.022   0.671  16.435  3.0359 -1.7418  1.2465
 9223SOL     OW39127   3.554   0.915  16.627 -0.8676  0.4404 -0.0530
 9223SOL    HW139128   3.567   0.876  16.714 -2.8719 -2.1378 -0.9156
 9223SOL    HW239129   3.465   0.886  16.610 -0.2736 -1.1474 -0.4868
 9224SOL     OW39130   2.841   2.011   9.054  0.2117  0.1060  0.1412
 9224SOL    HW139131   2.795   2.091   9.079  0.0210 -0.0731  0.3580
 9224SOL    HW239132   2.900   1.999   9.128  1.4099  0.2763 -0.7890
 9225SOL     OW39133   3.185   1.326   3.913  0.3141 -0.0045 -0.3429
 9225SOL    HW139134   3.278   1.304   3.923  0.4816  0.6360 -0.4949
 9225SOL    HW239135   3.144   1.250   3.954  0.5060  0.1317  0.1086
 9226SOL     OW39136   0.600   3.641   8.037  0.4182  0.2354  0.3505
 9226SOL    HW139137   0.590   3.731   8.069  1.1245  0.5811 -0.4048
 9226SOL    HW239138   0.535   3.594   8.090 -0.6912  0.5489 -0.7468
 9227SOL     OW39139   2.379   1.844   8.827 -0.5168 -0.4691 -0.3175
 9227SOL    HW139140   2.418   1.871   8.909 -0.5092  0.8769 -0.7673
 9227SOL    HW239141   2.448   1.817   8.767 -1.7031 -1.3428 -1.3079
 9228SOL     OW39142   2.701   3.764  10.629  0.5570 -0.2268  0.0247
 9228SOL    HW139143   2.640   3.695  10.602  1.5658 -0.5696 -1.3662
 9228SOL    HW239144   2.757   3.712  10.687 -0.2821 -1.2664 -0.0966
 9229SOL     OW39145   4.468   0.337   9.525 -0.2009 -0.4919  0.0968
 9229SOL    HW139146   4.399   0.283   9.487 -1.3222  0.7848  0.3126
 9229SOL    HW239147   4.507   0.290   9.599 -1.0476 -1.6306 -0.1800
 9230SOL     OW39148   3.276   2.086   9.437  0.1960 -1.1758 -0.1725
 9230SOL    HW139149   3.198   2.133   9.466  0.5994 -0.0085 -0.9912
 9230SOL    HW239150   3.312   2.069   9.524 -1.5427  2.9405  1.3152
 9231SOL     OW39151   1.412   3.699   5.528 -0.2536  0.0456  0.8276
 9231SOL    HW139152   1.382   3.636   5.593  0.5193 -0.5279  0.6316
 9231SOL    HW239153   1.366   3.673   5.448 -2.0010 -0.7687  2.0994
 9232SOL     OW39154   1.228   0.742   4.246  0.6449 -0.0461  0.1643
 9232SOL    HW139155   1.269   0.676   4.302 -1.4390 -0.3120  1.3974
 9232SOL    HW239156   1.269   0.731   4.160  0.8700 -2.7794  0.6154
 9233SOL     OW39157   3.274   4.256   2.636 -0.2241 -0.1001  0.0065
 9233SOL    HW139158   3.256   4.300   2.553 -0.6018 -0.0937  0.0913
 9233SOL    HW239159   3.361   4.293   2.654 -0.3560  0.9078 -1.4511
 9234SOL     OW39160   1.877   4.363  13.987 -0.5353  0.0753  0.7262
 9234SOL    HW139161   1.925   4.420  13.927 -2.0949  0.8457  0.2221
 9234SOL    HW239162   1.823   4.321  13.920 -0.3319  1.9486 -0.6164
 9235SOL     OW39163   2.674   0.895   7.191 -0.4147 -0.7806 -0.3449
 9235SOL    HW139164   2.697   0.967   7.132  1.1147 -0.6525  0.4136
 9235SOL    HW239165   2.605   0.936   7.244 -0.2981 -1.2152  0.1443
 9236SOL     OW39166   1.178   2.902   6.062 -0.0574 -0.5176  0.2110
 9236SOL    HW139167   1.162   2.815   6.025 -1.1472  0.1999 -1.0422
 9236SOL    HW239168   1.274   2.902   6.063 -0.0751 -2.2870  1.4685
 9237SOL     OW39169   4.690   2.542   8.864  0.0063 -0.4071  0.2738
 9237SOL    HW139170   0.035   2.564   8.930 -2.1867  3.3231  1.2333
 9237SOL    HW239171   4.612   2.583   8.903 -1.4973 -1.2190 -1.8751
 9238SOL     OW39172   3.041   0.353   5.297  0.6603 -0.1810 -0.0692
 9238SOL    HW139173   3.052   0.388   5.209 -1.6011  1.3388  0.2532
 9238SOL    HW239174   3.127   0.328   5.331  1.7123  1.7648 -1.3519
 9239SOL     OW39175   1.698   1.621   6.089 -0.8073 -0.8835  0.8232
 9239SOL    HW139176   1.655   1.537   6.103  0.2984 -1.6797 -0.4770
 9239SOL    HW239177   1.707   1.620   5.993 -3.0560  0.9307  0.6121
 9240SOL     OW39178   0.832   4.425   1.435  0.5380  0.0023  0.2175
 9240SOL    HW139179   0.797   4.476   1.508  1.5979 -0.0368  0.7511
 9240SOL    HW239180   0.812   4.475   1.355 -0.7097 -0.5567  0.1726
 9241SOL     OW39181   4.572   3.426   6.335 -0.1656  0.4218 -0.0085
 9241SOL    HW139182   4.573   3.366   6.409  1.2694  1.8247  1.0926
 9241SOL    HW239183   4.509   3.380   6.279 -0.1812 -1.6926  1.7393
 9242SOL     OW39184   1.591   1.087   2.883  0.0201  0.5821  0.0079
 9242SOL    HW139185   1.508   1.105   2.840  0.1624 -0.7598 -0.8509
 9242SOL    HW239186   1.620   1.026   2.815 -2.8309 -1.6484  0.8172
 9243SOL     OW39187   3.849   1.513   3.487  0.5348 -0.0589  0.4553
 9243SOL    HW139188   3.936   1.484   3.459 -0.3100 -0.0388 -2.1731
 9243SOL    HW239189   3.812   1.483   3.404 -1.0323  3.1127 -0.0142
 9244SOL     OW39190   0.081   1.937  13.123 -0.0093  0.0939 -0.6742
 9244SOL    HW139191   0.076   1.849  13.160  0.2593  1.0702  1.6677
 9244SOL    HW239192   0.033   1.923  13.041  1.2886 -3.8766 -0.7819
 9245SOL     OW39193   3.445   2.476   5.071  0.4796  0.4612  0.3249
 9245SOL    HW139194   3.383   2.485   5.143 -0.1738 -0.6678 -0.1007
 9245SOL    HW239195   3.433   2.562   5.032 -1.7080 -0.0573 -0.1341
 9246SOL     OW39196   0.956   4.037   7.474 -0.6567 -0.6824 -0.1138
 9246SOL    HW139197   0.997   4.089   7.543  1.7100  0.4647 -2.3520
 9246SOL    HW239198   1.015   4.054   7.400 -3.4505 -1.8220 -2.5921
 9247SOL     OW39199   4.055   2.696   7.517  0.1440 -0.0893  0.0056
 9247SOL    HW139200   3.984   2.648   7.473  0.8130 -0.8793 -0.2044
 9247SOL    HW239201   4.114   2.621   7.517  0.4682  0.1601  1.0162
 9248SOL     OW39202   1.870   0.282  13.446 -0.2813 -0.4698 -0.2672
 9248SOL    HW139203   1.798   0.336  13.414 -0.9596  0.2516  2.4506
 9248SOL    HW239204   1.871   0.307  13.538 -2.1342  0.1451 -0.4184
 9249SOL     OW39205   1.948   3.805   7.433  0.1745  0.1174  0.9055
 9249SOL    HW139206   1.941   3.899   7.450  3.0114  0.6872 -1.1797
 9249SOL    HW239207   1.952   3.768   7.521 -1.3841 -2.0835  0.0662
 9250SOL     OW39208   2.996   3.991   8.143 -0.2845 -0.1154 -0.1933
 9250SOL    HW139209   2.964   3.901   8.139 -0.6825 -0.0125  0.7488
 9250SOL    HW239210   3.074   3.968   8.194  0.8065 -0.7560 -2.1420
 9251SOL     OW39211   1.215   4.615   5.730  0.1117  0.8498  0.2254
 9251SOL    HW139212   1.297   4.630   5.684 -0.3939  3.5918  0.1822
 9251SOL    HW239213   1.243   4.621   5.821  1.8302 -0.8672 -0.1947
 9252SOL     OW39214   2.442   0.117  17.058 -0.3668 -0.2774  0.1792
 9252SOL    HW139215   2.447   0.201  17.104  1.0370 -0.4907  0.4047
 9252SOL    HW239216   2.352   0.126  17.027 -0.1913 -0.1962 -0.3247
 9253SOL     OW39217   1.941   0.908   5.871 -0.4294  0.4219 -1.0729
 9253SOL    HW139218   1.847   0.901   5.886 -0.2180 -0.5708 -0.1648
 9253SOL    HW239219   1.958   0.831   5.817 -0.2263  0.7789 -1.5108
 9254SOL     OW39220   3.625   4.156  16.987  0.4884 -0.2873 -0.6337
 9254SOL    HW139221   3.600   4.101  17.061 -0.3382  1.2066  0.2102
 9254SOL    HW239222   3.577   4.233  17.019  2.4661  1.1043 -1.0411
 9255SOL     OW39223   1.103   1.510   0.667  0.0352 -0.2565  0.2648
 9255SOL    HW139224   1.141   1.559   0.594 -1.6179  0.9276  0.2097
 9255SOL    HW239225   1.096   1.421   0.632  0.8545 -1.4332  3.0247
 9256SOL     OW39226   0.939   1.495   5.560  0.0541 -0.3345 -0.3700
 9256SOL    HW139227   0.846   1.516   5.568  0.1475 -0.5272  1.1785
 9256SOL    HW239228   0.930   1.403   5.534 -1.0163 -0.6138  0.9928
 9257SOL     OW39229   1.133   3.326  16.618  0.1612 -0.3946  0.1954
 9257SOL    HW139230   1.067   3.316  16.549 -0.4391  2.0483  0.4308
 9257SOL    HW239231   1.082   3.358  16.692  0.3486  0.0639  0.1245
 9258SOL     OW39232   3.237   3.800   4.090 -0.1287  0.2467 -0.1688
 9258SOL    HW139233   3.157   3.749   4.101  1.0444 -2.3141 -3.1184
 9258SOL    HW239234   3.268   3.784   4.179 -2.5510 -1.0939  0.4140
 9259SOL     OW39235   0.443   2.116   7.439  0.0614 -0.1211 -0.8091
 9259SOL    HW139236   0.487   2.196   7.413 -1.0232  0.7670  0.0996
 9259SOL    HW239237   0.451   2.060   7.361  0.3023  0.9948 -1.5818
 9260SOL     OW39238   1.429   0.843   3.707  0.0532 -0.0136  0.3875
 9260SOL    HW139239   1.454   0.784   3.636 -0.9571  2.0924 -1.7171
 9260SOL    HW239240   1.363   0.895   3.662 -1.2586 -1.7868  0.2407
 9261SOL     OW39241   2.484   0.406   6.159  0.5349 -0.2239  0.0409
 9261SOL    HW139242   2.556   0.347   6.182 -0.9952 -2.4913 -0.9271
 9261SOL    HW239243   2.519   0.449   6.081  1.5946  2.5280  2.0473
 9262SOL     OW39244   4.660   1.591  17.046  0.2592  0.8009 -0.6010
 9262SOL    HW139245   4.595   1.538  17.000 -0.0672 -0.1918  1.0155
 9262SOL    HW239246   4.628   1.575  17.134  1.0303 -0.0785 -0.4766
 9263SOL     OW39247   3.762   0.775   8.160  0.1422  0.6661  0.1646
 9263SOL    HW139248   3.711   0.725   8.224  3.3441 -3.1449 -0.3148
 9263SOL    HW239249   3.802   0.835   8.224 -0.8362  1.7419 -0.2239
 9264SOL     OW39250   1.923   1.969   9.885  0.4091  0.3247 -0.9389
 9264SOL    HW139251   2.000   2.015   9.919 -0.9654  0.2623  2.2374
 9264SOL    HW239252   1.922   1.982   9.790  0.8127 -1.5281 -1.1894
 9265SOL     OW39253   2.176   0.383   0.128  0.3264  0.2953  0.1889
 9265SOL    HW139254   2.270   0.396   0.116  0.4206 -0.8403 -0.3217
 9265SOL    HW239255   2.148   0.462   0.175 -1.7501 -0.8323  0.8649
 9266SOL     OW39256   4.121   3.566   9.518  0.5987 -0.3825  0.0549
 9266SOL    HW139257   4.045   3.509   9.525 -1.7617  2.6023 -1.1411
 9266SOL    HW239258   4.156   3.555   9.607 -0.1335 -2.2039  0.1096
 9267SOL     OW39259   0.982   2.993   4.990  0.4122  0.3304  0.4501
 9267SOL    HW139260   1.013   3.084   4.990  1.5469 -0.0623  0.0745
 9267SOL    HW239261   1.059   2.939   5.007  0.0423 -0.5537 -0.7452
 9268SOL     OW39262   3.738   4.628   4.662 -0.1434 -0.0225  0.2686
 9268SOL    HW139263   3.672   4.583   4.714 -1.7120  1.6767 -0.2723
 9268SOL    HW239264   3.680   4.694   4.626 -0.1689  0.1036  0.5421
 9269SOL     OW39265   0.483   4.439  16.045  0.6575 -0.0130 -0.6115
 9269SOL    HW139266   0.444   4.354  16.064  0.4767  0.5416  1.5259
 9269SOL    HW239267   0.477   4.437  15.950 -0.0084  0.1652 -0.5729
 9270SOL     OW39268   1.349   0.901   7.256 -0.2092  0.0960 -0.6257
 9270SOL    HW139269   1.260   0.908   7.292 -0.2435 -1.9199 -0.3264
 9270SOL    HW239270   1.387   0.977   7.299  3.0782 -2.5973  1.2102
 9271SOL     OW39271   4.421   2.291   2.941 -0.3226 -0.2474 -0.3862
 9271SOL    HW139272   4.510   2.264   2.918  0.3717  0.8829  0.9488
 9271SOL    HW239273   4.383   2.206   2.965  0.2308  0.1881  2.0740
 9272SOL     OW39274   1.540   4.612   2.467 -0.4891 -0.0616 -0.6280
 9272SOL    HW139275   1.539   4.646   2.377  0.1278  0.3885 -0.4697
 9272SOL    HW239276   1.524   4.692   2.516 -1.4770 -0.3369 -0.5006
 9273SOL     OW39277   3.797   4.160   4.824  0.1358  0.2978  0.3303
 9273SOL    HW139278   3.725   4.171   4.762  1.7406  0.0272 -1.5689
 9273SOL    HW239279   3.757   4.138   4.908 -1.5756 -0.2720 -0.6288
 9274SOL     OW39280   1.039   4.654   3.433  0.4559 -0.3722 -0.0663
 9274SOL    HW139281   1.032   4.712   3.357 -1.6795 -0.2667  0.2158
 9274SOL    HW239282   1.127   4.621   3.450 -0.4385 -1.4685  2.4290
 9275SOL     OW39283   3.964   3.327  16.099 -0.3243 -0.0452 -0.0488
 9275SOL    HW139284   3.956   3.265  16.171  0.7125 -1.0132 -0.7765
 9275SOL    HW239285   3.923   3.407  16.133  0.0239  0.8686 -1.7452
 9276SOL     OW39286   0.094   2.139   3.195  0.5067  0.0930 -0.3207
 9276SOL    HW139287   0.021   2.193   3.227  0.5470  0.4966 -0.8967
 9276SOL    HW239288   0.055   2.087   3.124  1.7274  0.8362 -1.5334
 9277SOL     OW39289   2.688   3.018   3.558  0.7513  0.1469 -0.0558
 9277SOL    HW139290   2.695   3.102   3.604 -1.8704  1.1873 -1.5528
 9277SOL    HW239291   2.779   3.012   3.529  0.5369 -0.0587 -0.6810
 9278SOL     OW39292   2.782   1.286   0.086 -0.1638 -0.0400 -0.1129
 9278SOL    HW139293   2.692   1.317   0.076  0.0328  0.8513  0.8656
 9278SOL    HW239294   2.791   1.260  17.681 -0.6762  0.0801 -0.1974
 9279SOL     OW39295   0.493   0.528   8.809 -0.5706  0.0872 -0.0301
 9279SOL    HW139296   0.489   0.441   8.849 -2.0358  0.8510  1.5201
 9279SOL    HW239297   0.430   0.510   8.740 -3.2694  1.4424  2.0557
 9280SOL     OW39298   2.708   0.544  10.625 -0.7379  0.0038  0.5447
 9280SOL    HW139299   2.709   0.583  10.712 -1.0808 -0.4289  0.7397
 9280SOL    HW239300   2.802   0.551  10.611 -0.5964 -0.4221  1.2684
 9281SOL     OW39301   4.448   2.700  15.330 -0.4833  0.2166 -0.1570
 9281SOL    HW139302   4.418   2.754  15.403  0.7936  1.8448 -0.8264
 9281SOL    HW239303   4.528   2.660  15.361 -0.9327  1.3537  2.4266
 9282SOL     OW39304   2.982   3.683   9.036 -0.2054 -0.1412 -0.0056
 9282SOL    HW139305   2.999   3.753   8.973  0.8078  0.7877  1.2891
 9282SOL    HW239306   2.961   3.740   9.110  0.1322  1.2710 -0.9809
 9283SOL     OW39307   1.509   2.742   3.510  0.1403  0.8113 -0.5248
 9283SOL    HW139308   1.553   2.817   3.471 -0.1656 -0.6633 -3.7418
 9283SOL    HW239309   1.558   2.721   3.590 -1.3869 -2.7725 -0.5144
 9284SOL     OW39310   2.939   1.394  15.380 -0.6654 -0.4889  0.3332
 9284SOL    HW139311   2.984   1.344  15.312 -0.2255 -0.7053  0.7755
 9284SOL    HW239312   2.943   1.480  15.340  3.0479 -0.6227  0.3668
 9285SOL     OW39313   0.652   2.078   8.153  0.5392  0.0421 -0.0100
 9285SOL    HW139314   0.698   2.101   8.234  1.4727 -0.2935 -0.4429
 9285SOL    HW239315   0.682   2.149   8.097  2.7915  0.1317  1.2859
 9286SOL     OW39316   3.449   1.952   1.700  0.1242 -0.0854 -0.2032
 9286SOL    HW139317   3.377   1.995   1.746  1.4299 -1.3386  3.0183
 9286SOL    HW239318   3.417   1.861   1.698  1.0504 -0.4138 -0.0594
 9287SOL     OW39319   4.357   2.379  15.449  0.5869 -0.0198  0.0419
 9287SOL    HW139320   4.402   2.367  15.365  1.4081  0.2676  0.4394
 9287SOL    HW239321   4.425   2.407  15.510  0.0008  0.7035  0.3701
 9288SOL     OW39322   3.830   2.087  17.422  0.4820 -0.1489 -0.4428
 9288SOL    HW139323   3.745   2.109  17.461  1.1027 -1.3704  1.5839
 9288SOL    HW239324   3.844   2.170  17.377  1.6939  0.1237  0.4413
 9289SOL     OW39325   4.508   0.266   8.449 -0.1824 -0.3863 -0.1427
 9289SOL    HW139326   4.592   0.285   8.490 -0.7184  2.9949 -0.5448
 9289SOL    HW239327   4.524   0.315   8.368 -3.0774  0.3028 -0.3149
 9290SOL     OW39328   2.040   3.505  16.674 -0.2631  0.3043  0.2087
 9290SOL    HW139329   2.045   3.596  16.702 -0.1078  0.5543 -0.6270
 9290SOL    HW239330   2.109   3.492  16.609 -0.9926 -2.5712  0.0185
 9291SOL     OW39331   0.598   1.932  15.087  0.3557 -0.0217 -0.1481
 9291SOL    HW139332   0.627   2.002  15.028  3.1406 -2.9666 -2.2865
 9291SOL    HW239333   0.517   1.911  15.041  0.9333 -0.5390 -0.9359
 9292SOL     OW39334   2.735   2.101  11.049 -0.4491 -0.1904  0.4476
 9292SOL    HW139335   2.733   2.152  10.968  0.3995 -0.1224  0.4671
 9292SOL    HW239336   2.781   2.025  11.015  0.2197  0.8927 -1.0652
 9293SOL     OW39337   1.312   4.410   7.221 -0.3161 -0.0718  0.0512
 9293SOL    HW139338   1.314   4.450   7.134  1.6239 -1.5198 -0.5793
 9293SOL    HW239339   1.404   4.429   7.239 -0.1040 -2.2420  1.2474
 9294SOL     OW39340   4.149   0.358   3.549 -0.0965 -0.0564 -0.1021
 9294SOL    HW139341   4.175   0.402   3.631  0.8392 -3.0423  1.2168
 9294SOL    HW239342   4.228   0.320   3.511 -0.5412 -0.4914 -0.5935
 9295SOL     OW39343   0.644   3.895   3.608  0.8403  0.0778  0.4410
 9295SOL    HW139344   0.701   3.971   3.599  2.0643 -0.7892  0.8923
 9295SOL    HW239345   0.669   3.857   3.524  0.4807  0.4610  0.1578
 9296SOL     OW39346   2.209   2.913   3.869  0.0222  0.1672  0.8060
 9296SOL    HW139347   2.179   3.001   3.844 -1.0122 -0.7159 -1.0289
 9296SOL    HW239348   2.195   2.859   3.791  1.6168  2.8654 -1.3416
 9297SOL     OW39349   0.771   1.963   6.117 -0.2351  0.4260 -0.1611
 9297SOL    HW139350   0.687   2.006   6.128  0.2837  1.1160  1.1135
 9297SOL    HW239351   0.756   1.878   6.159 -0.2791  0.1579 -0.7216
 9298SOL     OW39352   1.059   4.416   8.271  0.4233 -0.5564 -0.2129
 9298SOL    HW139353   1.091   4.454   8.353  1.0215 -1.2092 -0.1466
 9298SOL    HW239354   0.986   4.368   8.310  1.3800 -0.4752  1.7077
 9299SOL     OW39355   2.525   1.720   9.336 -0.2149 -0.4180  0.3357
 9299SOL    HW139356   2.554   1.629   9.331 -0.3291 -0.3336 -1.5900
 9299SOL    HW239357   2.551   1.763   9.255 -1.5714  0.1019  0.1726
 9300SOL     OW39358   0.600   0.785   8.297  0.2683 -0.1250  0.2641
 9300SOL    HW139359   0.639   0.734   8.369 -2.5235  0.5547  2.2311
 9300SOL    HW239360   0.507   0.764   8.303  0.3763 -0.9569 -0.9712
 9301SOL     OW39361   3.011   4.347  14.050  0.4472  0.0612 -0.2006
 9301SOL    HW139362   2.983   4.266  14.093  1.6143 -0.9348 -1.2984
 9301SOL    HW239363   3.104   4.325  14.042 -0.1386 -2.9897  1.4813
 9302SOL     OW39364   0.573   0.586   4.518 -0.2818  0.0049 -0.0751
 9302SOL    HW139365   0.499   0.525   4.527  1.0861 -1.7294 -0.4703
 9302SOL    HW239366   0.534   0.665   4.482  0.7783 -0.2927 -1.8889
 9303SOL     OW39367   2.787   0.521   3.598 -0.1469 -0.1986 -0.7970
 9303SOL    HW139368   2.875   0.554   3.613 -0.6055  0.0291  1.2865
 9303SOL    HW239369   2.803   0.431   3.568 -0.5846 -1.0065  1.4009
 9304SOL     OW39370   3.004   2.112   5.657  0.4691 -0.1773  0.1342
 9304SOL    HW139371   3.039   2.092   5.570  1.3773  0.0655  0.4396
 9304SOL    HW239372   3.082   2.141   5.704 -0.0134  1.7856 -0.2894
 9305SOL     OW39373   2.280   2.212   3.841  0.1653  0.4698 -0.0894
 9305SOL    HW139374   2.238   2.283   3.793  0.9537 -0.5763 -2.3838
 9305SOL    HW239375   2.253   2.217   3.932 -1.4854 -0.6302 -0.5109
 9306SOL     OW39376   0.181   2.726   3.074  0.1993 -0.0137 -0.4185
 9306SOL    HW139377   0.199   2.654   3.013 -2.0284 -0.5036 -0.4813
 9306SOL    HW239378   0.117   2.778   3.024 -0.7972  0.0919  0.9675
 9307SOL     OW39379   3.868   3.483  16.476 -0.0605 -0.1562  0.1625
 9307SOL    HW139380   3.861   3.515  16.386  0.8690 -0.2041  0.0770
 9307SOL    HW239381   3.792   3.537  16.497  0.9608  0.7779  1.4697
 9308SOL     OW39382   1.021   3.972   4.806  0.1878 -0.2165 -0.2095
 9308SOL    HW139383   0.953   3.988   4.740 -0.1747  0.8170  0.4305
 9308SOL    HW239384   0.972   3.952   4.885  0.6348  1.0167  0.3619
 9309SOL     OW39385   1.862   0.608   3.840 -0.0982 -0.1859 -0.1039
 9309SOL    HW139386   1.788   0.552   3.865 -0.8688 -0.5355 -3.0676
 9309SOL    HW239387   1.934   0.546   3.840  1.2970  1.4282 -0.0615
 9310SOL     OW39388   1.930   1.536   5.625 -0.1527 -0.1746  0.1865
 9310SOL    HW139389   1.926   1.440   5.624 -0.5025 -0.1448 -1.7348
 9310SOL    HW239390   2.020   1.565   5.614  0.3847 -2.5677 -1.6774
 9311SOL     OW39391   2.944   0.580   5.431 -0.2871 -0.4817  0.2772
 9311SOL    HW139392   2.994   0.503   5.405 -0.2717 -0.9915  1.8314
 9311SOL    HW239393   2.939   0.618   5.343 -0.6479 -0.0665  0.4757
 9312SOL     OW39394   2.257   0.210   4.542  0.0954  0.1670 -0.1181
 9312SOL    HW139395   2.214   0.136   4.499 -0.3365  0.1270  0.3930
 9312SOL    HW239396   2.236   0.277   4.477  2.1444 -1.6794 -2.7156
 9313SOL     OW39397   3.340   4.053   4.817 -0.3805  0.3041  0.4247
 9313SOL    HW139398   3.326   3.974   4.870  0.2208  0.5747  0.9831
 9313SOL    HW239399   3.250   4.079   4.797  0.0005  0.9221 -0.4624
 9314SOL     OW39400   0.414   2.535   7.465  0.3501  0.1029  0.5147
 9314SOL    HW139401   0.351   2.531   7.393 -2.3558 -0.0395  2.8975
 9314SOL    HW239402   0.495   2.507   7.423 -0.0967 -1.6481  0.8180
 9315SOL     OW39403   4.578   2.564  10.706  1.0161  0.6687 -0.4259
 9315SOL    HW139404   4.657   2.595  10.663  0.0080  2.6388 -0.8825
 9315SOL    HW239405   4.568   2.638  10.767  2.5423  0.8104 -0.3601
 9316SOL     OW39406   3.431   3.066   2.613  0.2173 -0.2301 -0.1567
 9316SOL    HW139407   3.448   2.980   2.576  0.0175 -1.1402  1.8378
 9316SOL    HW239408   3.506   3.072   2.672 -0.3276 -0.2838  0.5485
 9317SOL     OW39409   0.936   3.820  10.535  0.9407 -0.2806 -0.4907
 9317SOL    HW139410   0.970   3.843  10.449 -0.7026 -0.3907 -1.1823
 9317SOL    HW239411   0.864   3.883  10.539  1.9252  0.7280  1.1854
 9318SOL     OW39412   3.697   0.698   7.505 -0.2703  0.1942  0.6588
 9318SOL    HW139413   3.707   0.603   7.506 -0.4630  0.1883  1.6855
 9318SOL    HW239414   3.673   0.719   7.595  1.4981  2.3182  0.6509
 9319SOL     OW39415   1.055   1.482   8.970  0.8018 -0.1720 -0.5685
 9319SOL    HW139416   1.109   1.406   8.950  3.7142  1.8071 -0.3171
 9319SOL    HW239417   1.072   1.531   8.890 -0.8561 -0.2619 -0.9754
 9320SOL     OW39418   1.553   3.202   4.278 -0.5353  0.0022 -0.0727
 9320SOL    HW139419   1.502   3.238   4.205 -2.1734 -0.9074  0.6371
 9320SOL    HW239420   1.638   3.246   4.268 -1.0036  0.8348 -0.4295
 9321SOL     OW39421   4.085   2.203  16.782  0.0689 -0.4369  0.4260
 9321SOL    HW139422   4.076   2.148  16.860 -2.5271 -0.2490  0.2891
 9321SOL    HW239423   3.994   2.215  16.753  0.5431  0.0388 -0.8397
 9322SOL     OW39424   4.689   1.462  13.228  0.0069 -0.4783  0.1468
 9322SOL    HW139425   4.691   1.444  13.134  4.0183  0.2295  0.0642
 9322SOL    HW239426   4.628   1.401  13.269 -2.6036  1.4375 -0.9698
 9323SOL     OW39427   3.537   3.876   7.385  0.4160  0.3271 -0.0133
 9323SOL    HW139428   3.514   3.967   7.364  0.4246  0.2865 -0.1933
 9323SOL    HW239429   3.551   3.842   7.297 -0.3299 -0.1831  0.0719
 9324SOL     OW39430   1.745   4.527   7.828 -0.0919 -0.2783 -0.0715
 9324SOL    HW139431   1.671   4.517   7.768 -0.1833 -1.1323  0.1731
 9324SOL    HW239432   1.693   4.553   7.904 -1.5349 -1.7485 -0.5427
 9325SOL     OW39433   0.807   4.138   3.588 -0.0987 -0.7465 -0.2192
 9325SOL    HW139434   0.849   4.157   3.672 -0.8635  2.4655 -0.5463
 9325SOL    HW239435   0.752   4.216   3.578  0.3398 -0.4916 -0.6532
 9326SOL     OW39436   0.162   1.892   6.243 -0.4949 -0.4925  0.2208
 9326SOL    HW139437   0.069   1.883   6.226 -0.4457 -0.2762 -0.1889
 9326SOL    HW239438   0.170   1.823   6.308 -1.0992 -0.5398  0.2414
 9327SOL     OW39439   1.733   4.384  17.565 -0.1541  0.0262 -0.2519
 9327SOL    HW139440   1.724   4.470  17.523  1.8137 -0.3878 -1.5187
 9327SOL    HW239441   1.825   4.372  17.545  0.0323  1.1524 -0.0848
 9328SOL     OW39442   0.219   3.268   2.919 -0.3905 -0.1149  0.1275
 9328SOL    HW139443   0.193   3.241   2.831 -1.1214  0.4730  0.1543
 9328SOL    HW239444   0.138   3.299   2.962 -0.5515 -0.7781  0.3017
 9329SOL     OW39445   3.870   3.054   9.635  0.1893 -0.3531 -0.3563
 9329SOL    HW139446   3.780   3.087   9.639  0.1055 -0.6456  0.1212
 9329SOL    HW239447   3.886   3.027   9.725 -2.2038  2.8253  1.0402
 9330SOL     OW39448   2.516   4.074   7.442 -0.2341  0.3766  0.0785
 9330SOL    HW139449   2.445   4.090   7.380 -2.0348 -1.6699  1.6113
 9330SOL    HW239450   2.543   3.984   7.424  0.4364  0.6189 -0.1270
 9331SOL     OW39451   2.059   2.507   7.016  0.0270 -0.0731  0.0161
 9331SOL    HW139452   2.001   2.437   6.985 -0.2154 -0.2509  0.8772
 9331SOL    HW239453   2.009   2.534   7.093  1.9092 -1.3760  1.6911
 9332SOL     OW39454   0.673   0.640  15.335 -0.4997 -0.4097  0.4030
 9332SOL    HW139455   0.724   0.637  15.254  0.8018 -2.9021  1.2923
 9332SOL    HW239456   0.711   0.720  15.373  2.0111 -1.3248 -0.1342
 9333SOL     OW39457   0.324   0.550  11.995 -0.3131  0.0022 -0.1712
 9333SOL    HW139458   0.362   0.565  11.908 -0.5626 -1.6182 -0.5568
 9333SOL    HW239459   0.317   0.638  12.032  1.1734  0.4066 -0.8459
 9334SOL     OW39460   2.314   1.290   0.588  0.5069 -0.2596 -0.1784
 9334SOL    HW139461   2.401   1.255   0.574  0.9472  1.7515 -2.4853
 9334SOL    HW239462   2.318   1.382   0.562 -0.8633 -0.1607 -0.0649
 9335SOL     OW39463   0.139   2.166  14.241  0.6401  0.5291  0.3672
 9335SOL    HW139464   0.070   2.101  14.240  0.3792  0.8037  0.9489
 9335SOL    HW239465   0.144   2.182  14.335 -2.1863  0.4731  0.5314
 9336SOL     OW39466   1.361   0.782   3.395  0.0820  0.8705  0.6646
 9336SOL    HW139467   1.322   0.697   3.377  0.9398  0.9272 -1.4408
 9336SOL    HW239468   1.417   0.802   3.320 -2.1954  1.2337 -0.9299
 9337SOL     OW39469   3.495   3.776  10.823 -0.4596  0.1258 -0.1967
 9337SOL    HW139470   3.491   3.871  10.832  1.5000  0.0389  1.7188
 9337SOL    HW239471   3.464   3.750  10.910 -1.3428  0.1607 -0.4991
 9338SOL     OW39472   3.455   2.307   4.207  0.2452 -0.4119  0.5090
 9338SOL    HW139473   3.504   2.304   4.288  2.3957  0.5653 -0.7601
 9338SOL    HW239474   3.406   2.225   4.205  0.6956 -0.6201 -1.9855
 9339SOL     OW39475   1.266   3.086  10.013 -0.2296 -0.1290  0.0228
 9339SOL    HW139476   1.317   3.079   9.932  0.3077 -0.9208  0.4358
 9339SOL    HW239477   1.338   3.109  10.071  0.4861 -1.1257 -0.4703
 9340SOL     OW39478   4.077   1.898   0.915  0.3722  0.1082 -0.6329
 9340SOL    HW139479   4.170   1.914   0.927  0.3753  0.7650 -1.5896
 9340SOL    HW239480   4.045   1.986   0.932 -2.3470 -1.1954  1.0825
 9341SOL     OW39481   0.620   1.777   5.267  1.5329  0.2508 -0.0840
 9341SOL    HW139482   0.617   1.706   5.203 -1.0471 -0.1851  0.5250
 9341SOL    HW239483   0.683   1.737   5.327  1.4715  0.5386  0.1720
 9342SOL     OW39484   3.919   2.583   9.232  0.2892  0.4023 -0.5109
 9342SOL    HW139485   3.981   2.621   9.170 -0.3313  1.6312 -0.3951
 9342SOL    HW239486   3.960   2.497   9.229 -0.5348 -0.1698  3.4631
 9343SOL     OW39487   2.601   3.139   7.535 -0.0758  0.2835  0.2445
 9343SOL    HW139488   2.686   3.122   7.574  0.9209 -1.9064 -2.9188
 9343SOL    HW239489   2.620   3.118   7.444  1.1085 -1.3213  0.8617
 9344SOL     OW39490   1.304   4.018   6.419  0.5799 -0.3143  0.0460
 9344SOL    HW139491   1.397   4.016   6.396  0.8136 -0.1947  0.9484
 9344SOL    HW239492   1.303   4.062   6.504 -0.2205 -0.3186  0.0387
 9345SOL     OW39493   1.344   3.042   1.423 -0.1902  0.0208  0.3451
 9345SOL    HW139494   1.313   3.018   1.336 -0.7381  0.7153  0.3433
 9345SOL    HW239495   1.269   3.087   1.463 -0.6996 -0.6365  0.1300
 9346SOL     OW39496   2.971   4.000  16.959 -0.4690  0.0006  0.0974
 9346SOL    HW139497   2.973   3.971  16.868  1.5698  0.9907 -0.1610
 9346SOL    HW239498   3.016   3.926  17.000  0.2316 -0.5234 -1.6439
 9347SOL     OW39499   4.098   4.623   8.919  0.8291  0.8806 -0.0847
 9347SOL    HW139500   4.189   4.641   8.943  0.8966 -0.1027  0.3916
 9347SOL    HW239501   4.080   4.583   9.004  2.9342  0.4633  0.1667
 9348SOL     OW39502   2.335   1.800   7.559  1.0576 -0.1607  0.1466
 9348SOL    HW139503   2.385   1.742   7.502  0.1593 -0.7072 -0.0846
 9348SOL    HW239504   2.286   1.742   7.617 -1.3538  2.7511  1.0521
 9349SOL     OW39505   1.105   0.598  12.665 -0.8403 -0.2014 -0.6674
 9349SOL    HW139506   1.132   0.516  12.623  0.9561  0.6908 -1.2329
 9349SOL    HW239507   1.185   0.650  12.663 -1.4441  0.7261 -0.5667
 9350SOL     OW39508   0.799   2.762   3.329 -0.0728  0.2565 -0.4890
 9350SOL    HW139509   0.773   2.767   3.421  0.9027  1.2452 -0.2761
 9350SOL    HW239510   0.850   2.681   3.326 -0.5086 -0.0270 -0.3562
 9351SOL     OW39511   4.273   0.544   6.832 -0.2560 -0.6706 -0.2261
 9351SOL    HW139512   4.264   0.457   6.793  0.2689 -1.9017  2.3858
 9351SOL    HW239513   4.358   0.570   6.798 -0.7854  0.4882 -0.6731
 9352SOL     OW39514   0.110   4.216   2.978 -0.3540  0.1861 -0.2552
 9352SOL    HW139515   0.101   4.269   2.899  0.7102  1.8234  0.7258
 9352SOL    HW239516   0.204   4.224   2.995 -0.1543  0.0876 -1.3164
 9353SOL     OW39517   3.794   2.959   4.094  0.1804  0.0327 -0.1457
 9353SOL    HW139518   3.793   3.054   4.082 -0.6084 -0.1496 -1.5073
 9353SOL    HW239519   3.788   2.946   4.189  0.4145  1.6352  0.0934
 9354SOL     OW39520   4.520   1.425   6.071 -0.1710 -0.5365 -0.0805
 9354SOL    HW139521   4.600   1.468   6.043  0.3745 -1.1079  0.6201
 9354SOL    HW239522   4.540   1.393   6.159  0.4343  0.6633  0.2206
 9355SOL     OW39523   2.412   3.178   5.499  0.2014  0.0123  0.3366
 9355SOL    HW139524   2.474   3.242   5.535  1.0984 -0.2411 -0.7252
 9355SOL    HW239525   2.342   3.240   5.478 -0.3062 -0.1847  1.5119
 9356SOL     OW39526   2.112   1.451   1.421 -0.4248  0.0898 -0.3456
 9356SOL    HW139527   2.202   1.476   1.441 -0.2772  0.1600 -1.1060
 9356SOL    HW239528   2.089   1.518   1.356  0.8088 -0.1412 -1.0271
 9357SOL     OW39529   1.970   2.045   3.527 -0.0545  0.0883 -0.8780
 9357SOL    HW139530   1.892   2.096   3.552  0.3604  0.9676 -1.3457
 9357SOL    HW239531   1.986   2.073   3.437 -0.3011  0.1721 -0.8976
 9358SOL     OW39532   4.042   3.107   9.442  0.2517  0.6050 -0.1318
 9358SOL    HW139533   4.097   3.029   9.444  0.4897  0.8248  1.5542
 9358SOL    HW239534   3.985   3.097   9.518 -0.3306  1.1763 -0.4873
 9359SOL     OW39535   0.841   2.003   5.328 -0.2086  0.2843 -0.0018
 9359SOL    HW139536   0.936   1.998   5.324 -0.1357  0.1147  1.6219
 9359SOL    HW239537   0.828   1.927   5.386  0.4183  1.2552  1.4170
 9360SOL     OW39538   0.267   3.186  11.559  0.3766  0.5082 -0.0807
 9360SOL    HW139539   0.224   3.112  11.603  0.7805  0.1842 -0.2369
 9360SOL    HW239540   0.355   3.149  11.559 -0.2907 -1.0685 -0.3290
 9361SOL     OW39541   2.962   0.931   7.471 -0.6273 -0.0022 -0.2022
 9361SOL    HW139542   2.917   0.852   7.502 -0.8173  0.2507  0.1511
 9361SOL    HW239543   2.968   0.988   7.547 -0.6464  0.3883 -0.4963
 9362SOL     OW39544   0.958   2.935   3.946 -0.2298  0.1335 -0.4042
 9362SOL    HW139545   1.037   2.885   3.968  0.1418  0.4873 -0.9474
 9362SOL    HW239546   0.917   2.918   4.031 -0.1295  1.1986 -0.1474
 9363SOL     OW39547   3.811   0.581   3.366 -0.1885  0.1634 -0.7007
 9363SOL    HW139548   3.833   0.572   3.459 -1.7233 -0.3597 -0.3770
 9363SOL    HW239549   3.875   0.650   3.350 -1.3358  1.6247  1.0156
 9364SOL     OW39550   0.767   1.411  16.099 -0.2703 -0.4348  0.5045
 9364SOL    HW139551   0.782   1.387  16.190  2.2067  3.1126  0.9836
 9364SOL    HW239552   0.713   1.489  16.110  1.5936  0.6222  1.9124
 9365SOL     OW39553   1.649   4.374   0.954  0.1128 -0.2141  0.0599
 9365SOL    HW139554   1.559   4.402   0.935  1.0905  3.3492  0.7166
 9365SOL    HW239555   1.679   4.460   0.982  0.0682 -0.6772  1.5644
 9366SOL     OW39556   4.215   3.751   7.809  0.2610 -0.3327  0.0128
 9366SOL    HW139557   4.207   3.846   7.800  1.5056 -0.0351  2.0305
 9366SOL    HW239558   4.122   3.729   7.807 -0.3824  2.5759 -1.5279
 9367SOL     OW39559   3.546   1.456   4.849  0.0880 -0.5224  0.0029
 9367SOL    HW139560   3.514   1.387   4.791 -0.5906  0.6005 -0.9717
 9367SOL    HW239561   3.467   1.472   4.900  0.0640  1.2163 -0.5531
 9368SOL     OW39562   4.544   3.720   5.348  0.3259 -0.2617 -0.1919
 9368SOL    HW139563   4.584   3.713   5.434  1.1064 -1.9522 -0.6755
 9368SOL    HW239564   4.455   3.740   5.376  0.1619  0.1550 -1.0090
 9369SOL     OW39565   0.337   3.578   4.858  0.0562 -0.1051  0.0075
 9369SOL    HW139566   0.421   3.532   4.862 -0.2939 -0.7669 -0.2047
 9369SOL    HW239567   0.290   3.523   4.796 -0.6100 -1.3132  1.5637
 9370SOL     OW39568   4.037   2.453  16.026 -0.0374  0.0598  0.1956
 9370SOL    HW139569   4.055   2.492  16.112 -2.0455  0.6966  0.3250
 9370SOL    HW239570   3.946   2.427  16.041 -0.1354 -0.9364 -2.1620
 9371SOL     OW39571   1.958   4.146   0.916  0.2255 -0.7489 -0.2232
 9371SOL    HW139572   1.967   4.199   0.995 -0.6553  0.2446 -0.7773
 9371SOL    HW239573   1.925   4.207   0.849  1.2551  0.9958  0.8535
 9372SOL     OW39574   0.916   3.513   4.377 -0.5858  0.4331  0.0063
 9372SOL    HW139575   0.900   3.418   4.375 -0.9133  0.4198  2.9803
 9372SOL    HW239576   0.840   3.539   4.325  0.3009  0.6500 -1.1942
 9373SOL     OW39577   0.767   3.932  13.212 -0.3007 -0.0713  0.0281
 9373SOL    HW139578   0.762   3.837  13.216  0.1866 -0.1690 -1.5732
 9373SOL    HW239579   0.834   3.951  13.146 -0.3679 -0.6657 -0.2069
 9374SOL     OW39580   1.680   2.018   3.119  0.3816  0.0953  0.0651
 9374SOL    HW139581   1.676   1.930   3.156  1.7220  0.2019  0.4853
 9374SOL    HW239582   1.636   2.072   3.184 -3.4838 -2.2610 -0.5930
 9375SOL     OW39583   0.546   0.314  15.326  0.2538 -0.0465  0.7292
 9375SOL    HW139584   0.534   0.358  15.242 -0.1815 -3.7583 -1.1585
 9375SOL    HW239585   0.494   0.233  15.325 -1.2546  0.9184 -0.7427
 9376SOL     OW39586   1.353   0.519   3.949  0.0479  0.0926  0.1027
 9376SOL    HW139587   1.321   0.513   3.859 -1.5616 -2.3966  0.8679
 9376SOL    HW239588   1.341   0.613   3.962  1.4071  0.4456 -1.0899
 9377SOL     OW39589   0.782   1.358   6.514  0.2028 -0.6188 -0.1777
 9377SOL    HW139590   0.866   1.317   6.496  0.1621 -0.3799 -0.9434
 9377SOL    HW239591   0.769   1.416   6.438 -1.0144 -1.1305 -0.3596
 9378SOL     OW39592   2.226   4.483   4.706  0.1223 -0.0766  0.0211
 9378SOL    HW139593   2.306   4.520   4.669  0.3326  0.5876  1.1728
 9378SOL    HW239594   2.260   4.405   4.750 -2.3779  0.0834  2.2039
 9379SOL     OW39595   3.741   0.923  16.429 -0.0831 -0.6767  0.3942
 9379SOL    HW139596   3.759   1.016  16.442  2.4579 -0.9497 -1.2312
 9379SOL    HW239597   3.674   0.913  16.496 -1.2835 -1.1044 -0.8560
 9380SOL     OW39598   0.926   0.796   5.197 -0.1416  0.0972 -0.1986
 9380SOL    HW139599   0.886   0.724   5.147 -0.8109  0.0275  0.4283
 9380SOL    HW239600   1.011   0.812   5.156  0.0354  0.0129  0.1352
 9381SOL     OW39601   3.245   2.658   7.236  0.2217 -0.1536 -0.6155
 9381SOL    HW139602   3.206   2.734   7.191  0.4430  0.2474 -0.1364
 9381SOL    HW239603   3.332   2.696   7.251 -0.9752  2.9725 -1.4250
 9382SOL     OW39604   2.075   0.865   8.907 -0.0647 -0.7868 -0.1107
 9382SOL    HW139605   2.119   0.819   8.979 -1.2085 -1.4023  0.1952
 9382SOL    HW239606   2.007   0.908   8.959  0.6766 -0.7391  0.8168
 9383SOL     OW39607   1.390   1.830   9.385  0.0398 -0.3223  0.1089
 9383SOL    HW139608   1.471   1.809   9.432  1.0142 -0.8345 -1.8153
 9383SOL    HW239609   1.342   1.748   9.394 -3.1097  1.3608 -1.4216
 9384SOL     OW39610   3.666   3.768   7.069 -0.0014  0.0062  0.5581
 9384SOL    HW139611   3.644   3.687   7.117 -1.3182 -0.7478 -1.3488
 9384SOL    HW239612   3.761   3.765   7.056 -0.1621 -0.9149 -0.3755
 9385SOL     OW39613   2.118   1.551   3.377 -0.5688 -0.3479 -0.1118
 9385SOL    HW139614   2.185   1.581   3.438 -0.9578  0.6066 -0.1439
 9385SOL    HW239615   2.121   1.612   3.303 -0.9244  2.5664  2.2549
 9386SOL     OW39616   2.869   4.720   2.129  0.0301 -0.4821 -0.3079
 9386SOL    HW139617   2.890   0.089   2.154 -3.4340  0.8570 -2.2152
 9386SOL    HW239618   2.891   4.716   2.037 -0.7148  1.9418 -0.5937
 9387SOL     OW39619   2.087   3.565   6.049 -0.1305  0.1705  0.0950
 9387SOL    HW139620   2.177   3.597   6.039  0.4950 -1.6156 -0.0387
 9387SOL    HW239621   2.093   3.479   6.006  2.0734 -0.6627  2.0767
 9388SOL     OW39622   3.242   0.464   6.489 -0.6702 -0.1578 -0.5126
 9388SOL    HW139623   3.187   0.517   6.432 -0.4357 -0.1012 -0.6871
 9388SOL    HW239624   3.281   0.534   6.542 -0.6971  0.4684 -1.3171
 9389SOL     OW39625   1.552   0.696   7.258 -0.4973  0.5103  0.3581
 9389SOL    HW139626   1.535   0.657   7.343  0.8230 -1.2486 -0.1763
 9389SOL    HW239627   1.500   0.775   7.270  0.3548  1.1665 -0.3532
 9390SOL     OW39628   3.282   2.979  12.357  0.5712 -0.9372  0.2962
 9390SOL    HW139629   3.270   3.053  12.297 -2.3506 -0.5319  1.3750
 9390SOL    HW239630   3.209   2.976  12.419 -0.5576 -0.9457 -1.0411
 9391SOL     OW39631   0.546   0.594   9.518 -0.0836  0.0684  0.0226
 9391SOL    HW139632   0.556   0.563   9.428  1.2847 -1.1105  0.5988
 9391SOL    HW239633   0.458   0.631   9.521  0.1937  0.8035 -0.7160
 9392SOL     OW39634   2.767   3.087   6.087  0.1095  0.4177  0.1127
 9392SOL    HW139635   2.674   3.106   6.080 -0.2825 -2.0809 -1.1581
 9392SOL    HW239636   2.757   2.992   6.086 -4.1416  0.8736  2.0524
 9393SOL     OW39637   3.530   0.868   8.932 -0.0317 -0.6446  0.3752
 9393SOL    HW139638   3.535   0.904   9.021 -0.3746 -1.9494  0.9306
 9393SOL    HW239639   3.599   0.915   8.884 -0.6588 -2.6702 -2.4975
 9394SOL     OW39640   0.377   1.950   8.085 -0.1185 -0.1000 -0.0821
 9394SOL    HW139641   0.337   1.988   8.164 -1.1959  0.0075 -0.6819
 9394SOL    HW239642   0.453   2.008   8.085  0.2070 -0.4946  2.9133
 9395SOL     OW39643   4.651   4.493   2.852  0.3679 -0.0969 -0.1752
 9395SOL    HW139644   4.569   4.478   2.804  1.7432 -0.7451 -2.3201
 9395SOL    HW239645   4.714   4.509   2.783 -0.8773  1.1368 -1.0258
 9396SOL     OW39646   1.937   0.397   6.366 -0.0226  0.2306  0.1333
 9396SOL    HW139647   1.957   0.385   6.274 -1.9188 -1.4557 -0.0328
 9396SOL    HW239648   1.995   0.469   6.393 -1.3330  0.4353  2.4282
 9397SOL     OW39649   0.142   4.001  12.601 -0.5171  0.0082  0.1303
 9397SOL    HW139650   0.229   4.040  12.606 -1.0898  1.1815  0.9037
 9397SOL    HW239651   0.142   3.955  12.685  1.2946 -0.6519 -0.2258
 9398SOL     OW39652   0.336   4.513   7.418 -0.0912  0.1373 -0.5742
 9398SOL    HW139653   0.409   4.481   7.471  0.7623  1.1881 -1.1110
 9398SOL    HW239654   0.347   4.601   7.455 -0.5061 -0.3739  0.7539
 9399SOL     OW39655   4.060   0.559   7.492  0.2522  0.0634 -0.0037
 9399SOL    HW139656   3.969   0.530   7.498  0.4158 -0.0304  2.0636
 9399SOL    HW239657   4.103   0.480   7.459  0.8942  1.2238 -1.9116
 9400SOL     OW39658   3.206   1.064   2.300  0.2273 -0.1583 -0.0521
 9400SOL    HW139659   3.245   1.013   2.372  0.9575 -0.4386 -0.6483
 9400SOL    HW239660   3.284   1.087   2.249 -0.5372  0.6835 -0.8395
 9401SOL     OW39661   0.484   1.847  17.272  0.0449 -0.0572  0.1438
 9401SOL    HW139662   0.420   1.795  17.223  2.1975 -0.3916 -2.3189
 9401SOL    HW239663   0.453   1.936  17.255 -1.2718 -1.2625 -3.7758
 9402SOL     OW39664   0.090   3.523   7.422  0.2642 -0.0243 -0.0135
 9402SOL    HW139665   0.037   3.493   7.496  0.5891  0.6212  0.4780
 9402SOL    HW239666   0.176   3.505   7.459 -0.4519  0.6647  1.9783
 9403SOL     OW39667   3.661   4.445   5.896  0.0185  0.1897 -0.2472
 9403SOL    HW139668   3.710   4.496   5.960  1.0941 -0.1929 -0.7668
 9403SOL    HW239669   3.578   4.493   5.901 -0.6721 -1.0835  0.6925
 9404SOL     OW39670   4.266   0.860   3.564 -0.0575 -0.9163  0.0699
 9404SOL    HW139671   4.337   0.905   3.609  0.4783 -0.3457 -1.3491
 9404SOL    HW239672   4.288   0.768   3.578  0.0879 -0.8318  0.4064
 9405SOL     OW39673   2.391   3.847   6.805 -0.1153 -0.2627  0.3138
 9405SOL    HW139674   2.315   3.851   6.747  0.3874  0.2415 -0.3183
 9405SOL    HW239675   2.358   3.880   6.888  0.2575  2.0399 -0.4445
 9406SOL     OW39676   3.956   0.952   8.809  0.0101  0.5152  0.6492
 9406SOL    HW139677   3.947   0.872   8.860  1.2744  0.7928  1.3015
 9406SOL    HW239678   4.033   0.929   8.757 -1.4431  0.2546 -1.4023
 9407SOL     OW39679   2.920   3.862   5.294  1.0065 -0.0681  0.3393
 9407SOL    HW139680   2.827   3.853   5.274  1.0558 -0.8533  0.4595
 9407SOL    HW239681   2.939   3.768   5.304  0.4542 -0.5798 -3.5172
 9408SOL     OW39682   2.755   0.384   7.321 -0.5352  0.6357 -0.9253
 9408SOL    HW139683   2.764   0.387   7.225 -3.3002  3.1303 -1.1036
 9408SOL    HW239684   2.661   0.369   7.330 -0.4112 -1.7743 -3.6201
 9409SOL     OW39685   4.376   1.890   5.827 -0.1948  0.0667  0.1234
 9409SOL    HW139686   4.449   1.842   5.787 -0.5082  0.8778 -1.4337
 9409SOL    HW239687   4.390   1.983   5.809  0.5907  0.1111  0.9113
 9410SOL     OW39688   2.811   4.452  13.894  0.2686  0.5871  0.2195
 9410SOL    HW139689   2.763   4.450  13.977 -0.0755 -0.2169  0.0015
 9410SOL    HW239690   2.896   4.421  13.926  2.3007  2.9892 -2.8884
 9411SOL     OW39691   3.524   2.967   5.420  0.5452  0.1498 -0.8373
 9411SOL    HW139692   3.592   2.941   5.482 -1.0838 -0.8379  0.5398
 9411SOL    HW239693   3.563   3.043   5.378 -1.5197  1.1559 -0.9428
 9412SOL     OW39694   2.278   0.233   6.256  0.0013  0.2708  0.8949
 9412SOL    HW139695   2.344   0.292   6.219  0.6185 -0.5831  0.6606
 9412SOL    HW239696   2.326   0.200   6.332  0.1070 -1.3819  0.0914
 9413SOL     OW39697   2.974   4.445   8.491  0.0031 -1.0926  0.5176
 9413SOL    HW139698   2.968   4.493   8.409 -1.3944  0.8406  1.7465
 9413SOL    HW239699   2.945   4.357   8.468  2.4365 -1.9183  0.6075
 9414SOL     OW39700   3.239   4.453   4.932 -0.1353 -0.1536 -0.0505
 9414SOL    HW139701   3.279   4.432   4.847 -1.9551  0.7048 -1.1140
 9414SOL    HW239702   3.149   4.423   4.918  0.0827 -0.9742  0.2749
 9415SOL     OW39703   0.016   3.754  13.068 -0.0117  0.3527 -0.7572
 9415SOL    HW139704   0.087   3.707  13.113 -1.5166 -1.2596 -0.0402
 9415SOL    HW239705   4.670   3.686  13.068 -0.7300  1.0794 -2.1659
 9416SOL     OW39706   3.170   2.047   4.899 -0.1062 -0.0412 -0.1271
 9416SOL    HW139707   3.080   2.029   4.871 -0.0317 -0.5086 -0.0659
 9416SOL    HW239708   3.218   2.016   4.822  0.3287  0.5482 -0.0915
 9417SOL     OW39709   4.189   0.893   8.656 -0.5119 -0.0693  0.1943
 9417SOL    HW139710   4.215   0.813   8.611 -0.6975  0.9253 -1.6931
 9417SOL    HW239711   4.202   0.956   8.585 -3.0956  0.8159  0.5006
 9418SOL     OW39712   0.639   1.876   3.664 -0.2150 -0.0349 -0.4806
 9418SOL    HW139713   0.664   1.963   3.632 -0.3500  0.3782  0.5485
 9418SOL    HW239714   0.716   1.825   3.639 -0.4103  0.5184 -2.1906
 9419SOL     OW39715   2.229   2.905   0.973  0.3734 -0.2899  0.8062
 9419SOL    HW139716   2.173   2.975   1.005  1.1075 -0.1244  1.7371
 9419SOL    HW239717   2.176   2.860   0.908 -0.3943 -0.8617  1.8310
 9420SOL     OW39718   1.379   2.689   1.860 -0.3750 -0.5472 -0.4059
 9420SOL    HW139719   1.428   2.607   1.870  0.4015 -0.2334 -1.5750
 9420SOL    HW239720   1.447   2.753   1.881 -0.1687 -1.2504  1.0723
 9421SOL     OW39721   1.348   3.082  12.933  0.1907 -0.0627  0.5552
 9421SOL    HW139722   1.405   3.032  12.993 -0.0150 -1.9903 -0.8623
 9421SOL    HW239723   1.263   3.085  12.977 -0.3467 -1.6884 -0.4049
 9422SOL     OW39724   0.030   1.737   4.688  0.4874  0.7022  0.1609
 9422SOL    HW139725   0.004   1.731   4.781  0.8749 -1.1386  0.1529
 9422SOL    HW239726   0.091   1.663   4.687 -0.9143 -0.3849 -2.8447
 9423SOL     OW39727   1.216   1.754  15.176 -0.0618  0.2474  0.1597
 9423SOL    HW139728   1.132   1.783  15.142 -0.3609 -0.3661  0.3807
 9423SOL    HW239729   1.209   1.800  15.260 -1.5297 -1.7922  1.1700
 9424SOL     OW39730   3.785   4.037   9.102  0.1369  0.0264 -0.0836
 9424SOL    HW139731   3.777   3.946   9.075 -0.7832 -0.0205  0.3418
 9424SOL    HW239732   3.753   4.037   9.192 -2.1597 -0.2865 -0.8921
 9425SOL     OW39733   1.345   1.099  12.120  1.0053  0.8578 -0.0637
 9425SOL    HW139734   1.307   1.159  12.056 -0.3399 -2.3858 -2.3118
 9425SOL    HW239735   1.290   1.115  12.197  0.9560  0.2245  0.0358
 9426SOL     OW39736   3.608   0.714   8.422 -0.5762 -0.1182  0.2183
 9426SOL    HW139737   3.654   0.631   8.412 -0.5224 -0.0071 -0.5085
 9426SOL    HW239738   3.552   0.696   8.497  1.0089 -0.9235  1.1881
 9427SOL     OW39739   2.723   3.377   4.352 -0.3240  0.0430 -0.0853
 9427SOL    HW139740   2.695   3.400   4.264  0.8850  1.5495 -0.0689
 9427SOL    HW239741   2.755   3.290   4.326  2.7282  1.2815 -0.4498
 9428SOL     OW39742   0.968   4.530   2.629 -0.1922  0.0039 -0.2647
 9428SOL    HW139743   1.022   4.588   2.575  0.4309  0.3510  0.7359
 9428SOL    HW239744   0.903   4.499   2.565  1.7630 -0.9732 -1.7630
 9429SOL     OW39745   4.557   2.696   7.506 -0.3342 -1.2603 -0.0700
 9429SOL    HW139746   4.629   2.653   7.553  2.3413  2.4885 -0.7375
 9429SOL    HW239747   4.580   2.681   7.414 -1.1509 -0.9429 -0.3261
 9430SOL     OW39748   1.278   4.677   2.828  0.2970 -0.0747  0.2436
 9430SOL    HW139749   1.369   4.654   2.810 -0.1820  0.0432 -2.3426
 9430SOL    HW239750   1.295   0.024   2.893 -2.3079  1.5790 -0.7984
 9431SOL     OW39751   0.035   0.883  17.434 -0.2879 -0.4678  0.4222
 9431SOL    HW139752   0.101   0.929  17.485 -1.5483  0.3403  1.3480
 9431SOL    HW239753   0.034   0.919  17.345  0.6631  0.9792  0.9951
 9432SOL     OW39754   3.845   3.271   1.373  0.2075 -0.3512  0.0488
 9432SOL    HW139755   3.866   3.211   1.301  1.8552 -0.6067  0.7288
 9432SOL    HW239756   3.933   3.274   1.412  0.1886 -1.1431  0.1499
 9433SOL     OW39757   4.581   4.173   9.560  0.3066  0.2598  0.5509
 9433SOL    HW139758   4.667   4.202   9.590  1.0633  0.5410 -1.8909
 9433SOL    HW239759   4.600   4.079   9.567  1.1481  0.6707  3.6923
 9434SOL     OW39760   3.617   4.483  10.840  0.2108 -0.0730  0.2097
 9434SOL    HW139761   3.696   4.438  10.869  1.4281  1.7675 -0.2895
 9434SOL    HW239762   3.651   4.525  10.761 -0.1322  1.0141  0.6312
 9435SOL     OW39763   2.540   4.521   1.809 -0.4152  0.8200 -0.0085
 9435SOL    HW139764   2.520   4.537   1.717  0.7485  1.0951 -0.2091
 9435SOL    HW239765   2.461   4.513   1.862 -0.3626  0.6778  0.0490
 9436SOL     OW39766   4.321   2.996   4.732 -0.1676 -0.4355  0.2778
 9436SOL    HW139767   4.258   2.934   4.695 -0.0819 -0.9074  0.9202
 9436SOL    HW239768   4.391   2.943   4.771 -0.5916 -1.8906 -0.9585
 9437SOL     OW39769   2.360   4.417   9.145  0.1732 -0.6284 -0.3734
 9437SOL    HW139770   2.440   4.433   9.194 -0.0642 -1.6830  0.3540
 9437SOL    HW239771   2.291   4.428   9.211  0.2622 -0.8073 -0.2489
 9438SOL     OW39772   3.711   2.074   5.235  0.4832 -0.5006 -0.4730
 9438SOL    HW139773   3.615   2.072   5.235  0.4778 -0.7654  2.4253
 9438SOL    HW239774   3.733   2.070   5.142  1.7402  1.2474 -0.2367
 9439SOL     OW39775   1.465   2.307  10.507 -0.0513  0.2326 -0.4774
 9439SOL    HW139776   1.375   2.327  10.535  0.0620  0.8186 -0.5290
 9439SOL    HW239777   1.452   2.286  10.415  1.2994 -1.7315 -0.2103
 9440SOL     OW39778   4.562   0.927   2.371  0.3695  0.2056 -0.4131
 9440SOL    HW139779   4.557   0.838   2.335 -0.0522 -0.0716  0.3379
 9440SOL    HW239780   4.589   0.964   2.287 -2.0293  0.1059 -1.2062
 9441SOL     OW39781   0.848   0.304   0.942  0.8096  0.6849 -0.0049
 9441SOL    HW139782   0.776   0.356   0.907 -1.2782 -2.2708 -0.1452
 9441SOL    HW239783   0.876   0.353   1.019 -1.3355  1.3143  0.3871
 9442SOL     OW39784   0.952   1.831  11.412  0.4072  0.6038  0.2474
 9442SOL    HW139785   0.900   1.761  11.452 -1.7240  1.1504 -1.5251
 9442SOL    HW239786   1.028   1.840  11.469 -0.3296 -1.1943  1.5270
 9443SOL     OW39787   3.933   1.671  14.382  0.4774  0.8096  0.2573
 9443SOL    HW139788   3.878   1.596  14.360  0.9996 -0.0121  1.7500
 9443SOL    HW239789   4.019   1.631  14.371 -0.4068 -0.5085 -1.8043
 9444SOL     OW39790   3.521   0.749   7.098 -0.2137  0.1498  0.0767
 9444SOL    HW139791   3.564   0.802   7.165  1.6572 -0.9131 -0.2932
 9444SOL    HW239792   3.532   0.661   7.135  1.4354  0.3569  0.0674
 9445SOL     OW39793   1.816   0.976  15.272  0.4922  1.0993 -0.2366
 9445SOL    HW139794   1.782   1.061  15.300  0.9533  0.5320  2.0464
 9445SOL    HW239795   1.876   1.000  15.201  0.5526  3.4431  0.6133
 9446SOL     OW39796   1.040   2.558   5.775  0.5652  0.3895  0.0859
 9446SOL    HW139797   1.029   2.653   5.778  0.7205  0.4118 -0.0481
 9446SOL    HW239798   0.956   2.526   5.744  0.2598 -0.1419  1.4336
 9447SOL     OW39799   4.631   4.518   9.087  0.2042 -0.3391 -0.5671
 9447SOL    HW139800   4.664   4.586   9.028  2.1493 -0.5141  0.3179
 9447SOL    HW239801   4.678   4.439   9.061  0.2737 -1.3161  2.4752
 9448SOL     OW39802   2.303   3.316   3.624  0.0077 -0.0111 -0.0575
 9448SOL    HW139803   2.359   3.307   3.546  0.5346 -0.4375  0.3732
 9448SOL    HW239804   2.243   3.383   3.591  1.0439 -0.7461 -3.4576
 9449SOL     OW39805   1.259   1.143   3.661 -0.4728 -0.2077  0.0467
 9449SOL    HW139806   1.318   1.216   3.677  0.2185 -0.5467 -0.9530
 9449SOL    HW239807   1.247   1.160   3.568 -0.1236  1.0666  0.2434
 9450SOL     OW39808   2.330   3.311   9.014 -0.1084 -0.1175  0.0250
 9450SOL    HW139809   2.299   3.253   8.944  1.4535 -0.5339 -0.3117
 9450SOL    HW239810   2.309   3.258   9.090 -0.9050  0.2755  0.0800
 9451SOL     OW39811   1.898   4.203   5.294  0.0592  0.3117 -0.1718
 9451SOL    HW139812   1.976   4.168   5.250  0.5358  2.1069 -0.7540
 9451SOL    HW239813   1.850   4.241   5.221  0.0782  0.4132 -0.1325
 9452SOL     OW39814   0.493   4.657  11.445 -0.4159 -0.3053 -0.3129
 9452SOL    HW139815   0.497   4.680  11.538  0.5765  1.4589 -0.7956
 9452SOL    HW239816   0.433   4.583  11.451 -0.5232 -0.2096 -0.2120
 9453SOL     OW39817   2.487   3.274   3.075  0.7797 -0.2030 -0.1276
 9453SOL    HW139818   2.395   3.288   3.051  0.4790  0.5035  1.4679
 9453SOL    HW239819   2.521   3.224   3.001  3.4137  1.6300 -0.1698
 9454SOL     OW39820   1.904   3.715   5.866 -0.1847  0.1233  0.6894
 9454SOL    HW139821   1.977   3.661   5.897 -0.1909 -0.1996  0.1392
 9454SOL    HW239822   1.905   3.770   5.944  2.0371  0.5077  0.4128
 9455SOL     OW39823   0.936   3.928   8.199  0.2723  0.1990 -0.0536
 9455SOL    HW139824   0.843   3.943   8.182  0.2913 -0.0387 -0.3728
 9455SOL    HW239825   0.951   3.868   8.126  1.5519 -0.0771  0.4424
 9456SOL     OW39826   3.316   1.158   0.862  0.5269 -0.4593 -0.3820
 9456SOL    HW139827   3.399   1.198   0.838  0.9087 -1.2430 -0.3365
 9456SOL    HW239828   3.279   1.211   0.932  3.2647 -0.7995  1.2913
 9457SOL     OW39829   1.686   0.455   8.531  0.5014 -0.4694  0.0124
 9457SOL    HW139830   1.600   0.490   8.551  1.0872  0.8204  0.2862
 9457SOL    HW239831   1.670   0.361   8.528  2.2902 -0.6733 -3.7142
 9458SOL     OW39832   0.237   0.600   9.476  0.0170 -0.0528  1.0267
 9458SOL    HW139833   0.190   0.527   9.436 -1.5996  1.5609 -0.0355
 9458SOL    HW239834   0.213   0.597   9.568 -1.7638  0.8660  0.6056
 9459SOL     OW39835   1.305   2.528   7.421  0.0111 -0.4142 -0.0382
 9459SOL    HW139836   1.362   2.472   7.473 -0.5166 -0.1566  0.8126
 9459SOL    HW239837   1.365   2.590   7.379 -1.6696  0.8443 -0.5830
 9460SOL     OW39838   4.325   4.303   2.531  0.6205  0.1258  0.0674
 9460SOL    HW139839   4.271   4.295   2.452 -1.4214 -0.9110  1.5642
 9460SOL    HW239840   4.270   4.269   2.601  1.0561  0.9184  0.7962
 9461SOL     OW39841   3.219   2.707  13.958 -0.1871 -0.1168  0.1352
 9461SOL    HW139842   3.288   2.757  14.002 -0.0921  1.8877 -2.3360
 9461SOL    HW239843   3.234   2.739  13.869 -2.7344  2.0157  0.4696
 9462SOL     OW39844   0.280   3.437  14.990 -0.1400  0.4162  0.3481
 9462SOL    HW139845   0.307   3.347  14.970  1.4370  0.8093  0.7192
 9462SOL    HW239846   0.362   3.478  15.015  0.0731  1.5485 -2.2230
 9463SOL     OW39847   3.094   0.243  17.521 -0.3811 -0.0237  0.2419
 9463SOL    HW139848   3.075   0.308  17.454 -1.0613 -1.5896 -1.0780
 9463SOL    HW239849   3.173   0.203  17.485  0.7344  0.7277  1.8909
 9464SOL     OW39850   3.585   0.714  16.853  0.4419  0.3668 -0.9654
 9464SOL    HW139851   3.679   0.715  16.869  0.4731 -0.6091 -1.0721
 9464SOL    HW239852   3.549   0.758  16.930  1.3657 -0.1329 -0.2509
 9465SOL     OW39853   4.117   2.784  16.318  0.1619 -0.0475  0.3454
 9465SOL    HW139854   4.212   2.794  16.313  0.0834  0.2965 -0.5114
 9465SOL    HW239855   4.109   2.724  16.392 -2.7384  1.7074  1.4450
 9466SOL     OW39856   0.635   0.447   5.468  0.3325 -0.7910 -0.3132
 9466SOL    HW139857   0.722   0.420   5.499  0.9126  1.2093 -0.2286
 9466SOL    HW239858   0.574   0.403   5.526 -0.3980  1.1442  0.3627
 9467SOL     OW39859   3.380   0.073   5.117 -0.0368 -0.1682  0.2546
 9467SOL    HW139860   3.464   0.059   5.073 -0.3370 -3.0710  0.6134
 9467SOL    HW239861   3.360   4.701   5.130 -0.6964 -0.2273 -1.1825
 9468SOL     OW39862   2.131   1.233   3.765 -0.6374 -0.0869  0.1352
 9468SOL    HW139863   2.095   1.252   3.678 -0.9187  1.8975  0.6699
 9468SOL    HW239864   2.162   1.145   3.746  0.2004 -0.1154  1.7065
 9469SOL     OW39865   3.888   2.588   2.442 -0.3625 -0.4730 -0.1064
 9469SOL    HW139866   3.959   2.570   2.380  0.5482  0.8913  0.5394
 9469SOL    HW239867   3.888   2.684   2.446 -2.5953 -0.2844 -5.3129
 9470SOL     OW39868   1.901   2.129   2.190 -0.0457 -0.2770 -0.2288
 9470SOL    HW139869   1.954   2.050   2.179 -2.4945 -1.7326 -1.5213
 9470SOL    HW239870   1.963   2.198   2.167 -0.7868  0.4080 -0.2084
 9471SOL     OW39871   1.450   3.484   1.726  0.3931 -0.5292  0.1767
 9471SOL    HW139872   1.467   3.496   1.819 -1.4412  1.3938  0.2528
 9471SOL    HW239873   1.402   3.564   1.705 -0.5949 -1.3591 -0.8023
 9472SOL     OW39874   2.828   2.168   6.185 -0.3965  0.0317 -0.1600
 9472SOL    HW139875   2.761   2.204   6.244 -1.1543  2.2130 -2.3449
 9472SOL    HW239876   2.895   2.134   6.244 -0.0095 -0.0431 -0.6460
 9473SOL     OW39877   4.493   4.581   4.525 -0.2397  0.5292 -0.1320
 9473SOL    HW139878   4.541   4.555   4.446 -0.4797 -2.0372  0.5635
 9473SOL    HW239879   4.505   4.504   4.581  1.0756  0.4348 -0.5359
 9474SOL     OW39880   3.835   2.663   2.889 -0.0350  0.2165 -0.4089
 9474SOL    HW139881   3.914   2.677   2.941 -2.2639  4.0460  1.9591
 9474SOL    HW239882   3.863   2.608   2.816 -0.0644  0.7742 -0.8359
 9475SOL     OW39883   3.731   1.965   6.444  0.6566 -0.7541  0.2203
 9475SOL    HW139884   3.761   1.879   6.472  3.5907 -0.3585 -1.7661
 9475SOL    HW239885   3.636   1.958   6.443  0.5904  0.2999 -1.5651
 9476SOL     OW39886   1.837   4.070  17.575 -0.6056 -0.7327  0.2205
 9476SOL    HW139887   1.924   4.030  17.579  0.5763  1.3732 -3.8312
 9476SOL    HW239888   1.863   4.158  17.604 -0.5901  0.3494 -3.0485
 9477SOL     OW39889   3.348   4.695   0.135  0.0621 -0.4641 -0.1179
 9477SOL    HW139890   3.353   4.648   0.218 -0.8886 -0.7036 -0.1968
 9477SOL    HW239891   3.431   0.020   0.145 -0.2739  0.2465 -0.5794
 9478SOL     OW39892   1.291   2.612   8.150 -0.3567  0.2433  0.2176
 9478SOL    HW139893   1.227   2.672   8.187 -0.9733 -0.4610  0.3038
 9478SOL    HW239894   1.306   2.665   8.072  0.5484 -1.1930 -0.5972
 9479SOL     OW39895   3.307   4.422   2.084 -0.1164 -0.5639 -0.0665
 9479SOL    HW139896   3.240   4.457   2.143  0.3228  1.3152 -0.6958
 9479SOL    HW239897   3.256   4.405   2.005  0.6293  2.8442 -1.2775
 9480SOL     OW39898   0.059   2.994   7.149 -0.2781  0.6772 -0.3588
 9480SOL    HW139899   0.094   2.942   7.222 -0.1010 -0.0374 -0.9575
 9480SOL    HW239900   0.103   2.960   7.072 -3.0870 -0.4917 -1.4252
 9481SOL     OW39901   3.210   4.368   4.015 -0.7510 -0.1746 -0.0271
 9481SOL    HW139902   3.188   4.305   4.084  0.8078 -1.3599 -0.6095
 9481SOL    HW239903   3.159   4.333   3.942  0.3857 -2.0456  0.0760
 9482SOL     OW39904   1.291   1.193   3.348  0.2007  0.1255 -0.2453
 9482SOL    HW139905   1.336   1.277   3.342  0.7315 -0.0896  0.7302
 9482SOL    HW239906   1.358   1.136   3.310  2.3237  0.6100  2.7291
 9483SOL     OW39907   3.187   1.179   2.012 -0.1688  0.3997  0.2325
 9483SOL    HW139908   3.270   1.166   2.057 -0.5855  0.3346  0.9735
 9483SOL    HW239909   3.176   1.274   2.020  1.5104  0.7510 -1.6057
 9484SOL     OW39910   3.256   2.058  12.949  0.3412 -0.2699 -0.0079
 9484SOL    HW139911   3.208   2.120  13.005  0.1277  1.3307 -1.9496
 9484SOL    HW239912   3.305   2.025  13.024 -0.7296  1.2462  1.3529
 9485SOL     OW39913   3.907   3.191   9.079  0.4957  0.5249 -0.6491
 9485SOL    HW139914   3.946   3.166   8.995 -2.4735  2.2417 -2.5305
 9485SOL    HW239915   3.929   3.111   9.127 -1.8613 -0.3544 -1.0330
 9486SOL     OW39916   0.119   3.181  14.741  0.2537  0.3242 -0.0883
 9486SOL    HW139917   0.045   3.232  14.774 -0.5125 -1.6161  1.1325
 9486SOL    HW239918   0.126   3.112  14.806  1.9651  1.2229  0.6917
 9487SOL     OW39919   2.142   3.861   4.814  0.5034  0.0689  0.0509
 9487SOL    HW139920   2.202   3.790   4.790  1.6011  0.7637  0.7427
 9487SOL    HW239921   2.112   3.889   4.728  0.0479 -3.2026 -0.8633
 9488SOL     OW39922   3.493   1.910   5.585  0.4488 -0.2533 -0.7398
 9488SOL    HW139923   3.436   1.962   5.528  1.0699  1.1817 -0.0246
 9488SOL    HW239924   3.427   1.873   5.643 -0.6554  1.8853 -0.6274
 9489SOL     OW39925   0.959   4.537   5.447 -0.2789  0.4563 -0.2878
 9489SOL    HW139926   1.012   4.458   5.462 -1.1965 -0.1852 -0.4184
 9489SOL    HW239927   0.967   4.545   5.352  1.1025 -0.3923 -0.2550
 9490SOL     OW39928   2.018   3.443  11.586  0.1156  0.2731  0.2932
 9490SOL    HW139929   2.080   3.428  11.656 -0.7836  1.7201  1.4172
 9490SOL    HW239930   2.055   3.519  11.540  2.5763 -1.3482 -0.3670
 9491SOL     OW39931   2.498   1.346  12.860  0.7730  0.0708  0.2613
 9491SOL    HW139932   2.557   1.391  12.920  2.2626 -1.5264  0.0147
 9491SOL    HW239933   2.425   1.320  12.916  0.2168  0.6153 -0.2118
 9492SOL     OW39934   4.245   4.330   4.852 -0.1801  0.4666  0.0284
 9492SOL    HW139935   4.226   4.360   4.941 -0.2885  1.1205 -0.2120
 9492SOL    HW239936   4.158   4.331   4.812  0.2776 -2.3167 -1.0164
 9493SOL     OW39937   0.833   0.956   9.114 -0.1690 -0.2490  0.2367
 9493SOL    HW139938   0.927   0.955   9.129 -0.0811 -2.4959 -0.5057
 9493SOL    HW239939   0.819   1.041   9.156  0.7436 -0.0731  0.1848
 9494SOL     OW39940   2.892   0.545  16.157  0.0532 -0.4295 -0.5963
 9494SOL    HW139941   2.833   0.554  16.231  1.8195  0.1324  0.7182
 9494SOL    HW239942   2.946   0.471  16.184 -1.0530 -0.3627  1.8031
 9495SOL     OW39943   3.842   3.066  10.205 -0.0450  0.1713  0.1848
 9495SOL    HW139944   3.887   3.142  10.241  2.9804 -2.2344  1.5343
 9495SOL    HW239945   3.888   3.053  10.122  1.6009 -0.2343  1.1548
 9496SOL     OW39946   0.519   2.284  12.594 -0.1863  0.2149  0.1287
 9496SOL    HW139947   0.472   2.367  12.597  0.6520  0.6309  1.6305
 9496SOL    HW239948   0.603   2.313  12.560  0.4537  1.1916  2.6169
 9497SOL     OW39949   2.363   1.069   8.853  0.3989  0.3907  1.0774
 9497SOL    HW139950   2.346   0.998   8.790 -0.2045  2.2986 -0.8892
 9497SOL    HW239951   2.439   1.108   8.810  1.8473 -2.0524  1.3986
 9498SOL     OW39952   3.570   0.584   6.873  0.3164  0.1355 -0.3555
 9498SOL    HW139953   3.512   0.508   6.885 -0.5049  0.3632 -2.7676
 9498SOL    HW239954   3.540   0.648   6.937 -0.0719 -1.0756  0.6808
 9499SOL     OW39955   4.283   4.408   4.195 -0.2324 -0.7941  0.5396
 9499SOL    HW139956   4.368   4.377   4.164 -0.8569 -0.6400 -1.2941
 9499SOL    HW239957   4.258   4.338   4.255 -1.4410 -0.4259  0.4807
 9500SOL     OW39958   3.343   0.255   8.315  0.5322  0.1347  0.0033
 9500SOL    HW139959   3.284   0.329   8.327 -0.0167 -0.2697 -0.1964
 9500SOL    HW239960   3.365   0.258   8.222  0.6722  0.9864  0.0697
 9501SOL     OW39961   3.745   0.708   2.432  0.9017 -0.7745  0.3543
 9501SOL    HW139962   3.826   0.754   2.411  0.6896 -0.1073  1.0424
 9501SOL    HW239963   3.679   0.776   2.422  1.3445 -0.3809  0.0920
 9502SOL     OW39964   1.643   4.088   2.073  0.2402 -0.0851 -0.2213
 9502SOL    HW139965   1.556   4.126   2.057 -0.0614 -0.9197 -0.5707
 9502SOL    HW239966   1.635   3.994   2.057  1.6091 -0.3223  0.5158
 9503SOL     OW39967   3.779   0.949   1.104  0.0623 -0.8147  0.2120
 9503SOL    HW139968   3.708   0.970   1.043  1.1175  0.4922 -0.5845
 9503SOL    HW239969   3.853   0.984   1.054  0.6019 -1.6663  0.4186
 9504SOL     OW39970   2.152   2.058   0.152  0.3982 -0.0501  0.1428
 9504SOL    HW139971   2.196   2.143   0.146  0.3049  0.0567  1.1027
 9504SOL    HW239972   2.173   2.017   0.067  1.0501 -1.5067  1.0115
 9505SOL     OW39973   0.845   3.685   2.265 -0.0575  0.1059  0.5090
 9505SOL    HW139974   0.939   3.705   2.269  0.7414 -3.7345  1.2039
 9505SOL    HW239975   0.849   3.596   2.230  3.9003  1.0403 -1.5259
 9506SOL     OW39976   4.352   3.350   9.657 -0.0060 -1.1225  0.8109
 9506SOL    HW139977   4.293   3.278   9.677 -0.6604 -0.6669  0.5073
 9506SOL    HW239978   4.436   3.334   9.701  1.1299  0.1695 -0.8939
 9507SOL     OW39979   4.492   3.664   6.531  0.2255 -0.2731 -0.2759
 9507SOL    HW139980   4.574   3.643   6.486  0.2646  0.2512 -0.4512
 9507SOL    HW239981   4.498   3.604   6.605 -1.4532 -0.0518  0.0213
 9508SOL     OW39982   3.373   3.288   0.398  0.1470 -1.2316  0.7809
 9508SOL    HW139983   3.444   3.284   0.334  2.4024 -0.5686  3.2125
 9508SOL    HW239984   3.423   3.308   0.478 -0.4287 -0.3520  0.9135
 9509SOL     OW39985   2.946   3.037   3.480  0.3940  0.2339 -0.4729
 9509SOL    HW139986   2.987   3.085   3.408 -0.5209  1.1839 -0.3629
 9509SOL    HW239987   3.009   2.966   3.493  0.3772  0.4864  0.9238
 9510SOL     OW39988   3.880   3.153   2.610  0.0327 -0.0748  0.0296
 9510SOL    HW139989   3.882   3.175   2.516 -0.1939 -0.1515  0.0055
 9510SOL    HW239990   3.942   3.213   2.651  1.3744 -1.3424 -0.1518
 9511SOL     OW39991   4.498   0.665  14.716 -0.4323  0.1013 -0.0448
 9511SOL    HW139992   4.419   0.625  14.751 -0.8425 -0.3918 -1.5592
 9511SOL    HW239993   4.561   0.625  14.776  1.3015  0.9437 -1.3138
 9512SOL     OW39994   4.291   0.464   5.503 -0.3469  0.0347 -0.2516
 9512SOL    HW139995   4.348   0.520   5.451 -0.6958  0.5144 -0.1232
 9512SOL    HW239996   4.261   0.397   5.441 -0.5806  0.7250 -0.8873
 9513SOL     OW39997   3.171   0.943  17.397  0.6674 -0.2716  0.0884
 9513SOL    HW139998   3.103   0.956  17.462  0.4731 -3.8177  0.6304
 9513SOL    HW239999   3.247   0.974  17.447  1.1985 -0.4764 -0.5949
 9514SOL     OW40000   0.154   2.088   1.783 -0.4426 -0.1648 -0.3929
 9514SOL    HW140001   0.159   1.998   1.814 -0.9432 -0.1562 -0.2794
 9514SOL    HW240002   0.063   2.102   1.809 -0.2508  0.0846  0.1399
 9515SOL     OW40003   4.439   3.368   8.561 -0.0105 -0.4103  0.0107
 9515SOL    HW140004   4.348   3.347   8.540 -0.1883  2.9287 -2.7042
 9515SOL    HW240005   4.424   3.446   8.616 -0.5536  0.1596 -0.9403
 9516SOL     OW40006   0.535   1.661  10.367  0.1354  0.3407  0.3821
 9516SOL    HW140007   0.472   1.693  10.302  0.7568  1.4475  0.3204
 9516SOL    HW240008   0.611   1.710  10.335  0.1779  0.1200  0.1426
 9517SOL     OW40009   4.169   0.739   7.238 -0.2947  0.5275  0.4681
 9517SOL    HW140010   4.191   0.653   7.274 -1.0492  0.7997  1.5823
 9517SOL    HW240011   4.192   0.722   7.147  0.6192  1.3648  0.5494
 9518SOL     OW40012   3.453   4.648   5.926  0.1776  0.4280  0.1311
 9518SOL    HW140013   3.492   4.700   5.996 -0.1685  1.7631 -0.6674
 9518SOL    HW240014   3.409   4.719   5.879  0.2187 -0.4094 -1.1849
 9519SOL     OW40015   0.137   1.624   5.788  0.2926 -0.3591  0.1300
 9519SOL    HW140016   0.101   1.643   5.874  0.6534 -0.4564  0.3025
 9519SOL    HW240017   0.110   1.696   5.731 -1.5720 -0.0994  1.3427
 9520SOL     OW40018   1.410   3.662  15.573 -0.5146  0.2708  0.3944
 9520SOL    HW140019   1.464   3.703  15.641  1.6638 -0.1531 -1.0537
 9520SOL    HW240020   1.368   3.596  15.628  0.8648 -2.6896 -2.0969
 9521SOL     OW40021   1.571   3.159   5.528  0.1437 -0.7578  0.1470
 9521SOL    HW140022   1.613   3.099   5.467 -0.8139 -1.6752  0.3739
 9521SOL    HW240023   1.480   3.140   5.505 -0.1573  0.0296  0.6790
 9522SOL     OW40024   4.643   2.209   3.719 -0.2345 -0.6425  0.1840
 9522SOL    HW140025   4.663   2.115   3.715 -0.8968 -0.7711 -0.1759
 9522SOL    HW240026   0.008   2.240   3.693 -1.1573 -0.3968 -2.6173
 9523SOL     OW40027   2.231   0.776   5.360 -0.3100 -0.5819 -0.3292
 9523SOL    HW140028   2.269   0.691   5.342  2.1154  0.9490 -2.3070
 9523SOL    HW240029   2.165   0.748   5.424  0.7215 -0.8180  0.6394
 9524SOL     OW40030   2.214   0.184  11.605  0.0432 -0.4720  0.1121
 9524SOL    HW140031   2.207   0.276  11.632  0.6309 -0.2951 -0.3239
 9524SOL    HW240032   2.165   0.183  11.522 -1.4643  2.0968  0.9635
 9525SOL     OW40033   1.528   4.471   8.793  0.2354  0.2597  0.5965
 9525SOL    HW140034   1.624   4.479   8.786  0.0643  0.5363 -1.3689
 9525SOL    HW240035   1.502   4.559   8.767 -3.2959 -0.7240  0.8566
 9526SOL     OW40036   4.205   3.823   5.721  0.2258  0.5720  0.1674
 9526SOL    HW140037   4.146   3.782   5.784  0.9269 -0.5527  0.0886
 9526SOL    HW240038   4.289   3.810   5.765  0.3273  0.7373  0.0258
 9527SOL     OW40039   3.415   0.583   8.649  0.1743  0.0387  0.0584
 9527SOL    HW140040   3.470   0.544   8.717  0.9085 -1.2233 -1.2549
 9527SOL    HW240041   3.354   0.625   8.710  1.2353  2.3871 -0.4954
 9528SOL     OW40042   3.952   3.020   2.303  0.2305 -0.0510  0.0542
 9528SOL    HW140043   3.935   3.113   2.319 -0.0430 -0.5536  2.6542
 9528SOL    HW240044   3.997   3.020   2.219  0.4163  0.9479  0.1503
 9529SOL     OW40045   2.704   0.263   3.814 -0.4210 -0.3031  0.0957
 9529SOL    HW140046   2.715   0.247   3.908 -1.3503  3.1545  0.7911
 9529SOL    HW240047   2.782   0.317   3.800 -0.0341 -0.7494  0.4880
 9530SOL     OW40048   1.403   1.055   2.268  0.0144 -0.3956  0.0108
 9530SOL    HW140049   1.448   1.138   2.253  1.1612 -0.8712  0.8568
 9530SOL    HW240050   1.313   1.074   2.238  0.0481 -0.1323  0.0745
 9531SOL     OW40051   0.906   0.461  14.420 -0.1601  0.2130  0.5425
 9531SOL    HW140052   0.873   0.550  14.433  0.4194  0.4980  0.0638
 9531SOL    HW240053   0.847   0.408  14.474 -0.4102  0.2046  0.2587
 9532SOL     OW40054   2.829   4.703   0.771 -0.1909  0.3452 -0.1985
 9532SOL    HW140055   2.916   4.673   0.797  0.9000  2.2185 -1.7233
 9532SOL    HW240056   2.833   4.695   0.676  1.6446  0.3098 -0.1278
 9533SOL     OW40057   3.155   1.954   8.591 -0.1266 -0.3586 -0.3581
 9533SOL    HW140058   3.207   1.944   8.670  0.5983 -0.9668 -0.9108
 9533SOL    HW240059   3.149   1.863   8.562  3.2497 -0.2853 -1.3541
 9534SOL     OW40060   2.897   4.560   8.745  0.0532 -0.0328  0.0091
 9534SOL    HW140061   2.976   4.544   8.796  0.4933 -0.7818 -0.9039
 9534SOL    HW240062   2.925   4.519   8.663  0.6054  0.6746 -0.1651
 9535SOL     OW40063   2.297   3.286  12.615  0.0004  0.1534  0.2088
 9535SOL    HW140064   2.228   3.280  12.680  0.3938  0.3492  0.6421
 9535SOL    HW240065   2.361   3.230  12.660  1.6215  1.3176 -0.6390
 9536SOL     OW40066   4.609   3.375  13.723 -0.5737 -0.4364  0.3424
 9536SOL    HW140067   4.682   3.321  13.693  1.3382 -0.2559  4.5166
 9536SOL    HW240068   4.544   3.312  13.754 -2.0504  1.8448  1.9299
 9537SOL     OW40069   1.441   4.360   5.177 -0.1495  0.0233  0.2490
 9537SOL    HW140070   1.395   4.293   5.128 -1.5617  0.3299  1.1599
 9537SOL    HW240071   1.366   4.418   5.193 -1.4932 -1.7117  0.1515
 9538SOL     OW40072   2.389   1.901   5.114 -0.0873  0.3148 -0.0435
 9538SOL    HW140073   2.376   1.973   5.175  2.5159  1.2278 -0.5463
 9538SOL    HW240074   2.414   1.828   5.171 -0.8856  0.2827  0.2632
 9539SOL     OW40075   1.678   1.308   3.302  0.4898  0.3071 -0.6574
 9539SOL    HW140076   1.589   1.339   3.319  0.9541  0.7813  0.9204
 9539SOL    HW240077   1.668   1.216   3.324 -2.5365  0.9844  0.8031
 9540SOL     OW40078   0.121   0.034   8.405  0.0147  0.1534 -0.1011
 9540SOL    HW140079   0.150   0.006   8.492  1.5801 -3.1915 -1.7180
 9540SOL    HW240080   0.177   0.110   8.385 -0.1992 -0.0308 -1.3422
 9541SOL     OW40081   4.162   3.182   7.380 -0.4236 -0.3728 -0.5799
 9541SOL    HW140082   4.168   3.086   7.373 -1.0323 -0.6084  2.2307
 9541SOL    HW240083   4.127   3.178   7.469 -0.0202  1.7340 -0.3408
 9542SOL     OW40084   0.521   0.275   4.041  0.3488  0.2433  0.7872
 9542SOL    HW140085   0.600   0.222   4.048 -0.5521 -1.2951 -0.7688
 9542SOL    HW240086   0.472   0.222   3.979 -0.7794  3.2756 -0.8971
 9543SOL     OW40087   0.424   2.827   1.214  0.2210 -0.0751 -0.1921
 9543SOL    HW140088   0.439   2.866   1.128 -2.9588 -1.7323 -1.4937
 9543SOL    HW240089   0.368   2.894   1.255 -1.1374 -1.3137 -0.0511
 9544SOL     OW40090   4.517   3.350   8.292  0.0164 -0.0960  0.3624
 9544SOL    HW140091   4.512   3.339   8.387  0.6718  0.8483  0.4935
 9544SOL    HW240092   4.511   3.445   8.282 -2.0787 -0.3720 -1.1781
 9545SOL     OW40093   1.671   2.096   5.350  0.0511  0.1548 -0.0141
 9545SOL    HW140094   1.619   2.144   5.415  1.4573 -0.3209  1.4678
 9545SOL    HW240095   1.613   2.068   5.279  0.2621  2.3664 -1.0399
 9546SOL     OW40096   2.271   1.828   4.041  0.7861  0.2473 -0.4639
 9546SOL    HW140097   2.352   1.868   4.074  0.5451 -1.5863  2.3412
 9546SOL    HW240098   2.222   1.795   4.116  2.0438  0.9581  0.6596
 9547SOL     OW40099   3.648   0.162   7.510 -0.3429 -0.1904  0.8755
 9547SOL    HW140100   3.650   0.152   7.415 -4.0011  1.1388  0.6730
 9547SOL    HW240101   3.721   0.108   7.542  1.2091  0.8650 -0.9122
 9548SOL     OW40102   2.471   3.118  12.723 -0.1082 -0.6624 -0.0341
 9548SOL    HW140103   2.544   3.146  12.778 -0.4329  0.1010  0.0142
 9548SOL    HW240104   2.520   3.064  12.661 -0.4502 -2.0699  0.9509
 9549SOL     OW40105   1.643   4.030   0.088  0.5942 -0.5110 -0.3992
 9549SOL    HW140106   1.587   4.102   0.061 -0.7476 -0.7392  1.7706
 9549SOL    HW240107   1.715   4.033   0.025  1.8465 -0.7162  0.9942
 9550SOL     OW40108   2.649   4.180   1.506  0.3044 -0.1208  0.0475
 9550SOL    HW140109   2.635   4.222   1.421 -0.6031  1.1104  0.7926
 9550SOL    HW240110   2.625   4.089   1.487  0.4300 -0.2657  0.5791
 9551SOL     OW40111   4.519   3.222   1.784  0.4038 -0.2332  0.1245
 9551SOL    HW140112   4.585   3.153   1.795 -0.4406 -0.7624  1.9716
 9551SOL    HW240113   4.555   3.305   1.814 -0.1969 -0.6018  1.8460
 9552SOL     OW40114   1.783   1.230  14.714 -0.2779  0.0332 -0.3959
 9552SOL    HW140115   1.819   1.190  14.635 -0.2283 -1.4028  0.3368
 9552SOL    HW240116   1.692   1.209  14.693 -0.5075  0.0703  0.5581
 9553SOL     OW40117   4.128   4.656   7.945 -0.0472 -0.0441 -0.5847
 9553SOL    HW140118   4.120   4.631   8.037  0.5652 -0.7672 -0.7306
 9553SOL    HW240119   4.207   4.607   7.921  0.4350  0.0789  0.7545
 9554SOL     OW40120   1.351   3.197  12.059  0.3505 -0.2973  0.2037
 9554SOL    HW140121   1.298   3.263  12.015 -1.4218 -0.6675  1.8096
 9554SOL    HW240122   1.393   3.148  11.988 -1.3887 -0.8548 -0.4503
 9555SOL     OW40123   4.124   2.983   4.961 -0.0772  0.1189 -0.2873
 9555SOL    HW140124   4.212   3.021   4.966  0.4847 -1.0616 -1.0934
 9555SOL    HW240125   4.122   2.945   4.873 -1.8017  1.6810 -0.8939
 9556SOL     OW40126   2.161   1.071   4.869 -0.3077  0.1325 -0.1649
 9556SOL    HW140127   2.113   1.045   4.948 -1.9299 -1.3408 -1.6162
 9556SOL    HW240128   2.245   1.030   4.887 -1.1515 -1.4000  0.3184
 9557SOL     OW40129   2.820   2.305   4.906  0.0862  0.0616 -0.1605
 9557SOL    HW140130   2.814   2.276   4.815  1.1691  2.1220 -0.8828
 9557SOL    HW240131   2.853   2.393   4.890  0.9013 -0.2749 -0.3253
 9558SOL     OW40132   3.012   4.611   7.879 -0.2457  0.0831 -0.3595
 9558SOL    HW140133   2.919   4.593   7.863 -0.1448  1.4598 -2.5185
 9558SOL    HW240134   3.058   4.578   7.802  0.4280  0.9267 -0.3291
 9559SOL     OW40135   2.697   2.005   2.048  0.0973 -0.1866 -0.4352
 9559SOL    HW140136   2.679   1.965   1.963 -1.7374  2.0342 -1.0909
 9559SOL    HW240137   2.725   2.091   2.018  1.5937 -0.3912  0.3625
 9560SOL     OW40138   4.306   0.800   4.047  0.4374 -0.8515 -0.3071
 9560SOL    HW140139   4.393   0.835   4.030  0.5245 -1.3303 -0.8681
 9560SOL    HW240140   4.321   0.706   4.044 -0.3463 -0.9912  0.1284
 9561SOL     OW40141   2.802   0.812   8.723  0.3737 -0.3927  0.0538
 9561SOL    HW140142   2.792   0.904   8.696 -1.0208  0.0315  1.9777
 9561SOL    HW240143   2.796   0.772   8.637  1.5946 -1.0403  0.2745
 9562SOL     OW40144   0.990   3.496   5.144 -0.2898 -0.1370 -0.2889
 9562SOL    HW140145   1.077   3.512   5.108  0.4502  0.0706  1.5784
 9562SOL    HW240146   1.003   3.413   5.189  3.5694  0.8367  0.4361
 9563SOL     OW40147   1.677   2.430   4.828 -0.2840  0.4228  0.6174
 9563SOL    HW140148   1.739   2.450   4.898 -0.3054  1.2745  0.3878
 9563SOL    HW240149   1.647   2.348   4.867  3.5510 -1.3723 -0.1700
 9564SOL     OW40150   2.030   0.050   4.055  0.0708 -0.8960  0.0484
 9564SOL    HW140151   1.984   0.061   3.972 -0.7208  1.5734  0.8080
 9564SOL    HW240152   1.975   0.111   4.104  2.1763 -0.1226  1.4379
 9565SOL     OW40153   1.781   4.171  14.451 -0.1512  0.1251  0.0565
 9565SOL    HW140154   1.754   4.181  14.360 -2.3916  1.1095  0.8348
 9565SOL    HW240155   1.811   4.081  14.458 -2.0994 -0.4338  1.2134
   4.72103   4.72103  17.68655
