Membrane in water
40155
    1TCq1    O1    1   3.803   2.466  10.430 -0.0334 -0.1203  0.0805
    1TCq1    C1    2   3.926   2.447  10.482  0.5083  0.4949  0.6304
    1TCq1    O2    3   4.028   2.442  10.417  0.4021  0.0191 -0.3441
    1TCq1    C2    4   3.924   2.457  10.632  0.9118 -0.0067 -0.1410
    1TCq1    C3    5   3.834   2.537  10.696  0.3273 -0.2559 -0.1586
    1TCq1    C4    6   3.848   2.530  10.831 -0.6701 -0.1497 -0.0063
    1TCq1    C5    7   3.938   2.449  10.894  0.0918 -0.5781 -0.4966
    1TCq1    C6    8   4.030   2.376  10.826 -1.5143 -0.0627 -0.4813
    1TCq1    C7    9   4.014   2.369  10.691  0.2646  0.5347 -0.4024
    1TCq1    C8   10   4.126   2.295  10.894 -0.2079  0.3998 -0.1669
    1TCq1    O4   11   4.115   2.299  11.017 -0.2830  0.3157 -0.5321
    1TCq1    C9   12   3.752   2.605  10.920 -0.1839  0.2809  0.3310
    1TCq1    O5   13   3.682   2.684  10.857  0.0708  0.1948  0.4437
    1TCq1    O6   14   3.759   2.592  11.049 -0.9574  0.7592  0.0742
    1TCq1    H1   15   3.743   2.445  10.504  0.4938 -1.2352  0.2036
    1TCq1    H2   16   3.762   2.604  10.650  0.1244  0.1809  0.8045
    1TCq1    H3   17   3.944   2.460  11.001  0.4485 -2.0014 -0.3763
    1TCq1    H4   18   4.072   2.309  10.621  0.0284  1.0420 -1.0391
    2MPD2     C   19   4.492   1.932  10.900 -0.7078  1.1064 -0.3214
    2MPD2    C1   20   4.425   1.995  11.000 -0.4087 -1.1282 -0.5980
    2MPD2    C2   21   4.341   2.101  10.977  0.2268 -0.6379  0.5067
    2MPD2    C3   22   4.304   2.131  10.847 -0.0863  0.1769  0.9209
    2MPD2    C4   23   4.366   2.063  10.741 -0.4402 -0.7013  0.3475
    2MPD2    C5   24   4.462   1.968  10.770 -0.5702 -0.6931  0.3594
    2MPD2     H   25   4.297   2.145  11.066 -0.0268 -1.8801  1.0085
    2MPD2    H1   26   4.349   2.082  10.636 -1.7538 -1.4709  0.4214
    2MPD2    H2   27   4.567   1.854  10.909 -1.6493  0.1906 -0.3588
    2MPD2    H3   28   4.514   1.916  10.691  0.7627 -1.2226  1.5817
    2MPD2     N   29   4.206   2.227  10.813  0.0588 -0.5482 -0.0726
    2MPD2    H5   30   4.185   2.233  10.714 -1.7249  2.1797  0.4743
    2MPD2    N1   31   4.457   1.975  11.139  0.3553 -0.4088 -1.0184
    2MPD2    H7   32   4.408   2.035  11.204  2.6929  0.4631 -0.0564
    3TCq1    O1   33   4.673   3.281   9.871 -0.3287  0.4997  0.2115
    3TCq1    C1   34   4.573   3.212   9.926  0.1586  0.3142  0.1905
    3TCq1    O2   35   4.571   3.093   9.948  0.7683 -0.4971 -0.3880
    3TCq1    C2   36   4.474   3.302   9.987 -0.4558 -0.0287 -0.0487
    3TCq1    C3   37   4.480   3.439   9.977 -0.2490  0.0203 -0.1754
    3TCq1    C4   38   4.380   3.514  10.041 -0.4489 -0.7317 -0.1222
    3TCq1    C5   39   4.280   3.446  10.103  0.4677  0.0522  0.2839
    3TCq1    C6   40   4.278   3.304  10.112  0.9178  0.1723  0.1757
    3TCq1    C7   41   4.376   3.230  10.050  0.9486 -0.2804  0.0645
    3TCq1    C8   42   4.188   3.234  10.211  0.5360 -0.0794  0.2686
    3TCq1    O4   43   4.174   3.115  10.210  0.0523  0.3901  0.2539
    3TCq1    C9   44   4.388   3.657  10.036 -0.2907  0.7508  0.5765
    3TCq1    O5   45   4.280   3.713  10.067  0.2207  0.7776  0.4273
    3TCq1    O6   46   4.486   3.716   9.996  0.5958 -0.3140  0.5008
    3TCq1    H1   47   4.653   3.377   9.877 -0.5554  0.5456 -1.1920
    3TCq1    H2   48   4.560   3.495   9.929  0.4937 -1.2424 -0.3894
    3TCq1    H3   49   4.208   3.509  10.153  0.8871 -0.7200  1.8469
    3TCq1    H4   50   4.364   3.123  10.041 -1.1765 -0.0323 -0.1076
    4MPD2     C   51   3.885   3.240  10.629 -0.1409  0.0761 -0.2993
    4MPD2    C1   52   3.928   3.367  10.606 -0.0743  0.1908 -0.2011
    4MPD2    C2   53   4.017   3.383  10.496  0.5426 -0.7617  0.1326
    4MPD2    C3   54   4.060   3.284  10.413  0.4542 -0.2286 -0.2067
    4MPD2    C4   55   3.997   3.162  10.429  0.5273  0.2293  0.7068
    4MPD2    C5   56   3.910   3.143  10.530 -0.0487  0.9145  0.5562
    4MPD2     H   57   4.061   3.481  10.478  2.6898 -1.3760  2.1038
    4MPD2    H1   58   4.011   3.072  10.371  0.1908 -0.3319  1.5019
    4MPD2    H2   59   3.827   3.215  10.717 -1.7684  0.1730 -1.3515
    4MPD2    H3   60   3.863   3.045  10.533  2.5662 -0.5100 -3.8380
    4MPD2     N   61   4.146   3.323  10.308 -0.3298  0.8980 -0.5062
    4MPD2    H5   62   4.180   3.418  10.305 -0.1559  0.8916  1.3728
    4MPD2    N1   63   3.903   3.471  10.692  0.0598 -0.2710 -0.0614
    4MPD2    H7   64   3.947   3.557  10.661  1.1716 -1.2292 -1.1503
    5TCq1    O1   65   3.668   4.015  10.723 -0.3847  0.1273  0.4650
    5TCq1    C1   66   3.654   4.128  10.645 -0.5413  0.0572 -0.5213
    5TCq1    O2   67   3.609   4.236  10.670 -0.1166  0.1130  0.8662
    5TCq1    C2   68   3.748   4.112  10.532 -0.0516 -0.3003  0.7185
    5TCq1    C3   69   3.693   4.092  10.408  0.1293  0.0235  0.8344
    5TCq1    C4   70   3.781   4.090  10.302 -0.1066  0.0647  0.1210
    5TCq1    C5   71   3.917   4.109  10.318 -0.0279  0.0579  1.2004
    5TCq1    C6   72   3.963   4.138  10.444  0.4614 -0.0322 -0.6382
    5TCq1    C7   73   3.880   4.134  10.556 -0.2722  0.4339  0.0530
    5TCq1    C8   74   4.094   4.189  10.464 -0.3125  0.6443 -0.2056
    5TCq1    O4   75   4.148   4.166  10.573  0.1443  0.8858  0.6119
    5TCq1    C9   76   3.732   4.049  10.168  0.0157 -0.1886  0.3696
    5TCq1    O5   77   3.619   3.998  10.160 -0.1211  0.9332 -0.4908
    5TCq1    O6   78   3.816   4.038  10.073 -0.1691 -0.5705  0.1039
    5TCq1    H1   79   3.723   3.947  10.679  0.6325 -0.3940  2.5374
    5TCq1    H2   80   3.588   4.070  10.393 -0.3150  2.7212 -0.0462
    5TCq1    H3   81   3.977   4.106  10.228 -2.6672  0.1742 -0.5821
    5TCq1    H4   82   3.928   4.158  10.650 -0.3618  2.1873 -0.3425
    6MPD2     C   83   4.267   4.408  10.237  0.5499  0.2391 -0.4601
    6MPD2    C1   84   4.259   4.326  10.342 -0.0496 -0.4214 -0.3383
    6MPD2    C2   85   4.357   4.311  10.436  0.1783  0.4777 -0.3398
    6MPD2    C3   86   4.469   4.395  10.432 -0.1393 -0.0205  0.2927
    6MPD2    C4   87   4.478   4.473  10.322 -0.4463  0.7124 -0.2493
    6MPD2    C5   88   4.375   4.490  10.235  0.0625  0.2067  0.8461
    6MPD2     H   89   4.344   4.237  10.514  1.6381 -1.1744 -1.6603
    6MPD2    H1   90   4.563   4.541  10.319 -2.0411  2.6701 -0.7877
    6MPD2    H2   91   4.189   4.429  10.165 -0.0749  1.1901  0.4993
    6MPD2    H3   92   4.387   4.562  10.154 -1.9754 -0.4412 -0.0371
    6MPD2     N   93   4.578   4.359  10.521  0.7626 -0.2076  0.1920
    6MPD2    H5   94   4.565   4.302  10.604  1.6640 -1.2262 -0.3753
    6MPD2    N1   95   4.135   4.257  10.350  0.2840  0.6496 -0.3789
    6MPD2    H7   96   4.062   4.278  10.284  1.1176 -0.0238 -1.5270
    7TCq1    O1   97   1.295   4.006  13.021  0.2594 -0.2498 -0.4333
    7TCq1    C1   98   1.399   3.925  13.043 -0.0969  0.4072  0.9290
    7TCq1    O2   99   1.427   3.877  13.152  0.5700  0.5697  0.1510
    7TCq1    C2  100   1.476   3.903  12.920  0.8022  0.1487 -0.6952
    7TCq1    C3  101   1.492   4.001  12.825 -0.4133  0.2928  0.6731
    7TCq1    C4  102   1.605   3.994  12.748  1.0201  0.3828  0.3625
    7TCq1    C5  103   1.705   3.904  12.763  0.5165 -0.9292 -0.5458
    7TCq1    C6  104   1.684   3.808  12.861  0.7842  0.4445 -0.1019
    7TCq1    C7  105   1.566   3.805  12.935 -0.0134  0.3381 -0.0375
    7TCq1    C8  106   1.791   3.723  12.902  0.0609 -0.0399 -0.7334
    7TCq1    O4  107   1.759   3.617  12.963  0.2566  0.2520 -0.3224
    7TCq1    C9  108   1.628   4.092  12.646  0.0477 -0.2210  0.1393
    7TCq1    O5  109   1.736   4.078  12.578 -0.1379 -0.5177  0.2467
    7TCq1    O6  110   1.536   4.166  12.619  0.3977 -0.0270  0.3203
    7TCq1    H1  111   1.269   4.026  12.929  1.9704 -1.2568 -1.1355
    7TCq1    H2  112   1.419   4.081  12.828 -0.7124  0.0402  0.1796
    7TCq1    H3  113   1.804   3.919  12.723  0.7105  0.7149  0.5400
    7TCq1    H4  114   1.558   3.744  13.024  0.7074  0.2106 -0.0559
    8MPD2     C  115   2.275   3.642  13.006  0.0543  0.2281  0.0487
    8MPD2    C1  116   2.168   3.552  12.993 -0.7122 -0.0120 -0.1209
    8MPD2    C2  117   2.041   3.601  12.963  0.3347 -0.0314 -0.5293
    8MPD2    C3  118   2.030   3.735  12.937  0.3597  0.5153  0.7908
    8MPD2    C4  119   2.139   3.818  12.939 -0.4496 -0.7302 -0.3932
    8MPD2    C5  120   2.255   3.767  12.966 -0.8023 -0.2574  0.2941
    8MPD2     H  121   1.963   3.527  12.950 -1.0209  1.5282 -1.2782
    8MPD2    H1  122   2.131   3.925  12.923 -1.6872 -1.0419 -1.9181
    8MPD2    H2  123   2.372   3.613  13.044  1.3044  2.2566 -1.5897
    8MPD2    H3  124   2.337   3.836  12.976  0.3565 -1.5138 -0.5796
    8MPD2     N  125   1.904   3.792  12.906  1.1183 -0.3765  0.4436
    8MPD2    H5  126   1.907   3.891  12.885 -0.0484 -0.3822  0.2701
    8MPD2    N1  127   2.183   3.421  13.036  0.2385 -0.0833  0.3827
    8MPD2    H7  128   2.276   3.390  13.062  1.4478  2.5146 -0.8573
    9TCq1    O1  129   0.111   2.502  10.386 -0.0953 -0.2243  0.2294
    9TCq1    C1  130   0.032   2.609  10.404  1.2500  0.3782 -0.1406
    9TCq1    O2  131   0.007   2.701  10.324  0.6137  0.1320 -0.5286
    9TCq1    C2  132   0.012   2.625  10.553  0.6188 -0.4716 -0.0924
    9TCq1    C3  133   0.097   2.545  10.626 -0.0114 -0.0782  0.7082
    9TCq1    C4  134   0.097   2.573  10.764 -1.0495  0.0599  0.0406
    9TCq1    C5  135   0.021   2.678  10.821  0.3303  0.2373 -0.0704
    9TCq1    C6  136   4.660   2.746  10.740 -0.6220  0.0199  0.7646
    9TCq1    C7  137   4.663   2.723  10.604 -0.1533 -0.5864  1.2532
    9TCq1    C8  138   4.580   2.855  10.787 -0.6609  0.9058  0.6495
    9TCq1    O4  139   4.568   2.947  10.709  0.0662  0.0091  0.5682
    9TCq1    C9  140   0.202   2.517  10.845 -0.9445 -0.2037  0.7305
    9TCq1    O5  141   0.251   2.585  10.942 -0.5778 -0.2473  0.1427
    9TCq1    O6  142   0.264   2.416  10.801 -0.1182  0.1754  0.2208
    9TCq1    H1  143   0.090   2.432  10.451 -2.6524 -1.9535 -2.4354
    9TCq1    H2  144   0.175   2.479  10.589 -0.3684  0.3116 -0.7066
    9TCq1    H3  145   0.032   2.703  10.926  0.5979 -0.4525  0.0626
    9TCq1    H4  146   4.611   2.791  10.536 -0.5470 -0.9253  1.2164
   10MPD2     C  147   4.474   3.080  10.934  0.8475  0.0315  0.1820
   10MPD2    C1  148   4.501   2.958  10.994 -0.3912  0.3986  0.9972
   10MPD2    C2  149   4.498   2.941  11.130  0.5001 -0.1358  0.7323
   10MPD2    C3  150   4.474   3.052  11.205 -0.3316 -1.1038 -0.2690
   10MPD2    C4  151   4.458   3.177  11.152 -0.0511  0.1348  0.1319
   10MPD2    C5  152   4.455   3.190  11.015  0.5666 -0.0480  1.0662
   10MPD2     H  153   4.515   2.847  11.182 -1.7121 -0.6008  0.6131
   10MPD2    H1  154   4.447   3.256  11.225 -0.8181  1.1050 -1.0205
   10MPD2    H2  155   4.485   3.103  10.828  2.5060  0.1950  0.3894
   10MPD2    H3  156   4.442   3.290  10.975 -0.8008  0.2197  2.1796
   10MPD2     N  157   4.468   3.041  11.348 -0.0213  0.1377  0.6116
   10MPD2    H5  158   4.494   3.125  11.400 -0.6363  0.3659  0.5525
   10MPD2    N1  159   4.545   2.845  10.922 -0.0528 -0.1574 -0.2348
   10MPD2    H7  160   4.563   2.752  10.957  0.0185  0.4614  1.3988
   11TCq1    O1  161   1.374   2.644  13.997 -0.1176  0.2408  0.0607
   11TCq1    C1  162   1.285   2.545  14.036 -0.1171  0.9777  0.5317
   11TCq1    O2  163   1.222   2.474  13.958 -0.6410 -0.1931  0.1996
   11TCq1    C2  164   1.221   2.617  14.137 -0.1443 -0.2559 -0.1421
   11TCq1    C3  165   1.294   2.682  14.239  0.1538  0.0186  0.3238
   11TCq1    C4  166   1.233   2.739  14.350 -0.0989 -0.1503 -0.7310
   11TCq1    C5  167   1.102   2.722  14.362  0.4134 -0.0911  0.3066
   11TCq1    C6  168   1.021   2.651  14.269  0.1080 -0.3911 -0.1430
   11TCq1    C7  169   1.086   2.599  14.155 -1.3066  0.6110 -0.6701
   11TCq1    C8  170   0.873   2.659  14.278 -0.1114 -0.3502 -0.0847
   11TCq1    O4  171   0.816   2.720  14.367 -0.1696  0.6794  0.0598
   11TCq1    C9  172   1.320   2.796  14.458  0.6682  0.2249 -0.2767
   11TCq1    O5  173   1.425   2.855  14.422 -0.3384 -0.0014 -0.1816
   11TCq1    O6  174   1.257   2.814  14.567  0.1328  0.2498 -0.5485
   11TCq1    H1  175   1.389   2.711  14.068 -0.7691  1.1945 -0.7031
   11TCq1    H2  176   1.402   2.677  14.237  0.2387  1.5391  1.6326
   11TCq1    H3  177   1.047   2.765  14.444  0.8469  1.2146 -0.0874
   11TCq1    H4  178   1.035   2.540  14.080 -2.6301  2.4093 -1.1947
   12MPD2     C  179   0.582   2.672  14.204 -0.2814  0.0744  0.3263
   12MPD2    C1  180   0.674   2.585  14.145  1.0277  0.1220  0.4687
   12MPD2    C2  181   0.637   2.499  14.043  0.2203  0.4153  0.4139
   12MPD2    C3  182   0.504   2.494  13.999  0.4792 -0.1490 -0.4505
   12MPD2    C4  183   0.410   2.583  14.052 -0.2202  0.0622  0.6859
   12MPD2    C5  184   0.457   2.669  14.155  0.0318 -0.2372  0.8295
   12MPD2     H  185   0.711   2.432  14.003  0.1927  1.2395 -1.0137
   12MPD2    H1  186   0.309   2.592  14.013 -0.2248 -1.3965  0.3791
   12MPD2    H2  187   0.610   2.742  14.283 -0.6675  0.7162 -0.1002
   12MPD2    H3  188   0.385   2.740  14.193 -1.8567 -0.5805 -2.1042
   12MPD2     N  189   0.455   2.411  13.898  0.2144  0.2350  0.5834
   12MPD2    H5  190   0.357   2.425  13.880  0.3377  0.2236 -0.1080
   12MPD2    N1  191   0.811   2.596  14.169  1.1198 -0.3422  0.2305
   12MPD2    H7  192   0.867   2.546  14.101  2.2231  0.1567  0.7589
   13TCq1    O1  193   0.208   1.946  10.856 -0.7532 -0.3872  0.7173
   13TCq1    C1  194   0.212   1.901  10.979  0.0043  0.1775 -0.3081
   13TCq1    O2  195   0.266   1.799  11.018  0.3772 -0.4542  0.3362
   13TCq1    C2  196   0.174   2.009  11.060  0.3173  0.7376  0.2844
   13TCq1    C3  197   0.258   2.042  11.160 -0.0559 -0.2299  0.1757
   13TCq1    C4  198   0.227   2.152  11.233  0.0088 -0.1253 -0.4578
   13TCq1    C5  199   0.112   2.228  11.212  0.0574 -1.0002 -0.6916
   13TCq1    C6  200   0.028   2.183  11.114 -0.2695 -0.4421  0.0238
   13TCq1    C7  201   0.059   2.078  11.031  0.0757  0.0691  0.0874
   13TCq1    C8  202   4.646   2.272  11.062  0.1767  0.3394 -0.4810
   13TCq1    O4  203   4.586   2.345  11.142  0.4492  0.3434  0.2415
   13TCq1    C9  204   0.327   2.203  11.324 -0.1167 -0.2067 -0.2415
   13TCq1    O5  205   0.296   2.285  11.408 -0.1201  0.0926 -0.0721
   13TCq1    O6  206   0.439   2.143  11.324  0.0444 -0.3001  0.5071
   13TCq1    H1  207   0.188   2.041  10.846 -2.7601 -0.8749 -0.1156
   13TCq1    H2  208   0.355   1.995  11.172  0.1397 -0.3561 -2.0042
   13TCq1    H3  209   0.097   2.323  11.262  0.3352 -0.0461 -2.4403
   13TCq1    H4  210   4.715   2.023  10.968 -0.7653  3.4821 -1.9520
   14MPD2     C  211   4.558   2.314  10.702  0.5216  0.1148  0.1778
   14MPD2    C1  212   4.542   2.332  10.838 -0.0915 -0.3362 -0.2322
   14MPD2    C2  213   4.458   2.436  10.877 -0.7913  0.7464  1.0639
   14MPD2    C3  214   4.390   2.522  10.790  0.4150  0.8590 -0.5822
   14MPD2    C4  215   4.413   2.503  10.656 -0.0756 -0.9965 -0.6697
   14MPD2    C5  216   4.493   2.402  10.612 -0.4709 -0.4524  0.2869
   14MPD2     H  217   4.439   2.459  10.981  1.1487 -0.5705  1.7151
   14MPD2    H1  218   4.356   2.555  10.580 -1.3012 -0.5409  0.5653
   14MPD2    H2  219   4.607   2.229  10.654 -1.3605 -0.4369 -0.7795
   14MPD2    H3  220   4.501   2.381  10.506 -1.6896 -0.4257  0.1950
   14MPD2     N  221   4.310   2.623  10.843  0.3011  0.2356  0.0334
   14MPD2    H5  222   4.304   2.633  10.944 -0.9413  0.7999 -0.1033
   14MPD2    N1  223   4.633   2.265  10.925  0.1237  0.1773 -0.5120
   14MPD2    H7  224   4.702   2.209  10.875  1.0349  1.0561 -0.2350
   15TCq1    O1  225   2.690   2.740   1.748  0.4782  0.3323 -0.0516
   15TCq1    C1  226   2.695   2.607   1.734  0.0535 -0.8370  0.2091
   15TCq1    O2  227   2.778   2.545   1.667  0.4703 -0.1314  0.4042
   15TCq1    C2  228   2.572   2.539   1.790 -0.4383 -0.1544 -0.3690
   15TCq1    C3  229   2.450   2.593   1.779 -0.8719  0.3235  0.1892
   15TCq1    C4  230   2.337   2.510   1.792  0.1294 -0.1678  0.3616
   15TCq1    C5  231   2.346   2.375   1.807 -1.4491 -0.2856  0.3567
   15TCq1    C6  232   2.468   2.322   1.795 -0.3429  0.4303 -0.8881
   15TCq1    C7  233   2.575   2.401   1.782 -0.2073 -0.3994 -0.2843
   15TCq1    C8  234   2.486   2.192   1.734 -0.9127 -0.1997 -0.8817
   15TCq1    O4  235   2.600   2.150   1.730  0.4645  0.6085  0.5359
   15TCq1    C9  236   2.203   2.567   1.809  0.0158  0.4563  0.3502
   15TCq1    O5  237   2.112   2.488   1.823 -0.3530  0.1982  0.4180
   15TCq1    O6  238   2.181   2.687   1.816  0.4879  0.6694 -0.2415
   15TCq1    H1  239   2.617   2.783   1.797  1.1534  0.3690  0.9279
   15TCq1    H2  240   2.435   2.699   1.761  0.5876  0.5467  0.2392
   15TCq1    H3  241   2.258   2.321   1.838 -1.3895 -1.1912 -1.0707
   15TCq1    H4  242   2.672   2.353   1.775 -0.5499 -1.4544  2.1828
   16MPD2     C  243   2.231   1.965   1.594  0.1616 -0.5653  0.2098
   16MPD2    C1  244   2.358   2.014   1.621 -0.6964 -0.0472 -0.4071
   16MPD2    C2  245   2.461   1.935   1.587  0.0978 -0.1216 -0.1864
   16MPD2    C3  246   2.441   1.813   1.529  0.6292  0.1059 -0.1560
   16MPD2    C4  247   2.317   1.766   1.495  0.1292  0.0603  0.3852
   16MPD2    C5  248   2.211   1.851   1.520 -0.3669  0.3836  0.2484
   16MPD2     H  249   2.562   1.968   1.606 -0.5607  1.6345  0.2662
   16MPD2    H1  250   2.295   1.670   1.449  1.3626 -1.0013  2.0136
   16MPD2    H2  251   2.144   2.029   1.609 -0.8047 -1.9950  0.7099
   16MPD2    H3  252   2.115   1.804   1.503  0.3104 -0.8777 -0.1039
   16MPD2     N  253   2.556   1.734   1.515  0.0533 -0.0571  0.0903
   16MPD2    H5  254   2.649   1.764   1.544  0.1264 -1.8748  1.6859
   16MPD2    N1  255   2.367   2.138   1.684  0.1479  0.3261 -0.4176
   16MPD2    H7  256   2.283   2.192   1.705 -1.4034 -1.1767 -2.8063
   17TCq1    O1  257   3.984   1.414  10.367  0.1368 -0.5690  0.3303
   17TCq1    C1  258   3.959   1.527  10.298 -0.4772 -0.2178 -0.1383
   17TCq1    O2  259   3.886   1.539  10.202 -0.1381 -0.2265  0.1413
   17TCq1    C2  260   4.077   1.613  10.308  0.1092 -0.3115 -0.0772
   17TCq1    C3  261   4.131   1.655  10.189  0.0928 -0.3017 -0.0485
   17TCq1    C4  262   4.262   1.697  10.187 -0.1963 -0.0877  0.0646
   17TCq1    C5  263   4.329   1.705  10.299  0.2602 -0.3053  0.6241
   17TCq1    C6  264   4.280   1.656  10.415  0.1397 -0.4794 -0.5414
   17TCq1    C7  265   4.155   1.603  10.422 -0.0178 -1.1417  0.2518
   17TCq1    C8  266   4.367   1.648  10.535 -0.0229  0.4358 -0.1092
   17TCq1    O4  267   4.309   1.622  10.641  0.1309 -0.0113 -0.8190
   17TCq1    C9  268   4.324   1.751  10.063 -0.1731  0.0782  0.0182
   17TCq1    O5  269   4.249   1.769   9.965  0.1180  0.8162 -0.3213
   17TCq1    O6  270   4.439   1.790  10.076 -0.1447  0.0135 -0.5050
   17TCq1    H1  271   4.075   1.405  10.403 -0.2498  2.4061  1.9986
   17TCq1    H2  272   4.072   1.635  10.101  0.0833  2.3138 -0.6574
   17TCq1    H3  273   4.432   1.737  10.286  0.7368 -2.2477 -0.3204
   17TCq1    H4  274   4.107   1.583  10.518 -1.1081  0.9144  0.1463
   18MPD2     C  275   4.579   1.642  10.730 -0.8248 -0.1222  0.2268
   18MPD2    C1  276   4.597   1.626  10.594  0.5199 -0.9938 -0.2655
   18MPD2    C2  277   4.721   1.591  10.549  0.3977 -0.0111  0.9828
   18MPD2    C3  278   0.105   1.575  10.641  0.5586 -0.2519  0.7200
   18MPD2    C4  279   0.081   1.588  10.777 -0.0941  0.3913  0.0523
   18MPD2    C5  280   4.683   1.626  10.822 -0.5600  0.5096 -0.8351
   18MPD2     H  281   0.006   1.563  10.445  3.2817  1.8671  0.7914
   18MPD2    H1  282   0.157   1.576  10.854  1.9333 -0.3476 -2.0944
   18MPD2    H2  283   4.484   1.671  10.773 -0.8111  1.9388 -1.1114
   18MPD2    H3  284   4.660   1.637  10.928  0.6822  0.9863 -0.6098
   18MPD2     N  285   0.237   1.541  10.601  0.3691  0.6327 -0.3023
   18MPD2    H5  286   0.303   1.546  10.678 -0.7947 -1.3859  0.8388
   18MPD2    N1  287   4.496   1.637  10.499 -0.0678 -0.3885  0.8092
   18MPD2    H7  288   4.529   1.651  10.404  0.8943 -1.9835  0.9191
   19TMC2    C1  289   1.631   2.018  13.517  0.0360 -0.1177 -0.5391
   19TMC2    C2  290   1.656   2.037  13.382 -0.0996  0.0562  0.3651
   19TMC2    C3  291   1.607   1.947  13.294  0.5351 -0.5827  0.3478
   19TMC2    C4  292   1.538   1.926  13.562  0.2207 -0.4222  0.6083
   19TMC2    C5  293   1.497   1.833  13.467  0.1146  0.3500  0.2664
   19TMC2    C6  294   1.531   1.841  13.337  0.5153 -0.0651  0.0228
   19TMC2     C  295   1.698   2.101  13.607  0.5753  0.0265 -0.0777
   19TMC2     O  296   1.761   2.191  13.556  0.0275 -0.1605 -0.1080
   19TMC2     H  297   1.722   2.115  13.347  2.4097 -3.3817 -2.4812
   19TMC2    H1  298   1.514   1.911  13.667  0.2205 -1.9751  0.3863
   19TMC2    H2  299   1.479   1.787  13.259  0.2947 -0.6670  0.5874
   19TMC2    C7  300   1.409   1.727  13.514 -0.4353  0.7783 -0.7025
   19TMC2    C8  301   1.639   1.972  13.154 -0.0409  0.1202  0.1307
   19TMC2    O1  302   1.378   1.734  13.630 -0.3897 -0.1810  0.0416
   19TMC2    O2  303   1.626   1.874  13.082 -0.5996 -0.0061  0.3493
   19TMC2    O5  304   1.633   2.108  13.125 -0.3438 -0.0853 -0.8897
   19TMC2    H5  305   1.630   2.165  13.205 -1.5044 -2.3341  0.6468
   20MPD2     C  306   1.838   2.219  13.851  0.0880  0.6601  0.2202
   20MPD2    C1  307   1.737   2.127  13.864 -0.4468  0.8797  0.7053
   20MPD2    C2  308   1.699   2.082  13.994 -1.1689  0.1219 -0.1039
   20MPD2    C3  309   1.763   2.141  14.097  0.2621  0.2203 -0.1026
   20MPD2    C4  310   1.867   2.227  14.086 -0.0811  0.5438  0.0411
   20MPD2    C5  311   1.900   2.267  13.961 -0.0546  0.7453 -0.1037
   20MPD2     H  312   1.617   2.012  14.005 -0.7721 -0.5862 -1.6673
   20MPD2    H1  313   1.929   2.254  14.171 -1.4290 -1.8167  1.7849
   20MPD2    H2  314   1.882   2.251  13.757  1.0650 -0.1865  0.3975
   20MPD2    H3  315   1.975   2.343  13.945  1.6590 -0.3664  2.6231
   20MPD2     N  316   1.743   2.096  14.230  0.3592  0.1498  0.3237
   20MPD2    H5  317   1.803   2.134  14.302  0.4620 -3.5238  2.1992
   20MPD2    N1  318   1.683   2.066  13.744 -0.0766 -0.5432  0.0258
   20MPD2    H7  319   1.607   2.001  13.761 -0.8720  0.4698  0.3838
   21MPD2     C  320   4.457   2.938  14.126 -0.0371 -0.3419 -0.1861
   21MPD2    C1  321   4.454   2.829  14.038  0.0770  0.3844 -0.1192
   21MPD2    C2  322   4.348   2.739  14.040  0.2261 -0.2898  0.0909
   21MPD2    C3  323   4.250   2.752  14.133  0.5157 -0.4951  0.0807
   21MPD2    C4  324   4.252   2.860  14.218  0.6734  0.3143 -0.1499
   21MPD2    C5  325   4.352   2.951  14.207 -0.5096 -0.0409  0.2679
   21MPD2     H  326   4.351   2.655  13.971  1.0518  0.9739 -1.4138
   21MPD2    H1  327   4.187   2.880  14.302 -1.1092 -3.0166 -0.7444
   21MPD2    H2  328   4.528   3.019  14.127  0.7033 -0.9432 -2.4940
   21MPD2    H3  329   4.352   3.036  14.275  1.4406 -0.2508  0.5136
   21MPD2     N  330   4.150   2.657  14.152 -0.1552 -0.0990  0.0543
   21MPD2    H5  331   4.104   2.671  14.241  1.3482 -2.2087  1.1750
   21MPD2    N1  332   4.543   2.819  13.928  0.3955  0.0225 -0.5778
   21MPD2    H7  333   4.515   2.747  13.862 -0.1086 -0.8877  0.6493
   22TCq2    C1  334   4.124   2.540  14.084  0.3049 -0.4748  0.3723
   22TCq2    O2  335   4.184   2.490  13.991  0.3818 -0.4897  0.2152
   22TCq2    C2  336   4.006   2.462  14.139 -0.9165 -0.9269  0.0736
   22TCq2    C3  337   4.022   2.332  14.120 -0.0265 -0.0410 -0.4044
   22TCq2    C4  338   3.958   2.254  14.212  0.5975  0.4675  0.1093
   22TCq2    C5  339   3.875   2.297  14.311  0.5578 -0.3268  0.0334
   22TCq2    C6  340   3.865   2.433  14.323  0.0237  0.1300 -0.0234
   22TCq2    C7  341   3.928   2.519  14.234  0.1566 -0.2568 -0.3864
   22TCq2    C8  342   3.766   2.479  14.416  0.3346  0.4679  0.2024
   22TCq2    O4  343   3.740   2.402  14.508 -0.8319  0.5950 -0.3044
   22TCq2    C9  344   4.000   2.115  14.214 -0.0227 -0.4812  0.4619
   22TCq2    O5  345   4.005   2.063  14.328  0.7588 -0.6149  0.2341
   22TCq2    O6  346   4.064   2.081  14.113  0.1165  0.1271 -0.2774
   22TCq2    H2  347   4.085   2.285  14.046 -0.9322  0.4736 -1.4958
   22TCq2    H3  348   3.855   2.230  14.394  2.4902 -0.4492  0.3868
   22TCq2    H4  349   3.925   2.626  14.250  0.6361 -0.1014 -1.3494
   23MPD2     C  350   0.494   3.372  14.453  0.0124  0.2191  0.2354
   23MPD2    C1  351   0.478   3.468  14.544  0.1297  0.0660  0.3643
   23MPD2    C2  352   0.394   3.570  14.513 -0.3689 -0.3290 -0.3503
   23MPD2    C3  353   0.341   3.586  14.386  0.5591 -0.1355  0.4535
   23MPD2    C4  354   0.365   3.489  14.293  0.0171 -0.1571 -0.8481
   23MPD2    C5  355   0.447   3.387  14.328  0.0280 -1.4778  0.0360
   23MPD2     H  356   0.389   3.651  14.585 -1.2046 -2.0916  1.5969
   23MPD2    H1  357   0.341   3.506  14.189  0.4992  1.5793 -0.6746
   23MPD2    H2  358   0.550   3.281  14.471 -3.6089 -1.7551  1.4416
   23MPD2    H3  359   0.476   3.311  14.256  1.9818  0.3482 -1.1022
   23MPD2     N  360   0.263   3.691  14.338 -0.1886  0.3166 -0.2218
   23MPD2    H5  361   0.244   3.708  14.239 -1.0144  2.1407  0.2510
   23MPD2    N1  362   0.546   3.469  14.663  0.3486  0.4700  0.1845
   23MPD2    H7  363   0.507   3.532  14.731 -0.0344 -0.3986  0.7680
   24TCq2    C1  364   0.202   3.782  14.420 -0.1582 -0.0165 -0.4850
   24TCq2    O2  365   0.219   3.796  14.540  0.4012 -0.0209  0.0346
   24TCq2    C2  366   0.088   3.843  14.352 -0.4364  0.0139 -0.9445
   24TCq2    C3  367   0.025   3.950  14.414  0.7584  0.7488 -0.7207
   24TCq2    C4  368   4.619   3.981  14.387 -0.1883 -1.0661  0.6583
   24TCq2    C5  369   4.550   3.912  14.297 -0.4138  0.1838  0.5135
   24TCq2    C6  370   4.614   3.809  14.230  0.4368  0.7655  0.9585
   24TCq2    C7  371   0.016   3.770  14.261 -0.2331  0.0188 -0.0708
   24TCq2    C8  372   4.556   3.740  14.117  0.3565 -0.7643  0.0497
   24TCq2    O4  373   4.615   3.645  14.071  0.4193  0.0286 -0.1163
   24TCq2    C9  374   4.557   4.088  14.458  0.0870 -0.5000  0.0153
   24TCq2    O5  375   4.426   4.083  14.472  0.3559 -0.7758 -0.2964
   24TCq2    O6  376   4.629   4.177  14.512 -0.2143  0.2867  1.1007
   24TCq2    H2  377   0.073   3.999  14.498 -0.6556 -0.0234  0.5437
   24TCq2    H3  378   4.446   3.939  14.281 -0.0921 -0.3512 -2.4597
   24TCq2    H4  379   0.060   3.683  14.211 -0.8290  2.2719 -4.5125
   25TMC2    C1  380   4.432   1.232  11.106 -0.3751  0.2673 -0.3969
   25TMC2    C2  381   4.534   1.323  11.119 -0.5256 -0.5025 -0.6058
   25TMC2    C3  382   4.575   1.352  11.243 -0.7832  0.0765  0.3227
   25TMC2    C4  383   4.370   1.180  11.218  0.4199  0.4173 -0.2801
   25TMC2    C5  384   4.430   1.196  11.342 -0.4618 -0.1685  0.4116
   25TMC2    C6  385   4.533   1.284  11.355  0.0303  0.2340 -0.0551
   25TMC2     C  386   4.417   1.174  10.976  0.1638 -0.7058  0.1175
   25TMC2     O  387   4.496   1.218  10.894 -0.0248 -0.1492  0.0103
   25TMC2     H  388   4.578   1.361  11.027 -1.1994  1.0198 -0.2864
   25TMC2    H1  389   4.282   1.118  11.207 -0.2127  0.9487  2.0250
   25TMC2    H2  390   4.572   1.320  11.450  0.1345  0.8004 -0.3075
   25TMC2    C7  391   4.351   1.191  11.463  0.0424  0.4844  0.9331
   25TMC2    C8  392   4.723   1.387  11.242  0.6491  0.0847 -0.3154
   25TMC2    O1  393   4.412   1.166  11.568  0.3030  0.2061 -0.3175
   25TMC2    O2  394   0.061   1.367  11.137  0.0574  0.5231 -0.1621
   25TMC2    O5  395   0.059   1.371  11.367  0.4058 -0.0371 -0.0563
   25TMC2    H5  396   0.008   1.421  11.434  0.1604 -2.2846  1.4558
   26MPD2     C  397   4.290   0.773  10.682  0.0841  0.2865  0.4015
   26MPD2    C1  398   4.195   0.782  10.778  0.2516 -0.0942  0.6882
   26MPD2    C2  399   4.212   0.886  10.873  0.2654  0.0313 -0.0085
   26MPD2    C3  400   4.325   0.969  10.875 -0.2050  0.1035  0.3056
   26MPD2    C4  401   4.418   0.951  10.775  0.2616 -0.0146  0.3513
   26MPD2    C5  402   4.403   0.853  10.683  0.3491  0.1893 -0.0370
   26MPD2     H  403   4.144   0.899  10.956 -0.6278  1.4312 -0.9684
   26MPD2    H1  404   4.503   1.019  10.768  0.0293  0.2835  0.4480
   26MPD2    H2  405   4.287   0.686  10.617  0.7201 -1.2028  2.3780
   26MPD2    H3  406   4.479   0.839  10.607  0.4257  1.3708 -0.1834
   26MPD2     N  407   4.328   1.069  10.971 -0.2259 -0.1002  0.4733
   26MPD2    H5  408   4.269   1.048  11.051 -1.0998  0.7505  0.0480
   26MPD2    N1  409   4.089   0.682  10.778  0.6444  0.4916 -0.0899
   26MPD2    H7  410   4.096   0.599  10.721 -0.3086 -0.3256  1.0006
   27TMC2    C1  411   3.116   3.068  12.059  1.3142  0.0989 -0.6031
   27TMC2    C2  412   2.999   3.118  12.011  0.9846 -0.6444 -0.1733
   27TMC2    C3  413   2.979   3.249  12.022  0.8338  0.2110 -0.6295
   27TMC2    C4  414   3.206   3.147  12.126 -0.0584  0.2116  0.9002
   27TMC2    C5  415   3.180   3.281  12.152  0.0925 -0.2290 -0.1377
   27TMC2    C6  416   3.063   3.330  12.097  0.2141 -0.3821 -0.1733
   27TMC2     C  417   3.091   2.948  12.139  0.0349  0.3345 -0.4035
   27TMC2     O  418   3.184   2.872  12.147  0.1184 -0.2277 -0.1769
   27TMC2     H  419   2.938   3.052  11.951  0.4771 -0.8735  0.5827
   27TMC2    H1  420   3.281   3.084  12.171 -0.6677 -3.0999 -2.6744
   27TMC2    H2  421   3.044   3.437  12.105 -2.0474 -0.7944 -0.1170
   27TMC2    C7  422   3.186   3.296  12.295  1.0317 -0.0110  0.1296
   27TMC2    C8  423   2.876   3.317  11.935 -0.1469  0.0810  0.1779
   27TMC2    O1  424   3.243   3.212  12.364 -0.6422  0.2944  0.8274
   27TMC2    O2  425   2.872   3.440  11.914 -0.3769 -0.3727 -0.7079
   27TMC2    O5  426   2.781   3.231  11.886 -0.4305  0.2834  0.0569
   27TMC2    H5  427   2.787   3.137  11.911 -2.4948  0.0913 -0.1658
   28MPD2     C  428   2.777   2.723  12.473 -0.6860 -0.5058  0.3855
   28MPD2    C1  429   2.729   2.849  12.438  0.6340  0.0751  0.1983
   28MPD2    C2  430   2.796   2.920  12.340  0.0576 -0.6028 -0.2255
   28MPD2    C3  431   2.908   2.871  12.287 -0.2127  0.2054 -0.1568
   28MPD2    C4  432   2.959   2.748  12.324 -0.1122  0.3652 -0.1063
   28MPD2    C5  433   2.885   2.671  12.408  0.1463 -0.4911 -0.0936
   28MPD2     H  434   2.756   3.017  12.313  0.0585 -0.4263  0.4320
   28MPD2    H1  435   3.049   2.713  12.274  1.0072  1.5485  1.0971
   28MPD2    H2  436   2.747   2.669  12.562 -2.0830 -1.2031 -0.4941
   28MPD2    H3  437   2.933   2.580  12.442  0.1112  0.1733  1.7523
   28MPD2     N  438   2.977   2.964  12.210 -0.2086  0.2810  0.2646
   28MPD2    H5  439   2.926   3.050  12.197 -0.3625 -0.0268 -1.1833
   28MPD2    N1  440   2.625   2.902  12.515 -0.6946  0.6670  0.3366
   28MPD2    H7  441   2.581   2.834  12.577  0.8292  0.7946  1.5428
   29MPD2     C  442   2.495   0.541  13.770  0.6737 -0.8593  0.2682
   29MPD2    C1  443   2.530   0.522  13.902 -0.0074  0.6717  0.4440
   29MPD2    C2  444   2.538   0.630  13.987  0.4698 -0.0417 -0.4364
   29MPD2    C3  445   2.500   0.757  13.947  0.4152  0.2222 -0.5833
   29MPD2    C4  446   2.452   0.774  13.820 -0.2935  0.4077  0.4030
   29MPD2    C5  447   2.452   0.664  13.739 -0.9940 -0.3908  0.1483
   29MPD2     H  448   2.576   0.614  14.087 -0.9135  1.9668  0.4117
   29MPD2    H1  449   2.431   0.871  13.776  0.2274 -0.0012 -0.7725
   29MPD2    H2  450   2.492   0.465  13.693 -1.3565  0.2810 -0.7704
   29MPD2    H3  451   2.430   0.675  13.633  0.7786 -2.6761 -0.4401
   29MPD2     N  452   2.518   0.876  14.018  0.4432  0.1916 -0.6513
   29MPD2    H5  453   2.490   0.964  13.975 -2.2333 -0.7021 -0.7027
   29MPD2    N1  454   2.563   0.391  13.957  0.0163 -0.4509  0.0137
   29MPD2    H7  455   2.607   0.379  14.047 -1.2722  0.0115  0.7033
   30TCq2    C1  456   2.568   0.881  14.146  0.2566 -0.1243  0.8222
   30TCq2    O2  457   2.549   0.800  14.236  0.2684  0.1821  0.3465
   30TCq2    C2  458   2.574   1.021  14.189 -0.3985  0.2907  0.7216
   30TCq2    C3  459   2.530   1.053  14.309 -0.3231 -0.1129  0.4087
   30TCq2    C4  460   2.543   1.186  14.350  0.1046  0.0424 -0.1421
   30TCq2    C5  461   2.626   1.268  14.288  0.1727  0.0708  0.2579
   30TCq2    C6  462   2.672   1.229  14.165  0.2935 -0.0952 -0.0016
   30TCq2    C7  463   2.656   1.103  14.112 -0.4153 -0.7157  0.6230
   30TCq2    C8  464   2.712   1.324  14.062 -0.3682  0.4344  0.4374
   30TCq2    O4  465   2.733   1.289  13.947  0.2439  0.3653  0.0498
   30TCq2    C9  466   2.480   1.221  14.474 -0.0963  0.2333  0.2050
   30TCq2    O5  467   2.504   1.335  14.515  0.4339  0.1528  0.1017
   30TCq2    O6  468   2.407   1.140  14.532  0.5793 -0.4472  0.2900
   30TCq2    H2  469   2.469   0.982  14.364 -1.1611 -0.0532 -0.4591
   30TCq2    H3  470   2.619   1.369  14.329 -1.8146 -0.0933  0.3436
   30TCq2    H4  471   2.698   1.072  14.017 -0.4178  0.2522  0.3064
   31MPD2     C  472   0.537   4.188  14.965 -0.0740  0.4225  0.0435
   31MPD2    C1  473   0.451   4.293  14.983  0.7680  0.4697  0.4200
   31MPD2    C2  474   0.361   4.286  15.086 -0.0553  0.3231 -0.1457
   31MPD2    C3  475   0.359   4.180  15.171 -0.2266 -0.8685 -0.1551
   31MPD2    C4  476   0.443   4.068  15.147 -0.3239 -0.1354 -0.2291
   31MPD2    C5  477   0.531   4.075  15.043 -0.0131  0.6062 -0.2401
   31MPD2     H  478   0.319   4.377  15.126  0.1550  1.0754 -1.6406
   31MPD2    H1  479   0.435   3.979  15.209  0.0831 -1.6168 -2.2990
   31MPD2    H2  480   0.612   4.178  14.887 -0.4260  0.2079 -0.2654
   31MPD2    H3  481   0.600   3.996  15.015 -1.3868 -0.5555 -0.3608
   31MPD2     N  482   0.285   4.166  15.291  0.3213 -0.5337 -0.0633
   31MPD2    H5  483   0.289   4.076  15.338 -0.3518  0.0237  1.0713
   31MPD2    N1  484   0.458   4.401  14.891  0.5191  0.0327  1.0228
   31MPD2    H7  485   0.534   4.395  14.825 -0.3349 -0.7137  0.1115
   32TCq2    C1  486   0.203   4.259  15.341 -0.7876 -0.3798 -0.1776
   32TCq2    O2  487   0.187   4.375  15.303  0.4019 -0.0055  0.3989
   32TCq2    C2  488   0.155   4.233  15.476  0.2735  0.0929  0.7310
   32TCq2    C3  489   0.040   4.288  15.519 -0.6949 -0.5918 -0.0386
   32TCq2    C4  490   0.025   4.332  15.647 -0.6615  0.6554  0.1468
   32TCq2    C5  491   0.123   4.328  15.741  0.3605  0.0869 -0.6386
   32TCq2    C6  492   0.244   4.277  15.691  0.4178 -1.0392  0.3250
   32TCq2    C7  493   0.262   4.229  15.561 -0.5828 -0.0006  0.0500
   32TCq2    C8  494   0.376   4.289  15.772 -0.1900 -0.1499 -0.1825
   32TCq2    O4  495   0.443   4.190  15.783  0.0572 -0.1845  0.3157
   32TCq2    C9  496   4.624   4.378  15.684 -0.3966  1.0457 -0.3572
   32TCq2    O5  497   4.600   4.385  15.812  0.7812  0.0478 -0.3568
   32TCq2    O6  498   4.533   4.383  15.596 -0.4030 -0.2109 -0.2230
   32TCq2    H2  499   4.676   4.286  15.459 -1.6454 -1.3599  1.3916
   32TCq2    H3  500   0.117   4.372  15.839 -3.4156 -0.1523 -0.7698
   32TCq2    H4  501   0.357   4.185  15.533 -0.1515  1.2283 -0.4322
   33MPD2     C  502   0.833   2.116  10.442  0.1414  1.0944  0.3670
   33MPD2    C1  503   0.711   2.064  10.418  0.5370  0.1249 -0.2757
   33MPD2    C2  504   0.618   2.141  10.338 -0.7886  0.3593  0.3582
   33MPD2    C3  505   0.642   2.275  10.315 -0.7486 -0.3458 -0.1168
   33MPD2    C4  506   0.761   2.328  10.360 -0.3248 -0.3184  0.1174
   33MPD2    C5  507   0.858   2.249  10.415  0.6819 -0.0059 -0.4577
   33MPD2     H  508   0.524   2.096  10.306 -0.7695  0.0342  0.7474
   33MPD2    H1  509   0.797   2.428  10.337  0.6323  0.3131  4.3535
   33MPD2    H2  510   0.913   2.061  10.490 -0.3253  0.3503  0.2879
   33MPD2    H3  511   0.951   2.293  10.448 -0.6983  1.5015  1.3775
   33MPD2     N  512   0.554   2.355  10.233  0.4257 -0.0319  0.2428
   33MPD2    H5  513   0.600   2.437  10.196 -0.0149  0.0027 -0.2282
   33MPD2    N1  514   0.689   1.930  10.449  0.1937  0.8275 -0.3582
   33MPD2    H7  515   0.760   1.880  10.501 -0.6509 -0.8226 -0.7876
   34TCq2    C1  516   0.426   2.322  10.179 -0.2565  0.1552 -0.3796
   34TCq2    O2  517   0.363   2.223  10.212  0.0542  0.1434 -0.2083
   34TCq2    C2  518   0.361   2.422  10.101  1.0766  0.8898 -0.2399
   34TCq2    C3  519   0.226   2.416  10.111  0.2260 -0.0364  0.1656
   34TCq2    C4  520   0.148   2.512  10.051  0.1991 -0.8058 -0.4215
   34TCq2    C5  521   0.207   2.632  10.016  0.4408  0.6673  0.3810
   34TCq2    C6  522   0.341   2.649  10.030 -0.5329  0.6312  0.7463
   34TCq2    C7  523   0.423   2.542  10.062 -0.5360 -0.1814 -0.4854
   34TCq2    C8  524   0.412   2.765   9.971 -0.0415 -0.2395  0.1506
   34TCq2    O4  525   0.534   2.774   9.987  0.4552  0.1155  0.3466
   34TCq2    C9  526   0.004   2.490  10.035  0.3728  0.5305  0.8534
   34TCq2    O5  527   4.677   2.374  10.053  0.0440  0.1220  0.2124
   34TCq2    O6  528   4.652   2.589  10.013  0.4771 -0.1549 -0.7848
   34TCq2    H2  529   0.178   2.322  10.139 -0.8959 -0.1539 -2.1608
   34TCq2    H3  530   0.138   2.697   9.964  1.0528  0.5396 -0.6014
   34TCq2    H4  531   0.529   2.553  10.080 -0.3597 -1.2239 -0.9270
   35MPD2     C  532   2.327   3.820  12.069 -0.6285  0.2756 -0.6755
   35MPD2    C1  533   2.303   3.688  12.106 -0.5866 -0.3532 -0.0726
   35MPD2    C2  534   2.237   3.607  12.013  0.1665  0.8821 -0.5295
   35MPD2    C3  535   2.172   3.663  11.900 -0.4453 -0.3436  0.2162
   35MPD2    C4  536   2.179   3.800  11.884  0.1531 -0.0463 -0.0471
   35MPD2    C5  537   2.254   3.878  11.970 -0.9272  0.0182 -0.2074
   35MPD2     H  538   2.226   3.501  12.031  1.0597  0.9952  0.6460
   35MPD2    H1  539   2.138   3.852  11.798  0.6128  3.4500  1.8381
   35MPD2    H2  540   2.400   3.888  12.112 -1.3653 -0.2284  1.3869
   35MPD2    H3  541   2.286   3.977  11.940 -1.9824  0.3462 -0.2367
   35MPD2     N  542   2.085   3.576  11.826  0.0946 -0.5925 -0.2461
   35MPD2    H5  543   2.106   3.478  11.840  3.7870  0.0375 -1.4035
   35MPD2    N1  544   2.373   3.643  12.220 -0.5603  0.3517 -0.1435
   35MPD2    H7  545   2.456   3.696  12.244 -0.3684 -0.2659  0.5489
   36TCq2    C1  546   1.997   3.623  11.730 -0.0160  0.6062  0.6688
   36TCq2    O2  547   1.963   3.741  11.713  0.4428  0.6509 -0.1323
   36TCq2    C2  548   1.915   3.517  11.668  0.4430  0.3480 -1.0341
   36TCq2    C3  549   1.804   3.547  11.599 -0.4307  0.4531 -0.4177
   36TCq2    C4  550   1.719   3.454  11.544  1.0850  0.4976 -0.1156
   36TCq2    C5  551   1.755   3.324  11.569 -0.2222 -0.0335 -0.0965
   36TCq2    C6  552   1.865   3.286  11.635 -0.7643 -0.6808 -0.2036
   36TCq2    C7  553   1.952   3.384  11.681  0.1508 -0.3892 -0.3985
   36TCq2    C8  554   1.873   3.150  11.676  0.2330 -0.0369 -1.4948
   36TCq2    O4  555   1.764   3.090  11.668 -0.5129 -0.3051 -0.4291
   36TCq2    C9  556   1.601   3.499  11.470 -0.2475  0.2934 -0.3478
   36TCq2    O5  557   1.512   3.409  11.448 -0.2007  0.3642  0.5953
   36TCq2    O6  558   1.591   3.623  11.460  0.3941 -0.3144  0.1832
   36TCq2    H2  559   1.781   3.653  11.598 -1.1020  0.3370  3.8659
   36TCq2    H3  560   1.687   3.251  11.525 -0.7336  1.6778 -2.1689
   36TCq2    H4  561   2.047   3.354  11.725 -1.2664 -2.5542  1.1397
   37TMC2    C1  562   3.932   3.654  11.421 -0.1508 -1.4642 -0.1760
   37TMC2    C2  563   3.923   3.577  11.311 -0.4028 -0.1980 -0.3736
   37TMC2    C3  564   4.044   3.540  11.255  0.3300  0.4709  0.0422
   37TMC2    C4  565   4.049   3.676  11.489  0.0746 -0.3235  0.3813
   37TMC2    C5  566   4.160   3.631  11.440  0.3659 -0.4176  0.6664
   37TMC2    C6  567   4.164   3.556  11.324  0.5648  0.6857 -0.6388
   37TMC2     C  568   3.809   3.676  11.493 -0.0034 -0.8498 -0.0795
   37TMC2     O  569   3.708   3.699  11.429 -0.2586 -0.0529 -0.6714
   37TMC2     H  570   3.832   3.562  11.253 -0.0695 -0.0468 -0.9369
   37TMC2    H1  571   4.056   3.738  11.578  0.4317 -0.0291  0.1530
   37TMC2    H2  572   4.256   3.510  11.290 -0.0542 -0.9719 -0.0452
   37TMC2    C7  573   4.281   3.672  11.509 -0.2885 -0.3897 -0.1754
   37TMC2    C8  574   4.039   3.441  11.148 -0.6652 -0.1222  0.4284
   37TMC2    O1  575   4.269   3.698  11.627  0.3534  0.1352 -0.9203
   37TMC2    O2  576   3.933   3.376  11.127  0.5850 -0.1935 -0.1434
   37TMC2    O5  577   4.166   3.416  11.106 -0.7869 -0.0208 -0.3664
   37TMC2    H5  578   4.160   3.345  11.039  2.7153  0.1367 -0.8301
   38MPD2     C  579   3.581   3.820  11.941  0.8494 -0.0067  0.1532
   38MPD2    C1  580   3.700   3.753  11.964 -0.1250 -1.0461 -0.1255
   38MPD2    C2  581   3.779   3.707  11.857 -0.1742  0.3555 -0.1993
   38MPD2    C3  582   3.738   3.727  11.728  0.2410  0.2552  0.2447
   38MPD2    C4  583   3.612   3.785  11.707 -0.4686  0.0913  0.5649
   38MPD2    C5  584   3.540   3.835  11.817  0.6977  0.1311  0.1807
   38MPD2     H  585   3.877   3.671  11.884 -0.5369 -1.7424 -1.6497
   38MPD2    H1  586   3.569   3.808  11.610 -0.3159 -1.0140  0.2336
   38MPD2    H2  587   3.510   3.852  12.017  1.7542 -2.6205  2.0737
   38MPD2    H3  588   3.443   3.882  11.800 -0.5670 -2.3687  0.5171
   38MPD2     N  589   3.826   3.682  11.628 -0.0800  0.3943  0.5347
   38MPD2    H5  590   3.909   3.636  11.664  0.6434 -1.5322 -3.5430
   38MPD2    N1  591   3.750   3.718  12.091 -0.3519  0.0945 -0.1453
   38MPD2    H7  592   3.842   3.675  12.089 -1.2023 -1.6896 -0.8540
   39MPD2     C  593   2.590   1.458   1.829  0.1075 -0.0746 -0.6163
   39MPD2    C1  594   2.466   1.522   1.816  0.8313 -1.1812  0.5262
   39MPD2    C2  595   2.360   1.451   1.758  0.0185  0.2725  0.5547
   39MPD2    C3  596   2.375   1.318   1.708  0.2937 -0.4147 -0.0478
   39MPD2    C4  597   2.501   1.261   1.716  0.1272 -0.4590 -0.0810
   39MPD2    C5  598   2.601   1.327   1.785  0.1691 -0.8498  0.0559
   39MPD2     H  599   2.267   1.504   1.744  0.1836 -0.0498 -1.7383
   39MPD2    H1  600   2.526   1.159   1.687  1.6325 -0.8908  2.7571
   39MPD2    H2  601   2.679   1.506   1.870 -1.5078  3.3971 -1.2713
   39MPD2    H3  602   2.698   1.279   1.786  0.7240  0.2914  1.4229
   39MPD2     N  603   2.276   1.241   1.641  0.4980  0.1168 -0.5041
   39MPD2    H5  604   2.306   1.165   1.581 -0.6988  0.0785 -1.0574
   39MPD2    N1  605   2.457   1.648   1.870  0.1686  0.0089  0.4271
   39MPD2    H7  606   2.547   1.680   1.905 -0.0610 -1.5828  2.4647
   40TCq2    C1  607   2.354   1.738   1.849  0.2278  1.2628  0.1575
   40TCq2    O2  608   2.235   1.709   1.831 -0.2075  0.8488  0.4033
   40TCq2    C2  609   2.377   1.868   1.916 -0.3003 -0.3868  0.0279
   40TCq2    C3  610   2.268   1.952   1.926 -0.7862  0.4984  0.3663
   40TCq2    C4  611   2.268   2.049   2.022 -0.5636  0.5231  0.1636
   40TCq2    C5  612   2.387   2.085   2.089 -0.3856 -0.4440  0.4541
   40TCq2    C6  613   2.502   2.017   2.062  0.1306 -0.2695 -0.1010
   40TCq2    C7  614   2.496   1.908   1.974 -0.0033  0.1690  0.7355
   40TCq2    C8  615   2.619   2.037   2.143 -0.2555 -0.1252  0.8735
   40TCq2    O4  616   2.623   2.125   2.231  0.4691 -0.3116 -0.4290
   40TCq2    C9  617   2.141   2.118   2.034 -0.6191 -0.3638  0.2212
   40TCq2    O5  618   2.134   2.228   2.096  0.5209 -0.9438 -0.2512
   40TCq2    O6  619   2.038   2.065   1.980 -0.5800  0.3763 -0.1281
   40TCq2    H2  620   2.170   1.927   1.888 -1.3613  0.6295  1.7351
   40TCq2    H3  621   2.385   2.170   2.157 -2.1923  0.6359 -0.9506
   40TCq2    H4  622   2.579   1.840   1.959 -0.1923 -0.2601  1.6165
   41TMC2    C1  623   1.117   3.592  13.229  0.4681  0.0585 -0.0902
   41TMC2    C2  624   1.099   3.713  13.294 -0.2307 -0.8970  0.4167
   41TMC2    C3  625   1.077   3.821  13.211  0.5503  0.6310 -0.4152
   41TMC2    C4  626   1.126   3.576  13.099  0.1937 -0.5566 -0.1693
   41TMC2    C5  627   1.103   3.689  13.025  0.6951 -0.1844  1.5579
   41TMC2    C6  628   1.079   3.815  13.076  0.0308 -0.7542  1.1689
   41TMC2     C  629   1.120   3.466  13.304  0.6801 -0.4643 -0.0400
   41TMC2     O  630   1.086   3.362  13.243 -0.1292  0.1905  0.1321
   41TMC2     H  631   1.077   3.726  13.400 -2.5772 -0.1665 -0.1816
   41TMC2    H1  632   1.139   3.475  13.063 -0.3510  0.4761 -3.2399
   41TMC2    H2  633   1.044   3.896  13.013  1.4279  0.1447  1.5596
   41TMC2    C7  634   1.152   3.690  12.887  0.8123 -0.7690  0.4756
   41TMC2    C8  635   1.049   3.944  13.279 -0.1647 -0.0573 -0.2357
   41TMC2    O1  636   1.129   3.798  12.825 -0.1893 -0.3783  0.1045
   41TMC2    O2  637   1.013   3.948  13.396  0.2110 -0.0534 -0.4444
   41TMC2    O5  638   1.101   4.049  13.212 -0.2590 -0.2804  0.5177
   41TMC2    H5  639   1.164   4.027  13.141  1.1105  2.3471  0.9174
   42MPD2     C  640   1.111   3.235  13.492 -0.7085  0.5830  0.1538
   42MPD2    C1  641   1.174   3.354  13.520  0.5351 -0.2607 -0.3565
   42MPD2    C2  642   1.231   3.355  13.645  0.8642  0.0872  0.4387
   42MPD2    C3  643   1.226   3.257  13.745  0.1293 -1.2908  0.8196
   42MPD2    C4  644   1.163   3.144  13.709  0.5376  0.4029  0.4064
   42MPD2    C5  645   1.109   3.129  13.587  0.0992 -0.5060 -0.2292
   42MPD2     H  646   1.279   3.448  13.672  0.8591 -0.3217  1.8630
   42MPD2    H1  647   1.158   3.059  13.776 -1.6316  0.7120  0.6185
   42MPD2    H2  648   1.063   3.222  13.396 -1.4600  0.0625  0.6012
   42MPD2    H3  649   1.062   3.036  13.555  1.9698 -1.1455 -1.1492
   42MPD2     N  650   1.293   3.261  13.866  0.3889 -0.3902  0.7382
   42MPD2    H5  651   1.299   3.178  13.924 -1.4177 -0.7117  0.4540
   42MPD2    N1  652   1.168   3.469  13.433  0.4156  0.0201 -0.8635
   42MPD2    H7  653   1.195   3.557  13.477 -0.8008 -0.9434  1.8376
   43MPD2     C  654   2.880   1.998   0.927 -0.0116 -0.8404 -0.6636
   43MPD2    C1  655   2.995   2.071   0.916 -0.3005  0.0465  0.4473
   43MPD2    C2  656   2.983   2.202   0.958  0.4303 -0.4324  0.4019
   43MPD2    C3  657   2.865   2.250   1.017  0.2162 -0.0016  0.3087
   43MPD2    C4  658   2.759   2.173   1.030 -0.5101 -0.1406  0.2668
   43MPD2    C5  659   2.763   2.047   0.974  0.1129  0.1158 -0.7399
   43MPD2     H  660   3.067   2.270   0.952 -0.4196  0.6585  0.7363
   43MPD2    H1  661   2.664   2.201   1.075 -0.6986  0.2087 -0.3437
   43MPD2    H2  662   2.875   1.891   0.910 -3.0840 -1.3215  3.3857
   43MPD2    H3  663   2.677   1.981   0.980 -0.4737  0.9403  0.0460
   43MPD2     N  664   2.854   2.380   1.061  0.0820 -0.1717 -0.1988
   43MPD2    H5  665   2.761   2.417   1.074 -0.2696 -1.4213  0.8710
   43MPD2    N1  666   3.112   2.026   0.856 -0.0639 -0.6640 -0.1498
   43MPD2    H7  667   3.194   2.086   0.844 -0.3243 -0.4976 -1.1538
   44TCq2    C1  668   2.913   2.800   1.461  0.4557 -0.4873  0.0018
   44TCq2    O2  669   3.027   2.775   1.489 -0.2526  0.4550  0.1649
   44TCq2    C2  670   2.871   2.726   1.340  0.4847 -0.7682  0.1491
   44TCq2    C3  671   2.774   2.780   1.265  0.4452  0.7106  0.6612
   44TCq2    C4  672   2.735   2.728   1.146 -0.7166 -0.2013 -0.4259
   44TCq2    C5  673   2.809   2.630   1.090  0.1899  0.0353 -0.4418
   44TCq2    C6  674   2.904   2.577   1.167  0.3261  0.0485 -0.0468
   44TCq2    C7  675   2.948   2.624   1.288 -0.0081  0.0213  0.6515
   44TCq2    C8  676   2.957   2.453   1.109 -0.9004  0.1409 -0.1660
   44TCq2    O4  677   3.067   2.421   1.141 -0.1448  0.0240  0.0517
   44TCq2    C9  678   2.633   2.788   1.069 -0.2328 -0.2374 -0.1672
   44TCq2    O5  679   2.550   2.855   1.128 -0.5036 -0.4861  0.2107
   44TCq2    O6  680   2.653   2.795   0.944 -0.1812 -0.5811  0.4328
   44TCq2    H2  681   2.724   2.872   1.291 -2.3852 -0.4119 -0.7968
   44TCq2    H3  682   2.790   2.592   0.990 -0.5619 -0.0528 -0.2682
   44TCq2    H4  683   3.029   2.586   1.350  2.0109  0.6577 -1.5850
   45TMC2    C1  684   3.168   3.380   9.410  0.4340 -0.4565  0.4936
   45TMC2    C2  685   3.198   3.293   9.513  0.7376  0.1197  0.5120
   45TMC2    C3  686   3.279   3.348   9.611  0.1636  0.7094 -0.2728
   45TMC2    C4  687   3.222   3.504   9.399 -0.5534  0.5300  0.3401
   45TMC2    C5  688   3.304   3.552   9.497  0.2852  0.3278  0.6127
   45TMC2    C6  689   3.321   3.481   9.610 -0.1051  0.3300 -0.0963
   45TMC2     C  690   3.101   3.326   9.300  0.4144  0.3023  0.3639
   45TMC2     O  691   3.114   3.208   9.284 -0.0316  0.3689 -0.7351
   45TMC2     H  692   3.159   3.192   9.513 -0.6883  0.6732  0.0217
   45TMC2    H1  693   3.217   3.565   9.309  1.1870  0.2593  0.0584
   45TMC2    H2  694   3.382   3.517   9.692 -1.1241 -2.3204  1.8446
   45TMC2    C7  695   3.366   3.680   9.477 -0.1415 -0.0997  0.2229
   45TMC2    C8  696   3.285   3.283   9.744 -1.0581 -0.1375  0.2422
   45TMC2    O1  697   3.385   3.717   9.359  1.1185  0.2517  0.0298
   45TMC2    O2  698   3.326   3.344   9.839  0.0948  0.4191 -0.5950
   45TMC2    O5  699   3.254   3.159   9.741 -0.2268  0.0230 -0.3606
   45TMC2    H5  700   3.240   3.125   9.651 -3.0537 -0.5437  0.2895
   46MPD2     C  701   2.917   3.269   9.065 -1.0889  0.7882  0.1293
   46MPD2    C1  702   2.920   3.392   9.136 -0.2733 -0.5117  0.0282
   46MPD2    C2  703   2.816   3.484   9.112 -0.1042 -0.2113 -0.1796
   46MPD2    C3  704   2.717   3.458   9.021 -0.7357  0.2410 -0.0831
   46MPD2    C4  705   2.718   3.346   8.943  0.0975  0.5756  0.1595
   46MPD2    C5  706   2.818   3.252   8.973 -0.3810  0.5286 -0.4811
   46MPD2     H  707   2.811   3.580   9.161 -0.5146  0.8434 -2.2981
   46MPD2    H1  708   2.649   3.314   8.865 -0.0145 -1.1441  0.9557
   46MPD2    H2  709   2.993   3.193   9.081 -1.9009 -0.3439 -1.4316
   46MPD2    H3  710   2.824   3.170   8.902 -2.3112  1.0532 -1.2514
   46MPD2     N  711   2.606   3.552   9.023  0.1884  1.0719  0.1610
   46MPD2    H5  712   2.621   3.636   9.078  2.7961 -1.4270  3.3072
   46MPD2    N1  713   3.014   3.416   9.242  0.5556 -0.5008 -0.5242
   46MPD2    H7  714   3.013   3.508   9.284 -1.1160 -1.1498  0.8652
   47TMC2    C1  715   1.270   0.261   8.930 -0.2235 -0.4351  0.1545
   47TMC2    C2  716   1.348   0.152   8.890 -0.2525  0.5050  0.3090
   47TMC2    C3  717   1.398   0.156   8.764  0.1735 -0.3073  0.0782
   47TMC2    C4  718   1.218   0.353   8.847  0.0025 -0.1534  0.1456
   47TMC2    C5  719   1.265   0.347   8.717  0.3644 -0.2191  0.3453
   47TMC2    C6  720   1.364   0.256   8.678 -0.5852 -0.0340 -0.4939
   47TMC2     C  721   1.254   0.287   9.072 -0.3009 -0.0540  0.2686
   47TMC2     O  722   1.245   0.404   9.104 -0.0338 -0.1670  0.4877
   47TMC2     H  723   1.411   0.094   8.957 -0.2005  0.3156  0.0973
   47TMC2    H1  724   1.189   0.445   8.896  0.6378 -0.9786  2.0789
   47TMC2    H2  725   1.412   0.267   8.581 -1.3170 -0.0280 -0.8549
   47TMC2    C7  726   1.246   0.457   8.623 -0.9317  0.4597 -0.4545
   47TMC2    C8  727   1.499   0.052   8.742  0.5405  0.6755 -1.2547
   47TMC2    O1  728   1.328   0.474   8.534 -0.3776  0.0019  0.3938
   47TMC2    O2  729   1.552   4.702   8.824 -0.4720 -0.1963  0.5917
   47TMC2    O5  730   1.484   0.030   8.612  0.4161  0.3503  0.0618
   47TMC2    H5  731   1.428   0.089   8.556  1.2933  0.0881 -1.0893
   48MPD2     C  732   1.263   0.291   9.372  1.0690 -0.1605 -0.8117
   48MPD2    C1  733   1.268   0.184   9.291 -0.1353  0.4561  0.3355
   48MPD2    C2  734   1.274   0.059   9.360 -0.3930 -0.5329  0.2069
   48MPD2    C3  735   1.282   0.050   9.499 -0.0169  0.2346 -0.4368
   48MPD2    C4  736   1.286   0.167   9.568 -1.0936  0.2965 -0.8561
   48MPD2    C5  737   1.267   0.287   9.506 -0.0983 -0.0191  0.4881
   48MPD2     H  738   1.279   4.691   9.306 -3.9916  0.0334 -1.0683
   48MPD2    H1  739   1.299   0.178   9.675  3.5027  0.1497 -1.3964
   48MPD2    H2  740   1.241   0.388   9.330 -2.5303 -0.8349 -0.4470
   48MPD2    H3  741   1.265   0.381   9.559 -0.0380  0.2525  0.0136
   48MPD2     N  742   1.288   4.650   9.561  0.4873  0.4713 -0.0472
   48MPD2    H5  743   1.286   4.574   9.494  0.8806 -1.2367  1.8868
   48MPD2    N1  744   1.254   0.179   9.150 -0.3743  0.7206 -0.6293
   48MPD2    H7  745   1.245   0.088   9.106 -2.2485  0.3283  0.5537
   49MPD2     C  746   3.792   1.678   9.542 -0.2931  0.6071  0.8882
   49MPD2    C1  747   3.712   1.677   9.656 -0.1044  0.0342 -0.1074
   49MPD2    C2  748   3.768   1.735   9.770 -0.4356  0.2177  0.7162
   49MPD2    C3  749   3.899   1.774   9.779 -0.1167 -1.0670 -0.1314
   49MPD2    C4  750   3.975   1.782   9.666  0.1708  0.8340  0.0852
   49MPD2    C5  751   3.918   1.734   9.549 -0.0594 -0.3741 -0.6307
   49MPD2     H  752   3.717   1.737   9.866  0.2588  0.0683  1.0929
   49MPD2    H1  753   4.077   1.821   9.661  1.5711 -2.9664 -0.8478
   49MPD2    H2  754   3.766   1.620   9.454  2.7375 -0.6072  0.8031
   49MPD2    H3  755   3.982   1.724   9.462 -0.1448 -0.7565 -0.6497
   49MPD2     N  756   3.962   1.827   9.899 -0.7604  0.1596  0.3967
   49MPD2    H5  757   4.060   1.851   9.894 -1.2562  1.9528 -1.1704
   49MPD2    N1  758   3.576   1.635   9.659 -0.1535  0.1167  0.2057
   49MPD2    H7  759   3.520   1.651   9.742 -0.2289  0.7101  0.0429
   50TCq2    C1  760   3.509   1.583   9.553  0.4002 -0.9219 -0.2591
   50TCq2    O2  761   3.545   1.591   9.435  0.0124 -0.0359 -0.6263
   50TCq2    C2  762   3.372   1.551   9.582 -0.3228  0.0809 -0.0359
   50TCq2    C3  763   3.285   1.552   9.480  0.1193  0.0179 -0.2498
   50TCq2    C4  764   3.155   1.506   9.506  0.5164 -0.7920  0.4022
   50TCq2    C5  765   3.111   1.474   9.633 -0.6267 -0.3967 -0.1948
   50TCq2    C6  766   3.210   1.486   9.730 -0.0256  0.0192  0.4608
   50TCq2    C7  767   3.337   1.522   9.709 -0.1778 -0.5148  0.4459
   50TCq2    C8  768   3.158   1.539   9.856 -1.0609 -0.3988 -0.4046
   50TCq2    O4  769   3.231   1.607   9.929  0.0582  0.1747 -0.6008
   50TCq2    C9  770   3.082   1.469   9.388  0.0392 -0.1948  0.4272
   50TCq2    O5  771   3.101   1.531   9.278  0.0044  0.8817  0.0875
   50TCq2    O6  772   2.992   1.384   9.411  0.5941  0.1723  0.0867
   50TCq2    H2  773   3.311   1.577   9.378  1.9998  2.2735  0.7995
   50TCq2    H3  774   3.008   1.443   9.645 -0.8285  1.0696  1.8147
   50TCq2    H4  775   3.415   1.506   9.784  0.6629  1.0676 -0.0902
   51MPD2     C  776   0.083   0.653   0.783 -0.1770 -0.4849  0.1941
   51MPD2    C1  777   0.156   0.582   0.880  0.5129  0.1471 -0.5030
   51MPD2    C2  778   0.133   0.609   1.020 -0.6850  0.3594 -0.6587
   51MPD2    C3  779   0.055   0.718   1.054  0.5575 -0.0571 -0.4274
   51MPD2    C4  780   4.709   0.781   0.960 -0.2697  0.2895 -0.1999
   51MPD2    C5  781   4.717   0.748   0.829  0.1976  0.2642  0.3648
   51MPD2     H  782   0.180   0.550   1.098 -1.5913  0.4535 -0.0384
   51MPD2    H1  783   4.640   0.858   0.992  0.3517  0.0414  1.6910
   51MPD2    H2  784   0.085   0.636   0.676  0.7494 -0.5878  0.2329
   51MPD2    H3  785   4.658   0.803   0.757  0.8406 -0.0988 -0.4427
   51MPD2     N  786   0.044   0.769   1.189 -0.1247  0.5477 -0.4642
   51MPD2    H5  787   4.692   0.834   1.198 -0.7707 -0.1938 -0.6337
   51MPD2    N1  788   0.250   0.478   0.849 -0.5524  0.4466  0.3822
   51MPD2    H7  789   0.310   0.448   0.925 -1.2412  0.4631  0.9296
   52TCq2    C1  790   0.091   0.713   1.307 -0.1008  0.2093  0.2762
   52TCq2    O2  791   0.175   0.628   1.325  0.0223 -0.1079  0.0254
   52TCq2    C2  792   0.026   0.769   1.420 -0.4940  0.7874 -0.2348
   52TCq2    C3  793   4.713   0.693   1.523 -0.2504  0.0405 -0.7492
   52TCq2    C4  794   4.671   0.741   1.640  0.2474 -0.2324 -0.0329
   52TCq2    C5  795   4.683   0.873   1.665  0.1795 -0.3302  0.0077
   52TCq2    C6  796   0.005   0.951   1.562  0.1176 -0.5733  0.3508
   52TCq2    C7  797   0.023   0.901   1.439  0.5032  0.8619  0.3087
   52TCq2    C8  798   0.032   1.092   1.582 -0.3503  0.2953 -0.0208
   52TCq2    O4  799   0.093   1.154   1.495  0.3819 -0.4903 -0.2189
   52TCq2    C9  800   4.639   0.640   1.730 -0.0275 -0.4526  0.1741
   52TCq2    O5  801   4.625   0.523   1.698  0.4462  0.0957 -0.2162
   52TCq2    O6  802   4.596   0.680   1.840  0.7565 -0.0832 -0.3123
   52TCq2    H2  803   0.003   0.586   1.513 -3.0562 -0.3864 -0.6197
   52TCq2    H3  804   4.665   0.911   1.764 -2.2200  0.6801 -0.8222
   52TCq2    H4  805   0.057   0.974   1.366 -1.6679  1.2963 -0.2760
   53TMC2    C1  806   0.101   3.820  11.973 -0.1625 -0.7091 -0.1356
   53TMC2    C2  807   0.197   3.759  12.045 -0.0150  0.4883 -0.0784
   53TMC2    C3  808   0.176   3.732  12.172  0.2624 -0.4147 -0.5249
   53TMC2    C4  809   4.716   3.868  12.034 -0.0987 -0.6183 -0.9010
   53TMC2    C5  810   4.706   3.856  12.170  0.4149 -0.1555  0.1911
   53TMC2    C6  811   0.070   3.783  12.243 -0.3855  0.1439  0.0630
   53TMC2     C  812   0.111   3.804  11.831  0.6896 -0.3254 -0.6666
   53TMC2     O  813   0.215   3.766  11.784 -0.0335 -0.2726 -0.1624
   53TMC2     H  814   0.286   3.728  11.992 -0.5869 -2.5455  0.7299
   53TMC2    H1  815   4.662   3.945  11.979  1.2997  1.2128  0.3018
   53TMC2    H2  816   0.042   3.749  12.342  0.5928  0.2551  0.3775
   53TMC2    C7  817   4.575   3.867  12.222 -0.5102 -0.5829  0.6282
   53TMC2    C8  818   0.258   3.643  12.247 -0.4589 -0.6477 -0.8694
   53TMC2    O1  819   4.491   3.866  12.136 -0.0498 -0.0138  0.1003
   53TMC2    O2  820   0.274   3.649  12.365 -0.1230  0.0770  0.2867
   53TMC2    O5  821   0.236   3.523  12.185  0.6316  0.0149 -0.7270
   53TMC2    H5  822   0.167   3.533  12.116  1.2561  1.3878 -1.1526
   54MPD2     C  823   0.057   3.785  11.544 -0.3097  0.3912  0.3312
   54MPD2    C1  824   4.691   3.788  11.640  0.0049 -0.5108 -0.0462
   54MPD2    C2  825   4.561   3.771  11.591  0.0297 -0.1008 -0.5859
   54MPD2    C3  826   4.527   3.728  11.463  0.1595  0.0909 -0.6342
   54MPD2    C4  827   4.630   3.732  11.366  0.6401  0.7481 -0.8226
   54MPD2    C5  828   0.027   3.775  11.415  0.3891 -0.1506 -0.2208
   54MPD2     H  829   4.482   3.779  11.665 -1.5566  1.1431 -2.4567
   54MPD2    H1  830   4.613   3.714  11.260 -2.3103  0.9762 -0.3878
   54MPD2    H2  831   0.161   3.804  11.567  0.0178  0.3658 -1.1797
   54MPD2    H3  832   0.107   3.760  11.343  0.8290  1.4388 -0.0628
   54MPD2     N  833   4.397   3.683  11.428  0.0196 -0.7094  0.5728
   54MPD2    H5  834   4.384   3.668  11.328 -1.1977  0.9784  0.4736
   54MPD2    N1  835   4.713   3.809  11.773  0.2989 -0.6202  0.5640
   54MPD2    H7  836   4.637   3.831  11.836  0.3660 -1.1553  0.8361
   55MPD2     C  837   1.606   1.499   0.894 -0.0831  0.6113 -0.0813
   55MPD2    C1  838   1.507   1.424   0.838 -0.2880 -0.0828 -0.4629
   55MPD2    C2  839   1.380   1.474   0.842  0.3929  0.0248 -0.3439
   55MPD2    C3  840   1.355   1.594   0.906  0.3008  0.1530  0.4503
   55MPD2    C4  841   1.459   1.668   0.956 -0.2216  0.0970 -0.5751
   55MPD2    C5  842   1.585   1.619   0.950  0.1450 -0.2058 -0.1149
   55MPD2     H  843   1.297   1.413   0.808 -0.2015 -0.0782  1.3131
   55MPD2    H1  844   1.436   1.762   1.006  1.1928 -0.6964  1.5890
   55MPD2    H2  845   1.711   1.472   0.897 -0.6057 -1.4303 -0.6930
   55MPD2    H3  846   1.667   1.678   0.990  1.8607 -1.5967 -1.5703
   55MPD2     N  847   1.220   1.633   0.902 -0.0599 -0.1874  0.9579
   55MPD2    H5  848   1.148   1.577   0.858 -1.2025  1.7054  0.3950
   55MPD2    N1  849   1.544   1.311   0.764 -0.7571  0.5483  0.0816
   55MPD2    H7  850   1.642   1.288   0.777 -0.8105  0.2251 -0.1029
   56TCq2    C1  851   1.465   1.225   0.684 -0.4812  0.2520  0.0224
   56TCq2    O2  852   1.350   1.240   0.650  0.4400 -0.2092  0.3028
   56TCq2    C2  853   1.542   1.115   0.623 -0.3946 -0.1949 -0.1376
   56TCq2    C3  854   1.633   1.144   0.528  0.1000 -0.4797 -0.0622
   56TCq2    C4  855   1.676   1.048   0.443 -0.1329  0.2809 -0.3491
   56TCq2    C5  856   1.621   0.925   0.438  0.1114 -0.5149  0.0354
   56TCq2    C6  857   1.526   0.897   0.535  0.0662 -0.3382  0.9347
   56TCq2    C7  858   1.484   0.990   0.630  0.0238 -0.6775  0.0719
   56TCq2    C8  859   1.446   0.778   0.504  0.1939  0.4798  0.5259
   56TCq2    O4  860   1.477   0.714   0.406 -0.5262  0.4265 -0.1682
   56TCq2    C9  861   1.773   1.090   0.350 -0.7375 -0.5045  0.5053
   56TCq2    O5  862   1.812   1.208   0.353 -0.2956  0.5808  0.1392
   56TCq2    O6  863   1.770   1.018   0.245  0.0895 -0.1951 -0.0463
   56TCq2    H2  864   1.672   1.246   0.528  0.9443 -0.8084 -1.3472
   56TCq2    H3  865   1.651   0.851   0.365 -1.2991 -2.5632  1.5151
   56TCq2    H4  866   1.404   0.966   0.699 -1.0579 -0.9930 -1.2862
   57TMC2    C1  867   4.508   3.060  13.023 -0.1199  0.3151 -0.1096
   57TMC2    C2  868   4.520   3.184  12.971  0.4528  0.0249  0.3372
   57TMC2    C3  869   4.503   3.201  12.839 -0.2359  0.0762 -0.0356
   57TMC2    C4  870   4.504   2.947  12.938  0.6509 -0.6389  0.3441
   57TMC2    C5  871   4.487   2.979  12.809  0.2203  0.4142  0.6889
   57TMC2    C6  872   4.469   3.099  12.751 -0.2175 -0.4845  0.1453
   57TMC2     C  873   4.459   3.037  13.160  0.0692 -0.5893  0.4443
   57TMC2     O  874   4.494   3.117  13.246  0.3076  0.1495  0.8797
   57TMC2     H  875   4.515   3.269  13.037 -1.4394  0.3799 -0.2751
   57TMC2    H1  876   4.495   2.845  12.972  1.1451 -0.2437  1.6898
   57TMC2    H2  877   4.466   3.120  12.644  0.5257 -2.0889 -0.1912
   57TMC2    C7  878   4.486   2.864  12.717  0.1400 -0.0190  0.6184
   57TMC2    C8  879   4.548   3.322  12.770 -0.8864  0.5709  0.1920
   57TMC2    O1  880   4.393   2.861  12.633 -0.4540 -0.1042 -0.3081
   57TMC2    O2  881   4.568   3.311  12.647 -0.1780 -0.0937  0.6821
   57TMC2    O5  882   4.518   3.436  12.833  0.2094  0.0989  0.5272
   57TMC2    H5  883   4.459   3.424  12.910  0.8163 -0.3169  0.9208
   58MPD2     C  884   4.134   2.763  13.463 -0.0005  0.1384  0.4165
   58MPD2    C1  885   4.232   2.858  13.505 -0.5926  0.5358 -0.8385
   58MPD2    C2  886   4.318   2.908  13.405  0.8559 -0.3865 -0.0345
   58MPD2    C3  887   4.301   2.874  13.272 -0.8844 -0.7745  0.3764
   58MPD2    C4  888   4.207   2.778  13.231  0.1110 -0.1791  0.0244
   58MPD2    C5  889   4.124   2.723  13.328 -0.5157  0.4714  0.2148
   58MPD2     H  890   4.392   2.985  13.422  2.1910 -1.4879 -0.8818
   58MPD2    H1  891   4.187   2.754  13.127 -0.9518 -1.6705  0.5731
   58MPD2    H2  892   4.057   2.739  13.535 -0.6079 -0.5277 -0.4530
   58MPD2    H3  893   4.050   2.652  13.293 -0.5053  1.1552 -1.2336
   58MPD2     N  894   4.370   2.933  13.164 -0.4689  0.8233  0.9028
   58MPD2    H5  895   4.348   2.892  13.073 -0.4261 -0.5200  1.4949
   58MPD2    N1  896   4.235   2.910  13.638  0.7321 -0.0751  0.1086
   58MPD2    H7  897   4.275   3.001  13.657 -2.8334  1.1583  1.7263
   59MPD2     C  898   2.337   2.450  13.268  0.1607 -1.1364  0.4039
   59MPD2    C1  899   2.352   2.543  13.164 -0.7288  0.0358 -0.3034
   59MPD2    C2  900   2.418   2.656  13.196 -0.0452 -0.4062  0.5909
   59MPD2    C3  901   2.471   2.680  13.322  0.7525  0.8405  0.5237
   59MPD2    C4  902   2.453   2.588  13.425 -0.1026 -0.6498  0.2977
   59MPD2    C5  903   2.382   2.476  13.397  0.5211 -0.2643 -0.2695
   59MPD2     H  904   2.429   2.729  13.117  0.9359  0.4711  1.5452
   59MPD2    H1  905   2.490   2.606  13.525  1.5819 -0.4143 -0.3771
   59MPD2    H2  906   2.285   2.357  13.255  1.0397 -1.5858  0.0880
   59MPD2    H3  907   2.366   2.403  13.476  0.1308  1.0288  0.8538
   59MPD2     N  908   2.551   2.792  13.353 -0.0357 -0.1209  0.8635
   59MPD2    H5  909   2.558   2.803  13.454  0.2628  2.4902  0.5552
   59MPD2    N1  910   2.310   2.520  13.034 -0.7029  0.5208 -0.4378
   59MPD2    H7  911   2.324   2.599  12.973  2.3701 -0.0022 -0.3931
   60TCq2    C1  912   2.249   2.402  12.991  0.2659  0.3993 -0.0093
   60TCq2    O2  913   2.224   2.297  13.049 -0.0289 -0.2496 -0.0309
   60TCq2    C2  914   2.201   2.414  12.856  0.2289 -0.3102  0.1414
   60TCq2    C3  915   2.086   2.353  12.826 -0.1786 -0.1547 -0.6725
   60TCq2    C4  916   2.049   2.339  12.691  0.4580 -0.5800  0.1406
   60TCq2    C5  917   2.124   2.383  12.583  0.6616 -0.1977  0.6753
   60TCq2    C6  918   2.238   2.454  12.619 -0.4704 -0.7450 -0.0567
   60TCq2    C7  919   2.286   2.456  12.747 -0.3099  0.0587 -0.1394
   60TCq2    C8  920   2.315   2.515  12.508 -0.0880 -0.2617  0.9935
   60TCq2    O4  921   2.432   2.491  12.498 -0.6022 -0.1161  0.3747
   60TCq2    C9  922   1.937   2.252  12.667  0.8220 -0.0485  0.0871
   60TCq2    O5  923   1.893   2.257  12.550 -0.4427 -0.1816  0.9722
   60TCq2    O6  924   1.890   2.178  12.762 -0.1608 -0.6310  0.5971
   60TCq2    H2  925   2.022   2.315  12.905  0.2956 -1.1532 -0.7620
   60TCq2    H3  926   2.094   2.368  12.480 -1.0132 -0.0857  1.1383
   60TCq2    H4  927   2.378   2.509  12.769 -0.5191  0.1690  0.4654
   61MPD2     C  928   1.613   3.811  14.753  0.6884 -0.2479 -0.3580
   61MPD2    C1  929   1.698   3.853  14.857  0.0481  0.0655  0.0970
   61MPD2    C2  930   1.828   3.866  14.821 -0.0390  0.7895 -0.2015
   61MPD2    C3  931   1.883   3.837  14.700  0.2225 -0.3048  0.7197
   61MPD2    C4  932   1.791   3.802  14.597 -0.1721  0.4009 -0.0515
   61MPD2    C5  933   1.659   3.768  14.631  0.2006 -0.8814  0.4360
   61MPD2     H  934   1.894   3.888  14.905 -1.0576  0.2477  0.7375
   61MPD2    H1  935   1.815   3.803  14.491 -0.2842  0.7987 -0.0724
   61MPD2    H2  936   1.509   3.788  14.771  0.3740 -0.1294 -2.0312
   61MPD2    H3  937   1.584   3.732  14.561  0.1223 -1.8201  1.0090
   61MPD2     N  938   2.021   3.852  14.657 -0.1324  0.3337 -0.3289
   61MPD2    H5  939   2.050   3.833  14.561  0.2337  0.5041 -0.2526
   61MPD2    N1  940   1.653   3.906  14.978 -0.5953  0.0885  0.1863
   61MPD2    H7  941   1.724   3.948  15.037 -1.2857 -0.5141  1.4313
   62TCq2    C1  942   1.524   3.932  15.015 -0.1610 -0.2108  0.4248
   62TCq2    O2  943   1.418   3.892  14.964  0.4193  0.1966 -0.3474
   62TCq2    C2  944   1.526   4.008  15.135 -0.4543  0.1816  0.0033
   62TCq2    C3  945   1.586   3.962  15.246  0.5195  0.0615 -0.5143
   62TCq2    C4  946   1.580   4.031  15.360 -0.1463  0.7725  0.5609
   62TCq2    C5  947   1.514   4.149  15.362 -0.0802 -0.3918 -0.2312
   62TCq2    C6  948   1.452   4.195  15.250 -0.7103  0.5559 -0.3732
   62TCq2    C7  949   1.445   4.117  15.136 -0.1099 -0.2444  0.6409
   62TCq2    C8  950   1.430   4.343  15.244  0.7530  0.7075  0.0018
   62TCq2    O4  951   1.494   4.400  15.331 -0.1214 -0.3548 -0.1627
   62TCq2    C9  952   1.652   3.993  15.480  0.0478  1.3897  0.4571
   62TCq2    O5  953   1.669   4.066  15.577 -0.4394  0.2079 -0.0815
   62TCq2    O6  954   1.699   3.874  15.475  0.5880 -0.1647  0.0552
   62TCq2    H2  955   1.653   3.877  15.233  1.1247 -0.0121  3.0489
   62TCq2    H3  956   1.520   4.193  15.461  0.3985 -2.1005  0.4994
   62TCq2    H4  957   1.397   4.144  15.043  0.6329  3.2845  1.2677
   63TMC2    C1  958   1.427   4.049  11.056 -0.2082  0.2397  0.5127
   63TMC2    C2  959   1.543   4.081  11.126  0.9485  0.6364 -0.3935
   63TMC2    C3  960   1.613   4.193  11.090  0.5396 -0.2951 -0.0790
   63TMC2    C4  961   1.389   4.123  10.952 -0.0615  0.5251  0.3275
   63TMC2    C5  962   1.453   4.237  10.924 -0.0520 -0.4584 -1.0062
   63TMC2    C6  963   1.576   4.270  10.985  0.4597 -0.1976 -0.7920
   63TMC2     C  964   1.348   3.946  11.114  0.4933 -0.4008  1.4217
   63TMC2     O  965   1.351   3.912  11.231 -0.7112  0.1830 -0.1037
   63TMC2     H  966   1.572   4.007  11.199  2.2756  0.9427 -0.6261
   63TMC2    H1  967   1.292   4.110  10.904 -0.4862 -2.0628  1.9042
   63TMC2    H2  968   1.647   4.342  10.944 -1.4710  1.6874 -0.8346
   63TMC2    C7  969   1.415   4.322  10.811 -0.0279  0.0035 -0.5226
   63TMC2    C8  970   1.719   4.233  11.170  0.0680 -0.2609 -0.1336
   63TMC2    O1  971   1.353   4.269  10.719  0.3668 -0.1244  0.6684
   63TMC2    O2  972   1.793   4.325  11.136 -0.2127 -0.2515  0.6230
   63TMC2    O5  973   1.688   4.196  11.301  0.3582  0.1256  1.2345
   63TMC2    H5  974   1.607   4.149  11.329  1.3600 -3.1263 -1.3337
   64MPD2     C  975   0.976   3.600  11.006  0.1544  0.6437 -0.4996
   64MPD2    C1  976   1.030   3.654  10.895  0.2038 -0.1622 -0.0727
   64MPD2    C2  977   1.127   3.748  10.906  0.5464 -0.7782 -0.1876
   64MPD2    C3  978   1.170   3.791  11.029  1.1807 -0.1505  0.7328
   64MPD2    C4  979   1.111   3.746  11.141 -0.1653  1.1004  0.8495
   64MPD2    C5  980   1.015   3.650  11.128  0.8623 -0.1959 -0.6294
   64MPD2     H  981   1.166   3.782  10.811 -0.2873 -0.0213 -0.2663
   64MPD2    H1  982   1.138   3.787  11.237  2.5651 -1.5018  1.1908
   64MPD2    H2  983   0.890   3.533  11.006 -0.0290  0.8688  0.3218
   64MPD2    H3  984   0.961   3.606  11.212  2.3295 -0.0646  0.3882
   64MPD2     N  985   1.268   3.890  11.017  0.3269  0.7175 -0.2292
   64MPD2    H5  986   1.297   3.924  10.925  1.6319  0.4818  0.0930
   64MPD2    N1  987   1.012   3.599  10.766 -0.6265 -0.5182 -0.0621
   64MPD2    H7  988   1.065   3.642  10.690 -1.6249 -1.3837 -1.2586
   65MPD2     C  989   2.509   3.380  15.872 -0.2220  0.5632  0.2689
   65MPD2    C1  990   2.547   3.410  15.737 -0.3366 -0.3821 -0.1233
   65MPD2    C2  991   2.553   3.309  15.646  0.1415 -0.5557  0.2965
   65MPD2    C3  992   2.540   3.179  15.690 -0.6021 -0.1381 -0.0862
   65MPD2    C4  993   2.511   3.144  15.822 -1.0672 -0.4495 -0.1171
   65MPD2    C5  994   2.494   3.247  15.912  0.0459 -0.5039 -0.2763
   65MPD2     H  995   2.574   3.342  15.545  0.2197  1.2675  0.9216
   65MPD2    H1  996   2.499   3.040  15.849 -0.2539  0.4168  3.5065
   65MPD2    H2  997   2.484   3.458  15.943 -1.0667  0.8036 -0.2912
   65MPD2    H3  998   2.473   3.230  16.017 -2.4052 -0.7382 -0.7976
   65MPD2     N  999   2.530   3.068  15.596 -0.0935  0.2316  0.3439
   65MPD2    H5 1000   2.507   2.979  15.638 -1.5181 -0.4824 -1.9788
   65MPD2    N1 1001   2.553   3.545  15.692 -0.0506 -0.1897  0.7437
   65MPD2    H7 1002   2.547   3.563  15.592  0.8702 -2.7174  0.2367
   66TCq2    C1 1003   2.566   3.660  15.768  0.1423 -0.8897 -0.4849
   66TCq2    O2 1004   2.594   3.666  15.885  0.6214 -0.0628 -0.7951
   66TCq2    C2 1005   2.554   3.783  15.686  0.1655  0.4343 -0.5705
   66TCq2    C3 1006   2.516   3.779  15.554  0.2402 -0.0951 -0.0143
   66TCq2    C4 1007   2.512   3.895  15.479 -0.2118 -0.5630  0.1118
   66TCq2    C5 1008   2.538   4.018  15.532 -0.2047 -0.5675 -0.4579
   66TCq2    C6 1009   2.570   4.012  15.669 -0.4706 -0.1310 -0.0345
   66TCq2    C7 1010   2.563   3.904  15.747 -0.6734 -0.2877 -0.6092
   66TCq2    C8 1011   2.601   4.137  15.739 -0.6182  0.0033  0.6463
   66TCq2    O4 1012   2.616   4.235  15.670  0.0924  0.1735 -0.4986
   66TCq2    C9 1013   2.489   3.888  15.332  0.0240 -0.7129  0.1207
   66TCq2    O5 1014   2.445   3.781  15.285  0.3731 -0.0749  0.0942
   66TCq2    O6 1015   2.477   3.995  15.270  0.3343  0.0060 -0.3623
   66TCq2    H2 1016   2.486   3.685  15.508 -1.1961  1.0003 -1.3340
   66TCq2    H3 1017   2.538   4.113  15.479 -1.0766 -1.5144 -2.1466
   66TCq2    H4 1018   2.597   3.899  15.850 -0.9680  1.2462 -0.4299
   67MPD2     C 1019   2.166   2.775  14.220 -0.5497  0.2113  0.9593
   67MPD2    C1 1020   2.186   2.905  14.162 -0.2679  0.4320 -0.5721
   67MPD2    C2 1021   2.092   2.948  14.073 -0.0698  0.2464 -0.0117
   67MPD2    C3 1022   1.989   2.866  14.036  0.2003  0.3518  0.5975
   67MPD2    C4 1023   1.979   2.738  14.088 -0.0023  0.6878 -0.5267
   67MPD2    C5 1024   2.070   2.695  14.176  0.1233  0.2592 -0.1161
   67MPD2     H 1025   2.096   3.046  14.026 -2.6033 -0.1617 -1.0736
   67MPD2    H1 1026   1.908   2.664  14.053  1.2907 -1.1038  0.6278
   67MPD2    H2 1027   2.220   2.742  14.308 -0.8654 -1.6070  0.4739
   67MPD2    H3 1028   2.063   2.597  14.221 -0.5491 -0.4685 -1.8276
   67MPD2     N 1029   1.876   2.906  13.959 -0.5840  0.6677 -0.9545
   67MPD2    H5 1030   1.794   2.846  13.959 -0.6689  0.7802 -1.6290
   67MPD2    N1 1031   2.289   2.988  14.202  0.3628 -0.2062 -0.2017
   67MPD2    H7 1032   2.296   3.082  14.164 -1.6237 -0.7682 -1.9627
   68TCq2    C1 1033   2.390   2.952  14.293 -0.3895  0.8953  0.4366
   68TCq2    O2 1034   2.416   2.847  14.350  0.2906 -0.7854  0.3288
   68TCq2    C2 1035   2.491   3.054  14.330 -0.6170 -0.6704  0.2988
   68TCq2    C3 1036   2.511   3.168  14.251 -0.0189 -0.2409  0.3824
   68TCq2    C4 1037   2.609   3.256  14.279  0.2430 -0.0147  0.0780
   68TCq2    C5 1038   2.694   3.231  14.382  0.0027  0.1908 -0.4277
   68TCq2    C6 1039   2.670   3.121  14.461  0.3867 -0.9190 -0.5770
   68TCq2    C7 1040   2.568   3.032  14.443 -0.6500  0.8399  0.6243
   68TCq2    C8 1041   2.779   3.078  14.540  0.1042 -0.0840  0.5697
   68TCq2    O4 1042   2.882   3.063  14.470 -0.0185  0.4121 -0.5387
   68TCq2    C9 1043   2.623   3.373  14.188 -0.5866  0.1740  0.0117
   68TCq2    O5 1044   2.675   3.473  14.248 -0.0016  0.0635 -0.2396
   68TCq2    O6 1045   2.564   3.381  14.080 -0.6896  0.2810  0.2436
   68TCq2    H2 1046   2.451   3.195  14.165  1.1771 -0.3647 -0.4855
   68TCq2    H3 1047   2.782   3.294  14.394 -1.1950  2.0397 -1.4104
   68TCq2    H4 1048   2.566   2.938  14.497 -0.0517 -0.5599 -1.7861
   69TMC2    C1 1049   3.366   4.695  12.010  0.6659  0.0502  0.3728
   69TMC2    C2 1050   3.248   4.626  11.989  0.5934  0.0119 -0.0544
   69TMC2    C3 1051   3.212   4.603  11.854  0.3214 -0.4892 -0.1981
   69TMC2    C4 1052   3.430   0.025  11.904  0.6995 -0.0778 -0.4632
   69TMC2    C5 1053   3.397   4.713  11.776 -0.4646  0.0257 -0.1501
   69TMC2    C6 1054   3.291   4.629  11.749  0.3290  0.0806 -0.3271
   69TMC2     C 1055   3.455   4.639  12.107 -0.7022 -0.1180  0.5286
   69TMC2     O 1056   3.395   4.593  12.203 -0.4277 -0.0513 -0.5119
   69TMC2     H 1057   3.197   4.592  12.078  1.7299 -1.5598  0.0112
   69TMC2    H1 1058   3.518   0.088  11.918  0.1592  0.3687  0.9540
   69TMC2    H2 1059   3.268   4.582  11.654  0.5991 -0.2705 -0.2202
   69TMC2    C7 1060   3.509   4.695  11.689  0.7519 -0.0468  1.6039
   69TMC2    C8 1061   3.079   4.559  11.831 -0.2845 -0.6724  0.2013
   69TMC2    O1 1062   3.619   4.712  11.743 -0.1479 -0.1290 -0.5053
   69TMC2    O2 1063   3.045   4.481  11.742 -0.2638 -0.0506 -0.0876
   69TMC2    O5 1064   3.011   4.575  11.945 -0.4621 -0.0695 -0.6595
   69TMC2    H5 1065   3.030   4.661  11.989  0.6510  0.3746 -2.0248
   70MPD2     C 1066   3.803   4.563  12.047  0.0275 -0.1722  0.0065
   70MPD2    C1 1067   3.691   4.554  12.117 -0.2374  0.7946 -0.3728
   70MPD2    C2 1068   3.686   4.494  12.240 -0.0619 -0.1616  0.0494
   70MPD2    C3 1069   3.803   4.461  12.307  0.0054 -0.4498 -0.7229
   70MPD2    C4 1070   3.922   4.469  12.230 -0.6523 -0.2868  0.1505
   70MPD2    C5 1071   3.922   4.528  12.106 -0.3461  0.1496  0.0738
   70MPD2     H 1072   3.592   4.479  12.292 -1.7925  0.3457 -2.9282
   70MPD2    H1 1073   4.016   4.438  12.274 -0.7734 -2.4533 -1.0799
   70MPD2    H2 1074   3.803   4.612  11.950 -2.6834 -1.4545 -0.6230
   70MPD2    H3 1075   4.009   4.546  12.045 -1.6053  4.7907 -0.3228
   70MPD2     N 1076   3.797   4.415  12.440 -0.0586 -0.4620 -0.4672
   70MPD2    H5 1077   3.887   4.405  12.486  0.0467 -1.2820 -0.8553
   70MPD2    N1 1078   3.578   4.620  12.053 -0.0532 -0.6582  0.4762
   70MPD2    H7 1079   3.609   4.667  11.969  1.4762  0.7148  1.7895
   71TMC2    C1 1080   1.990   0.952   1.890 -0.9201 -0.0330 -0.1680
   71TMC2    C2 1081   2.083   0.988   1.991  0.5132 -0.3133  0.0606
   71TMC2    C3 1082   2.028   0.973   2.115  0.1242  0.0552 -1.0707
   71TMC2    C4 1083   1.863   0.906   1.916 -0.1848 -0.1615  0.3464
   71TMC2    C5 1084   1.828   0.885   2.050  0.3256  0.5317 -0.1114
   71TMC2    C6 1085   1.908   0.925   2.149  0.8268 -0.6075 -0.2400
   71TMC2     C 1086   2.056   0.912   1.772 -0.0766  0.2223 -0.3256
   71TMC2     O 1087   2.174   0.883   1.785 -0.2440 -0.1777  0.4422
   71TMC2     H 1088   2.183   1.026   1.974 -0.0846  0.0888 -2.6137
   71TMC2    H1 1089   1.790   0.907   1.836  0.0159 -5.5261  0.0979
   71TMC2    H2 1090   1.886   0.896   2.251 -1.3974 -1.0020 -0.8323
   71TMC2    C7 1091   1.705   0.814   2.087 -0.3675 -0.1782 -0.1068
   71TMC2    C8 1092   2.109   1.024   2.225  0.3667  0.0146 -0.5749
   71TMC2    O1 1093   1.660   0.834   2.200 -0.5043 -0.3418 -0.2884
   71TMC2    O2 1094   2.099   0.980   2.337  0.1247 -0.2184  0.0934
   71TMC2    O5 1095   2.102   1.152   2.196 -0.0572  0.2120  0.4839
   71TMC2    H5 1096   2.074   1.168   2.103  1.2791  0.5417  0.1366
   72MPD2     C 1097   1.973   0.638   1.343 -0.4148  0.3001 -0.0610
   72MPD2    C1 1098   2.089   0.655   1.410 -0.7740  0.7602 -0.0934
   72MPD2    C2 1099   2.090   0.737   1.522 -0.4262  0.2410  0.1059
   72MPD2    C3 1100   1.970   0.803   1.558  0.2260  0.2210 -0.4802
   72MPD2    C4 1101   1.856   0.793   1.475 -0.3575 -0.2612  0.2626
   72MPD2    C5 1102   1.856   0.700   1.376 -0.2710 -0.3611  0.3755
   72MPD2     H 1103   2.177   0.745   1.585 -1.9694  2.4558  1.9367
   72MPD2    H1 1104   1.765   0.844   1.502 -0.5759 -0.3019 -0.4018
   72MPD2    H2 1105   1.962   0.578   1.253  1.9870 -1.2681  0.6810
   72MPD2    H3 1106   1.768   0.666   1.323  0.3547 -1.8174  0.2649
   72MPD2     N 1107   1.968   0.891   1.673  0.2032 -0.2648  0.2622
   72MPD2    H5 1108   1.879   0.937   1.692 -1.5278 -3.2896 -0.5740
   72MPD2    N1 1109   2.211   0.600   1.366 -0.0582 -0.4428 -0.4663
   72MPD2    H7 1110   2.295   0.605   1.423  0.1005 -1.4248 -0.6144
   73TMC2    C1 1111   1.649   1.611  13.915 -0.6283  0.1522  0.0763
   73TMC2    C2 1112   1.681   1.479  13.948 -0.3884  0.1466 -0.0244
   73TMC2    C3 1113   1.735   1.447  14.068 -0.0823 -0.9014  0.1489
   73TMC2    C4 1114   1.689   1.709  13.998 -0.4544 -0.1667  0.2676
   73TMC2    C5 1115   1.756   1.670  14.110  0.2852 -0.0198  0.6123
   73TMC2    C6 1116   1.782   1.544  14.151 -0.4372  0.5048  0.4258
   73TMC2     C 1117   1.691   1.648  13.778  0.6835  0.4659  0.2149
   73TMC2     O 1118   1.733   1.762  13.763 -0.1086  0.7476 -0.0329
   73TMC2     H 1119   1.642   1.402  13.883  1.6412 -0.3224 -0.6542
   73TMC2    H1 1120   1.659   1.812  13.985  4.7778  1.0886 -1.8206
   73TMC2    H2 1121   1.839   1.528  14.242  0.5826  1.4413 -0.0524
   73TMC2    C7 1122   1.860   1.768  14.130 -0.4644 -0.5744 -0.5095
   73TMC2    C8 1123   1.706   1.318  14.125  0.9584 -0.5389  0.1364
   73TMC2    O1 1124   1.913   1.782  14.240  0.4698  0.8913  0.3956
   73TMC2    O2 1125   1.700   1.312  14.246  0.2550 -0.6114  0.1115
   73TMC2    O5 1126   1.773   1.225  14.055  0.5270 -0.1765 -0.4906
   73TMC2    H5 1127   1.771   1.227  13.957 -0.1369 -2.5354 -0.5320
   74MPD2     C 1128   1.804   1.542  13.295  0.1225  0.9861 -0.7057
   74MPD2    C1 1129   1.847   1.645  13.380 -0.4626 -0.0397  0.3911
   74MPD2    C2 1130   1.808   1.637  13.514  0.3550 -0.1982 -0.8070
   74MPD2    C3 1131   1.715   1.544  13.554  0.4145  0.0350  0.2477
   74MPD2    C4 1132   1.674   1.447  13.473  0.1125 -0.0354 -0.4922
   74MPD2    C5 1133   1.732   1.437  13.346 -0.9804 -0.4487 -1.0196
   74MPD2     H 1134   1.851   1.705  13.587 -1.5085  2.0884 -1.8325
   74MPD2    H1 1135   1.593   1.383  13.505  0.2967  0.4263  0.8938
   74MPD2    H2 1136   1.818   1.544  13.187 -2.2696  1.3812 -1.0223
   74MPD2    H3 1137   1.698   1.363  13.275 -0.2383 -1.0022 -0.7948
   74MPD2     N 1138   1.659   1.556  13.685  0.5426 -0.2299 -0.0221
   74MPD2    H5 1139   1.590   1.490  13.722  0.2109 -0.6345 -1.3859
   74MPD2    N1 1140   1.931   1.752  13.323  0.2068  0.0577 -0.2591
   74MPD2    H7 1141   1.957   1.744  13.226  0.7969 -1.0742 -0.0120
   75TCq2    C1 1142   1.867   3.018  13.879 -0.3854 -0.9216  0.1363
   75TCq2    O2 1143   1.964   3.054  13.811 -0.5235  0.2608  0.6552
   75TCq2    C2 1144   1.730   3.033  13.838  0.2579 -0.0902  0.0488
   75TCq2    C3 1145   1.637   3.007  13.940  0.1760 -0.4912  0.0857
   75TCq2    C4 1146   1.509   2.988  13.898 -0.1991  0.0391  0.8146
   75TCq2    C5 1147   1.479   3.008  13.766  0.5721 -0.2262  0.1128
   75TCq2    C6 1148   1.571   3.050  13.671  0.1204  0.3316  0.3079
   75TCq2    C7 1149   1.701   3.083  13.713  0.0583  0.1657  0.8340
   75TCq2    C8 1150   1.524   3.055  13.534 -0.1402 -0.4129  0.3394
   75TCq2    O4 1151   1.465   2.958  13.486  0.3369  0.2146  0.0894
   75TCq2    C9 1152   1.413   2.941  13.995  0.2392  0.5102  0.2437
   75TCq2    O5 1153   1.455   2.878  14.091 -0.4495 -0.1048 -0.1148
   75TCq2    O6 1154   1.301   3.000  13.995 -0.4024  0.2960  0.0796
   75TCq2    H2 1155   1.654   3.002  14.047 -0.2937  1.2398  0.2405
   75TCq2    H3 1156   1.380   2.978  13.735  0.2078 -0.6038  1.6570
   75TCq2    H4 1157   1.779   3.097  13.639 -2.2403  1.8376 -1.2818
   76MPD2     C 1158   4.383   4.278  12.139  0.5959  0.0375  0.2999
   76MPD2    C1 1159   4.456   4.261  12.019 -0.6671 -0.1388 -0.4675
   76MPD2    C2 1160   4.596   4.237  12.025 -0.5276 -0.3635  0.4012
   76MPD2    C3 1161   4.663   4.244  12.144  0.6545 -0.5005 -0.2768
   76MPD2    C4 1162   4.595   4.263  12.261  0.2627 -0.3488 -0.4081
   76MPD2    C5 1163   4.457   4.269  12.256 -0.6273  0.0992 -0.6565
   76MPD2     H 1164   4.647   4.204  11.935 -0.4693  0.4920  0.1151
   76MPD2    H1 1165   4.641   4.265  12.358  1.2191 -0.1066 -0.8678
   76MPD2    H2 1166   4.275   4.280  12.146  0.5733  0.4818 -0.2040
   76MPD2    H3 1167   4.393   4.282  12.342 -1.0015 -1.6549 -0.6760
   76MPD2     N 1168   0.075   4.224  12.160 -0.0735 -0.0203 -0.8335
   76MPD2    H5 1169   0.109   4.220  12.256 -2.1665  0.3547 -0.0510
   76MPD2    N1 1170   4.409   4.270  11.887  0.6668  0.1420  0.1793
   76MPD2    H7 1171   4.469   4.241  11.810  1.4239 -1.9574  1.5595
   77TCq2    C1 1172   0.169   4.207  12.055  0.0415  0.1918 -0.0060
   77TCq2    O2 1173   0.153   4.225  11.934 -0.1012 -0.1802 -0.2377
   77TCq2    C2 1174   0.302   4.171  12.091  0.3162 -0.1928  0.1539
   77TCq2    C3 1175   0.317   4.087  12.201 -0.6040  0.2244  0.1831
   77TCq2    C4 1176   0.433   4.014  12.206  0.0351 -0.1582  0.3157
   77TCq2    C5 1177   0.539   4.042  12.120 -0.5236 -0.1022  0.5194
   77TCq2    C6 1178   0.520   4.129  12.013  0.2242 -0.1430 -0.3850
   77TCq2    C7 1179   0.397   4.179  11.993  0.1058 -0.1819  0.3161
   77TCq2    C8 1180   0.632   4.172  11.929 -0.7656 -0.5083  0.0535
   77TCq2    O4 1181   0.606   4.250  11.841  0.0817  0.9706 -0.0757
   77TCq2    C9 1182   0.458   3.924  12.314  0.6187  0.2215 -0.3186
   77TCq2    O5 1183   0.541   3.833  12.307 -0.8996 -0.6669  0.0928
   77TCq2    O6 1184   0.367   3.914  12.400  0.2210  0.0980  0.1473
   77TCq2    H2 1185   0.244   4.085  12.282  0.1401 -0.3886  0.8376
   77TCq2    H3 1186   0.628   3.984  12.143  0.0609 -0.0098 -1.4450
   77TCq2    H4 1187   0.383   4.253  11.915  0.9709 -0.4467 -0.0895
   78MPD1     C 1188   1.471   0.060   1.447  0.3680 -0.8132  0.2618
   78MPD1    C1 1189   1.576   0.011   1.375  0.4177 -0.2531 -0.5784
   78MPD1    C2 1190   1.701   0.062   1.410 -0.1897 -0.3753 -0.7053
   78MPD1    C3 1191   1.722   0.154   1.507 -0.2364 -1.0102  0.1738
   78MPD1    C4 1192   1.613   0.204   1.572 -0.1320  0.5308  0.6181
   78MPD1    C5 1193   1.491   0.151   1.546 -0.2019 -0.4306 -0.2063
   78MPD1     H 1194   1.781   0.025   1.347  2.3420  2.7497  0.6573
   78MPD1    H1 1195   1.627   0.286   1.641  0.8783  0.8773  0.0005
   78MPD1    H2 1196   1.369   0.029   1.428 -0.3268  2.0817 -0.7116
   78MPD1    H3 1197   1.407   0.194   1.598  0.9663  1.0518  0.4586
   78MPD1     N 1198   1.850   0.202   1.535 -0.1022 -0.0754  0.6286
   78MPD1    H5 1199   1.851   0.294   1.579  0.9483 -0.0757  0.5966
   78MPD1    N1 1200   1.572   4.654   1.259 -0.3160 -0.2031 -0.4268
   78MPD1    H6 1201   1.661   4.608   1.238 -0.8476 -1.7260  0.7172
   78MPD1    H7 1202   1.490   4.594   1.256 -0.6830  0.3061 -0.5762
   79TCq2    C1 1203   1.969   0.159   1.476 -0.5897 -0.7486  0.3066
   79TCq2    O2 1204   1.996   0.078   1.385 -0.5712  0.3845 -0.4950
   79TCq2    C2 1205   2.086   0.231   1.516 -0.0946  0.2923 -0.1359
   79TCq2    C3 1206   2.085   0.309   1.631 -0.0382  0.1853  0.0412
   79TCq2    C4 1207   2.197   0.376   1.668 -0.4782 -0.0472  0.2051
   79TCq2    C5 1208   2.313   0.342   1.609 -0.6983 -0.0207  0.9164
   79TCq2    C6 1209   2.314   0.243   1.514 -0.7527  0.4543 -0.2958
   79TCq2    C7 1210   2.201   0.193   1.457 -0.3655 -0.2369 -0.7528
   79TCq2    C8 1211   2.449   0.205   1.452 -0.5693  0.1062  0.4476
   79TCq2    O4 1212   2.543   0.261   1.511 -0.5394 -0.1137  0.6287
   79TCq2    C9 1213   2.203   0.472   1.778 -1.3384  0.2856  0.1161
   79TCq2    O5 1214   2.313   0.534   1.795  0.0167 -0.0578 -0.5617
   79TCq2    O6 1215   2.102   0.483   1.856  0.3944  0.1113  0.3090
   79TCq2    H2 1216   2.000   0.344   1.689 -1.3031  0.1773 -1.7740
   79TCq2    H3 1217   2.407   0.376   1.652 -0.2671 -0.0869  0.0322
   79TCq2    H4 1218   2.203   0.133   1.367 -2.0545 -0.8629 -0.3751
   80MPD2     C 1219   4.597   3.506  12.292 -0.3035 -0.7858 -0.5670
   80MPD2    C1 1220   4.502   3.526  12.192  0.0937 -0.2695 -0.0281
   80MPD2    C2 1221   4.377   3.572  12.240  0.0086  0.3397 -0.4848
   80MPD2    C3 1222   4.345   3.586  12.371  0.3142 -0.7754  0.5729
   80MPD2    C4 1223   4.443   3.566  12.467 -0.1204  0.3751 -0.3599
   80MPD2    C5 1224   4.565   3.528  12.419  1.0604 -0.2117 -0.7682
   80MPD2     H 1225   4.302   3.588  12.162 -0.4499  1.0784  0.1125
   80MPD2    H1 1226   4.430   3.575  12.575  0.3722 -1.1545 -0.1695
   80MPD2    H2 1227   4.694   3.464  12.269  0.3963  0.6051 -0.1491
   80MPD2    H3 1228   4.636   3.505  12.497  0.1115 -0.5226  0.0072
   80MPD2     N 1229   4.216   3.634  12.415 -0.2401  0.1256 -0.2796
   80MPD2    H5 1230   4.192   3.615  12.512 -1.8614 -2.2152 -1.1365
   80MPD2    N1 1231   4.522   3.498  12.051 -0.2404  0.2026 -0.0980
   80MPD2    H7 1232   4.439   3.493  11.993 -1.0344 -1.2770  1.1362
   81TCq2    C1 1233   4.641   3.482  11.981 -0.1715  0.1903  0.4724
   81TCq2    O2 1234   0.027   3.494  12.030 -1.4963  0.0732  0.6964
   81TCq2    C2 1235   4.633   3.470  11.835 -0.0414  0.3671 -0.0329
   81TCq2    C3 1236   0.031   3.478  11.770 -0.3992  0.0361  0.6856
   81TCq2    C4 1237   0.034   3.450  11.636 -0.1432 -0.4094 -0.1322
   81TCq2    C5 1238   4.649   3.415  11.567  0.0195  0.4954  0.4011
   81TCq2    C6 1239   4.526   3.422  11.632  0.4229 -0.6476 -0.0178
   81TCq2    C7 1240   4.517   3.441  11.766  0.1199  0.8927  0.2131
   81TCq2    C8 1241   4.414   3.350  11.579 -0.4034  1.1593  0.2021
   81TCq2    O4 1242   4.413   3.332  11.460 -0.2216  0.1771 -0.6751
   81TCq2    C9 1243   0.156   3.454  11.557  0.1593  0.0552  0.3106
   81TCq2    O5 1244   0.158   3.383  11.456  0.3359  0.6947  0.3258
   81TCq2    O6 1245   0.259   3.509  11.606 -0.4457  0.3323  0.1390
   81TCq2    H2 1246   0.123   3.500  11.823  0.0929  2.2406 -1.0725
   81TCq2    H3 1247   4.651   3.397  11.460  2.7239 -0.2161  0.5641
   81TCq2    H4 1248   4.421   3.469  11.808  0.4419  1.9615  0.2202
   82MPD2     C 1249   2.312   2.603  10.862  0.3692 -0.2208  0.1453
   82MPD2    C1 1250   2.402   2.668  10.784  0.0668  0.2085  0.0059
   82MPD2    C2 1251   2.534   2.687  10.825  1.1803  0.1137 -0.4262
   82MPD2    C3 1252   2.576   2.645  10.956 -0.6475 -0.2807  0.1217
   82MPD2    C4 1253   2.480   2.582  11.032  0.3818 -0.6434  0.6979
   82MPD2    C5 1254   2.351   2.551  10.985  0.3967  0.0131  0.3604
   82MPD2     H 1255   2.614   2.723  10.761  0.2555  1.4149 -0.8430
   82MPD2    H1 1256   2.502   2.541  11.130  0.6754  0.2908  1.0271
   82MPD2    H2 1257   2.213   2.586  10.820  0.9075  0.0439 -1.2157
   82MPD2    H3 1258   2.285   2.497  11.052 -0.4890  1.4187  0.6402
   82MPD2     N 1259   2.702   2.643  11.016 -0.2116  0.0213  0.1618
   82MPD2    H5 1260   2.707   2.608  11.111 -1.7803  0.2183  0.3060
   82MPD2    N1 1261   2.359   2.715  10.659 -0.0641  0.3098  1.1271
   82MPD2    H7 1262   2.264   2.692  10.632  0.2040  0.0252  0.4126
   83TCq2    C1 1263   2.815   2.683  10.953 -0.4442 -0.1723 -0.1458
   83TCq2    O2 1264   2.837   2.740  10.846 -0.1159  0.0941  0.0164
   83TCq2    C2 1265   2.937   2.652  11.037 -0.2347 -0.3513  0.4266
   83TCq2    C3 1266   3.064   2.676  10.996  0.4278 -0.3238  0.1035
   83TCq2    C4 1267   3.172   2.625  11.061  0.0799 -0.1230 -0.4608
   83TCq2    C5 1268   3.155   2.550  11.175  0.0746 -0.0718 -0.0000
   83TCq2    C6 1269   3.026   2.539  11.223 -0.1822  0.1442 -0.2816
   83TCq2    C7 1270   2.921   2.592  11.159  0.0613 -0.0577  0.1643
   83TCq2    C8 1271   2.991   2.430  11.308  0.0078 -0.4571 -0.1762
   83TCq2    O4 1272   2.910   2.436  11.401  0.0719  0.0657  0.1160
   83TCq2    C9 1273   3.305   2.665  11.013 -0.1979 -0.3294 -0.1083
   83TCq2    O5 1274   3.307   2.733  10.905 -0.7080 -0.1236 -0.4235
   83TCq2    O6 1275   3.402   2.645  11.084  0.0625  0.1949  0.5213
   83TCq2    H2 1276   3.078   2.745  10.914 -1.2690 -0.6863 -0.5010
   83TCq2    H3 1277   3.241   2.510  11.227 -0.7297  0.7307  1.9460
   83TCq2    H4 1278   2.825   2.588  11.207  0.9883  1.2834  2.1040
   84TCq2    C1 1279   3.888   1.860  10.011 -0.1249  0.1010 -0.1912
   84TCq2    O2 1280   3.767   1.857  10.041 -0.1276  0.2347  0.1513
   84TCq2    C2 1281   3.969   1.949  10.094  0.1383  0.1481 -0.5856
   84TCq2    C3 1282   4.087   2.007  10.046 -0.2897  0.4053 -0.4614
   84TCq2    C4 1283   4.166   2.066  10.138 -0.2671 -0.0353 -0.0068
   84TCq2    C5 1284   4.141   2.073  10.277 -0.0524 -0.3319 -0.3915
   84TCq2    C6 1285   4.029   2.005  10.318 -0.2429 -0.0461  0.4292
   84TCq2    C7 1286   3.937   1.948  10.232  0.4573 -0.4677  0.6113
   84TCq2    C8 1287   3.988   2.040  10.453  0.2433  0.1612 -0.2620
   84TCq2    O4 1288   4.071   2.069  10.535 -0.5332 -0.0105  0.1741
   84TCq2    C9 1289   4.283   2.133  10.080 -0.2763  0.0709 -0.3685
   84TCq2    O5 1290   4.343   2.210  10.160  0.2255 -0.2640  0.0774
   84TCq2    O6 1291   4.325   2.113   9.964 -0.5934 -0.5414  0.0566
   84TCq2    H2 1292   4.105   2.009   9.939 -0.2467 -0.9313 -0.4824
   84TCq2    H3 1293   4.204   2.134  10.340 -0.1736  0.5164 -1.0968
   84TCq2    H4 1294   3.848   1.895  10.262  0.3720 -1.0614 -0.6994
   85MPD2     C 1295   0.123   4.566  16.225  1.0121  0.4473  0.7159
   85MPD2    C1 1296   0.045   4.538  16.108 -0.1027  0.1769 -0.4701
   85MPD2    C2 1297   0.002   4.636  16.030  0.6564 -0.3101  0.4124
   85MPD2    C3 1298   0.037   0.040  16.059  0.1710 -0.5913 -0.0709
   85MPD2    C4 1299   0.104   0.072  16.178 -0.7203 -0.6756  0.4548
   85MPD2    C5 1300   0.153   4.696  16.249 -0.2359 -0.1290 -0.4888
   85MPD2     H 1301   4.671   4.607  15.942 -0.5856 -0.3348  1.2282
   85MPD2    H1 1302   0.137   0.171  16.208  1.1182 -1.3030  0.5212
   85MPD2    H2 1303   0.153   4.494  16.300  0.6258 -0.7720 -0.3027
   85MPD2    H3 1304   0.215   4.720  16.334  0.6835 -1.1576 -0.8627
   85MPD2     N 1305   4.704   0.138  15.972  0.8302  0.1047  0.3020
   85MPD2    H5 1306   4.656   0.112  15.887 -2.5742  1.0598  1.9091
   85MPD2    N1 1307   4.720   4.408  16.089 -0.3295 -0.4078 -0.2366
   85MPD2    H7 1308   4.665   4.390  16.006 -2.7548  1.7167  0.8933
   86TCq2    C1 1309   4.699   0.267  16.012 -0.4064 -0.8074  0.2966
   86TCq2    O2 1310   4.725   0.323  16.115  0.9307  0.4708  0.0039
   86TCq2    C2 1311   4.653   0.360  15.905  0.3801  0.1144  0.2459
   86TCq2    C3 1312   4.617   0.493  15.932 -0.4860 -0.6351 -0.2101
   86TCq2    C4 1313   4.593   0.582  15.832 -0.1853 -0.5689 -0.8672
   86TCq2    C5 1314   4.619   0.551  15.706 -0.6053  0.2300 -0.8326
   86TCq2    C6 1315   4.668   0.428  15.681 -0.3250  0.6512  0.0278
   86TCq2    C7 1316   4.691   0.332  15.779  0.1026 -0.5327  0.0322
   86TCq2    C8 1317   4.698   0.382  15.550 -0.0732 -0.3292  0.4475
   86TCq2    O4 1318   0.059   0.296  15.538 -0.4485 -0.0450 -0.2307
   86TCq2    C9 1319   4.524   0.711  15.859  0.7022 -0.7953  0.6955
   86TCq2    O5 1320   4.539   0.800  15.768  0.2458 -0.6861 -0.2901
   86TCq2    O6 1321   4.490   0.735  15.977 -0.4552 -0.3379 -0.1666
   86TCq2    H2 1322   4.591   0.521  16.033  0.0652  0.8628 -0.4738
   86TCq2    H3 1323   4.601   0.620  15.625 -0.2433 -1.0331 -1.9742
   86TCq2    H4 1324   0.020   0.244  15.748 -1.5177 -0.5641 -2.7294
   87MPD2     C 1325   3.129   3.679   1.273 -0.1924  0.3066 -0.4223
   87MPD2    C1 1326   3.041   3.693   1.169 -0.4908 -0.0952 -1.1152
   87MPD2    C2 1327   2.972   3.816   1.160 -0.6184  0.2168  0.5932
   87MPD2    C3 1328   2.993   3.917   1.257 -0.2928  0.3838  0.6647
   87MPD2    C4 1329   3.100   3.902   1.349 -0.0786  0.3440 -0.4989
   87MPD2    C5 1330   3.169   3.783   1.348  0.0431  0.0142 -0.3052
   87MPD2     H 1331   2.903   3.829   1.077  0.1217 -0.4351 -0.1352
   87MPD2    H1 1332   3.121   3.978   1.424  0.3832 -0.6805  0.3983
   87MPD2    H2 1333   3.185   3.588   1.291  1.2404  0.7152 -2.7786
   87MPD2    H3 1334   3.244   3.771   1.425 -1.4332  2.8238  1.5414
   87MPD2     N 1335   2.917   4.035   1.250  0.8384 -0.0718 -1.0375
   87MPD2    H5 1336   2.843   4.047   1.182 -1.0021 -3.0930  0.4397
   87MPD2    N1 1337   3.012   3.583   1.076 -0.0198 -0.9028 -0.0579
   87MPD2    H7 1338   3.022   3.486   1.104  1.3863 -0.7672 -0.0807
   88TCq2    C1 1339   2.972   3.611   0.950 -1.2137  0.5690 -0.4767
   88TCq2    O2 1340   2.979   3.718   0.886 -0.0108  0.4161 -0.4909
   88TCq2    C2 1341   2.913   3.495   0.886 -0.2280 -0.3054 -0.0922
   88TCq2    C3 1342   2.862   3.395   0.961  0.4456  0.2786  0.4409
   88TCq2    C4 1343   2.806   3.283   0.899 -0.2008 -0.2907 -0.6071
   88TCq2    C5 1344   2.836   3.262   0.764  0.4489  0.2753 -0.0316
   88TCq2    C6 1345   2.895   3.361   0.691 -0.2448  0.3264 -0.0487
   88TCq2    C7 1346   2.929   3.485   0.749 -0.3189 -0.4937 -0.2250
   88TCq2    C8 1347   2.919   3.331   0.555 -0.5399 -0.3613 -0.1819
   88TCq2    O4 1348   3.002   3.398   0.497 -0.2426  0.0828 -0.3403
   88TCq2    C9 1349   2.732   3.187   0.981  0.0013 -0.4817  0.9240
   88TCq2    O5 1350   2.694   3.082   0.915  0.3016 -0.1057  0.2303
   88TCq2    O6 1351   2.692   3.222   1.099  0.5525 -0.0350  0.2871
   88TCq2    H2 1352   2.852   3.407   1.068 -0.9810  0.6817  0.2612
   88TCq2    H3 1353   2.800   3.167   0.726  1.4035 -0.5725  1.1556
   88TCq2    H4 1354   2.989   3.558   0.695 -1.4141 -0.0807 -0.8745
   89MPD2     C 1355   2.875   2.026   2.296 -0.2601 -0.2516 -0.8015
   89MPD2    C1 1356   2.856   1.990   2.164  0.2201 -0.0144 -0.0704
   89MPD2    C2 1357   2.961   1.945   2.088 -0.0072 -0.4096  0.4298
   89MPD2    C3 1358   3.089   1.954   2.133  0.2850 -0.3299 -0.4377
   89MPD2    C4 1359   3.118   2.002   2.260  0.1397 -1.1941 -0.3683
   89MPD2    C5 1360   3.007   2.035   2.343  0.1112 -0.1632  0.2807
   89MPD2     H 1361   2.939   1.908   1.988 -1.7221 -2.7800  1.6944
   89MPD2    H1 1362   3.217   2.024   2.297  1.1750  1.0658 -4.5003
   89MPD2    H2 1363   2.795   2.047   2.367 -0.5318  0.2603 -1.2518
   89MPD2    H3 1364   3.030   2.063   2.445  2.9307  0.1711 -0.4454
   89MPD2     N 1365   3.185   1.916   2.038  0.6488 -1.1095  0.5328
   89MPD2    H5 1366   3.150   1.905   1.944 -4.2313  0.1891  2.1815
   89MPD2    N1 1367   2.728   1.968   2.102  0.0500 -0.1195 -0.1917
   89MPD2    H7 1368   2.716   1.923   2.012 -1.1314  0.7568 -0.4654
   90TCq2    C1 1369   3.320   1.907   2.069 -0.9083  0.1535 -0.3638
   90TCq2    O2 1370   3.375   1.902   2.180  0.4032 -0.2084 -0.0775
   90TCq2    C2 1371   3.398   1.893   1.948 -0.2246 -0.3234 -0.4428
   90TCq2    C3 1372   3.536   1.885   1.974  0.1005 -0.1464 -0.4471
   90TCq2    C4 1373   3.614   1.899   1.863  0.2062  0.2761 -0.5558
   90TCq2    C5 1374   3.564   1.934   1.740 -0.3288 -0.4945  0.5289
   90TCq2    C6 1375   3.433   1.948   1.720 -0.2906 -1.2819  0.2067
   90TCq2    C7 1376   3.347   1.921   1.827  0.4692  0.7112  0.2407
   90TCq2    C8 1377   3.382   1.969   1.581  0.3856 -0.3908 -0.0060
   90TCq2    O4 1378   3.259   1.999   1.568  0.5345  0.3030 -0.2393
   90TCq2    C9 1379   3.757   1.887   1.881  0.3380  0.3987 -0.2243
   90TCq2    O5 1380   3.830   1.952   1.802 -0.5866 -0.0996 -0.1113
   90TCq2    O6 1381   3.800   1.850   1.992  0.1050 -0.8464 -0.1905
   90TCq2    H2 1382   3.569   1.868   2.075 -1.0094  1.9236  0.2740
   90TCq2    H3 1383   3.637   1.949   1.662  1.0175  1.6641  2.2421
   90TCq2    H4 1384   3.251   1.970   1.815  0.7259  0.9273 -0.8787
   91TMC2    C1 1385   0.254   1.078  16.511 -0.4724  0.7141  0.3948
   91TMC2    C2 1386   0.244   1.213  16.472  0.5814 -0.1217 -0.4849
   91TMC2    C3 1387   0.130   1.260  16.414  1.2257  0.3153 -0.6869
   91TMC2    C4 1388   0.138   1.003  16.510 -0.2751  0.2373  0.6069
   91TMC2    C5 1389   0.028   1.053  16.447  0.8491  0.7772 -0.2383
   91TMC2    C6 1390   0.024   1.179  16.402  0.2489  0.3323  0.4049
   91TMC2     C 1391   0.369   1.001  16.494 -0.0565 -0.7580  0.1550
   91TMC2     O 1392   0.350   0.884  16.521 -0.6748  0.2239 -0.4801
   91TMC2     H 1393   0.326   1.283  16.476  0.5187  0.0195 -1.8941
   91TMC2    H1 1394   0.130   0.897  16.531 -3.0860  0.1657 -0.8005
   91TMC2    H2 1395   4.656   1.231  16.386  0.3479  0.4797  0.3004
   91TMC2    C7 1396   4.631   0.966  16.441  0.0846 -0.1273 -0.1483
   91TMC2    C8 1397   0.141   1.384  16.338  0.0251 -0.8378  0.5438
   91TMC2    O1 1398   4.634   0.860  16.498 -0.7943 -0.0752  0.1541
   91TMC2    O2 1399   0.186   1.383  16.222 -0.4580  0.0045  0.3785
   91TMC2    O5 1400   0.026   1.455  16.367  0.1247  0.4024 -0.3816
   91TMC2    H5 1401   4.709   1.429  16.452 -1.7839 -0.8863 -1.7230
   92MPD2     C 1402   0.637   0.863  16.454  0.4114  0.2628 -0.7055
   92MPD2    C1 1403   0.606   0.998  16.427  0.6056 -0.1546 -0.0131
   92MPD2    C2 1404   0.711   1.080  16.392  0.4365 -0.3810  0.3568
   92MPD2    C3 1405   0.840   1.037  16.389  0.3405 -0.0011  0.3735
   92MPD2    C4 1406   0.858   0.901  16.413 -0.2665 -0.2725  0.0407
   92MPD2    C5 1407   0.762   0.814  16.448 -1.4756 -0.0589 -0.2872
   92MPD2     H 1408   0.701   1.187  16.375 -0.9887 -0.7900 -1.3289
   92MPD2    H1 1409   0.963   0.872  16.409  0.8222  3.3287  2.3458
   92MPD2    H2 1410   0.548   0.800  16.459  2.2828 -2.3719 -0.5878
   92MPD2    H3 1411   0.787   0.710  16.469 -1.3646 -0.1479 -0.8682
   92MPD2     N 1412   0.937   1.133  16.368  0.5957 -0.3122  0.3694
   92MPD2    H5 1413   0.905   1.228  16.352 -1.6674 -0.9349  1.3429
   92MPD2    N1 1414   0.478   1.060  16.444 -0.3585  0.4946 -0.6269
   92MPD2    H7 1415   0.476   1.159  16.423 -2.1376  0.8981  1.4691
   93MPD2     C 1416   1.569   0.468  13.512  0.7748 -0.2968  0.4196
   93MPD2    C1 1417   1.535   0.605  13.499 -0.8290 -0.3205  0.5117
   93MPD2    C2 1418   1.402   0.638  13.501  0.0646  0.1204  0.1904
   93MPD2    C3 1419   1.305   0.537  13.522 -0.2251 -0.2584  0.4033
   93MPD2    C4 1420   1.346   0.405  13.540 -0.3747 -0.1158  0.7077
   93MPD2    C5 1421   1.480   0.371  13.536 -0.3596  0.2823 -0.4162
   93MPD2     H 1422   1.368   0.741  13.495  2.2379  0.9149  1.7106
   93MPD2    H1 1423   1.280   0.320  13.558  0.0086 -0.5853 -0.1212
   93MPD2    H2 1424   1.673   0.437  13.521  0.5116 -1.4546 -0.6383
   93MPD2    H3 1425   1.526   0.276  13.558  0.9283  0.7188 -1.2286
   93MPD2     N 1426   1.162   0.560  13.523  0.0433 -0.0340 -0.2557
   93MPD2    H5 1427   1.096   0.485  13.542 -0.5546  0.2540 -1.2431
   93MPD2    N1 1428   1.624   0.712  13.490  0.2530 -0.3246  0.2667
   93MPD2    H7 1429   1.585   0.806  13.488  0.0299 -0.4086  0.6382
   94TCq2    C1 1430   1.762   0.711  13.502 -0.1323  0.1058  0.3697
   94TCq2    O2 1431   1.827   0.611  13.485  0.1033 -0.0429  0.4239
   94TCq2    C2 1432   1.822   0.842  13.527  0.2332  0.5183 -0.5242
   94TCq2    C3 1433   1.744   0.942  13.573  0.2746  0.1906 -0.3560
   94TCq2    C4 1434   1.805   1.039  13.648 -0.2045  0.2204 -0.4471
   94TCq2    C5 1435   1.942   1.059  13.641 -0.2359  0.0237  0.2349
   94TCq2    C6 1436   2.018   0.965  13.568 -0.3390 -0.1554 -0.0520
   94TCq2    C7 1437   1.963   0.846  13.523  0.0513 -0.5469 -0.3445
   94TCq2    C8 1438   2.168   0.980  13.568 -0.4072 -0.1408 -0.0966
   94TCq2    O4 1439   2.243   0.898  13.514  0.4244  0.2050  0.1647
   94TCq2    C9 1440   1.724   1.134  13.721  0.1709 -0.1049 -0.2120
   94TCq2    O5 1441   1.599   1.112  13.721 -0.2099  0.1928  0.1202
   94TCq2    O6 1442   1.779   1.223  13.793 -0.3734  0.1924 -0.5538
   94TCq2    H2 1443   1.636   0.931  13.581  0.3216 -0.1425 -0.1674
   94TCq2    H3 1444   1.985   1.141  13.696 -0.1240  0.0585  0.0965
   94TCq2    H4 1445   2.020   0.760  13.489  0.8093  0.4584 -1.6119
   95TMC2    C1 1446   1.904   2.522  16.034 -0.2653 -0.2006  0.8479
   95TMC2    C2 1447   1.929   2.423  16.130  0.4083  0.4712 -0.5525
   95TMC2    C3 1448   1.876   2.453  16.252 -0.1357  0.4811 -0.4158
   95TMC2    C4 1449   1.823   2.630  16.060  0.2954 -0.5078 -0.5639
   95TMC2    C5 1450   1.770   2.654  16.181 -0.6999  0.4103  0.4607
   95TMC2    C6 1451   1.804   2.565  16.283 -0.1037 -0.2904  0.5973
   95TMC2     C 1452   1.995   2.527  15.919 -0.1972  0.1618 -0.8484
   95TMC2     O 1453   1.991   2.634  15.858  0.4970 -0.0181 -0.2559
   95TMC2     H 1454   1.963   2.323  16.107 -0.8791 -0.2632  0.7592
   95TMC2    H1 1455   1.791   2.700  15.984 -0.0194 -0.9927 -0.8800
   95TMC2    H2 1456   1.766   2.581  16.384  3.3078 -0.4524  1.9186
   95TMC2    C7 1457   1.750   2.798  16.213  0.0859  0.2185  0.0264
   95TMC2    C8 1458   1.925   2.369  16.361  0.6893  0.3227 -0.3180
   95TMC2    O1 1459   1.767   2.870  16.119 -0.2751  0.2275  0.1814
   95TMC2    O2 1460   2.033   2.314  16.354 -0.6767  0.3792  0.6708
   95TMC2    O5 1461   1.836   2.338  16.452  0.0068 -0.0766  0.1112
   95TMC2    H5 1462   1.747   2.363  16.422  0.3266 -0.6353 -1.2813
   96MPD2     C 1463   2.328   2.345  15.571  0.1869  0.2267 -0.7113
   96MPD2    C1 1464   2.291   2.474  15.595 -0.6187 -0.7089 -0.4006
   96MPD2    C2 1465   2.203   2.495  15.703  0.2012  0.7133  0.5468
   96MPD2    C3 1466   2.161   2.392  15.786 -0.1156 -0.2868  0.2480
   96MPD2    C4 1467   2.215   2.267  15.772 -0.2461  0.0563 -0.0684
   96MPD2    C5 1468   2.295   2.246  15.661 -0.6443 -0.4763  0.5975
   96MPD2     H 1469   2.168   2.596  15.722  2.5828  1.5694  0.4034
   96MPD2    H1 1470   2.187   2.187  15.839 -1.3076  0.6154  0.1632
   96MPD2    H2 1471   2.390   2.315  15.486  1.1613  1.3127 -0.3819
   96MPD2    H3 1472   2.328   2.145  15.641  1.4544  0.0849  1.2449
   96MPD2     N 1473   2.071   2.411  15.895  0.2647  0.0043 -0.2701
   96MPD2    H5 1474   2.063   2.335  15.962  1.5051  1.2472  1.2897
   96MPD2    N1 1475   2.340   2.590  15.534 -0.2587 -0.5253  0.6016
   96MPD2    H7 1476   2.315   2.682  15.568 -1.0644 -0.0526 -1.2553
   97MPD2     C 1477   4.707   0.304   1.003  0.1223  0.2595  0.3983
   97MPD2    C1 1478   4.602   0.396   0.997 -0.4227  0.1444 -0.1530
   97MPD2    C2 1479   4.538   0.434   0.879  0.1394  1.0362 -0.9026
   97MPD2    C3 1480   4.578   0.378   0.758  0.0380  0.3001  0.5516
   97MPD2    C4 1481   4.679   0.279   0.764  0.3696  0.8736 -0.4152
   97MPD2    C5 1482   0.008   0.239   0.884  0.3023 -0.1265  0.2272
   97MPD2     H 1483   4.457   0.506   0.887  0.3779  1.2222 -0.1541
   97MPD2    H1 1484   4.716   0.231   0.674  0.7319  1.5009 -0.5996
   97MPD2    H2 1485   0.029   0.273   1.096 -0.7632 -0.1183  0.7335
   97MPD2    H3 1486   0.078   0.158   0.894  0.8775  0.3559  0.0790
   97MPD2     N 1487   4.517   0.417   0.634  0.2103 -0.7592  0.4076
   97MPD2    H5 1488   4.548   0.364   0.553  0.5838 -0.3410  0.2810
   97MPD2    N1 1489   4.559   0.437   1.124  0.2102 -0.0309 -0.8206
   97MPD2    H7 1490   4.621   0.415   1.201  2.6387  1.0531 -2.4760
   98TCq2    C1 1491   4.430   0.522   0.612  0.4501  0.8985 -0.3130
   98TCq2    O2 1492   4.386   0.602   0.696  0.8998  0.1144 -0.0869
   98TCq2    C2 1493   4.389   0.529   0.469  0.0706 -0.4352 -0.2593
   98TCq2    C3 1494   4.363   0.410   0.402 -0.3072  1.2919  0.7555
   98TCq2    C4 1495   4.352   0.423   0.268 -0.2479  0.2414  0.2400
   98TCq2    C5 1496   4.375   0.538   0.199 -0.6657 -0.1567 -0.5486
   98TCq2    C6 1497   4.389   0.656   0.272 -0.1258 -0.9226  0.4594
   98TCq2    C7 1498   4.399   0.650   0.410 -0.1568 -0.0813  0.5010
   98TCq2    C8 1499   4.464   0.773   0.217  0.0083 -0.1325  0.2531
   98TCq2    O4 1500   4.526   0.848   0.298 -0.3717  0.3598  0.1899
   98TCq2    C9 1501   4.319   0.300   0.202  0.5186  0.7294 -0.2542
   98TCq2    O5 1502   4.333   0.193   0.271 -0.0845  0.9899  0.4291
   98TCq2    O6 1503   4.262   0.309   0.091 -0.2070 -0.7973  0.2507
   98TCq2    H2 1504   4.366   0.314   0.453 -0.5813  0.8785 -0.0205
   98TCq2    H3 1505   4.371   0.546   0.091  1.6791 -2.0226 -0.7844
   98TCq2    H4 1506   4.422   0.739   0.467  1.0636 -0.1525  0.1109
   99MPD2     C 1507   2.922   3.188   1.794  0.2442 -0.9522 -0.0027
   99MPD2    C1 1508   2.801   3.194   1.721  0.6753 -0.1982 -0.4770
   99MPD2    C2 1509   2.774   3.096   1.626  0.0248 -0.0394 -0.6603
   99MPD2    C3 1510   2.861   2.995   1.603  0.1282  0.3356  0.2020
   99MPD2    C4 1511   2.982   3.001   1.671 -0.4536  0.0036  0.3028
   99MPD2    C5 1512   3.015   3.095   1.764 -0.0275 -0.0250 -0.4546
   99MPD2     H 1513   2.687   3.095   1.562 -1.4080  0.7022  1.2782
   99MPD2    H1 1514   3.054   2.921   1.663 -1.1907 -0.7947  1.5688
   99MPD2    H2 1515   2.943   3.256   1.876  1.2524 -1.1669 -0.0882
   99MPD2    H3 1516   3.105   3.091   1.823 -1.7124 -1.2446  2.0469
   99MPD2     N 1517   2.830   2.901   1.505 -0.3515  0.3929 -0.3173
   99MPD2    H5 1518   2.740   2.907   1.458  0.2427  0.3284 -1.4611
   99MPD2    N1 1519   2.701   3.296   1.727  0.9353  0.1982 -0.2627
   99MPD2    H7 1520   2.624   3.302   1.661 -0.8135 -0.6372  1.7187
  100TCq2    C1 1521   2.716   3.405   1.803 -0.1784 -0.1286  0.0376
  100TCq2    O2 1522   2.798   3.427   1.890 -0.2199  0.1699 -0.5917
  100TCq2    C2 1523   2.620   3.514   1.760 -0.1038 -0.5795 -0.0989
  100TCq2    C3 1524   2.650   3.643   1.795  0.4631  0.0924 -0.1868
  100TCq2    C4 1525   2.570   3.737   1.767 -0.1983 -0.3575 -0.1007
  100TCq2    C5 1526   2.448   3.717   1.702  0.4895 -0.5939  0.5499
  100TCq2    C6 1527   2.407   3.589   1.699 -0.5227 -0.6093 -0.0387
  100TCq2    C7 1528   2.490   3.483   1.728  0.4720 -0.6657 -0.3849
  100TCq2    C8 1529   2.280   3.566   1.635  0.1815 -0.1024  0.4652
  100TCq2    O4 1530   2.205   3.657   1.620 -0.4749  0.5470  0.3117
  100TCq2    C9 1531   2.615   3.870   1.793  0.5893 -0.1391  0.2502
  100TCq2    O5 1532   2.738   3.895   1.810 -0.9851 -0.5412  0.5817
  100TCq2    O6 1533   2.522   3.952   1.820 -0.1607 -0.2741  0.2453
  100TCq2    H2 1534   2.744   3.671   1.842 -0.2632 -2.3598  2.7535
  100TCq2    H3 1535   2.390   3.802   1.669 -0.2562 -0.5564  1.9526
  100TCq2    H4 1536   2.457   3.380   1.729  0.1717 -0.5582  0.7424
  101MPD2     C 1537   3.120   3.584  12.950 -0.7788 -0.3152 -0.2500
  101MPD2    C1 1538   2.991   3.628  12.957  0.1413  0.1040 -0.5198
  101MPD2    C2 1539   2.912   3.568  13.048  0.0042  0.5691  0.1904
  101MPD2    C3 1540   2.957   3.468  13.129 -0.1304 -0.6466 -0.8415
  101MPD2    C4 1541   3.089   3.419  13.120 -0.1077  0.0064  0.3188
  101MPD2    C5 1542   3.176   3.487  13.032 -0.1254 -0.4049  0.3361
  101MPD2     H 1543   2.809   3.598  13.064 -0.1983  0.2616 -0.5671
  101MPD2    H1 1544   3.138   3.347  13.185  0.7332  0.0846 -0.2326
  101MPD2    H2 1545   3.200   3.634  12.896 -0.1618  1.0356  1.8912
  101MPD2    H3 1546   3.280   3.458  13.022 -0.0586 -0.3367  0.8478
  101MPD2     N 1547   2.867   3.400  13.221 -0.1503 -0.4882 -0.2993
  101MPD2    H5 1548   2.779   3.444  13.248  0.2216 -0.3508  0.6998
  101MPD2    N1 1549   2.955   3.747  12.885 -0.7352  0.0641 -0.0834
  101MPD2    H7 1550   3.020   3.794  12.823 -0.5623  0.6521  0.5545
  102TCq2    C1 1551   3.036   3.950  12.470 -0.0735  0.0669  0.8316
  102TCq2    O2 1552   3.142   3.954  12.527  0.3224 -0.2598 -0.0851
  102TCq2    C2 1553   2.918   3.897  12.545  0.0758  0.8488  0.2115
  102TCq2    C3 1554   2.805   3.858  12.479 -0.1910  0.5367 -0.4923
  102TCq2    C4 1555   2.692   3.829  12.550  0.2649  0.1294 -0.1006
  102TCq2    C5 1556   2.695   3.843  12.685  0.2977 -0.5181 -0.1980
  102TCq2    C6 1557   2.812   3.869  12.753  0.0793  0.1602 -0.3175
  102TCq2    C7 1558   2.927   3.898  12.679 -0.1771  0.8078 -0.1446
  102TCq2    C8 1559   2.820   3.780  12.865  0.0873  0.0576 -0.2212
  102TCq2    O4 1560   2.718   3.734  12.917  0.0159  0.4225  0.6322
  102TCq2    C9 1561   2.573   3.788  12.480 -0.6126  0.1795 -0.2005
  102TCq2    O5 1562   2.579   3.779  12.355  0.3346 -0.0643  0.2490
  102TCq2    O6 1563   2.478   3.742  12.555  0.5237 -0.1505  0.1609
  102TCq2    H2 1564   2.812   3.829  12.375  1.4677 -0.5730 -0.0791
  102TCq2    H3 1565   2.609   3.816  12.745  0.2526 -1.6968 -0.7850
  102TCq2    H4 1566   3.012   3.936  12.734  0.4609 -0.4605 -0.2356
  103TMC2    C1 1567   1.441   4.114  12.158  0.2473  0.2911  0.4181
  103TMC2    C2 1568   1.565   4.101  12.130  0.2216 -0.5214 -0.1074
  103TMC2    C3 1569   1.649   4.043  12.224 -0.4381  0.1331 -0.0875
  103TMC2    C4 1570   1.374   4.029  12.248 -0.0768  0.5218  0.4379
  103TMC2    C5 1571   1.457   3.966  12.336  0.1098  0.0035  0.1492
  103TMC2    C6 1572   1.596   3.969  12.326  0.5260 -0.0645 -0.3919
  103TMC2     C 1573   1.364   4.177  12.054 -0.0874  0.0011 -0.8370
  103TMC2     O 1574   1.418   4.264  11.986 -0.3719 -0.7712  0.0876
  103TMC2     H 1575   1.609   4.164  12.053  1.8809 -2.0472 -0.4036
  103TMC2    H1 1576   1.271   4.039  12.278 -0.4791  0.8755 -1.0463
  103TMC2    H2 1577   1.665   3.936  12.403  0.4578 -0.0304 -0.3161
  103TMC2    C7 1578   1.400   3.897  12.449 -0.4031 -0.6866  0.9465
  103TMC2    C8 1579   1.789   4.099  12.228  0.0499  0.4522 -0.4115
  103TMC2    O1 1580   1.280   3.878  12.452  0.5673  0.6294 -0.1779
  103TMC2    O2 1581   1.840   4.114  12.119  0.1749 -0.0215 -0.1927
  103TMC2    O5 1582   1.847   4.071  12.351 -0.2585 -0.5563 -0.5480
  103TMC2    H5 1583   1.784   4.067  12.426 -2.1419  2.0600 -2.0125
  104MPD2     C 1584   1.125   4.292  11.897  0.9016 -0.2208  0.3468
  104MPD2    C1 1585   1.118   4.184  11.985 -0.1983 -0.4921  0.5690
  104MPD2    C2 1586   0.992   4.133  12.003  0.1653  0.0496  0.2488
  104MPD2    C3 1587   0.874   4.181  11.948  0.2023 -0.6908 -0.0893
  104MPD2    C4 1588   0.890   4.281  11.850  0.8290  0.4580  0.9460
  104MPD2    C5 1589   1.015   4.336  11.827  0.0936  0.6171  0.2540
  104MPD2     H 1590   0.980   4.053  12.075 -0.5687 -0.2252 -0.1683
  104MPD2    H1 1591   0.805   4.320  11.795  0.8765  0.3908  0.8256
  104MPD2    H2 1592   1.218   4.343  11.876  0.8518 -0.7599 -1.1894
  104MPD2    H3 1593   1.024   4.413  11.751 -2.6687  0.5171 -0.1761
  104MPD2     N 1594   0.756   4.131  11.982 -0.2284  0.3129 -0.1691
  104MPD2    H5 1595   0.759   4.064  12.058  2.1372  0.2480 -0.3249
  104MPD2    N1 1596   1.233   4.132  12.055 -0.0337 -0.0442 -0.5845
  104MPD2    H7 1597   1.208   4.053  12.113 -0.4886 -0.5302 -1.4386
  105MPD2     C 1598   3.682   2.936  16.971 -0.5060 -0.5286  0.5195
  105MPD2    C1 1599   3.609   3.053  17.008 -0.1175  0.1408 -0.8729
  105MPD2    C2 1600   3.574   3.073  17.141 -0.1070 -0.2451 -0.8114
  105MPD2    C3 1601   3.607   2.980  17.234 -0.3141  0.5157 -0.1753
  105MPD2    C4 1602   3.683   2.866  17.199  0.0557 -0.3076  0.5429
  105MPD2    C5 1603   3.701   2.840  17.062  0.4344 -0.0567  1.2013
  105MPD2     H 1604   3.514   3.156  17.176 -0.7805 -1.5315  1.0697
  105MPD2    H1 1605   3.716   2.797  17.275 -1.0881 -0.8439  0.5525
  105MPD2    H2 1606   3.687   2.908  16.867 -1.6283  0.3312  0.2346
  105MPD2    H3 1607   3.760   2.752  17.040 -2.5939 -2.2812  2.0375
  105MPD2     N 1608   3.578   3.023  17.371 -0.1329 -0.3564  0.6800
  105MPD2    H5 1609   3.532   3.113  17.380  1.5675  0.7258 -1.3302
  105MPD2    N1 1610   3.558   3.147  16.917  0.2485  0.2632 -0.0269
  105MPD2    H7 1611   3.504   3.218  16.967 -0.8555 -1.2107  0.8683
  106TCq2    C1 1612   3.593   2.937  17.481 -0.3855 -0.8135 -0.0091
  106TCq2    O2 1613   3.635   2.823  17.500  0.5289  0.3540 -0.0118
  106TCq2    C2 1614   3.548   3.009  17.599  0.3236 -0.0012 -0.6461
  106TCq2    C3 1615   3.591   3.140  17.617 -0.1301  0.3064 -0.6976
  106TCq2    C4 1616   3.521   3.225  17.690 -0.3228 -0.5579 -0.1210
  106TCq2    C5 1617   3.400   3.198   0.040 -0.6692  0.0515 -0.5066
  106TCq2    C6 1618   3.350   3.075   0.009  0.1052 -0.1798 -0.1952
  106TCq2    C7 1619   3.416   2.986  17.631  0.7652  0.5131  0.4470
  106TCq2    C8 1620   3.218   3.027   0.053 -0.4667  0.2759 -0.5141
  106TCq2    O4 1621   3.161   2.943  17.684 -0.5944  0.0693 -0.4139
  106TCq2    C9 1622   3.573   3.360   0.004 -0.0936 -0.7156  0.6254
  106TCq2    O5 1623   3.507   3.438   0.079  0.5427  0.3983  0.1660
  106TCq2    O6 1624   3.674   3.387  17.639  0.1688  0.4852 -0.0346
  106TCq2    H2 1625   3.687   3.166  17.575  0.5394 -1.2359 -0.1140
  106TCq2    H3 1626   3.346   3.279   0.089 -0.4228  0.0523 -0.2361
  106TCq2    H4 1627   3.370   2.893  17.599  0.3645  1.0931 -0.6683
  107TMC2    C1 1628   3.813   2.152  11.404 -0.1290 -0.4804 -0.3743
  107TMC2    C2 1629   3.911   2.059  11.430 -0.2656  0.1326  0.5419
  107TMC2    C3 1630   3.946   1.981  11.328  0.2656  0.0155 -0.0475
  107TMC2    C4 1631   3.762   2.169  11.275  0.6264  0.9892 -0.0532
  107TMC2    C5 1632   3.792   2.075  11.184 -0.3718  0.4869  0.2203
  107TMC2    C6 1633   3.873   1.974  11.209 -0.2332  0.8996  0.6478
  107TMC2     C 1634   3.763   2.246  11.517  0.0715 -0.3817 -0.1099
  107TMC2     O 1635   3.777   2.208  11.632 -0.1339 -0.2566 -0.3428
  107TMC2     H 1636   3.959   2.050  11.527  0.5770 -1.4761 -0.0181
  107TMC2    H1 1637   3.681   2.237  11.253 -2.1090 -1.3472  2.7870
  107TMC2    H2 1638   3.899   1.896  11.138  1.0436 -0.1754  2.2658
  107TMC2    C7 1639   3.708   2.074  11.066 -0.4936  0.4123  0.0539
  107TMC2    C8 1640   4.034   1.876  11.339 -0.0493  0.4782  0.3104
  107TMC2    O1 1641   3.592   2.101  11.093  0.4224 -0.1641 -0.4891
  107TMC2    O2 1642   4.065   1.825  11.445 -0.2167  0.1019 -0.1402
  107TMC2    O5 1643   4.107   1.860  11.225 -0.4713  0.0950  0.1040
  107TMC2    H5 1644   4.076   1.900  11.141  1.0108  2.5708  0.7415
  108MPD2     C 1645   3.578   2.557  11.496  0.0880  0.2833  0.1882
  108MPD2    C1 1646   3.616   2.434  11.548 -0.0534  0.0462 -0.2818
  108MPD2    C2 1647   3.561   2.389  11.661 -0.1665  0.2642 -0.0553
  108MPD2    C3 1648   3.467   2.469  11.736 -0.2548  0.9369  0.3713
  108MPD2    C4 1649   3.435   2.592  11.684  0.5380  0.5350  0.2546
  108MPD2    C5 1650   3.486   2.633  11.562 -0.1217  0.4418 -0.4228
  108MPD2     H 1651   3.588   2.295  11.706 -3.2290 -0.6748 -0.1930
  108MPD2    H1 1652   3.378   2.662  11.744  2.1173  2.3768 -0.4188
  108MPD2    H2 1653   3.615   2.589  11.400 -3.1519 -0.4516 -1.3085
  108MPD2    H3 1654   3.453   2.725  11.515 -2.4773 -0.8694 -1.3771
  108MPD2     N 1655   3.411   2.443  11.862  0.1973  0.6075 -0.3702
  108MPD2    H5 1656   3.340   2.506  11.897  0.2842  1.2878 -1.4218
  108MPD2    N1 1657   3.708   2.361  11.469  0.4291  0.5479  0.2787
  108MPD2    H7 1658   3.734   2.405  11.381  2.0874  0.6591  0.8272
  109MPD2     C 1659   3.280   4.607   1.974 -0.3109  0.3480 -0.3369
  109MPD2    C1 1660   3.369   4.671   1.887  0.2870  0.1092  0.0283
  109MPD2    C2 1661   3.506   4.665   1.924 -0.1994 -0.1989  0.3447
  109MPD2    C3 1662   3.552   4.604   2.039 -0.1167  0.5730  0.2792
  109MPD2    C4 1663   3.459   4.543   2.115 -0.0636 -0.2370 -0.3460
  109MPD2    C5 1664   3.324   4.537   2.079 -0.6158 -0.5050  0.0238
  109MPD2     H 1665   3.574   4.720   1.860 -0.2692  1.0523  1.3405
  109MPD2    H1 1666   3.482   4.490   2.207  0.8663 -0.3464 -0.6376
  109MPD2    H2 1667   3.172   4.609   1.962 -0.3090 -0.3021 -0.4563
  109MPD2    H3 1668   3.256   4.474   2.135  1.3351 -4.3056 -1.7806
  109MPD2     N 1669   3.687   4.615   2.070 -0.5117  0.7008  0.4701
  109MPD2    H5 1670   3.746   4.666   2.005 -2.2642  0.6212 -1.1834
  109MPD2    N1 1671   3.320   0.010   1.768  0.2672  0.7726 -0.5607
  109MPD2    H7 1672   3.221   4.717   1.752 -0.1199  0.5455  2.2091
  110TCq2    C1 1673   3.744   4.566   2.187  0.3579  0.6234 -0.3001
  110TCq2    O2 1674   3.701   4.497   2.278  0.2715  0.2278 -0.2058
  110TCq2    C2 1675   3.884   4.600   2.192 -0.1175 -0.3296  0.5647
  110TCq2    C3 1676   3.949   4.595   2.310 -0.1059 -0.3888 -0.3462
  110TCq2    C4 1677   4.072   4.654   2.320 -0.5593 -0.3814 -0.3595
  110TCq2    C5 1678   4.131   4.705   2.211  0.2471  0.8589  0.6224
  110TCq2    C6 1679   4.067   4.693   2.087  0.3462  0.2478  0.1384
  110TCq2    C7 1680   3.946   4.646   2.080 -0.0320 -0.7110  0.4880
  110TCq2    C8 1681   4.126   0.022   1.968 -0.8891 -0.0829  0.5955
  110TCq2    O4 1682   4.209   0.111   1.982  0.1784 -0.5777 -0.2002
  110TCq2    C9 1683   4.140   4.654   2.448 -0.2364 -0.0552  0.1223
  110TCq2    O5 1684   4.075   4.607   2.543  0.4775 -0.0429  0.7896
  110TCq2    O6 1685   4.244   0.000   2.461 -0.1532 -0.3405 -0.5469
  110TCq2    H2 1686   3.898   4.558   2.398 -2.2524 -0.5223 -1.6456
  110TCq2    H3 1687   4.232   0.017   2.222  0.1390  0.9792  1.2003
  110TCq2    H4 1688   3.913   4.648   1.977 -0.2454 -0.5459  0.5610
  111TMC2    C1 1689   3.631   4.188  11.089  0.6029  0.3674  0.0328
  111TMC2    C2 1690   3.723   4.207  10.989 -0.0744  0.3401  0.1999
  111TMC2    C3 1691   3.852   4.190  11.028  0.2187 -0.2225 -0.4877
  111TMC2    C4 1692   3.665   4.175  11.218 -0.4084 -0.4651 -0.3358
  111TMC2    C5 1693   3.795   4.153  11.252 -0.2610  0.3716  0.5330
  111TMC2    C6 1694   3.896   4.163  11.158 -0.2426 -0.0238  0.6218
  111TMC2     C 1695   3.499   4.236  11.058  0.5856 -0.1262  0.4330
  111TMC2     O 1696   3.457   4.235  10.944  0.3131 -0.1334  0.5298
  111TMC2     H 1697   3.697   4.251  10.894  1.5102  1.3423  0.2320
  111TMC2    H1 1698   3.590   4.149  11.293  0.9558  0.5753  1.3871
  111TMC2    H2 1699   4.001   4.161  11.184  0.2137 -0.5995 -1.3133
  111TMC2    C7 1700   3.831   4.118  11.380 -0.2849  0.3759 -0.4646
  111TMC2    C8 1701   3.954   4.245  10.938 -0.1600  0.0023 -0.1304
  111TMC2    O1 1702   3.744   4.132  11.466 -1.0965 -0.0333 -0.0363
  111TMC2    O2 1703   3.926   4.324  10.853  0.1897  0.0313 -0.6960
  111TMC2    O5 1704   4.029   4.135  10.924 -0.6398 -0.1934 -0.1151
  111TMC2    H5 1705   4.011   4.070  10.996 -1.8616 -0.3525 -0.5720
  112MPD2     C 1706   3.073   4.453  11.232  0.1239 -0.6362  0.8488
  112MPD2    C1 1707   3.098   4.402  11.103 -0.3816 -0.0307 -0.4562
  112MPD2    C2 1708   3.218   4.338  11.080 -0.0684 -0.1066  0.4191
  112MPD2    C3 1709   3.307   4.331  11.184 -0.1073 -0.0635 -0.4679
  112MPD2    C4 1710   3.280   4.393  11.308  0.5244 -0.2502  0.2245
  112MPD2    C5 1711   3.161   4.450  11.330  0.0729 -0.6835  0.7775
  112MPD2     H 1712   3.245   4.307  10.980  2.9025 -1.5789  1.6995
  112MPD2    H1 1713   3.349   4.398  11.392 -0.5822  2.2846  0.9683
  112MPD2    H2 1714   2.975   4.489  11.262  0.0805  1.1681 -1.4329
  112MPD2    H3 1715   3.147   4.510  11.420 -2.9123 -2.1031  1.2712
  112MPD2     N 1716   3.439   4.280  11.177 -0.1407  0.6928  0.0536
  112MPD2    H5 1717   3.504   4.294  11.254 -0.7051 -2.2908  1.0871
  112MPD2    N1 1718   3.011   4.413  10.985  0.0790 -0.7191 -0.1826
  112MPD2    H7 1719   3.054   4.384  10.898  1.4705  3.3019 -0.8222
  113MPD2     C 1720   1.573   3.145   1.289 -0.1361 -0.5835  1.1940
  113MPD2    C1 1721   1.707   3.184   1.278 -0.1998 -0.8044 -0.0876
  113MPD2    C2 1722   1.801   3.085   1.238 -0.4528  0.2234 -0.1743
  113MPD2    C3 1723   1.758   2.957   1.205  0.1441  0.6624 -0.8330
  113MPD2    C4 1724   1.624   2.927   1.204 -0.5614 -0.1052  0.6010
  113MPD2    C5 1725   1.537   3.020   1.246  0.0503 -0.2633 -0.1319
  113MPD2     H 1726   1.908   3.102   1.247 -0.2622 -0.1265 -1.7537
  113MPD2    H1 1727   1.592   2.830   1.168  0.0108  0.1578 -0.6182
  113MPD2    H2 1728   1.497   3.211   1.329  0.2449  0.9511 -0.6610
  113MPD2    H3 1729   1.432   2.998   1.262  0.6501 -2.0371  1.3267
  113MPD2     N 1730   1.844   2.852   1.156  0.0329  0.8230  0.1997
  113MPD2    H5 1731   1.800   2.762   1.142 -0.5278  1.2685 -0.8913
  113MPD2    N1 1732   1.750   3.319   1.309  0.1317 -0.0377  0.5253
  113MPD2    H7 1733   1.679   3.386   1.337 -0.6388 -0.2693 -0.8774
  114TCq2    C1 1734   1.963   2.874   1.092 -0.5821  0.4386  0.5583
  114TCq2    O2 1735   2.020   2.982   1.086 -0.1729  0.1571 -0.1800
  114TCq2    C2 1736   2.033   2.757   1.043  0.1002  0.2910  0.3474
  114TCq2    C3 1737   2.150   2.774   0.975  0.0578 -0.0187 -0.5982
  114TCq2    C4 1738   2.229   2.675   0.941  0.3800 -0.1591  0.3967
  114TCq2    C5 1739   2.194   2.549   0.976  0.0210 -0.0300  0.1557
  114TCq2    C6 1740   2.092   2.535   1.063  0.6505 -0.6149  0.4670
  114TCq2    C7 1741   2.005   2.631   1.094 -0.2682  0.3044 -0.1621
  114TCq2    C8 1742   2.083   2.399   1.119 -0.3286 -0.1895 -0.1627
  114TCq2    O4 1743   2.186   2.337   1.106  0.6736  0.1466 -0.2439
  114TCq2    C9 1744   2.352   2.701   0.870 -0.4352 -0.1457  0.1836
  114TCq2    O5 1745   2.436   2.608   0.861  0.1812  0.5344  0.3703
  114TCq2    O6 1746   2.372   2.821   0.838  0.0575 -1.2575  0.7028
  114TCq2    H2 1747   2.178   2.872   0.937  0.6382  0.2136  0.4222
  114TCq2    H3 1748   2.265   2.473   0.948 -1.9914 -1.9918  0.4210
  114TCq2    H4 1749   1.943   2.608   1.181  0.1863 -1.1308 -0.2174
  115TMC2    C1 1750   2.657   0.812  17.183  0.1160  0.0484 -0.0573
  115TMC2    C2 1751   2.556   0.873  17.112  0.6481 -0.0721 -0.2450
  115TMC2    C3 1752   2.567   1.009  17.100  0.3562 -0.0819  0.8592
  115TMC2    C4 1753   2.763   0.883  17.238  0.0921 -0.1039 -0.0425
  115TMC2    C5 1754   2.763   1.018  17.219 -0.1682 -0.0183 -0.4819
  115TMC2    C6 1755   2.670   1.082  17.142  0.5517  1.0154  0.0317
  115TMC2     C 1756   2.674   0.669  17.183  0.0913  0.0584  0.3919
  115TMC2     O 1757   2.569   0.604  17.173 -0.8969  0.7230  0.5628
  115TMC2     H 1758   2.475   0.816  17.067  1.0563 -0.8948  0.0775
  115TMC2    H1 1759   2.841   0.838  17.299  0.6183  0.5765 -0.2198
  115TMC2    H2 1760   2.659   1.190  17.144  0.8761  1.0711 -0.8773
  115TMC2    C7 1761   2.873   1.087  17.283  0.0971  0.8484 -0.0507
  115TMC2    C8 1762   2.489   1.054  16.984  1.1986 -0.3387  0.5456
  115TMC2    O1 1763   2.943   1.033  17.372  0.0842 -0.4337  0.0281
  115TMC2    O2 1764   2.416   0.990  16.910 -0.0618 -0.7359  0.5699
  115TMC2    O5 1765   2.540   1.164  16.936  0.2104 -0.5675 -0.1150
  115TMC2    H5 1766   2.606   1.219  16.984 -1.8733  2.7595 -1.0144
  116MPD2     C 1767   2.921   0.235  17.184  0.3846 -0.3075 -0.2592
  116MPD2    C1 1768   2.800   0.258  17.240  0.1096  1.6201 -0.0997
  116MPD2    C2 1769   2.750   0.385  17.244 -0.0339  0.7002  0.5585
  116MPD2    C3 1770   2.840   0.483  17.189  0.4649  0.3706 -0.8028
  116MPD2    C4 1771   2.964   0.454  17.146  0.8899 -0.5402  0.1398
  116MPD2    C5 1772   3.009   0.326  17.148 -0.5419  0.0728 -0.3204
  116MPD2     H 1773   2.651   0.409  17.282 -0.8274 -1.9891  0.2140
  116MPD2    H1 1774   3.027   0.533  17.107 -1.0620  1.2860  0.7038
  116MPD2    H2 1775   2.955   0.133  17.174 -2.3125 -1.0689 -1.6835
  116MPD2    H3 1776   3.109   0.301  17.112 -0.9816 -0.5731 -1.0882
  116MPD2     N 1777   2.803   0.627  17.174 -0.0043 -0.3940  0.1636
  116MPD2    H5 1778   2.875   0.698  17.165 -0.3286 -0.2753 -1.4867
  116MPD2    N1 1779   2.729   0.147  17.293 -0.1892 -0.2943 -0.0746
  116MPD2    H7 1780   2.769   0.056  17.271  1.2278  0.7421 -1.8110
  117TMC2    C1 1781   0.820   1.278  14.010  0.0422 -0.2921 -0.2476
  117TMC2    C2 1782   0.846   1.145  14.032  0.0050 -0.0467  0.2329
  117TMC2    C3 1783   0.961   1.097  13.978 -0.1465 -0.0441 -0.7820
  117TMC2    C4 1784   0.903   1.358  13.937 -0.2946 -0.3007 -0.2260
  117TMC2    C5 1785   1.015   1.300  13.885 -1.0119  0.6515  0.5706
  117TMC2    C6 1786   1.046   1.173  13.904  1.2743  0.0867  0.5679
  117TMC2     C 1787   0.678   1.312  14.021  0.3283 -0.3104  0.2243
  117TMC2     O 1788   0.600   1.218  14.037  0.4825  0.4163 -0.4699
  117TMC2     H 1789   0.783   1.082  14.093 -0.3386 -0.8407 -0.9329
  117TMC2    H1 1790   0.882   1.462  13.914  0.3755 -0.0356  0.3713
  117TMC2    H2 1791   1.146   1.143  13.876  2.4925  2.2992  2.5370
  117TMC2    C7 1792   1.084   1.384  13.786  0.4268 -0.2197 -0.3964
  117TMC2    C8 1793   1.014   0.977  14.045  0.4310 -0.2110 -0.1777
  117TMC2    O1 1794   1.096   1.505  13.807 -0.3493 -0.2406 -0.1950
  117TMC2    O2 1795   1.022   0.978  14.164 -0.5919  0.4929  0.3829
  117TMC2    O5 1796   1.093   0.914  13.955 -0.2966  0.7509  0.2732
  117TMC2    H5 1797   1.090   0.953  13.865  0.8878  0.6994  0.2043
  118MPD2     C 1798   1.221   1.251  13.462  1.0929  0.1829  0.3579
  118MPD2    C1 1799   1.202   1.340  13.568  0.1017  0.2491  0.1056
  118MPD2    C2 1800   1.262   1.466  13.561 -0.5782 -0.3943  0.5364
  118MPD2    C3 1801   1.345   1.506  13.451 -0.2714 -0.0731  0.3162
  118MPD2    C4 1802   1.365   1.405  13.351 -0.4214 -0.7839  0.3479
  118MPD2    C5 1803   1.300   1.287  13.357 -0.3564  0.0016  0.0538
  118MPD2     H 1804   1.248   1.531  13.647 -1.1084 -1.6101  1.3641
  118MPD2    H1 1805   1.437   1.427  13.273 -1.3917  0.7280 -0.1217
  118MPD2    H2 1806   1.191   1.147  13.449 -0.1877  0.3428  2.0130
  118MPD2    H3 1807   1.329   1.209  13.288  2.5203  1.0437  0.0707
  118MPD2     N 1808   1.394   1.631  13.419 -0.1913 -0.1621 -0.2093
  118MPD2    H5 1809   1.443   1.639  13.330 -2.4269  0.0249 -1.4251
  118MPD2    N1 1810   1.126   1.303  13.684  0.9850 -0.0843 -0.2427
  118MPD2    H7 1811   1.092   1.208  13.697 -0.8818  0.4352 -1.3010
  119MPD2     C 1812   4.597   3.247  13.795  0.0537  0.4939 -0.3463
  119MPD2    C1 1813   4.461   3.263  13.808  0.5902 -0.8176 -0.0104
  119MPD2    C2 1814   4.374   3.282  13.700  0.1736 -0.0432 -0.4853
  119MPD2    C3 1815   4.430   3.262  13.573  0.2790  0.6329 -0.2973
  119MPD2    C4 1816   4.564   3.241  13.564  0.1927 -0.5962 -0.1526
  119MPD2    C5 1817   4.642   3.242  13.670  0.1088 -0.1528 -0.5603
  119MPD2     H 1818   4.270   3.310  13.713  1.0610  2.2253  1.9360
  119MPD2    H1 1819   4.613   3.224  13.469 -0.8480  0.1621 -0.8190
  119MPD2    H2 1820   4.673   3.237  13.871 -1.2003  0.1421  0.8651
  119MPD2    H3 1821   0.021   3.216  13.653  0.1525 -1.1114  1.1509
  119MPD2     N 1822   4.346   3.248  13.460 -0.1428 -0.0827  0.2875
  119MPD2    H5 1823   4.398   3.247  13.373 -0.1590 -0.7802  0.2879
  119MPD2    N1 1824   4.413   3.271  13.943  0.3697  0.7003  0.6394
  119MPD2    H7 1825   4.490   3.301  14.002  0.0664  0.5958  1.0858
  120TCq2    C1 1826   4.207   3.233  13.457  0.3208 -0.0215  0.2019
  120TCq2    O2 1827   4.136   3.203  13.555 -0.5041 -0.2176  0.1051
  120TCq2    C2 1828   4.150   3.241  13.325 -0.3871 -0.3228  0.5312
  120TCq2    C3 1829   4.216   3.314  13.228  0.4108 -0.6162 -0.2789
  120TCq2    C4 1830   4.179   3.293  13.104  0.5644  0.3416  0.6428
  120TCq2    C5 1831   4.083   3.198  13.063  0.1338  0.4942  0.1824
  120TCq2    C6 1832   4.032   3.121  13.162  0.2715 -0.1375 -0.0222
  120TCq2    C7 1833   4.060   3.143  13.290 -0.2146 -0.1628  0.3050
  120TCq2    C8 1834   3.935   3.017  13.129  1.0003 -0.1787 -0.1087
  120TCq2    O4 1835   3.943   2.971  13.020  0.1502  0.0756  0.3250
  120TCq2    C9 1836   4.247   3.360  12.994 -0.1635  0.2991  0.1941
  120TCq2    O5 1837   4.352   3.419  13.024  0.2675  0.1300  0.1787
  120TCq2    O6 1838   4.210   3.345  12.874 -0.2482  0.7821  0.4703
  120TCq2    H2 1839   4.297   3.383  13.251 -1.8290  1.2874  1.9496
  120TCq2    H3 1840   4.055   3.185  12.959  2.4372  0.4379 -0.4417
  120TCq2    H4 1841   4.036   3.070  13.367  1.8438 -0.8348  0.3137
  121TMC2    C1 1842   0.228   4.233  14.027  0.0017  0.1176  0.7138
  121TMC2    C2 1843   0.231   4.135  13.928 -0.2262  1.0072  0.3653
  121TMC2    C3 1844   0.127   4.053  13.913 -0.1051 -0.4255  0.7296
  121TMC2    C4 1845   0.115   4.256  14.094  0.3118  0.0698 -0.5381
  121TMC2    C5 1846   0.014   4.162  14.077 -0.4218  0.4693  0.3399
  121TMC2    C6 1847   0.014   4.068  13.978 -0.2594 -0.5233 -0.5201
  121TMC2     C 1848   0.341   4.315  14.052 -0.0971 -0.5725  0.2432
  121TMC2     O 1849   0.352   4.353  14.166 -0.0476 -0.7990  1.0110
  121TMC2     H 1850   0.328   4.096  13.901 -0.2029  0.4580  1.2364
  121TMC2    H1 1851   0.113   4.336  14.167  1.2007  0.2231 -0.6855
  121TMC2    H2 1852   4.658   3.999  13.961 -0.6463 -0.4879  1.1871
  121TMC2    C7 1853   4.611   4.204  14.120  0.1650  0.1016 -0.0795
  121TMC2    C8 1854   0.124   3.970  13.792  0.2732 -0.5113 -0.3082
  121TMC2    O1 1855   4.524   4.117  14.106  0.0549  0.4922 -0.1816
  121TMC2    O2 1856   0.127   3.848  13.795  0.0278 -0.2368  0.4125
  121TMC2    O5 1857   0.173   4.050  13.694  0.2298 -0.9284 -0.0961
  121TMC2    H5 1858   0.148   4.143  13.709 -0.1185 -1.0801  0.2711
  122MPD2     C 1859   0.571   4.486  14.068  0.5423 -1.0853  0.0044
  122MPD2    C1 1860   0.509   4.446  13.953  0.1438  0.5198 -0.6185
  122MPD2    C2 1861   0.550   4.513  13.834 -0.5557  0.3658 -0.0959
  122MPD2    C3 1862   0.653   4.612  13.834  0.2019 -0.1123 -0.1969
  122MPD2    C4 1863   0.693   4.652  13.959  0.1698 -0.4898 -0.3982
  122MPD2    C5 1864   0.643   4.598  14.071 -0.2554  0.0354  0.6130
  122MPD2     H 1865   0.502   4.506  13.737  0.5013  1.5571 -0.7019
  122MPD2    H1 1866   0.747   0.020  13.966  0.2979 -0.7606  2.2146
  122MPD2    H2 1867   0.550   4.455  14.170 -3.1124 -1.2657 -0.8029
  122MPD2    H3 1868   0.690   4.629  14.163 -1.5780 -0.3991  1.4399
  122MPD2     N 1869   0.707   4.677  13.714 -0.7521 -0.3177 -0.2512
  122MPD2    H5 1870   0.763   0.035  13.729 -0.3428 -0.6821  0.2670
  122MPD2    N1 1871   0.404   4.355  13.939 -0.0314  0.1892  0.4299
  122MPD2    H7 1872   0.362   4.331  13.849  1.9734  0.9048 -0.7026
  123MPD2     C 1873   3.442   2.755  10.450 -0.0746  0.8469  0.9560
  123MPD2    C1 1874   3.538   2.738  10.344  0.4693  0.6232  0.2111
  123MPD2    C2 1875   3.610   2.848  10.302  0.2355 -0.2785  0.8576
  123MPD2    C3 1876   3.579   2.976  10.350  0.2967 -0.3486  0.8684
  123MPD2    C4 1877   3.487   2.992  10.456  0.1992  0.7337 -0.4522
  123MPD2    C5 1878   3.421   2.884  10.501  0.4805  0.3044 -0.1018
  123MPD2     H 1879   3.686   2.843  10.225 -1.0222  0.3221 -0.4368
  123MPD2    H1 1880   3.478   3.088  10.507 -0.9520  0.9089 -1.0027
  123MPD2    H2 1881   3.376   2.680  10.492 -1.3734  1.4108 -0.0690
  123MPD2    H3 1882   3.362   2.892  10.592  0.6085 -3.5167  0.2950
  123MPD2     N 1883   3.645   3.088  10.288 -0.5114  0.2972 -0.1008
  123MPD2    H5 1884   3.709   3.061  10.214  2.0287 -0.7113  2.4614
  123MPD2    N1 1885   3.538   2.606  10.286  0.3024 -0.5225  0.2143
  123MPD2    H7 1886   3.465   2.545  10.322 -1.3332  1.2288 -0.1368
  124TCq2    C1 1887   3.636   3.210  10.344  0.8226 -0.1335  0.5957
  124TCq2    O2 1888   3.576   3.261  10.440  0.2237 -0.2027  0.2997
  124TCq2    C2 1889   3.712   3.308  10.264 -0.5348 -0.0567 -0.0025
  124TCq2    C3 1890   3.742   3.436  10.312  0.1788  0.1422 -0.9826
  124TCq2    C4 1891   3.825   3.519  10.245 -0.0705  0.7956 -0.2735
  124TCq2    C5 1892   3.897   3.475  10.143 -0.1880 -0.1507  0.5366
  124TCq2    C6 1893   3.867   3.353  10.096 -0.3251 -0.4621  0.3468
  124TCq2    C7 1894   3.784   3.263  10.156  0.2826  0.0954 -0.2164
  124TCq2    C8 1895   3.930   3.302   9.976  0.4195 -0.1347  0.4735
  124TCq2    O4 1896   3.909   3.185   9.952 -0.6727  0.4365 -0.0415
  124TCq2    C9 1897   3.820   3.659  10.278  0.7597 -0.9750 -0.0234
  124TCq2    O5 1898   3.819   3.739  10.183  0.0542 -0.5041  0.2834
  124TCq2    O6 1899   3.757   3.698  10.379  0.0545 -0.9642  0.0117
  124TCq2    H2 1900   3.688   3.472  10.399  0.8133  0.2106 -0.6194
  124TCq2    H3 1901   3.943   3.551  10.081  0.1408  0.6612  1.7812
  124TCq2    H4 1902   3.767   3.160  10.125 -0.4636  0.6559 -1.6897
  125TMC2    C1 1903   1.566   1.073   8.197 -0.4397 -0.2117 -0.3960
  125TMC2    C2 1904   1.547   1.177   8.107  0.9805 -0.2642 -0.2905
  125TMC2    C3 1905   1.422   1.226   8.080 -0.1359 -0.2894  0.8327
  125TMC2    C4 1906   1.457   1.009   8.250 -0.0571 -0.3425  0.7760
  125TMC2    C5 1907   1.335   1.059   8.218  0.1029  0.3905  0.5618
  125TMC2    C6 1908   1.311   1.160   8.129 -0.8749 -0.2403  0.3508
  125TMC2     C 1909   1.694   1.004   8.198 -0.3188  0.0484 -0.2349
  125TMC2     O 1910   1.777   1.039   8.114 -0.1289 -0.0189 -0.0862
  125TMC2     H 1911   1.637   1.206   8.055 -0.7631  1.3947 -2.3776
  125TMC2    H1 1912   1.470   0.927   8.320 -0.7999  1.4379  3.0177
  125TMC2    H2 1913   1.218   1.209   8.104 -1.2728 -1.0442  0.2585
  125TMC2    C7 1914   1.221   1.035   8.304 -0.6018 -0.1913  0.1526
  125TMC2    C8 1915   1.396   1.356   8.032  0.2875  0.8478 -0.4840
  125TMC2    O1 1916   1.140   1.124   8.318  0.5468  0.9204  0.4294
  125TMC2    O2 1917   1.295   1.387   7.966 -0.1732  0.2941 -0.1976
  125TMC2    O5 1918   1.503   1.431   8.030  0.2135  0.5517 -0.5514
  125TMC2    H5 1919   1.573   1.396   8.089 -0.5234  2.7245  1.5825
  126MPD1     C 1920   2.034   0.704   8.438 -0.8686  0.4098 -0.0856
  126MPD1    C1 1921   1.954   0.771   8.530  0.0927 -0.1472  0.3228
  126MPD1    C2 1922   1.832   0.822   8.487 -0.2419 -0.7460  0.1992
  126MPD1    C3 1923   1.815   0.858   8.354 -0.0349 -0.4633  0.0413
  126MPD1    C4 1924   1.900   0.807   8.263  0.3782 -0.1476  0.0147
  126MPD1    C5 1925   2.008   0.730   8.304  0.8404 -0.0987 -0.4887
  126MPD1     H 1926   1.769   0.866   8.563 -0.4493 -0.2009 -0.2878
  126MPD1    H1 1927   1.895   0.814   8.155 -1.3879 -0.7855  0.0741
  126MPD1    H2 1928   2.114   0.634   8.462 -2.6850 -2.0248 -1.0735
  126MPD1    H3 1929   2.069   0.695   8.221  2.5975 -1.3265  1.3109
  126MPD1     N 1930   1.705   0.936   8.317  0.2638 -0.5024  0.1528
  126MPD1    H5 1931   1.630   0.935   8.386  0.5641  0.6048  0.4794
  126MPD1    N1 1932   1.974   0.753   8.667 -0.1097  0.3057 -0.4649
  126MPD1    H6 1933   2.074   0.743   8.680 -0.4007  0.1134  1.6383
  126MPD1    H7 1934   1.935   0.825   8.727 -1.8034 -2.5155  1.8331
  127MPD2     C 1935   0.921   3.793   9.310  0.3648  0.1592 -0.0883
  127MPD2    C1 1936   1.000   3.749   9.414  0.1263  0.0003  0.0365
  127MPD2    C2 1937   1.088   3.832   9.481 -0.4126  0.1768 -0.3759
  127MPD2    C3 1938   1.083   3.967   9.458 -0.1946  0.6422  0.1890
  127MPD2    C4 1939   1.018   4.013   9.343 -0.3383  0.7743 -0.0523
  127MPD2    C5 1940   0.935   3.928   9.274  0.1421  0.1449 -0.9806
  127MPD2     H 1941   1.139   3.798   9.570  2.7888  3.6835 -0.8658
  127MPD2    H1 1942   1.027   4.115   9.308  1.1186  0.2808 -1.1615
  127MPD2    H2 1943   0.843   3.736   9.262  1.3283  0.1780 -1.6557
  127MPD2    H3 1944   0.862   3.978   9.212 -0.9438 -0.6270 -0.3145
  127MPD2     N 1945   1.154   4.045   9.547  0.6948  0.1453 -0.1638
  127MPD2    H5 1946   1.215   4.000   9.614 -0.1974  0.2368  0.7072
  127MPD2    N1 1947   0.989   3.610   9.435  0.1872 -0.7885  0.4052
  127MPD2    H7 1948   0.917   3.555   9.389 -0.4115  0.8348 -0.6022
  128TCq2    C1 1949   1.064   3.535   9.528  0.2352 -0.0392 -1.1742
  128TCq2    O2 1950   1.161   3.571   9.596 -0.4243 -0.0350  0.0440
  128TCq2    C2 1951   1.021   3.394   9.552 -0.4115  0.5467 -0.3617
  128TCq2    C3 1952   1.103   3.318   9.633 -0.3309  0.3068 -0.4691
  128TCq2    C4 1953   1.051   3.212   9.709  0.5378  0.5224 -0.1910
  128TCq2    C5 1954   0.914   3.196   9.715 -0.1006  0.5331 -0.2412
  128TCq2    C6 1955   0.827   3.266   9.629  0.2891 -0.0374 -0.8088
  128TCq2    C7 1956   0.882   3.366   9.550 -0.0300  0.1890  0.1151
  128TCq2    C8 1957   0.684   3.244   9.627  0.7324 -0.0262 -0.1925
  128TCq2    O4 1958   0.621   3.309   9.543 -0.1616 -0.6158  0.2443
  128TCq2    C9 1959   1.133   3.138   9.799  0.3696 -0.6544  0.6168
  128TCq2    O5 1960   1.254   3.158   9.785 -0.5282  0.6156 -0.7653
  128TCq2    O6 1961   1.079   3.070   9.885 -0.1243 -0.0489  0.1921
  128TCq2    H2 1962   1.204   3.351   9.657  0.8997 -3.2842 -0.7864
  128TCq2    H3 1963   0.883   3.111   9.775 -0.1742  0.1623 -0.8057
  128TCq2    H4 1964   0.807   3.424   9.497  2.2066  1.8159 -1.2480
  129MPD2     C 1965   0.033   4.385   1.045 -0.0971 -0.0214 -0.2169
  129MPD2    C1 1966   0.039   4.504   1.120 -0.1838 -0.3633 -0.0463
  129MPD2    C2 1967   0.118   4.614   1.080  0.6050  0.7889  0.4218
  129MPD2    C3 1968   0.212   4.593   0.979 -0.6070 -0.7479  0.4045
  129MPD2    C4 1969   0.214   4.469   0.915 -0.3797 -0.4755 -0.1531
  129MPD2    C5 1970   0.123   4.374   0.943 -0.4226  0.2132 -0.3343
  129MPD2     H 1971   0.118   4.708   1.135  0.8399  0.3784  1.1157
  129MPD2    H1 1972   0.275   4.453   0.827  0.0885  1.9468 -0.2474
  129MPD2    H2 1973   4.688   4.304   1.060  0.5522 -0.0635  2.6063
  129MPD2    H3 1974   0.113   4.288   0.878  0.6504 -1.6512  1.9452
  129MPD2     N 1975   0.300   4.695   0.938 -0.2523 -0.6493 -0.1577
  129MPD2    H5 1976   0.304   0.057   0.991 -1.3852 -0.3925 -0.5160
  129MPD2    N1 1977   4.674   4.529   1.222 -0.0130 -0.3317  0.7494
  129MPD2    H7 1978   4.681   4.620   1.266 -1.1708  0.6407 -1.1260
  130TCq2    C1 1979   4.572   4.450   1.269 -0.2616  0.1781  0.1807
  130TCq2    O2 1980   4.546   4.333   1.239  0.2939  0.3701  0.2392
  130TCq2    C2 1981   4.494   4.515   1.371 -0.0091 -0.3578  0.5043
  130TCq2    C3 1982   4.546   4.640   1.408  0.8354 -0.6719  0.5320
  130TCq2    C4 1983   4.540   4.674   1.539 -0.7379 -0.4646  0.2736
  130TCq2    C5 1984   4.483   4.598   1.629 -0.7805 -0.1372 -0.0936
  130TCq2    C6 1985   4.436   4.472   1.596  0.0958 -0.2125 -0.2801
  130TCq2    C7 1986   4.438   4.437   1.468 -0.3587  0.4936 -0.1901
  130TCq2    C8 1987   4.334   4.406   1.684 -0.4960 -0.5610 -0.4256
  130TCq2    O4 1988   4.272   4.325   1.619 -0.1537 -0.1914  0.0466
  130TCq2    C9 1989   4.591   0.078   1.580  0.4177 -0.1147  0.3778
  130TCq2    O5 1990   4.601   0.101   1.702  0.2902 -0.2224  0.0796
  130TCq2    O6 1991   4.664   0.140   1.500  0.0415  0.1766  0.5232
  130TCq2    H2 1992   4.586   4.715   1.341  0.5885  0.7509  1.9991
  130TCq2    H3 1993   4.476   4.640   1.729 -1.4607 -0.0883 -0.1588
  130TCq2    H4 1994   4.398   4.345   1.428  1.8999 -1.3784  1.8233
  131MPD2     C 1995   3.547   2.453   9.281  1.0539 -0.5907  0.0163
  131MPD2    C1 1996   3.604   2.551   9.366 -0.0967  0.1164  0.8499
  131MPD2    C2 1997   3.578   2.542   9.502  0.4101 -0.0828  0.2196
  131MPD2    C3 1998   3.515   2.437   9.556  0.0912 -0.1415 -0.3432
  131MPD2    C4 1999   3.455   2.349   9.474  0.4894  0.5351  1.1138
  131MPD2    C5 2000   3.477   2.349   9.334  0.1308  0.4304 -0.1945
  131MPD2     H 2001   3.622   2.612   9.572  3.6977 -1.1121 -0.8151
  131MPD2    H1 2002   3.418   2.256   9.516  0.3975  0.9680  1.9815
  131MPD2    H2 2003   3.553   2.458   9.173 -1.0610 -1.2334 -0.1283
  131MPD2    H3 2004   3.443   2.269   9.270  3.4464 -0.7649 -0.4576
  131MPD2     N 2005   3.519   2.428   9.700  0.1472  0.0380  0.2763
  131MPD2    H5 2006   3.574   2.491   9.757 -1.0412  1.6418 -0.3706
  131MPD2    N1 2007   3.648   2.666   9.298 -0.4045  0.6400 -0.0948
  131MPD2    H7 2008   3.639   2.671   9.197 -0.6673 -2.3547 -0.2157
  132TCq2    C1 2009   3.904   3.197   9.341 -0.9044 -0.4926  0.8196
  132TCq2    O2 2010   3.923   3.177   9.460  0.1722  0.2053  0.0243
  132TCq2    C2 2011   3.845   3.087   9.270 -0.2947 -0.0208 -0.0052
  132TCq2    C3 2012   3.838   3.101   9.134  0.7134 -0.2607  0.1595
  132TCq2    C4 2013   3.764   3.006   9.075 -0.2580 -0.7659 -0.1707
  132TCq2    C5 2014   3.713   2.899   9.142 -0.8063  0.1142  0.5433
  132TCq2    C6 2015   3.735   2.891   9.281 -0.2117  0.3061 -0.3705
  132TCq2    C7 2016   3.807   2.980   9.350  0.4728  0.7615 -0.4652
  132TCq2    C8 2017   3.707   2.773   9.360  0.1996  0.1247 -0.3574
  132TCq2    O4 2018   3.746   2.777   9.477  0.6499  0.0590  0.1719
  132TCq2    C9 2019   3.742   3.017   8.933 -0.1464 -0.2459 -0.5452
  132TCq2    O5 2020   3.818   3.097   8.867 -0.3948  0.6470  0.7475
  132TCq2    O6 2021   3.644   2.956   8.881 -0.5495 -0.1937  0.7118
  132TCq2    H2 2022   3.887   3.175   9.073  0.0487 -0.8922 -1.1347
  132TCq2    H3 2023   3.648   2.829   9.091  1.1241 -0.8027 -0.6873
  132TCq2    H4 2024   3.804   2.986   9.458 -0.2003  1.8207 -0.5439
  133MPD2     C 2025   2.329   4.365   9.459 -0.0084  0.8572  0.3150
  133MPD2    C1 2026   2.437   4.284   9.459  0.8525  0.0783 -0.4420
  133MPD2    C2 2027   2.433   4.162   9.384 -0.4959  0.9901 -0.4950
  133MPD2    C3 2028   2.326   4.130   9.304 -0.1712 -0.3116 -0.8965
  133MPD2    C4 2029   2.218   4.218   9.297  0.1441  0.8498  0.1757
  133MPD2    C5 2030   2.222   4.334   9.379 -0.4095  0.4071 -0.1779
  133MPD2     H 2031   2.521   4.099   9.375 -1.3087 -0.7236  3.6638
  133MPD2    H1 2032   2.128   4.206   9.238 -0.1562  1.4883  0.5039
  133MPD2    H2 2033   2.325   4.451   9.525  1.7194 -0.1096  1.6999
  133MPD2    H3 2034   2.140   4.405   9.366 -0.1307  0.6450 -0.6539
  133MPD2     N 2035   2.307   4.012   9.225  0.1929  1.1430  0.4009
  133MPD2    H5 2036   2.225   4.021   9.166  0.7213 -1.2865 -0.7271
  133MPD2    N1 2037   2.550   4.331   9.537 -0.6530  0.3943 -0.0301
  133MPD2    H7 2038   2.544   4.410   9.600 -0.8098 -0.9975  1.7057
  134TCq2    C1 2039   2.676   4.264   9.540 -0.2386  0.5247 -0.6413
  134TCq2    O2 2040   2.718   4.165   9.478  0.6035 -0.1058  0.4593
  134TCq2    C2 2041   2.773   4.325   9.637  0.8978 -0.2837 -0.6907
  134TCq2    C3 2042   2.726   4.427   9.715  0.3462 -0.7100 -0.5510
  134TCq2    C4 2043   2.808   4.524   9.757  0.1975  0.5461 -0.2554
  134TCq2    C5 2044   2.937   4.510   9.731  0.3477 -0.2579 -0.1755
  134TCq2    C6 2045   2.993   4.398   9.666 -0.0240 -0.3628  0.7002
  134TCq2    C7 2046   2.904   4.308   9.619  0.3829 -0.4122 -0.1820
  134TCq2    C8 2047   3.129   4.405   9.624 -0.4572 -0.7128  0.1657
  134TCq2    O4 2048   3.208   4.484   9.672 -0.1313 -0.0289 -0.4214
  134TCq2    C9 2049   2.754   4.647   9.815 -0.2811  0.0422 -0.1447
  134TCq2    O5 2050   2.629   4.644   9.821  0.1206  0.7693  0.0381
  134TCq2    O6 2051   2.839   4.723   9.869 -0.2603 -0.2799 -0.3256
  134TCq2    H2 2052   2.624   4.439   9.750  0.6480 -0.7143  0.3259
  134TCq2    H3 2053   3.008   4.587   9.762 -0.2083 -0.6580  2.0211
  134TCq2    H4 2054   2.937   4.225   9.558  1.6214 -1.5201  2.0055
  135MPD2     C 2055   0.633   1.159   8.918 -0.1729  0.3536 -0.6032
  135MPD2    C1 2056   0.687   1.049   8.974 -0.3811  0.3082 -1.1382
  135MPD2    C2 2057   0.819   1.018   8.945  0.0038 -0.1211  0.5672
  135MPD2    C3 2058   0.897   1.101   8.865 -0.5430 -0.1496  0.0374
  135MPD2    C4 2059   0.838   1.214   8.810 -0.7795  0.6162  0.6180
  135MPD2    C5 2060   0.703   1.237   8.834 -0.0799 -0.1900 -0.5809
  135MPD2     H 2061   0.857   0.925   8.984  0.7166  0.3385  0.9723
  135MPD2    H1 2062   0.902   1.282   8.756 -2.1461  1.2352 -0.2228
  135MPD2    H2 2063   0.528   1.186   8.921  0.6117  3.3818 -0.2644
  135MPD2    H3 2064   0.649   1.325   8.801  0.8626  0.5703 -0.1135
  135MPD2     N 2065   1.031   1.071   8.824 -0.0523 -0.7277  0.5478
  135MPD2    H5 2066   1.075   1.139   8.763  1.4095 -1.8451  0.3629
  135MPD2    N1 2067   0.614   0.961   9.056  0.0384 -0.2639  0.1122
  135MPD2    H7 2068   0.663   0.883   9.097 -0.0908 -0.8126 -0.7700
  136TCq2    C1 2069   0.485   0.968   9.094  0.6046  0.1609  0.2885
  136TCq2    O2 2070   0.406   1.057   9.074  0.0376  0.0532 -0.1212
  136TCq2    C2 2071   0.429   0.857   9.173  0.4147  0.2969  0.1308
  136TCq2    C3 2072   0.330   0.887   9.260 -0.4983  0.4927  0.0943
  136TCq2    C4 2073   0.288   0.798   9.354 -0.3391  0.0046  1.1196
  136TCq2    C5 2074   0.354   0.677   9.354 -0.1927 -0.0095  0.5344
  136TCq2    C6 2075   0.464   0.650   9.276  0.6753 -0.1130  0.0058
  136TCq2    C7 2076   0.498   0.734   9.180  0.3459 -0.3051 -0.0959
  136TCq2    C8 2077   0.520   0.517   9.284  0.6908  0.1350  0.3396
  136TCq2    O4 2078   0.641   0.502   9.268 -0.3433  0.2502  0.4082
  136TCq2    C9 2079   0.184   0.826   9.440  0.6960  0.4049 -0.6519
  136TCq2    O5 2080   0.109   0.729   9.471 -0.1675 -0.0424 -0.3080
  136TCq2    O6 2081   0.145   0.944   9.424  0.0253 -0.6555 -0.2144
  136TCq2    H2 2082   0.285   0.985   9.268 -0.1154  0.7793 -1.4719
  136TCq2    H3 2083   0.340   0.618   9.444 -1.4294  0.7412  0.8385
  136TCq2    H4 2084   0.590   0.719   9.125 -0.5901 -0.3957 -1.6358
  137MPD2     C 2085   0.035   3.285   9.305  0.1295 -1.0346 -0.1452
  137MPD2    C1 2086   0.156   3.350   9.296  0.1760  0.4253 -0.4022
  137MPD2    C2 2087   0.197   3.433   9.403  0.3974 -0.0662  0.2733
  137MPD2    C3 2088   0.126   3.446   9.519  0.5255 -0.3636 -1.2489
  137MPD2    C4 2089   0.022   3.366   9.538  0.0307  0.2473  0.1528
  137MPD2    C5 2090   4.703   3.284   9.430 -0.2469 -0.3390  0.1422
  137MPD2     H 2091   0.285   3.493   9.386  0.0988 -0.0849 -1.3458
  137MPD2    H1 2092   4.682   3.356   9.624 -0.7362  2.0248 -0.2363
  137MPD2    H2 2093   0.000   3.221   9.225 -0.0640 -2.9435  1.4547
  137MPD2    H3 2094   4.610   3.229   9.438  0.3498 -1.4733 -0.7468
  137MPD2     N 2095   0.174   3.530   9.622 -0.8778 -0.1559 -0.1193
  137MPD2    H5 2096   0.262   3.574   9.600  0.0119 -1.4064  0.9242
  137MPD2    N1 2097   0.226   3.337   9.175 -0.4046  0.1523  0.0585
  137MPD2    H7 2098   0.173   3.289   9.102 -0.4598  0.4153 -0.0778
  138TCq2    C1 2099   0.353   3.391   9.146  0.0263  0.0818 -0.3181
  138TCq2    O2 2100   0.435   3.438   9.221  0.0235 -0.0594 -0.2608
  138TCq2    C2 2101   0.391   3.363   9.002 -0.3464 -0.5242  0.4905
  138TCq2    C3 2102   0.527   3.346   8.964  0.4568 -0.1802 -0.3967
  138TCq2    C4 2103   0.567   3.364   8.835 -0.4695  0.0122  0.5747
  138TCq2    C5 2104   0.472   3.363   8.739  0.4193  0.0292 -0.4172
  138TCq2    C6 2105   0.337   3.374   8.774 -0.1009  0.6896 -0.0094
  138TCq2    C7 2106   0.296   3.387   8.908 -0.6797 -0.4373 -0.4417
  138TCq2    C8 2107   0.238   3.401   8.674  0.2900  0.1681  0.2803
  138TCq2    O4 2108   0.262   3.353   8.565 -0.5107  0.0749 -0.1029
  138TCq2    C9 2109   0.709   3.372   8.803  0.0362  0.1644 -0.8930
  138TCq2    O5 2110   0.793   3.338   8.895 -1.5043 -0.0639 -0.3469
  138TCq2    O6 2111   0.739   3.402   8.684  0.0459  0.1111 -0.1356
  138TCq2    H2 2112   0.607   3.340   9.037 -0.7650 -1.6031  0.8197
  138TCq2    H3 2113   0.510   3.366   8.638  1.1494 -0.2448 -0.1511
  138TCq2    H4 2114   0.192   3.395   8.939 -1.3255 -2.8347 -1.9729
  139TMC2    C1 2115   1.580   2.536  13.265  0.4168 -0.1534 -0.1127
  139TMC2    C2 2116   1.629   2.640  13.343 -0.1202  0.3135 -0.7196
  139TMC2    C3 2117   1.614   2.766  13.308 -0.6555  0.2289 -0.8491
  139TMC2    C4 2118   1.486   2.566  13.173 -0.2126  0.5759 -0.2012
  139TMC2    C5 2119   1.475   2.696  13.133 -0.9504  0.2447 -0.4486
  139TMC2    C6 2120   1.536   2.797  13.199 -0.6705 -0.4713 -0.4981
  139TMC2     C 2121   1.554   2.414  13.339  0.1241 -0.2465  0.7120
  139TMC2     O 2122   1.539   2.308  13.276 -0.1930  0.0161  0.7541
  139TMC2     H 2123   1.714   2.614  13.405  1.0956  1.9917 -1.6544
  139TMC2    H1 2124   1.417   2.488  13.142 -0.8873  1.0335  0.1516
  139TMC2    H2 2125   1.530   2.901  13.172  0.0391  0.5222  3.1159
  139TMC2    C7 2126   1.345   2.736  13.068 -0.5444  0.5297 -0.2572
  139TMC2    C8 2127   1.731   2.848  13.325 -0.6876 -0.4299  0.0266
  139TMC2    O1 2128   1.301   2.847  13.089  0.6567  0.5041  0.2457
  139TMC2    O2 2129   1.753   2.945  13.251 -0.0628  0.5977 -0.0457
  139TMC2    O5 2130   1.765   2.836  13.451 -0.1782  0.0262 -0.5106
  139TMC2    H5 2131   1.697   2.791  13.506  0.8809 -1.2109 -0.2207
  140MPD2     C 2132   1.480   2.382  13.692 -0.5819  0.7666  0.4338
  140MPD2    C1 2133   1.463   2.363  13.560 -0.3608  0.3083  0.0531
  140MPD2    C2 2134   1.383   2.263  13.510 -0.2569  0.8986  0.1988
  140MPD2    C3 2135   1.321   2.179  13.598 -0.9696 -0.4933 -0.7075
  140MPD2    C4 2136   1.346   2.193  13.736  0.2452  0.6327  0.9124
  140MPD2    C5 2137   1.426   2.295  13.783 -0.1274  0.3672 -0.8201
  140MPD2     H 2138   1.363   2.258  13.404  0.8904  0.6337 -0.0048
  140MPD2    H1 2139   1.303   2.131  13.813  0.2995  0.8358  1.1047
  140MPD2    H2 2140   1.542   2.467  13.720 -0.0542  0.6865 -0.4943
  140MPD2    H3 2141   1.442   2.309  13.889  2.5144 -0.9906 -1.0481
  140MPD2     N 2142   1.241   2.068  13.554 -0.1424  0.5735  0.0676
  140MPD2    H5 2143   1.220   2.060  13.456  1.7151 -1.1316 -0.1878
  140MPD2    N1 2144   1.545   2.441  13.471  0.1597  0.1224  0.1303
  140MPD2    H7 2145   1.580   2.525  13.515 -3.0107  0.9497  1.0944
  141TCq2    C1 2146   1.353   3.372  13.915  0.0139  0.0081 -1.0684
  141TCq2    O2 2147   1.323   3.489  13.894  0.1472  0.1191  0.6259
  141TCq2    C2 2148   1.484   3.366  13.984 -0.6692 -0.1873 -0.7612
  141TCq2    C3 2149   1.516   3.287  14.088  0.1385  0.2525 -0.3727
  141TCq2    C4 2150   1.631   3.279  14.149 -0.0132  0.2341  0.2443
  141TCq2    C5 2151   1.723   3.371  14.114  0.3199 -0.0506  0.7297
  141TCq2    C6 2152   1.685   3.470  14.017 -0.2666  0.3578 -0.0215
  141TCq2    C7 2153   1.565   3.467  13.951  0.0248  0.0874  0.1051
  141TCq2    C8 2154   1.769   3.586  14.002  0.0667  0.1129  0.1876
  141TCq2    O4 2155   1.745   3.667  13.913  0.9290  0.1359 -0.0546
  141TCq2    C9 2156   1.651   3.203  14.268  0.2468  0.1674  0.4711
  141TCq2    O5 2157   1.743   3.242  14.348 -0.1037  0.3330 -0.5065
  141TCq2    O6 2158   1.554   3.136  14.313 -0.1698  0.0733 -0.6360
  141TCq2    H2 2159   1.442   3.217  14.125  0.7460 -0.6679 -0.9011
  141TCq2    H3 2160   1.819   3.380  14.163  0.3020 -0.7746  0.9046
  141TCq2    H4 2161   1.544   3.548  13.882  0.6063  0.0810 -0.0782
  142MPD2     C 2162   3.765   2.179  10.015 -0.2709  0.1406  0.2390
  142MPD2    C1 2163   3.781   2.200   9.877 -0.3115 -0.7343  0.1463
  142MPD2    C2 2164   3.883   2.285   9.842  0.0675  0.0210 -0.0265
  142MPD2    C3 2165   3.961   2.352   9.939 -0.0529  0.3837 -0.3058
  142MPD2    C4 2166   3.948   2.326  10.074 -0.0322  0.3756  0.1394
  142MPD2    C5 2167   3.844   2.238  10.106 -0.3357 -0.3788  0.0056
  142MPD2     H 2168   3.900   2.316   9.739  2.7609  0.3473  0.5321
  142MPD2    H1 2169   4.012   2.362  10.154 -2.3932 -0.3106  2.3610
  142MPD2    H2 2170   3.682   2.122  10.054  0.8637 -1.2449  0.6359
  142MPD2    H3 2171   3.834   2.213  10.211  1.1147  0.2978  0.3093
  142MPD2     N 2172   4.063   2.445   9.905  0.5135 -0.7404  0.3750
  142MPD2    H5 2173   4.103   2.509   9.973 -1.4323 -1.6662  2.3486
  142MPD2    N1 2174   3.694   2.137   9.787  0.2040  0.0435  0.0290
  142MPD2    H7 2175   3.624   2.075   9.827  0.1642  0.7967  1.0956
  143TCq2    C1 2176   4.118   2.438   9.780 -0.8272  0.5640 -0.9465
  143TCq2    O2 2177   4.106   2.344   9.699  0.0522 -0.3985  0.2463
  143TCq2    C2 2178   4.194   2.553   9.736 -0.3029  0.0585  0.2918
  143TCq2    C3 2179   4.267   2.530   9.618 -0.7736  0.4439 -1.4491
  143TCq2    C4 2180   4.313   2.634   9.538 -0.0301 -0.1999 -0.0753
  143TCq2    C5 2181   4.291   2.765   9.573 -0.0291  0.0363  0.3763
  143TCq2    C6 2182   4.204   2.788   9.680 -1.0094 -0.0267 -0.0689
  143TCq2    C7 2183   4.150   2.680   9.760  0.4905  0.1818 -0.2108
  143TCq2    C8 2184   4.156   2.922   9.708 -0.0642 -0.1022  0.3702
  143TCq2    O4 2185   4.050   2.926   9.765 -0.3698  0.2513  0.2390
  143TCq2    C9 2186   4.398   2.606   9.423 -0.3289 -0.0230 -0.0361
  143TCq2    O5 2187   4.430   2.486   9.397  0.1464  0.1541 -0.2018
  143TCq2    O6 2188   4.440   2.710   9.358  0.1830 -0.1208  0.7038
  143TCq2    H2 2189   4.296   2.430   9.587  3.2253  1.5408 -1.1662
  143TCq2    H3 2190   4.326   2.848   9.512  0.0060  0.5621  1.1005
  143TCq2    H4 2191   4.077   2.696   9.838 -1.0171  1.3093 -1.8531
  144MPD2     C 2192   1.884   2.030   0.758 -0.3521 -0.3010 -1.2344
  144MPD2    C1 2193   1.884   1.893   0.792 -0.1915  0.7955 -0.5687
  144MPD2    C2 2194   1.970   1.852   0.887  1.1787  0.1881  0.0962
  144MPD2    C3 2195   2.053   1.937   0.955 -0.2251 -0.0889 -0.6420
  144MPD2    C4 2196   2.050   2.069   0.916  0.7065  0.0983 -0.9918
  144MPD2    C5 2197   1.971   2.118   0.815  0.1710  0.1794 -0.1341
  144MPD2     H 2198   1.967   1.744   0.894  0.3406  0.1066 -1.4346
  144MPD2    H1 2199   2.106   2.145   0.970 -1.2556 -0.5440  1.9603
  144MPD2    H2 2200   1.831   2.067   0.671 -0.2831 -2.7120 -2.2937
  144MPD2    H3 2201   1.978   2.220   0.779  2.0087 -0.6110 -2.0494
  144MPD2     N 2202   2.164   1.896   1.041 -0.0386 -0.0717 -0.1306
  144MPD2    H5 2203   2.224   1.973   1.071 -0.0094  0.2519 -0.9971
  144MPD2    N1 2204   1.787   1.807   0.731 -0.5470  0.5211  0.3932
  144MPD2    H7 2205   1.813   1.709   0.723 -3.2101 -0.2828  1.6836
  145TCq2    C1 2206   2.207   1.771   1.074  0.4303 -0.2080 -0.8046
  145TCq2    O2 2207   2.154   1.665   1.039 -0.3586  0.1012 -0.5413
  145TCq2    C2 2208   2.336   1.772   1.136  0.1679 -0.1211  0.3198
  145TCq2    C3 2209   2.419   1.678   1.085  0.7310  0.6884 -0.6552
  145TCq2    C4 2210   2.557   1.684   1.094  0.1983  0.1041 -0.3162
  145TCq2    C5 2211   2.614   1.787   1.167 -0.8058 -0.3761  0.2660
  145TCq2    C6 2212   2.531   1.888   1.210 -1.1056  0.4843 -0.6518
  145TCq2    C7 2213   2.390   1.882   1.195  0.2421  0.3731 -0.0055
  145TCq2    C8 2214   2.598   1.994   1.278  0.1105  0.8732 -0.3933
  145TCq2    O4 2215   2.720   1.992   1.294 -0.0492  0.4853 -0.7350
  145TCq2    C9 2216   2.638   1.593   1.019  0.4899  0.1240  0.0466
  145TCq2    O5 2217   2.764   1.601   1.030  0.0642 -0.7153 -0.0641
  145TCq2    O6 2218   2.574   1.500   0.958 -0.1387 -0.3268 -0.3885
  145TCq2    H2 2219   2.378   1.595   1.029 -1.8291  2.8025 -1.9736
  145TCq2    H3 2220   2.720   1.785   1.189 -0.8596  2.4045  0.7108
  145TCq2    H4 2221   2.317   1.944   1.247 -1.1712 -1.5013  0.2346
  146TMC2    C1 2222   2.459   0.284  12.675  0.0914  0.0940  0.1499
  146TMC2    C2 2223   2.345   0.340  12.611 -0.7954 -0.1053  0.5867
  146TMC2    C3 2224   2.297   0.282  12.499  0.2545  0.0492 -0.1820
  146TMC2    C4 2225   2.524   0.178  12.627  0.3509 -0.0758 -0.0205
  146TMC2    C5 2226   2.468   0.122  12.509 -0.0199 -0.0455  0.3088
  146TMC2    C6 2227   2.355   0.170  12.444  0.5771 -0.6286  0.2181
  146TMC2     C 2228   2.511   0.353  12.795 -0.2241  0.3886  0.3355
  146TMC2     O 2229   2.455   0.456  12.827 -0.1053  0.0688  0.6397
  146TMC2     H 2230   2.295   0.421  12.662 -0.0928  1.2480 -0.8865
  146TMC2    H1 2231   2.630   0.160  12.639  0.5794  0.4489 -1.2735
  146TMC2    H2 2232   2.317   0.114  12.359 -1.5221  0.1793  0.6222
  146TMC2    C7 2233   2.526   4.724  12.461 -0.4477  0.3101  0.1774
  146TMC2    C8 2234   2.172   0.335  12.437 -0.7792 -0.4901  0.0156
  146TMC2    O1 2235   2.513   4.696  12.342  0.2595 -0.2428  0.2000
  146TMC2    O2 2236   2.105   0.258  12.369 -0.6316 -0.3565 -0.1922
  146TMC2    O5 2237   2.129   0.459  12.475 -0.3054 -0.1561 -0.5689
  146TMC2    H5 2238   2.196   0.527  12.499 -0.4068  0.0185 -0.7829
  147MPD2     C 2239   2.861   4.344  12.547  0.8015 -0.3407 -0.0805
  147MPD2    C1 2240   2.851   4.426  12.664  0.2420  0.1903 -0.3752
  147MPD2    C2 2241   2.757   4.526  12.677  0.2332 -0.7567  0.5310
  147MPD2    C3 2242   2.686   4.553  12.561  0.3940  0.0210 -0.2939
  147MPD2    C4 2243   2.705   4.481  12.438  0.4387 -0.3551 -0.1165
  147MPD2    C5 2244   2.789   4.372  12.435 -0.2098  0.2923  0.3825
  147MPD2     H 2245   2.747   4.585  12.768  0.6660  0.2350 -0.0573
  147MPD2    H1 2246   2.640   4.488  12.352  2.8193  0.4127 -1.8334
  147MPD2    H2 2247   2.936   4.266  12.546  1.1980  0.0480 -1.5638
  147MPD2    H3 2248   2.801   4.317  12.342  0.1687 -0.9990  1.1897
  147MPD2     N 2249   2.593   4.660  12.565  0.0214 -0.2210 -0.0434
  147MPD2    H5 2250   2.579   4.700  12.657 -1.5564  0.2733 -0.4935
  147MPD2    N1 2251   2.941   4.408  12.777  1.0024 -0.1732  0.2120
  147MPD2    H7 2252   2.943   4.484  12.844  0.6477  0.1884 -0.1856
  148MPD2     C 2253   3.358   3.547  10.291  0.0689 -0.4643  0.0191
  148MPD2    C1 2254   3.357   3.473  10.180 -0.2636  0.4026  0.2213
  148MPD2    C2 2255   3.292   3.350  10.172 -0.3431 -0.2863 -0.3160
  148MPD2    C3 2256   3.233   3.292  10.287  0.3521  0.1827  0.0472
  148MPD2    C4 2257   3.234   3.368  10.401 -0.4271 -0.1230  0.2188
  148MPD2    C5 2258   3.295   3.493  10.399 -0.5940  0.5326  0.2561
  148MPD2     H 2259   3.298   3.282  10.088  0.0335 -1.7736  0.9121
  148MPD2    H1 2260   3.190   3.333  10.494 -0.6664 -1.3401 -0.3611
  148MPD2    H2 2261   3.399   3.647  10.293 -2.5071  0.5817  0.5531
  148MPD2    H3 2262   3.291   3.544  10.494 -2.6519  1.4690 -0.3464
  148MPD2     N 2263   3.162   3.171  10.285 -0.4541 -0.4510  0.1302
  148MPD2    H5 2264   3.125   3.129  10.369  1.3923 -2.1649  0.0879
  148MPD2    N1 2265   3.428   3.506  10.060  0.0956  0.3753 -0.8719
  148MPD2    H7 2266   3.418   3.435   9.989  2.3183 -1.2035  0.3758
  149TCq2    C1 2267   3.508   3.613  10.038  0.2232  0.1650  0.1260
  149TCq2    O2 2268   3.500   3.719  10.098  0.3828 -0.0774 -0.0224
  149TCq2    C2 2269   3.597   3.610   9.923 -0.6296 -0.7017 -0.0432
  149TCq2    C3 2270   3.673   3.724   9.887  0.2123  0.7426 -0.4479
  149TCq2    C4 2271   3.738   3.719   9.765 -0.4028  0.4926 -0.2530
  149TCq2    C5 2272   3.759   3.596   9.715  0.3331  0.4115 -0.4182
  149TCq2    C6 2273   3.697   3.484   9.765 -0.7897  0.9067 -0.6446
  149TCq2    C7 2274   3.609   3.490   9.866  0.2451 -0.7208 -0.2505
  149TCq2    C8 2275   3.669   3.380   9.667  0.5087  1.1289  0.0547
  149TCq2    O4 2276   3.627   3.274   9.710  0.2710  0.2842  0.2084
  149TCq2    C9 2277   3.827   3.824   9.726 -0.4090  0.1612 -0.2416
  149TCq2    O5 2278   3.839   3.917   9.809  0.2189  0.5643 -0.6855
  149TCq2    O6 2279   3.903   3.807   9.626 -0.0208 -0.3067  0.1875
  149TCq2    H2 2280   3.671   3.808   9.957  2.4010  2.6287 -2.6478
  149TCq2    H3 2281   3.830   3.583   9.634  0.7830  0.9620 -0.1169
  149TCq2    H4 2282   3.547   3.404   9.887  2.4490 -1.7634  1.9870
  150MPD2     C 2283   0.058   3.161  12.121  0.6660 -0.1554 -0.4299
  150MPD2    C1 2284   0.070   3.153  11.991  0.5481 -0.3341  0.3208
  150MPD2    C2 2285   0.188   3.176  11.922 -0.1028  0.1296 -0.7476
  150MPD2    C3 2286   0.300   3.193  11.998 -0.0104 -0.6272 -0.3802
  150MPD2    C4 2287   0.291   3.199  12.134 -0.4746  0.2430 -0.2493
  150MPD2    C5 2288   0.172   3.193  12.192  0.2880 -0.3648 -0.4515
  150MPD2     H 2289   0.186   3.171  11.813  2.6627 -0.1486 -0.7780
  150MPD2    H1 2290   0.377   3.208  12.198 -1.2111 -4.2395  1.3119
  150MPD2    H2 2291   4.689   3.143  12.170  0.9657 -2.4299 -0.6654
  150MPD2    H3 2292   0.164   3.195  12.300  1.2499 -0.0468 -0.3909
  150MPD2     N 2293   0.427   3.229  11.936 -0.1427 -0.1196 -0.8322
  150MPD2    H5 2294   0.427   3.236  11.835 -1.0943  0.5217 -0.7861
  150MPD2    N1 2295   4.678   3.112  11.918 -0.0887  0.8939  0.2280
  150MPD2    H7 2296   4.593   3.111  11.973 -0.5187 -1.9115 -0.4916
  151TCq2    C1 2297   0.553   3.232  11.994 -0.0897 -0.2161 -0.0437
  151TCq2    O2 2298   0.591   3.187  12.099  0.3675 -0.5807  0.2104
  151TCq2    C2 2299   0.650   3.298  11.915 -0.1947 -0.4635 -0.4594
  151TCq2    C3 2300   0.616   3.386  11.811 -0.2588  0.4156 -0.0253
  151TCq2    C4 2301   0.718   3.465  11.752  0.4831 -0.5924  0.3733
  151TCq2    C5 2302   0.843   3.464  11.799 -0.4357 -0.3326  0.1098
  151TCq2    C6 2303   0.879   3.374  11.904 -0.2067 -0.0181 -0.4667
  151TCq2    C7 2304   0.781   3.290  11.958 -0.3384  0.1263 -0.2718
  151TCq2    C8 2305   1.019   3.347  11.932 -0.2652  0.8441 -0.1652
  151TCq2    O4 2306   1.092   3.441  11.909  0.5693  0.1831 -0.3201
  151TCq2    C9 2307   0.679   3.556  11.646  0.8643  0.0768  0.1416
  151TCq2    O5 2308   0.561   3.547  11.606 -0.4964  0.0749 -0.1962
  151TCq2    O6 2309   0.764   3.638  11.606 -0.0750  0.1115  0.5546
  151TCq2    H2 2310   0.511   3.396  11.785 -1.1207 -3.3969  1.9325
  151TCq2    H3 2311   0.918   3.535  11.764 -1.6146 -0.0793 -1.8783
  151TCq2    H4 2312   0.799   3.224  12.042 -1.0808 -0.4365 -0.5555
  152MPD2     C 2313   0.014   2.518  12.342 -0.3112  0.9417  0.0765
  152MPD2    C1 2314   0.001   2.606  12.235 -0.5941 -0.5495 -0.0750
  152MPD2    C2 2315   4.601   2.634  12.202 -1.1573 -0.5564  0.4550
  152MPD2    C3 2316   4.493   2.597  12.278  0.5684 -0.8119  0.2174
  152MPD2    C4 2317   4.502   2.518  12.394  0.6290  0.4884 -0.6862
  152MPD2    C5 2318   4.631   2.473  12.406 -0.3314 -0.6576  0.3035
  152MPD2     H 2319   4.579   2.709  12.127  0.4859  1.2819  1.8063
  152MPD2    H1 2320   4.424   2.482  12.460  0.4429 -2.0639 -2.2999
  152MPD2    H2 2321   0.112   2.486  12.375 -1.3287 -1.8892  0.3647
  152MPD2    H3 2322   4.654   2.406  12.488  0.2648  1.1798  1.6615
  152MPD2     N 2323   4.367   2.654  12.243 -0.5375  0.4604 -0.6165
  152MPD2    H5 2324   4.354   2.709  12.158 -0.2589 -0.4204 -1.2279
  152MPD2    N1 2325   0.123   2.661  12.179  0.2091  0.0833 -0.7964
  152MPD2    H7 2326   0.212   2.633  12.219 -0.4297  2.8020  2.4663
  153TCq2    C1 2327   0.131   2.747  12.070  0.0578 -0.7849  0.9515
  153TCq2    O2 2328   0.045   2.779  11.988  0.1444 -0.1406  0.3393
  153TCq2    C2 2329   0.257   2.819  12.066  0.2662 -0.5728  0.1940
  153TCq2    C3 2330   0.320   2.838  11.945 -0.7782 -1.1327 -0.6163
  153TCq2    C4 2331   0.449   2.872  11.948 -0.7149 -0.4676  0.8367
  153TCq2    C5 2332   0.518   2.876  12.067 -0.0833  0.7085 -0.2232
  153TCq2    C6 2333   0.452   2.871  12.187  0.4274 -0.2808  0.1454
  153TCq2    C7 2334   0.320   2.837  12.187  0.2049 -0.1781 -0.0090
  153TCq2    C8 2335   0.529   2.870  12.311  0.1822  1.2974 -0.4366
  153TCq2    O4 2336   0.650   2.844  12.310  0.0146 -0.1266  0.0236
  153TCq2    C9 2337   0.514   2.857  11.818 -0.7656 -0.1836 -1.0987
  153TCq2    O5 2338   0.449   2.808  11.719  0.4651 -0.2352  0.1179
  153TCq2    O6 2339   0.635   2.888  11.814  0.2062  0.4327 -0.1877
  153TCq2    H2 2340   0.265   2.824  11.852  1.7865 -1.4174 -2.0812
  153TCq2    H3 2341   0.624   2.895  12.068  0.9155 -4.5552 -2.1829
  153TCq2    H4 2342   0.261   2.834  12.278  1.0472 -1.7373  0.4782
  154MPD2     C 2343   1.103   0.297   1.886  0.2955 -0.4636 -0.4060
  154MPD2    C1 2344   1.102   0.214   1.777 -0.1016  0.3587  0.2214
  154MPD2    C2 2345   1.203   0.127   1.758 -0.0937 -0.5537  0.4096
  154MPD2    C3 2346   1.313   0.124   1.840 -0.6648 -0.3512 -0.3254
  154MPD2    C4 2347   1.319   0.215   1.941  0.7489  0.1441  0.2274
  154MPD2    C5 2348   1.214   0.296   1.966 -0.5724  0.3691  0.2466
  154MPD2     H 2349   1.202   0.064   1.670  1.3831  1.8043 -1.2963
  154MPD2    H1 2350   1.402   0.223   2.011  0.0181  0.0679  1.1097
  154MPD2    H2 2351   1.019   0.360   1.913  0.0867 -0.3829 -1.2405
  154MPD2    H3 2352   1.224   0.374   2.040 -1.6748  1.3413 -0.6368
  154MPD2     N 2353   1.411   0.029   1.814 -0.1913 -0.4052 -0.0139
  154MPD2    H5 2354   1.400   4.697   1.731 -1.8837  2.0006 -1.4365
  154MPD2    N1 2355   0.988   0.224   1.688  0.3808 -0.6888 -0.8155
  154MPD2    H7 2356   0.926   0.301   1.711  0.6765  0.9177 -5.3667
  155TCq2    C1 2357   0.966   0.161   1.569  0.5723  0.0166  0.8420
  155TCq2    O2 2358   1.031   0.074   1.514 -0.4605  0.4711 -0.7026
  155TCq2    C2 2359   0.844   0.200   1.507 -0.7073  0.5604  0.1993
  155TCq2    C3 2360   0.756   0.300   1.563 -0.4027 -0.9799 -0.4558
  155TCq2    C4 2361   0.632   0.306   1.519  0.1412  0.5889  0.5494
  155TCq2    C5 2362   0.587   0.213   1.428  0.0983  0.0132 -0.5718
  155TCq2    C6 2363   0.672   0.119   1.371 -0.1909 -0.4130  0.2324
  155TCq2    C7 2364   0.802   0.109   1.409 -0.1202  0.3120  0.2803
  155TCq2    C8 2365   0.609   0.011   1.288  0.0967  0.2914  0.7406
  155TCq2    O4 2366   0.504   0.028   1.229  0.7448  0.4250  0.5498
  155TCq2    C9 2367   0.539   0.400   1.575 -0.6110  0.7997 -0.1296
  155TCq2    O5 2368   0.425   0.394   1.524 -0.3108  0.1625  0.3360
  155TCq2    O6 2369   0.574   0.472   1.678 -0.2142 -0.4701  0.7219
  155TCq2    H2 2370   0.787   0.372   1.638  0.1413 -0.6948 -0.9613
  155TCq2    H3 2371   0.482   0.204   1.403  0.4170 -1.6282 -1.3918
  155TCq2    H4 2372   0.867   0.039   1.358  1.4316  1.6354  0.4504
  156MPD2     C 2373   4.685   4.542  11.938  0.1691  0.7563 -0.8083
  156MPD2    C1 2374   0.079   4.553  11.867 -0.0224  0.5537 -0.6593
  156MPD2    C2 2375   0.184   4.614  11.930  0.0247 -0.4782 -0.0122
  156MPD2    C3 2376   0.172   4.682  12.056 -0.1852 -0.1907 -0.3672
  156MPD2    C4 2377   0.060   4.653  12.131  0.6536  0.3646  0.6611
  156MPD2    C5 2378   4.679   4.597  12.063 -0.2648  0.0585 -0.3802
  156MPD2     H 2379   0.270   4.632  11.867 -0.3382  2.1327  0.2263
  156MPD2    H1 2380   0.043   4.704  12.225  0.8098  0.3791  0.6825
  156MPD2    H2 2381   4.597   4.497  11.894 -0.6459  1.3940  0.1556
  156MPD2    H3 2382   4.588   4.585  12.121  0.3662  0.3738  0.6973
  156MPD2     N 2383   0.276   0.042  12.105 -0.0429 -0.5487 -0.1929
  156MPD2    H5 2384   0.349   0.067  12.040  0.4881  0.3159  0.7229
  156MPD2    N1 2385   0.097   4.501  11.731  0.3252  0.4671  0.5910
  156MPD2    H7 2386   0.191   4.498  11.693  0.8390  3.5564  1.6241
  157TCq2    C1 2387   4.716   4.468  11.645  0.1980  0.6046  0.9944
  157TCq2    O2 2388   4.599   4.509  11.657  0.2617  0.0086  0.2638
  157TCq2    C2 2389   0.047   4.450  11.511  0.9786  0.2067 -0.9075
  157TCq2    C3 2390   0.167   4.388  11.504 -0.5092 -0.3045 -1.0089
  157TCq2    C4 2391   0.247   4.419  11.396  0.1453 -0.1073  0.5386
  157TCq2    C5 2392   0.211   4.499  11.299  0.2558 -0.5934 -0.0042
  157TCq2    C6 2393   0.087   4.562  11.312 -0.0854 -0.1380 -0.8401
  157TCq2    C7 2394   0.004   4.536  11.422 -0.1461 -0.0402 -0.1078
  157TCq2    C8 2395   0.038   4.636  11.196 -0.2073  0.1474 -0.2078
  157TCq2    O4 2396   0.116   4.680  11.112 -0.8363 -0.3102 -0.7269
  157TCq2    C9 2397   0.374   4.349  11.390 -0.6729 -0.3008 -0.3260
  157TCq2    O5 2398   0.420   4.282  11.493 -0.4897 -0.1183 -0.2340
  157TCq2    O6 2399   0.457   4.366  11.297 -0.1186  0.0470 -0.2417
  157TCq2    H2 2400   0.198   4.312  11.575  3.1179  1.1967 -0.9536
  157TCq2    H3 2401   0.263   4.501  11.204  1.5255 -3.5753  0.6070
  157TCq2    H4 2402   4.632   4.579  11.442 -0.3222 -1.0041  1.1397
  158TMC2    C1 2403   0.466   4.047  13.527 -1.1965  0.2857 -0.1170
  158TMC2    C2 2404   0.441   4.186  13.500 -0.9961  0.0019  0.0956
  158TMC2    C3 2405   0.375   4.221  13.385  0.4985  0.2939 -0.9095
  158TMC2    C4 2406   0.431   3.943  13.439  0.4695  0.1458  0.5107
  158TMC2    C5 2407   0.356   3.984  13.334  0.2630  0.9991 -0.0006
  158TMC2    C6 2408   0.326   4.119  13.306  0.2755 -0.1014 -0.0276
  158TMC2     C 2409   0.494   4.009  13.667 -0.6804 -0.1099  0.0243
  158TMC2     O 2410   0.516   4.093  13.747  0.6188  0.1549 -0.3368
  158TMC2     H 2411   0.461   4.261  13.575  1.7904 -0.6602 -0.0080
  158TMC2    H1 2412   0.457   3.839  13.459 -2.8785 -0.5141  1.3863
  158TMC2    H2 2413   0.256   4.145  13.228 -0.3554 -0.8370  0.2989
  158TMC2    C7 2414   0.312   3.884  13.233 -0.0158  0.5168 -0.5244
  158TMC2    C8 2415   0.281   4.333  13.398 -0.3605  0.3681 -0.7385
  158TMC2    O1 2416   0.231   3.918  13.146 -0.2081  0.2653 -0.0136
  158TMC2    O2 2417   0.256   4.384  13.507 -0.2268 -0.9528  0.3652
  158TMC2    O5 2418   0.298   4.405  13.278  0.3898  0.3413  0.1570
  158TMC2    H5 2419   0.335   4.349  13.206 -1.9192 -1.7386  0.5685
  159MPD2     C 2420   0.616   3.692  14.056 -0.4949 -0.0382 -0.1569
  159MPD2    C1 2421   0.540   3.622  13.967  0.7117 -0.0541 -0.0828
  159MPD2    C2 2422   0.488   3.677  13.847 -0.0669 -0.3057  0.0734
  159MPD2    C3 2423   0.509   3.813  13.823 -0.3094 -0.0778  0.5756
  159MPD2    C4 2424   0.594   3.879  13.916  0.2717 -0.1018  0.6938
  159MPD2    C5 2425   0.639   3.823  14.029 -0.2898  0.3953  0.2621
  159MPD2     H 2426   0.437   3.612  13.778 -0.8015  1.3237 -0.9236
  159MPD2    H1 2427   0.622   3.982  13.895 -1.9387  0.1765 -0.8726
  159MPD2    H2 2428   0.661   3.650  14.145  0.3766  0.9084 -0.1611
  159MPD2    H3 2429   0.701   3.879  14.098  0.9403 -1.1374  0.4201
  159MPD2     N 2430   0.476   3.875  13.700 -0.6957 -0.2629  0.0172
  159MPD2    H5 2431   0.424   3.814  13.638 -2.1511  1.6077 -0.6003
  159MPD2    N1 2432   0.558   3.486  13.987  0.9108  0.5788 -0.2979
  159MPD2    H7 2433   0.621   3.456  14.060  1.3052  2.2210  0.0402
  160TMC2    C1 2434   0.405   1.663   0.878  0.1921 -0.6567 -0.6306
  160TMC2    C2 2435   0.403   1.544   0.804  0.9154 -0.3101  0.3089
  160TMC2    C3 2436   0.424   1.548   0.673  0.0908 -0.5038  0.1433
  160TMC2    C4 2437   0.423   1.783   0.822  0.3060  0.1968 -0.2409
  160TMC2    C5 2438   0.437   1.785   0.680  0.0472  0.1304 -0.4430
  160TMC2    C6 2439   0.443   1.667   0.609 -0.3037 -0.2854 -0.8614
  160TMC2     C 2440   0.320   1.645   1.003 -0.4107 -0.5902  0.4602
  160TMC2     O 2441   0.308   1.532   1.042 -0.2989 -0.3860 -0.3745
  160TMC2     H 2442   0.387   1.447   0.851 -0.6941  1.1063  2.6907
  160TMC2    H1 2443   0.404   1.876   0.876  0.1396  0.6328 -1.0584
  160TMC2    H2 2444   0.478   1.675   0.507 -1.6628  0.0944 -1.2943
  160TMC2    C7 2445   0.462   1.905   0.605 -0.0427 -0.4150  0.1805
  160TMC2    C8 2446   0.448   1.427   0.601  0.8210 -0.6096 -0.0437
  160TMC2    O1 2447   0.394   1.927   0.506  0.3978  1.0091 -0.4396
  160TMC2    O2 2448   0.419   1.406   0.486 -0.0562 -0.1719 -0.5847
  160TMC2    O5 2449   0.532   1.354   0.677  0.9414 -0.3949 -0.3875
  160TMC2    H5 2450   0.571   1.407   0.750 -0.5749 -0.3787  0.4125
  161MPD2     C 2451   0.112   1.664   1.212 -0.3107  0.7497 -0.1115
  161MPD2    C1 2452   0.133   1.762   1.111  0.1453  0.4763 -0.1770
  161MPD2    C2 2453   0.045   1.868   1.106  0.0709 -0.3617 -0.8454
  161MPD2    C3 2454   4.664   1.879   1.194  0.8602 -0.0316  0.1025
  161MPD2    C4 2455   4.638   1.776   1.286 -0.2176 -0.2251 -0.5103
  161MPD2    C5 2456   4.716   1.662   1.286  0.3253  0.5631 -0.0607
  161MPD2     H 2457   0.067   1.949   1.037 -0.7841 -1.2765 -2.1939
  161MPD2    H1 2458   4.548   1.772   1.347  0.2370  0.1729  0.1832
  161MPD2    H2 2459   0.170   1.572   1.212  2.5313  2.5270 -1.9092
  161MPD2    H3 2460   4.688   1.578   1.348  0.1860  0.6265 -0.0367
  161MPD2     N 2461   4.568   1.983   1.190 -0.0454 -0.2060  0.5219
  161MPD2    H5 2462   4.484   1.986   1.246 -0.5625 -1.2644 -0.1905
  161MPD2    N1 2463   0.238   1.758   1.020 -0.5146  0.3639  0.5419
  161MPD2    H7 2464   0.232   1.833   0.952 -2.2371 -1.1931 -1.0404
  162TMC2    C1 2465   3.447   4.359   0.913  0.8991  0.5094  0.4629
  162TMC2    C2 2466   3.426   4.433   0.804 -0.0302  0.1056  0.0248
  162TMC2    C3 2467   3.347   4.536   0.820  0.2145 -0.2506  0.4900
  162TMC2    C4 2468   3.388   4.380   1.032  0.0243 -0.5201  0.5326
  162TMC2    C5 2469   3.312   4.495   1.048  0.0687  0.2178  0.3823
  162TMC2    C6 2470   3.294   4.578   0.944 -0.4575  0.2857 -0.3412
  162TMC2     C 2471   3.503   4.231   0.875  0.6347  0.2125 -0.1952
  162TMC2     O 2472   3.553   4.213   0.766  0.5869 -0.2110  0.2426
  162TMC2     H 2473   3.468   4.411   0.706 -0.9768 -0.0184 -0.3517
  162TMC2    H1 2474   3.408   4.322   1.122  0.1479 -1.8199 -0.3432
  162TMC2    H2 2475   3.240   4.671   0.954  1.1556  1.1518  0.2639
  162TMC2    C7 2476   3.243   4.519   1.170  0.1623  0.2015  0.0837
  162TMC2    C8 2477   3.348   4.630   0.712  0.7525 -0.1214  0.8499
  162TMC2    O1 2478   3.145   4.593   1.172  0.5437 -0.2456 -0.1816
  162TMC2    O2 2479   3.451   4.648   0.646  0.2587  0.2018 -0.2861
  162TMC2    O5 2480   3.254   4.721   0.726 -0.0507  0.3157 -0.0242
  162TMC2    H5 2481   3.178   4.679   0.771  0.6576 -0.1723  0.7212
  163MPD2     C 2482   3.677   3.780   1.040  0.5438 -0.4894  0.5136
  163MPD2    C1 2483   3.706   3.845   0.919 -0.4576 -0.4146  0.7621
  163MPD2    C2 2484   3.650   3.972   0.901  0.1340 -0.2204  0.3479
  163MPD2    C3 2485   3.558   4.023   0.990 -0.6942  0.7867  0.0782
  163MPD2    C4 2486   3.538   3.960   1.110  0.3102 -0.5058 -0.4448
  163MPD2    C5 2487   3.610   3.846   1.137 -0.1063 -0.0504 -0.3229
  163MPD2     H 2488   3.665   4.018   0.804  1.2303 -1.8326 -0.2672
  163MPD2    H1 2489   3.479   4.013   1.184  0.8963 -2.4902  1.4488
  163MPD2    H2 2490   3.717   3.680   1.055 -0.0163 -0.8958 -0.6898
  163MPD2    H3 2491   3.606   3.790   1.229  0.2594  0.0791 -0.2250
  163MPD2     N 2492   3.480   4.139   0.971 -0.1838  0.5794 -0.5043
  163MPD2    H5 2493   3.434   4.181   1.052  2.6566  0.2506  1.2959
  163MPD2    N1 2494   3.789   3.778   0.826 -0.1343 -0.3969 -0.2928
  163MPD2    H7 2495   3.802   3.679   0.843  0.0692  0.0422  2.0602
  164TCq2    C1 2496   3.814   3.470  10.802 -0.3280 -0.7365  0.5185
  164TCq2    O2 2497   3.715   3.395  10.817  0.3709 -0.2815  0.0551
  164TCq2    C2 2498   3.815   3.595  10.872  0.0850  0.4844  0.5144
  164TCq2    C3 2499   3.932   3.664  10.887 -0.5303  0.0092 -0.1047
  164TCq2    C4 2500   3.935   3.755  10.994 -0.3989  0.5058  0.1616
  164TCq2    C5 2501   3.826   3.787  11.070 -0.3196 -0.3558 -0.1058
  164TCq2    C6 2502   3.708   3.719  11.039 -0.1601  0.4800 -0.5401
  164TCq2    C7 2503   3.700   3.616  10.946 -0.2576  0.2222  0.1454
  164TCq2    C8 2504   3.574   3.768  11.075 -0.2194 -1.0665  0.1837
  164TCq2    O4 2505   3.486   3.755  10.989 -0.3467 -0.7879  0.0951
  164TCq2    C9 2506   4.057   3.825  11.029  0.1694  0.3032 -0.0572
  164TCq2    O5 2507   4.044   3.936  11.089 -0.0767  0.6932 -0.5150
  164TCq2    O6 2508   4.163   3.780  10.971 -0.2493  0.5834  0.0780
  164TCq2    H2 2509   4.022   3.646  10.829 -1.2847  2.1407 -1.9192
  164TCq2    H3 2510   3.825   3.858  11.152  1.9661 -0.4688  0.0213
  164TCq2    H4 2511   3.610   3.558  10.928 -1.6732  2.5610 -0.2782
  165MPD2     C 2512   4.534   1.302   1.768 -0.3288  0.1296 -1.2063
  165MPD2    C1 2513   4.640   1.284   1.684  0.2014 -0.5522 -0.1960
  165MPD2    C2 2514   4.709   1.395   1.631  0.0064 -0.5405 -0.9301
  165MPD2    C3 2515   4.671   1.522   1.669 -0.5502 -0.0820 -0.0451
  165MPD2    C4 2516   4.563   1.533   1.748  0.0533  0.1383 -0.2751
  165MPD2    C5 2517   4.499   1.428   1.809  1.0138  0.1069  0.1972
  165MPD2     H 2518   0.064   1.369   1.563 -0.2077 -0.3549 -1.2551
  165MPD2    H1 2519   4.527   1.634   1.763  1.7497  0.2718  2.9687
  165MPD2    H2 2520   4.488   1.215   1.812  1.0709  0.7360  1.4681
  165MPD2    H3 2521   4.417   1.435   1.880 -0.4405 -0.1732 -1.4568
  165MPD2     N 2522   0.008   1.647   1.627  0.2757 -0.3965 -0.0380
  165MPD2    H5 2523   4.685   1.729   1.662  1.7979 -0.0488  1.2381
  165MPD2    N1 2524   4.663   1.147   1.662 -0.0413 -0.0858 -0.1564
  165MPD2    H7 2525   4.612   1.074   1.710 -1.6303  1.5581  0.6499
  166TCq2    C1 2526   0.142   1.659   1.580  0.4243  0.0889 -0.1755
  166TCq2    O2 2527   0.222   1.571   1.558 -0.2024  0.1141  0.1312
  166TCq2    C2 2528   0.185   1.795   1.549  0.0949  0.8747 -0.3303
  166TCq2    C3 2529   0.097   1.907   1.556 -0.2880 -0.6439 -0.2016
  166TCq2    C4 2530   0.118   2.018   1.480 -0.6179 -0.5634 -0.0997
  166TCq2    C5 2531   0.230   2.027   1.400 -0.0083 -0.4690 -0.4870
  166TCq2    C6 2532   0.316   1.916   1.390  0.1821 -0.3336  0.7285
  166TCq2    C7 2533   0.296   1.807   1.469  0.0228 -0.3336 -0.3471
  166TCq2    C8 2534   0.434   1.925   1.310  0.1951 -0.0059  1.0604
  166TCq2    O4 2535   0.522   1.850   1.345  0.1858 -0.0880  0.0495
  166TCq2    C9 2536   0.047   2.142   1.512 -0.3815  0.3149  0.7350
  166TCq2    O5 2537   4.689   2.123   1.611  0.5418 -0.1501  0.4073
  166TCq2    O6 2538   0.083   2.247   1.454  1.3858 -0.1080 -0.5996
  166TCq2    H2 2539   0.001   1.897   1.605 -0.7871  0.2182 -1.0142
  166TCq2    H3 2540   0.246   2.119   1.346  1.5285  0.5983  1.8035
  166TCq2    H4 2541   0.365   1.725   1.454  1.4928  0.8419  0.0143
  167TMC2    C1 2542   2.880   2.963  12.833  0.0097 -0.0014  0.0349
  167TMC2    C2 2543   2.771   2.909  12.895  0.0744 -1.4480 -0.1360
  167TMC2    C3 2544   2.771   2.770  12.916 -0.2202 -0.0565 -0.1953
  167TMC2    C4 2545   2.966   2.878  12.770  0.3129  0.3805  0.0983
  167TMC2    C5 2546   2.971   2.746  12.804 -0.1030 -0.0214 -0.6516
  167TMC2    C6 2547   2.879   2.686  12.889  0.5666 -0.5095 -0.1264
  167TMC2     C 2548   2.868   3.104  12.789 -0.4227 -0.3162 -0.7679
  167TMC2     O 2549   2.809   3.181  12.860 -0.3730  0.1344  0.2715
  167TMC2     H 2550   2.682   2.963  12.925  0.2168 -1.3346  0.0913
  167TMC2    H1 2551   3.043   2.915  12.703 -2.4560  1.5317 -2.4338
  167TMC2    H2 2552   2.864   2.580  12.876 -2.9094 -0.0831  0.4963
  167TMC2    C7 2553   3.068   2.654  12.740 -0.1802 -0.8205  0.5397
  167TMC2    C8 2554   2.640   2.712  12.902 -0.0224 -0.1496  0.0462
  167TMC2    O1 2555   3.057   2.536  12.772 -0.2446  0.3880  0.7816
  167TMC2    O2 2556   2.557   2.746  12.817 -0.2937  0.2305 -0.1447
  167TMC2    O5 2557   2.645   2.606  12.979  0.0853 -0.2730  0.0101
  167TMC2    H5 2558   2.711   2.605  13.052  0.1343  2.7912 -0.0063
  168MPD2     C 2559   2.914   3.380  12.695  0.6810 -0.4126 -0.5803
  168MPD2    C1 2560   2.941   3.261  12.624  0.8064  0.2616  0.2488
  168MPD2    C2 2561   3.003   3.277  12.507  0.0409  0.2793 -0.3647
  168MPD2    C3 2562   3.039   3.397  12.455 -0.9671 -0.6694 -0.0496
  168MPD2    C4 2563   2.984   3.512  12.512 -0.3621 -0.4635 -0.3758
  168MPD2    C5 2564   2.935   3.499  12.637 -0.8488  0.0358 -0.1997
  168MPD2     H 2565   3.039   3.187  12.459 -0.7797  0.1718 -0.7692
  168MPD2    H1 2566   3.018   3.611  12.483  0.1626 -0.4405  0.3258
  168MPD2    H2 2567   2.880   3.394  12.797  1.5852 -0.1836 -0.3182
  168MPD2    H3 2568   2.914   3.584  12.701  0.0076 -0.7221  1.0848
  168MPD2     N 2569   3.110   3.405  12.337 -0.2712  0.5143 -0.0895
  168MPD2    H5 2570   3.093   3.483  12.274 -1.4642 -0.3253 -0.8181
  168MPD2    N1 2571   2.912   3.127  12.668 -0.2738 -0.1925 -0.6053
  168MPD2    H7 2572   2.954   3.057  12.607  1.0730  0.9576 -1.0038
  169MPD1     C 2573   4.440   3.037   8.819  0.0030  0.3600  0.0059
  169MPD1    C1 2574   4.411   3.022   8.953  0.1497 -0.0369  0.5697
  169MPD1    C2 2575   4.519   2.997   9.041  0.3712  0.6371 -0.5357
  169MPD1    C3 2576   4.649   3.026   9.009  0.0220 -0.2060  0.3171
  169MPD1    C4 2577   4.671   3.068   8.877  0.2389 -0.1803  0.4406
  169MPD1    C5 2578   4.566   3.066   8.784  0.0245 -0.2368 -0.8341
  169MPD1     H 2579   4.490   2.964   9.140  0.8106  0.9920 -0.2882
  169MPD1    H1 2580   0.048   3.082   8.846  0.7870 -0.4647  2.1034
  169MPD1    H2 2581   4.368   3.050   8.740 -1.4813  0.4537  1.3828
  169MPD1    H3 2582   4.592   3.083   8.680  0.3426 -0.0512 -0.7244
  169MPD1     N 2583   0.020   2.997   9.105 -0.1887 -0.2311 -0.7716
  169MPD1    H5 2584   4.710   2.955   9.191 -2.3243  0.2729 -1.4143
  169MPD1    N1 2585   4.283   2.978   8.987  0.0731 -0.8284  0.3382
  169MPD1    H6 2586   4.208   3.019   8.931 -0.7361 -0.6526  1.5409
  169MPD1    H7 2587   4.261   2.980   9.087  0.5551 -1.6217  0.4602
  170MPD1     C 2588   3.282   0.616  13.281  0.0507  0.6581  0.1755
  170MPD1    C1 2589   3.360   0.552  13.369  0.2038 -0.1565  0.1448
  170MPD1    C2 2590   3.485   0.604  13.392 -0.4406  0.0239  0.5631
  170MPD1    C3 2591   3.543   0.703  13.317  0.7859  0.1458 -0.1323
  170MPD1    C4 2592   3.467   0.754  13.211 -0.4830  0.3513 -0.1200
  170MPD1    C5 2593   3.340   0.711  13.198  0.2790 -0.2398  0.2069
  170MPD1     H 2594   3.556   0.568  13.465  0.1965 -1.5081 -0.8006
  170MPD1    H1 2595   3.498   0.830  13.141  1.4079  0.2834  0.6398
  170MPD1    H2 2596   3.180   0.582  13.270  0.0016  0.8058  0.1747
  170MPD1    H3 2597   3.276   0.756  13.123  1.9586 -2.2377 -2.4297
  170MPD1     N 2598   3.678   0.735  13.351  0.1746 -0.1485  0.0756
  170MPD1    H5 2599   3.719   0.703  13.438 -2.3764  1.1009  1.7506
  170MPD1    N1 2600   3.306   0.458  13.456 -0.4518 -0.5252 -0.3272
  170MPD1    H6 2601   3.221   0.430  13.408 -1.4500  1.3982  0.3013
  170MPD1    H7 2602   3.368   0.378  13.466 -0.3830 -0.4122  0.1616
  171MPD1     C 2603   3.032   2.238  15.050  0.3773  0.7776  0.6305
  171MPD1    C1 2604   2.910   2.164  15.058 -0.5226  0.4080  0.0067
  171MPD1    C2 2605   2.905   2.074  15.163 -0.2215 -0.1237  0.0278
  171MPD1    C3 2606   3.008   2.065  15.254 -0.7111  0.7981  0.2577
  171MPD1    C4 2607   3.127   2.130  15.237 -0.1275 -0.4273 -0.1400
  171MPD1    C5 2608   3.138   2.221  15.135 -0.0118  0.3229 -0.4087
  171MPD1     H 2609   2.817   2.010  15.156 -1.4114  1.2231  2.6421
  171MPD1    H1 2610   3.204   2.117  15.312 -0.3234  2.5584  0.5852
  171MPD1    H2 2611   3.045   2.314  14.973  1.0045 -0.6754 -0.6966
  171MPD1    H3 2612   3.226   2.283  15.121  1.2463 -0.6146  3.3939
  171MPD1     N 2613   3.009   1.971  15.365  0.3312  0.0051  0.5561
  171MPD1    H5 2614   3.101   1.959  15.406  2.1132  2.4140 -2.7163
  171MPD1    N1 2615   2.798   2.206  14.986  0.4278  0.2063  0.0337
  171MPD1    H6 2616   2.725   2.135  14.979  0.0425  0.6288 -0.1749
  171MPD1    H7 2617   2.823   2.246  14.896  2.7069 -1.1398  0.0631
  172MPD1     C 2618   2.251   1.099   0.767  0.4142 -0.0673 -0.0285
  172MPD1    C1 2619   2.157   1.185   0.711 -0.2836 -0.9622  0.3959
  172MPD1    C2 2620   2.195   1.321   0.704 -0.5551  0.7188 -0.2688
  172MPD1    C3 2621   2.318   1.362   0.757  0.2342  0.4721 -0.4688
  172MPD1    C4 2622   2.409   1.275   0.805 -0.1298  0.1108 -0.2794
  172MPD1    C5 2623   2.375   1.144   0.804 -0.1561 -1.4136 -0.9953
  172MPD1     H 2624   2.123   1.386   0.656 -1.0862 -0.2940 -0.8359
  172MPD1    H1 2625   2.507   1.307   0.839  0.1367  0.9282 -1.8191
  172MPD1    H2 2626   2.241   0.991   0.776  0.0343  0.0969  1.4688
  172MPD1    H3 2627   2.444   1.068   0.840  1.6679  0.5302 -0.4166
  172MPD1     N 2628   2.370   1.494   0.743 -0.2235  0.2030  0.1887
  172MPD1    H5 2629   2.462   1.502   0.786  0.5408 -2.6218 -0.8844
  172MPD1    N1 2630   2.045   1.136   0.632 -0.1958 -0.2399 -0.2790
  172MPD1    H6 2631   2.002   1.059   0.682  0.8160 -0.8457 -0.3410
  172MPD1    H7 2632   1.970   1.204   0.617 -1.0406 -1.2922 -0.7832
  173MPD1     C 2633   3.311   1.539  13.717 -0.1274 -0.5236  0.5190
  173MPD1    C1 2634   3.339   1.403  13.698 -0.1228  0.1511 -0.6778
  173MPD1    C2 2635   3.287   1.322  13.799 -0.4462  0.3041 -0.3498
  173MPD1    C3 2636   3.227   1.370  13.910 -0.0211  0.6014  0.2065
  173MPD1    C4 2637   3.195   1.504  13.920  0.3620 -0.0715  0.2828
  173MPD1    C5 2638   3.248   1.592  13.833  0.1206 -0.3052  0.5990
  173MPD1     H 2639   3.293   1.214  13.784 -0.2355  0.4200 -1.0769
  173MPD1    H1 2640   3.134   1.547  13.999 -0.0547  0.5384 -0.3700
  173MPD1    H2 2641   3.344   1.616  13.648 -2.3191 -0.5753 -0.6035
  173MPD1    H3 2642   3.216   1.696  13.834 -1.7357 -0.8758  0.7313
  173MPD1     N 2643   3.172   1.273  14.008  0.4743  0.3466 -0.9424
  173MPD1    H5 2644   3.182   1.175  13.984  0.6379  0.2710 -0.5560
  173MPD1    N1 2645   3.396   1.356  13.581  0.8117 -0.6551  0.0960
  173MPD1    H6 2646   3.472   1.417  13.549 -0.6501  0.9324 -0.3628
  173MPD1    H7 2647   3.424   1.258  13.581 -1.7104 -1.3752 -2.8034
  174MPD1     C 2648   2.917   0.355  14.070  0.2768 -0.4101 -0.2827
  174MPD1    C1 2649   2.931   0.449  13.969 -0.4881  0.3471  0.0958
  174MPD1    C2 2650   2.928   0.581  14.004  0.4151 -0.1542 -0.1940
  174MPD1    C3 2651   2.913   0.622  14.134 -0.4497  0.4662 -0.3344
  174MPD1    C4 2652   2.881   0.528  14.227  0.2090 -0.1245 -0.0853
  174MPD1    C5 2653   2.889   0.400  14.196 -0.0605 -0.7841 -0.0400
  174MPD1     H 2654   2.947   0.659  13.931 -0.6758  1.3508  1.1436
  174MPD1    H1 2655   2.871   0.556  14.331  0.5166  2.2418 -0.6882
  174MPD1    H2 2656   2.910   0.249  14.049 -0.8756 -0.5822  0.9713
  174MPD1    H3 2657   2.879   0.323  14.271 -3.0150 -0.9598 -0.5885
  174MPD1     N 2658   2.922   0.756  14.175 -0.1060  0.3084  0.3865
  174MPD1    H5 2659   2.914   0.776  14.274  1.0314  0.4976  0.4378
  174MPD1    N1 2660   2.957   0.406  13.836  0.4674 -0.0910 -0.4934
  174MPD1    H6 2661   2.914   0.466  13.766  1.4334 -0.9981 -1.8738
  174MPD1    H7 2662   2.939   0.306  13.828 -1.4850  0.2234 -0.0317
  175MPD1     C 2663   1.733   2.203  15.876 -0.8167  0.1209 -0.1229
  175MPD1    C1 2664   1.642   2.201  15.983 -0.1767 -0.0535  1.0189
  175MPD1    C2 2665   1.681   2.128  16.095 -0.2546 -0.4437  0.2144
  175MPD1    C3 2666   1.808   2.070  16.118  0.2857  0.9380  0.2136
  175MPD1    C4 2667   1.899   2.092  16.020 -0.3294 -0.4190  0.0577
  175MPD1    C5 2668   1.863   2.156  15.900  0.7946  0.3360  0.3120
  175MPD1     H 2669   1.604   2.120  16.171 -0.3480 -0.7419  0.0871
  175MPD1    H1 2670   1.999   2.051  16.028 -0.1864  0.1991  1.3949
  175MPD1    H2 2671   1.717   2.260  15.785  0.0357 -1.0112 -0.9907
  175MPD1    H3 2672   1.926   2.160  15.813 -0.4723  2.4928 -0.5160
  175MPD1     N 2673   1.845   2.017  16.243 -0.4260  0.2102 -0.3703
  175MPD1    H5 2674   1.939   1.978  16.244 -0.4516  0.2168  2.4062
  175MPD1    N1 2675   1.519   2.269  15.977 -0.8747 -0.2817  0.5191
  175MPD1    H6 2676   1.489   2.310  16.065  3.2406 -0.7892  2.1217
  175MPD1    H7 2677   1.526   2.343  15.907 -0.5712 -2.4356 -1.7537
  176MPD1     C 2678   0.088   0.645   0.084 -0.2886  0.5174  0.2909
  176MPD1    C1 2679   0.024   0.525   0.096  0.0612  0.1197  0.1088
  176MPD1    C2 2680   4.698   0.460  17.688 -0.3304  0.2159  0.7564
  176MPD1    C3 2681   4.704   0.519  17.560  0.1422 -0.5247  0.0107
  176MPD1    C4 2682   0.063   0.632  17.546  0.0400 -0.3662  0.2686
  176MPD1    C5 2683   0.109   0.695  17.666  0.3028  0.0954 -0.1912
  176MPD1     H 2684   4.653   0.362  17.697  0.4111 -0.0166  2.0320
  176MPD1    H1 2685   0.071   0.691  17.456  0.0574  0.3439  0.7390
  176MPD1    H2 2686   0.122   0.691   0.176 -1.4100  2.7444 -0.4131
  176MPD1    H3 2687   0.160   0.790  17.653 -2.3210  1.2121 -2.3171
  176MPD1     N 2688   4.635   0.455  17.452  0.6416  0.1504  0.3598
  176MPD1    H5 2689   4.570   0.378  17.466 -0.1765  0.6908 -0.4045
  176MPD1    N1 2690   4.707   0.485   0.230 -0.7662  0.5282 -0.1137
  176MPD1    H6 2691   4.715   0.384   0.238 -0.1347  0.4520 -1.6769
  176MPD1    H7 2692   0.057   0.524   0.285 -1.2423  2.8442 -1.0953
  177MPD1     C 2693   1.807   3.890  10.120 -0.0256 -0.6111  0.4415
  177MPD1    C1 2694   1.744   3.828  10.010  0.4257  0.4235  0.2271
  177MPD1    C2 2695   1.655   3.903   9.931 -0.0219  0.0072 -0.0858
  177MPD1    C3 2696   1.625   4.033   9.961  0.2264 -0.3841 -0.0804
  177MPD1    C4 2697   1.679   4.091  10.071  0.6286 -0.1127 -0.2762
  177MPD1    C5 2698   1.763   4.020  10.151 -0.3248 -0.6900  0.9249
  177MPD1     H 2699   1.608   3.852   9.848  1.1140  0.3993 -0.9710
  177MPD1    H1 2700   1.658   4.195  10.097 -1.1327 -0.9880  1.8336
  177MPD1    H2 2701   1.873   3.843  10.192 -1.3873 -2.1969  0.6574
  177MPD1    H3 2702   1.801   4.073  10.237  0.9007  0.2681 -0.2278
  177MPD1     N 2703   1.543   4.102   9.873 -0.1812  0.2879  0.2742
  177MPD1    H5 2704   1.507   4.050   9.793  0.0818  1.3964 -0.5684
  177MPD1    N1 2705   1.763   3.690   9.992  0.2447 -0.1752  0.0224
  177MPD1    H6 2706   1.855   3.661  10.022  0.5733 -0.0134 -0.8401
  177MPD1    H7 2707   1.760   3.664   9.894  2.8824 -2.8441  0.6778
  178MPD1     C 2708   0.119   0.125   0.391  0.2270 -1.1831 -0.2262
  178MPD1    C1 2709   4.721   0.145   0.330  0.0345  0.4147  0.2949
  178MPD1    C2 2710   4.725   0.155   0.189 -0.2597  0.5821 -0.6169
  178MPD1    C3 2711   0.106   0.120   0.118  0.4725 -0.2891  0.2046
  178MPD1    C4 2712   0.221   0.074   0.182 -0.6350 -0.5857  0.0207
  178MPD1    C5 2713   0.226   0.089   0.316  0.1621 -0.0371  0.8919
  178MPD1     H 2714   4.635   0.190   0.139 -1.7028 -3.1312 -0.6943
  178MPD1    H1 2715   0.308   0.031   0.132 -0.4388 -0.6961  0.4513
  178MPD1    H2 2716   0.127   0.115   0.499 -1.9663 -0.1372  0.0196
  178MPD1    H3 2717   0.309   0.060   0.381 -1.1196 -0.4143  2.3648
  178MPD1     N 2718   0.117   0.114  17.680 -0.7133  0.6120  0.2065
  178MPD1    H5 2719   0.209   0.090  17.645 -0.4896  2.5040 -0.5265
  178MPD1    N1 2720   4.613   0.171   0.415 -0.6365  0.0888 -0.6599
  178MPD1    H6 2721   4.528   0.165   0.359 -1.4663 -1.2601  0.7380
  178MPD1    H7 2722   4.610   0.119   0.503 -0.3615  0.3326 -0.5041
  179MPD1     C 2723   3.573   3.270  15.081  0.1598 -1.1055  0.2520
  179MPD1    C1 2724   3.651   3.175  15.024 -0.0834 -0.0327  0.4535
  179MPD1    C2 2725   3.631   3.037  15.055  0.0024 -0.3151  0.0551
  179MPD1    C3 2726   3.525   2.998  15.141 -0.2250  0.0313  0.3554
  179MPD1    C4 2727   3.447   3.094  15.186  0.1618  0.3232  0.0039
  179MPD1    C5 2728   3.470   3.226  15.162  0.3165  0.3155  0.5011
  179MPD1     H 2729   3.682   2.962  14.995 -0.2981  0.0464 -0.6601
  179MPD1    H1 2730   3.372   3.083  15.263 -0.9761 -0.3893 -1.2077
  179MPD1    H2 2731   3.588   3.377  15.074 -0.9358 -0.9953 -0.4011
  179MPD1    H3 2732   3.423   3.309  15.214  0.1103  0.2038  0.4913
  179MPD1     N 2733   3.505   2.868  15.185 -0.3911 -0.4170  0.0716
  179MPD1    H5 2734   3.426   2.864  15.249 -0.9312 -0.8530 -0.6243
  179MPD1    N1 2735   3.769   3.216  14.956 -0.3795 -0.1589 -0.4683
  179MPD1    H6 2736   3.754   3.303  14.903  0.9309 -0.5503 -1.4940
  179MPD1    H7 2737   3.807   3.149  14.889 -2.0642 -2.9761  1.4137
  180MPD1     C 2738   4.153   0.209  14.919  0.1573 -0.0982  0.6589
  180MPD1    C1 2739   4.114   0.250  14.791 -0.8449 -0.3499  0.5131
  180MPD1    C2 2740   4.006   0.187  14.735 -0.6202 -0.5982  0.1141
  180MPD1    C3 2741   3.947   0.069  14.783  0.3887 -0.7102  0.1674
  180MPD1    C4 2742   4.001   0.014  14.894 -0.5662 -0.3889  0.4020
  180MPD1    C5 2743   4.105   0.090  14.959 -0.6663 -0.5731 -0.0532
  180MPD1     H 2744   3.967   0.239  14.648 -0.2482 -0.6621 -0.0901
  180MPD1    H1 2745   3.965   4.650  14.945 -1.5518 -0.3353 -0.2085
  180MPD1    H2 2746   4.225   0.260  14.982  0.5269  0.5577 -0.2940
  180MPD1    H3 2747   4.138   0.057  15.057 -2.6460  1.6274  1.3409
  180MPD1     N 2748   3.846   0.008  14.714  0.4285 -0.3821 -0.0807
  180MPD1    H5 2749   3.820   0.051  14.626  0.7506 -0.3135 -0.1391
  180MPD1    N1 2750   4.155   0.379  14.751 -0.2134  0.0857  0.8191
  180MPD1    H6 2751   4.158   0.391  14.650 -0.2005 -1.2666  0.6632
  180MPD1    H7 2752   4.248   0.404  14.783 -0.3344 -0.7488  1.8463
  181MPD1     C 2753   4.416   1.033   9.765 -0.6424 -0.3020 -0.6460
  181MPD1    C1 2754   4.452   1.082   9.883 -0.4932  0.1183 -0.5251
  181MPD1    C2 2755   4.581   1.131   9.904 -0.1918  0.0156  0.4840
  181MPD1    C3 2756   4.662   1.137   9.791  0.3920 -0.4127 -0.2389
  181MPD1    C4 2757   4.632   1.077   9.671  0.6057 -0.0768  0.7256
  181MPD1    C5 2758   4.506   1.024   9.656  0.0354  0.2476 -0.4673
  181MPD1     H 2759   4.621   1.168   9.997  1.6282 -1.4833  0.2880
  181MPD1    H1 2760   4.692   1.098   9.583  0.5258 -0.8818  0.4706
  181MPD1    H2 2761   4.318   0.991   9.750 -0.9290 -0.0436  0.5091
  181MPD1    H3 2762   4.483   0.971   9.565 -1.8059  0.6917 -0.2484
  181MPD1     N 2763   0.063   1.199   9.792  0.5784  0.0757  0.0692
  181MPD1    H5 2764   0.117   1.202   9.707 -1.8219  0.4880 -1.4471
  181MPD1    N1 2765   4.372   1.068   9.996 -0.5196 -0.2302  0.0098
  181MPD1    H6 2766   4.398   1.139  10.064 -1.1271 -2.1792  2.2682
  181MPD1    H7 2767   4.274   1.066   9.967 -0.4532  0.8047 -0.2647
  182MPD1     C 2768   1.795   1.251   2.114  0.1048  0.0979 -0.2236
  182MPD1    C1 2769   1.840   1.260   1.987 -0.4544 -0.2455 -0.1690
  182MPD1    C2 2770   1.767   1.203   1.890  0.2725  0.0194  0.1092
  182MPD1    C3 2771   1.637   1.155   1.925  0.1128  0.3639  0.6320
  182MPD1    C4 2772   1.584   1.165   2.048  0.1033  0.0172 -0.2330
  182MPD1    C5 2773   1.666   1.221   2.144  0.4831  0.0835  0.4460
  182MPD1     H 2774   1.800   1.191   1.787 -0.3912 -0.5733 -0.0389
  182MPD1    H1 2775   1.482   1.144   2.079 -0.3154  0.5177 -1.2642
  182MPD1    H2 2776   1.857   1.269   2.201  1.1457  2.2174 -1.4149
  182MPD1    H3 2777   1.622   1.231   2.243  1.5102 -0.2651  0.9381
  182MPD1     N 2778   1.551   1.101   1.823  0.3944  0.7792 -0.8431
  182MPD1    H5 2779   1.458   1.081   1.857 -0.5776  0.9071 -3.3696
  182MPD1    N1 2780   1.976   1.287   1.965  0.9405 -0.7111  0.6009
  182MPD1    H6 2781   1.983   1.310   1.866 -0.4574 -3.1503 -0.0631
  182MPD1    H7 2782   2.012   1.366   2.019  0.2577  1.1125 -1.5989
  183MPD1     C 2783   2.197   1.238   8.819  0.8902  0.9082 -0.0896
  183MPD1    C1 2784   2.151   1.351   8.875 -0.9411 -0.2568  0.1586
  183MPD1    C2 2785   2.058   1.345   8.979  0.3592 -0.0157  0.2233
  183MPD1    C3 2786   2.011   1.219   9.020 -0.5047 -0.4885 -0.0688
  183MPD1    C4 2787   2.058   1.102   8.964  0.2526 -0.0052  0.6027
  183MPD1    C5 2788   2.146   1.120   8.871  0.1751  0.3173 -0.3283
  183MPD1     H 2789   2.021   1.434   9.030 -0.9002 -0.4009 -0.0250
  183MPD1    H1 2790   2.034   1.001   8.994 -1.2611 -0.0180 -0.6729
  183MPD1    H2 2791   2.276   1.230   8.746 -1.4610 -1.0589 -2.3806
  183MPD1    H3 2792   2.183   1.024   8.838  0.5177 -0.2598  1.7489
  183MPD1     N 2793   1.921   1.218   9.130 -0.6224 -0.1285 -0.5029
  183MPD1    H5 2794   1.873   1.307   9.141  1.0215  0.6422  0.4589
  183MPD1    N1 2795   2.195   1.473   8.822  0.2544  0.1509 -0.5986
  183MPD1    H6 2796   2.167   1.552   8.880 -0.6764 -0.5636 -0.0863
  183MPD1    H7 2797   2.295   1.474   8.803  0.4868 -0.6527  0.5604
  184MPD1     C 2798   0.937   3.320  10.089  0.3163  0.1629  0.0867
  184MPD1    C1 2799   0.819   3.335  10.016  0.1313 -0.2021 -0.4441
  184MPD1    C2 2800   0.807   3.442   9.925 -0.1837 -0.9523 -0.2827
  184MPD1    C3 2801   0.907   3.539   9.915  0.1230  0.9627  0.4521
  184MPD1    C4 2802   1.022   3.521   9.990 -0.6509  0.0611  0.1937
  184MPD1    C5 2803   1.039   3.410  10.067 -0.3438 -0.0556 -0.4469
  184MPD1     H 2804   0.715   3.460   9.870  1.4008  0.4997 -2.5133
  184MPD1    H1 2805   1.104   3.592   9.986 -1.3606  0.8789  0.0472
  184MPD1    H2 2806   0.951   3.235  10.155 -1.3446 -0.1871 -0.0191
  184MPD1    H3 2807   1.126   3.400  10.130  1.0407  1.1898 -2.1681
  184MPD1     N 2808   0.907   3.657   9.837 -0.4548 -0.0649  0.5892
  184MPD1    H5 2809   0.984   3.724   9.840  0.5357 -1.1411 -0.7219
  184MPD1    N1 2810   0.704   3.270  10.060 -0.2193 -0.2423 -0.1529
  184MPD1    H6 2811   0.662   3.254   9.968 -0.0406 -1.7413  0.0194
  184MPD1    H7 2812   0.718   3.189  10.120 -2.4185 -0.9372 -0.5802
  185MPD1     C 2813   0.193   4.344   9.413 -0.0936 -0.1806  0.2986
  185MPD1    C1 2814   0.180   4.219   9.467  0.7584  0.9335 -1.3541
  185MPD1    C2 2815   0.293   4.153   9.503 -0.5344 -0.5962 -0.6658
  185MPD1    C3 2816   0.417   4.199   9.456 -0.1443  0.1262 -0.1906
  185MPD1    C4 2817   0.426   4.319   9.398 -0.6771  0.4517 -0.5642
  185MPD1    C5 2818   0.319   4.396   9.387 -0.4321  0.2762  0.7250
  185MPD1     H 2819   0.290   4.071   9.574  1.4484  1.7259  2.1059
  185MPD1    H1 2820   0.521   4.366   9.379  0.0327 -0.4024  0.8163
  185MPD1    H2 2821   0.115   4.407   9.373 -0.4903 -0.1963  1.0636
  185MPD1    H3 2822   0.332   4.498   9.353 -2.7800  0.0048 -0.9531
  185MPD1     N 2823   0.542   4.142   9.485  0.1196 -0.2803 -0.3081
  185MPD1    H5 2824   0.625   4.199   9.475  0.0769 -0.3667 -1.1981
  185MPD1    N1 2825   0.059   4.189   9.538 -0.3864 -1.1044  0.4951
  185MPD1    H6 2826   4.696   4.208   9.491  0.6693 -1.5524 -1.6496
  185MPD1    H7 2827   0.038   4.090   9.541 -0.5087 -1.1215 -1.0315
  186MPD1     C 2828   4.085   3.080  15.528  0.3277 -0.3482 -0.6735
  186MPD1    C1 2829   4.150   3.037  15.635 -0.1862  0.2479 -0.4627
  186MPD1    C2 2830   4.173   3.119  15.744  0.2155 -0.4206  0.0146
  186MPD1    C3 2831   4.111   3.246  15.754  0.3838  0.2388  0.5670
  186MPD1    C4 2832   4.054   3.293  15.637  0.0013 -0.2909 -0.1502
  186MPD1    C5 2833   4.045   3.207  15.527  0.2291  0.2314  0.2596
  186MPD1     H 2834   4.235   3.083  15.824  1.0829 -1.7325 -1.2518
  186MPD1    H1 2835   4.016   3.394  15.634  0.9707  0.0646 -0.3125
  186MPD1    H2 2836   4.079   3.025  15.435  1.1247 -1.0999 -0.2785
  186MPD1    H3 2837   3.986   3.241  15.442  0.6397 -0.7618 -0.4244
  186MPD1     N 2838   4.125   3.330  15.869  1.3974  0.1775  0.0112
  186MPD1    H5 2839   4.096   3.428  15.870  1.8551  0.3013  2.0936
  186MPD1    N1 2840   4.235   2.918  15.618 -0.2991  0.8515 -0.0974
  186MPD1    H6 2841   4.177   2.855  15.563  2.3864 -0.1111 -1.8372
  186MPD1    H7 2842   4.249   2.874  15.709  2.4175  1.7982 -0.0556
  187MPD1     C 2843   4.295   0.610  17.376  0.3920 -0.3634 -0.7243
  187MPD1    C1 2844   4.194   0.517  17.366  0.1317  0.2471 -0.7376
  187MPD1    C2 2845   4.089   0.545  17.280 -1.1562 -0.5679 -0.0107
  187MPD1    C3 2846   4.094   0.654  17.194  0.4937 -0.5594 -0.4999
  187MPD1    C4 2847   4.206   0.740  17.206 -0.0788  0.1994 -0.1549
  187MPD1    C5 2848   4.310   0.710  17.290  0.2888  0.5139 -0.1060
  187MPD1     H 2849   4.000   0.484  17.274 -0.6792 -1.3855  1.1934
  187MPD1    H1 2850   4.220   0.830  17.147 -2.8719 -0.0819 -1.2540
  187MPD1    H2 2851   4.367   0.597  17.456 -0.1758  0.4688 -0.0715
  187MPD1    H3 2852   4.388   0.783  17.310 -1.5057  1.6855  2.5292
  187MPD1     N 2853   3.987   0.702  17.113 -0.4759 -0.1428 -0.2852
  187MPD1    H5 2854   4.006   0.797  17.081 -0.4678  0.6138  1.9926
  187MPD1    N1 2855   4.184   0.422  17.468 -0.0046  0.5493  1.3138
  187MPD1    H6 2856   4.137   0.338  17.435  1.4277  0.2739  0.0101
  187MPD1    H7 2857   4.277   0.399  17.504  0.7592 -1.0215 -1.6487
  188MPD1     C 2858   3.095   0.000  10.742  0.0351  0.1492 -0.5945
  188MPD1    C1 2859   3.005   0.071  10.665 -0.2580  0.7138  0.3153
  188MPD1    C2 2860   2.962   0.022  10.541 -0.2550 -0.2143 -0.3268
  188MPD1    C3 2861   3.000   4.621  10.493 -0.1537  0.0169 -0.2535
  188MPD1    C4 2862   3.100   4.565  10.568  0.1308 -0.1598  0.1144
  188MPD1    C5 2863   3.142   4.613  10.688  0.2895  0.0599 -0.0563
  188MPD1     H 2864   2.900   0.081  10.474 -2.6289 -2.9324 -0.5142
  188MPD1    H1 2865   3.154   4.481  10.525  1.7303  0.1548  1.4945
  188MPD1    H2 2866   3.145   0.042  10.829  0.2042 -1.6644  0.1650
  188MPD1    H3 2867   3.228   4.562  10.730  0.7481  0.0189 -1.0173
  188MPD1     N 2868   2.958   4.567  10.370 -0.4351 -0.1330 -0.2082
  188MPD1    H5 2869   3.019   4.494  10.335 -1.9185 -1.6607  0.4006
  188MPD1    N1 2870   2.971   0.202  10.706 -0.5802  0.7518 -0.2392
  188MPD1    H6 2871   2.876   0.229  10.682 -1.8311 -0.1236  3.6718
  188MPD1    H7 2872   2.975   0.216  10.807  1.1776 -2.0120  0.0907
  189MPD1     C 2873   0.693   0.625   0.394 -0.3710 -0.0250 -0.1680
  189MPD1    C1 2874   0.588   0.608   0.307 -0.0113  0.1783 -0.0470
  189MPD1    C2 2875   0.535   0.716   0.243 -0.1185 -0.1350 -0.0360
  189MPD1    C3 2876   0.578   0.845   0.263  0.7183 -0.3134 -0.3345
  189MPD1    C4 2877   0.690   0.864   0.347 -0.3464  0.0368  0.5504
  189MPD1    C5 2878   0.739   0.754   0.408  0.7651 -0.4923  0.2257
  189MPD1     H 2879   0.446   0.701   0.184  1.1948 -0.0651 -2.0622
  189MPD1    H1 2880   0.731   0.963   0.363  1.2702 -0.0292 -2.9803
  189MPD1    H2 2881   0.754   0.547   0.439 -0.8718 -1.5963 -2.2277
  189MPD1    H3 2882   0.820   0.765   0.479  0.2512 -1.2746  0.9230
  189MPD1     N 2883   0.494   0.944   0.210  0.0627  0.3677  0.6258
  189MPD1    H5 2884   0.423   0.914   0.143 -0.0271  1.9364  0.0224
  189MPD1    N1 2885   0.537   0.482   0.277 -0.5414  0.6279  0.0797
  189MPD1    H6 2886   0.435   0.482   0.269 -0.4595 -0.6760 -1.0920
  189MPD1    H7 2887   0.575   0.399   0.322  0.1238  0.4077 -0.8625
  190MPD1     C 2888   3.431   4.246  15.154  0.4696  0.2283  0.2529
  190MPD1    C1 2889   3.549   4.218  15.090  0.4694 -0.0496 -0.0119
  190MPD1    C2 2890   3.663   4.194  15.172  0.5308  0.1579  0.6261
  190MPD1    C3 2891   3.658   4.222  15.309  0.2880  0.0044 -0.1244
  190MPD1    C4 2892   3.536   4.256  15.365  0.6101 -0.6618  0.1969
  190MPD1    C5 2893   3.419   4.262  15.293 -0.2837  0.7189  0.1120
  190MPD1     H 2894   3.756   4.165  15.123  0.3698 -0.1977  0.5253
  190MPD1    H1 2895   3.524   4.260  15.472  0.6976 -1.1509  0.2240
  190MPD1    H2 2896   3.339   4.265  15.100 -0.0087 -0.1377  0.9409
  190MPD1    H3 2897   3.320   4.289  15.331  0.1072  2.4462 -0.0794
  190MPD1     N 2898   3.774   4.210  15.394 -0.2387  0.0984 -0.2389
  190MPD1    H5 2899   3.850   4.159  15.352  1.7042  1.2496  1.8720
  190MPD1    N1 2900   3.558   4.177  14.954 -0.1706  0.3072 -0.3350
  190MPD1    H6 2901   3.647   4.212  14.917  0.2175  0.3714  0.6592
  190MPD1    H7 2902   3.497   4.234  14.895 -0.6577  1.3638  1.1900
  191MPD1     C 2903   2.788   1.556  12.750 -0.3871 -0.1851  0.9725
  191MPD1    C1 2904   2.732   1.640  12.656  0.5416  0.1257  0.3545
  191MPD1    C2 2905   2.812   1.677  12.543 -0.4792 -0.6458  0.9358
  191MPD1    C3 2906   2.939   1.635  12.534 -0.2522  0.0078  0.7158
  191MPD1    C4 2907   2.992   1.545  12.630 -0.2154 -0.5065  0.9822
  191MPD1    C5 2908   2.912   1.505  12.739  0.4495  1.0023 -0.1884
  191MPD1     H 2909   2.773   1.745  12.468 -1.4593 -0.3361  1.7250
  191MPD1    H1 2910   3.096   1.516  12.638 -0.0265  0.3809  1.6657
  191MPD1    H2 2911   2.725   1.524  12.832 -0.9013 -1.0764  0.2295
  191MPD1    H3 2912   2.944   1.436  12.816 -0.4428  1.2399  0.4065
  191MPD1     N 2913   3.017   1.678  12.424  0.0107  0.6163 -0.0526
  191MPD1    H5 2914   2.982   1.752  12.365  0.4890  0.9619  0.1018
  191MPD1    N1 2915   2.595   1.685  12.669 -0.0814  0.3486  0.3129
  191MPD1    H6 2916   2.573   1.688  12.768 -0.4318 -0.6443  0.2630
  191MPD1    H7 2917   2.599   1.784  12.645  0.8812 -0.0100 -1.0153
  192MPD1     C 2918   3.098   2.315  11.668  0.1108 -0.5803  0.2619
  192MPD1    C1 2919   3.027   2.295  11.779 -0.5222  0.2264 -0.5558
  192MPD1    C2 2920   3.045   2.184  11.853  0.1248  0.1279 -0.6260
  192MPD1    C3 2921   3.152   2.101  11.833 -0.2160  0.2014 -0.0570
  192MPD1    C4 2922   3.229   2.132  11.728  0.1223 -0.2846  0.1987
  192MPD1    C5 2923   3.207   2.237  11.650 -0.3304  0.8520  0.7715
  192MPD1     H 2924   2.970   2.158  11.927  0.4198 -0.3478 -0.4934
  192MPD1    H1 2925   3.314   2.067  11.710  2.2071  1.6337  3.1239
  192MPD1    H2 2926   3.076   2.396  11.599 -1.4192 -2.1959 -1.1802
  192MPD1    H3 2927   3.264   2.248  11.559 -2.4541  0.7050 -0.5835
  192MPD1     N 2928   3.185   1.986  11.909 -0.0080 -0.0051  0.7381
  192MPD1    H5 2929   3.262   1.925  11.884 -0.5355 -0.4006  0.0796
  192MPD1    N1 2930   2.911   2.369  11.804  0.2963 -0.4741  0.1437
  192MPD1    H6 2931   2.899   2.373  11.905  0.3410 -1.7567  0.2038
  192MPD1    H7 2932   2.899   2.464  11.772  0.1239 -0.6894 -0.4279
  193MPD1     C 2933   2.600   1.877  16.056 -0.6806  0.0044  0.5539
  193MPD1    C1 2934   2.716   1.826  16.005  0.1388  1.1260 -0.3237
  193MPD1    C2 2935   2.829   1.865  16.075  0.1651 -0.5519  0.0816
  193MPD1    C3 2936   2.832   1.926  16.201 -0.4999 -0.1978 -0.1484
  193MPD1    C4 2937   2.717   1.976  16.247 -0.1173  0.0096 -0.2940
  193MPD1    C5 2938   2.605   1.954  16.175  0.7964 -1.1767 -0.4907
  193MPD1     H 2939   2.923   1.831  16.035  1.1119  0.4760  1.4220
  193MPD1    H1 2940   2.711   2.040  16.334  2.2118 -0.0314 -0.1077
  193MPD1    H2 2941   2.506   1.870  16.003 -0.7008 -0.5986  0.6759
  193MPD1    H3 2942   2.508   1.994  16.200  1.1465 -0.0111 -0.9927
  193MPD1     N 2943   2.948   1.939  16.278  0.1701  0.5213  0.7406
  193MPD1    H5 2944   2.948   2.001  16.358 -1.2274 -0.0451  1.1860
  193MPD1    N1 2945   2.715   1.781  15.871 -0.2525  0.0495  0.1062
  193MPD1    H6 2946   2.628   1.733  15.850 -1.2091  1.9875 -0.3567
  193MPD1    H7 2947   2.788   1.711  15.858  0.6087  1.0865 -0.6343
  194MPD1     C 2948   0.975   4.397  16.622 -0.2973 -0.3213 -0.6220
  194MPD1    C1 2949   0.881   4.298  16.606  0.3787 -0.1230 -0.3565
  194MPD1    C2 2950   0.934   4.169  16.615 -0.4331  0.3740  0.6128
  194MPD1    C3 2951   1.063   4.141  16.644  0.1437 -0.6277 -0.2707
  194MPD1    C4 2952   1.152   4.246  16.658  0.5063 -0.3898 -0.3641
  194MPD1    C5 2953   1.107   4.376  16.646 -0.0748  0.0374  0.2089
  194MPD1     H 2954   0.871   4.082  16.603  0.0259  0.1964 -0.4964
  194MPD1    H1 2955   1.258   4.227  16.658  0.6266  0.3030  1.4159
  194MPD1    H2 2956   0.937   4.498  16.620  3.0012  0.9210  0.5689
  194MPD1    H3 2957   1.177   4.459  16.645 -1.3729  1.0810 -2.7464
  194MPD1     N 2958   1.119   4.013  16.646 -0.2171 -0.6182  0.3957
  194MPD1    H5 2959   1.217   4.011  16.673  0.1538 -0.0679 -0.9322
  194MPD1    N1 2960   0.750   4.330  16.568 -0.2774  0.5454  0.1474
  194MPD1    H6 2961   0.757   4.404  16.498  2.1341  1.2719  1.1573
  194MPD1    H7 2962   0.695   4.249  16.539 -1.3826  1.2599  0.2651
  195MPD1     C 2963   3.396   1.062  17.360  0.1054  0.1732 -0.1925
  195MPD1    C1 2964   3.499   0.977  17.376 -0.2854 -0.6289 -0.4042
  195MPD1    C2 2965   3.488   0.844  17.344  0.2962  0.2342 -0.1777
  195MPD1    C3 2966   3.359   0.791  17.324  0.2380 -0.7446  0.3089
  195MPD1    C4 2967   3.251   0.879  17.309 -0.5749  0.0236 -0.4703
  195MPD1    C5 2968   3.270   1.015  17.336  0.4025  0.4384  0.5788
  195MPD1     H 2969   3.576   0.781  17.331  0.1584  0.2029 -0.9354
  195MPD1    H1 2970   3.151   0.846  17.283 -1.9341  2.9443  0.9403
  195MPD1    H2 2971   3.405   1.167  17.387 -1.7400  0.3480 -0.2833
  195MPD1    H3 2972   3.180   1.075  17.329  0.8956  1.3149  1.7057
  195MPD1     N 2973   3.339   0.651  17.314  0.0613  0.4794 -0.0838
  195MPD1    H5 2974   3.240   0.625  17.314 -0.3907  2.2047 -0.6115
  195MPD1    N1 2975   3.624   1.031  17.407 -0.1979 -0.0773  0.0400
  195MPD1    H6 2976   3.686   0.958  17.441 -0.7759 -0.5730  0.0472
  195MPD1    H7 2977   3.633   1.109  17.471  0.4625  0.5796 -0.8629
  196MPD1     C 2978   2.372   0.147   0.526 -0.4784  0.3329  0.7003
  196MPD1    C1 2979   2.480   0.240   0.542  0.4226 -0.5007  0.0047
  196MPD1    C2 2980   2.511   0.280   0.674  0.4504 -0.1685 -0.2788
  196MPD1    C3 2981   2.439   0.235   0.783 -0.2468 -0.4394  0.5930
  196MPD1    C4 2982   2.339   0.146   0.762 -0.2013 -0.2047 -0.2702
  196MPD1    C5 2983   2.299   0.104   0.635 -0.0411  0.5583  0.0214
  196MPD1     H 2984   2.583   0.361   0.683 -0.2580  0.3641  0.6140
  196MPD1    H1 2985   2.270   0.109   0.838  1.8641  1.3765  2.4053
  196MPD1    H2 2986   2.348   0.104   0.430  0.6167 -0.2654  0.7026
  196MPD1    H3 2987   2.213   0.039   0.619  1.1710 -1.2360  0.8292
  196MPD1     N 2988   2.462   0.289   0.912  0.3926 -0.0368  0.1961
  196MPD1    H5 2989   2.393   0.265   0.983 -0.8142 -0.3616 -1.0832
  196MPD1    N1 2990   2.535   0.306   0.433  0.0745 -0.0690 -0.3969
  196MPD1    H6 2991   2.573   0.237   0.368  0.2731 -0.4210  0.0930
  196MPD1    H7 2992   2.612   0.365   0.464 -0.7287  0.7732 -0.0036
  197MPD1     C 2993   2.435   3.342   0.045 -0.4233 -1.0869 -0.0333
  197MPD1    C1 2994   2.481   3.242  17.674  0.1087 -0.7467  0.3419
  197MPD1    C2 2995   2.406   3.216  17.560  0.8667 -0.1706 -0.0966
  197MPD1    C3 2996   2.297   3.297  17.519 -0.2939 -0.3841  0.0690
  197MPD1    C4 2997   2.265   3.405  17.596  0.0097 -0.0212  0.0951
  197MPD1    C5 2998   2.333   3.425   0.009  0.1195 -0.1007 -0.6511
  197MPD1     H 2999   2.429   3.123  17.509 -2.0220 -0.7396 -0.3110
  197MPD1    H1 3000   2.201   3.483  17.555  0.4567 -0.1871 -0.9361
  197MPD1    H2 3001   2.468   3.366   0.146  0.8587  1.5420 -1.0722
  197MPD1    H3 3002   2.308   3.519   0.057  2.3323 -0.6864  1.6426
  197MPD1     N 3003   2.226   3.274  17.394  1.1428  0.3142 -0.3940
  197MPD1    H5 3004   2.145   3.334  17.380  1.6996  0.4065 -3.1944
  197MPD1    N1 3005   2.548   3.142   0.042  0.4949  0.3261  0.5341
  197MPD1    H6 3006   2.614   3.188   0.105  1.8986 -0.4063 -0.3881
  197MPD1    H7 3007   2.610   3.082  17.690  0.2008  0.4328  0.0887
  198MPD1     C 3008   3.655   0.497  15.368  0.5563 -0.0135 -0.0560
  198MPD1    C1 3009   3.763   0.466  15.457 -0.0849  0.1345  0.1470
  198MPD1    C2 3010   3.804   0.561  15.546  0.2131  0.2779 -0.3122
  198MPD1    C3 3011   3.724   0.671  15.567 -0.1540 -0.0430 -0.0783
  198MPD1    C4 3012   3.607   0.690  15.494 -0.5477  0.2148  0.1218
  198MPD1    C5 3013   3.585   0.610  15.384 -0.5428 -0.9349  0.1735
  198MPD1     H 3014   3.903   0.563  15.590 -0.2246  0.3681  0.6797
  198MPD1    H1 3015   3.534   0.767  15.517 -0.3267  0.5081 -0.1507
  198MPD1    H2 3016   3.630   0.430  15.286  0.7231 -1.4629  1.0702
  198MPD1    H3 3017   3.499   0.631  15.321  0.8059  3.1507 -0.3013
  198MPD1     N 3018   3.771   0.749  15.669  0.0419 -0.3864 -0.0836
  198MPD1    H5 3019   3.852   0.720  15.723 -0.8759  0.9011  1.9941
  198MPD1    N1 3020   3.849   0.360  15.431 -0.3942 -0.2980  0.0859
  198MPD1    H6 3021   3.806   0.289  15.371 -1.9297  0.9910 -0.3403
  198MPD1    H7 3022   3.899   0.324  15.512 -0.9324 -0.1238  0.4867
  199MPD1     C 3023   1.449   1.945   9.675  1.0086  0.1978  0.0696
  199MPD1    C1 3024   1.404   2.059   9.734 -0.3760 -0.6520  0.5241
  199MPD1    C2 3025   1.266   2.095   9.720 -0.8673  0.5075  0.4522
  199MPD1    C3 3026   1.175   2.004   9.658 -0.3114 -0.1113 -0.1694
  199MPD1    C4 3027   1.228   1.881   9.613 -0.1099 -0.3267  0.3322
  199MPD1    C5 3028   1.364   1.858   9.616  0.1295  0.2409 -0.3108
  199MPD1     H 3029   1.223   2.188   9.757 -0.0217  1.4934 -1.0546
  199MPD1    H1 3030   1.171   1.802   9.567 -2.2660  1.6915 -0.4970
  199MPD1    H2 3031   1.553   1.915   9.676  0.7952 -0.5542 -1.6637
  199MPD1    H3 3032   1.407   1.767   9.577  1.3245  0.6071  0.1736
  199MPD1     N 3033   1.033   2.016   9.654  0.5037  0.4719 -0.5808
  199MPD1    H5 3034   0.990   1.928   9.628 -0.5433  0.8737 -0.2528
  199MPD1    N1 3035   1.497   2.146   9.789 -0.5791 -0.4504  0.4710
  199MPD1    H6 3036   1.583   2.094   9.806 -0.0352  0.6450  1.0303
  199MPD1    H7 3037   1.465   2.181   9.879  1.3105  0.0167  0.9538
  200MPD1     C 3038   3.425   2.232  13.584 -0.0419 -0.2202  0.3061
  200MPD1    C1 3039   3.467   2.296  13.472 -0.4972  0.0255  0.1076
  200MPD1    C2 3040   3.590   2.257  13.419  0.1651  0.2428 -0.4248
  200MPD1    C3 3041   3.667   2.156  13.472  0.0025 -0.1804  0.3517
  200MPD1    C4 3042   3.623   2.095  13.589  0.4463 -0.0040 -0.1735
  200MPD1    C5 3043   3.501   2.130  13.641 -0.2989 -0.0113 -0.1209
  200MPD1     H 3044   3.623   2.314  13.332  1.5720 -0.6553 -0.4833
  200MPD1    H1 3045   3.680   2.021  13.643 -1.3464 -2.3546 -1.5188
  200MPD1    H2 3046   3.323   2.248  13.618  0.0154 -0.4774  0.5989
  200MPD1    H3 3047   3.454   2.081  13.726  1.4673  0.1464  0.9529
  200MPD1     N 3048   3.796   2.138  13.420 -0.2870 -0.1702  0.0082
  200MPD1    H5 3049   3.835   2.208  13.358 -0.2536  0.7926  1.1147
  200MPD1    N1 3050   3.407   2.418  13.426 -0.2091  0.1984 -0.3002
  200MPD1    H6 3051   3.375   2.414  13.330  0.2642  1.2627 -0.5040
  200MPD1    H7 3052   3.323   2.446  13.477 -0.0244 -0.0711  0.1472
  201MPD1     C 3053   1.720   1.059  13.151  0.0029 -0.3410  0.2970
  201MPD1    C1 3054   1.665   0.938  13.111 -0.2827  0.2038  0.1684
  201MPD1    C2 3055   1.750   0.834  13.119  1.5724  0.3257  0.0562
  201MPD1    C3 3056   1.881   0.846  13.160  0.5354  0.1155 -0.3288
  201MPD1    C4 3057   1.930   0.972  13.210 -0.1270  0.9039 -0.0628
  201MPD1    C5 3058   1.843   1.077  13.198  0.1064 -0.2466 -0.6947
  201MPD1     H 3059   1.721   0.731  13.097  2.1762  0.3055 -0.6542
  201MPD1    H1 3060   2.027   0.993  13.253 -0.4043  1.8321  0.1069
  201MPD1    H2 3061   1.665   1.152  13.139  1.5914  0.6596  0.8108
  201MPD1    H3 3062   1.880   1.176  13.221 -0.6143  0.2678 -1.7518
  201MPD1     N 3063   1.958   0.728  13.160  0.0431 -0.3244  0.4665
  201MPD1    H5 3064   1.916   0.639  13.135  0.4781  0.0809 -1.6951
  201MPD1    N1 3065   1.540   0.935  13.046  0.1719  0.3033  0.2526
  201MPD1    H6 3066   1.506   0.840  13.030  0.2421  0.3444 -0.1278
  201MPD1    H7 3067   1.547   0.966  12.949  1.7465 -0.7674  0.0375
  202MPD1     C 3068   1.879   4.513   9.136  0.5073 -0.0539  0.2045
  202MPD1    C1 3069   1.934   4.633   9.116 -0.3389 -0.5255  0.3698
  202MPD1    C2 3070   1.961   4.700   9.233 -0.6022 -0.3669 -0.4229
  202MPD1    C3 3071   1.940   4.645   9.360  0.4153  0.5181 -0.1646
  202MPD1    C4 3072   1.897   4.516   9.374  0.5675  0.4793  0.0078
  202MPD1    C5 3073   1.872   4.452   9.256 -0.2662 -0.4996  1.4521
  202MPD1     H 3074   2.015   0.066   9.215 -2.7928  0.9854 -0.1943
  202MPD1    H1 3075   1.879   4.468   9.469  2.0580 -0.5219 -0.2164
  202MPD1    H2 3076   1.830   4.461   9.055  0.1676  0.2094  0.2393
  202MPD1    H3 3077   1.828   4.354   9.270  0.8099 -0.7917  2.7965
  202MPD1     N 3078   1.972   4.717   9.476 -0.0516  0.0622  0.0324
  202MPD1    H5 3079   1.973   4.664   9.562 -3.6598 -0.0029  0.0561
  202MPD1    N1 3080   1.903   4.710   9.003  0.4906 -0.2411  0.6091
  202MPD1    H6 3081   1.968   0.061   8.990  0.9944 -0.4763  1.7406
  202MPD1    H7 3082   1.892   4.662   8.914 -0.2074 -2.7637  2.0479
  203MPD1     C 3083   0.625   1.685  12.566  0.1395  0.3828  0.3394
  203MPD1    C1 3084   0.635   1.601  12.457 -0.2057  0.1499  0.0356
  203MPD1    C2 3085   0.654   1.465  12.482  0.5514  0.1889  0.2708
  203MPD1    C3 3086   0.671   1.418  12.606  0.4877  0.2530  0.3286
  203MPD1    C4 3087   0.675   1.512  12.704 -0.0955 -0.3058  0.1641
  203MPD1    C5 3088   0.652   1.642  12.688  0.5476 -0.2116 -0.4000
  203MPD1     H 3089   0.656   1.392  12.402  2.7154 -1.0133  1.3977
  203MPD1    H1 3090   0.695   1.482  12.807 -1.5620 -1.6706  0.0551
  203MPD1    H2 3091   0.607   1.791  12.556 -2.3093 -0.2780 -2.5938
  203MPD1    H3 3092   0.664   1.707  12.774 -0.2610 -3.0267  1.8232
  203MPD1     N 3093   0.703   1.280  12.628 -0.0760  0.7266 -1.0464
  203MPD1    H5 3094   0.715   1.217  12.549  2.3922 -0.4927  0.2805
  203MPD1    N1 3095   0.608   1.642  12.327 -0.0713 -0.0586 -0.3608
  203MPD1    H6 3096   0.620   1.743  12.316  0.6308 -0.0609  0.3731
  203MPD1    H7 3097   0.658   1.580  12.263  0.5140 -0.5564  0.5885
  204MPD1     C 3098   1.389   2.218   0.579  0.7346 -1.5570 -0.0240
  204MPD1    C1 3099   1.293   2.135   0.631 -0.5365 -0.1514  0.0592
  204MPD1    C2 3100   1.186   2.097   0.557 -0.1282  0.5449  0.1542
  204MPD1    C3 3101   1.178   2.136   0.418 -0.1837  0.5337 -0.7026
  204MPD1    C4 3102   1.272   2.224   0.372  0.1088  0.5485 -0.3566
  204MPD1    C5 3103   1.371   2.267   0.450  0.1545  0.4151 -0.0538
  204MPD1     H 3104   1.111   2.030   0.598  1.6278 -0.0428  2.4256
  204MPD1    H1 3105   1.271   2.255   0.269  1.0330  1.7095 -0.0143
  204MPD1    H2 3106   1.474   2.242   0.641 -0.0436 -0.2709  0.5556
  204MPD1    H3 3107   1.452   2.326   0.410 -0.1341  0.5474 -0.4464
  204MPD1     N 3108   1.064   2.090   0.337  0.2039 -0.8282  0.2307
  204MPD1    H5 3109   1.006   2.023   0.387 -1.1296 -1.3274 -1.9911
  204MPD1    N1 3110   1.297   2.101   0.767  0.2736  0.1936  0.0887
  204MPD1    H6 3111   1.395   2.114   0.790  0.2498 -1.9590  1.4840
  204MPD1    H7 3112   1.264   2.016   0.812  1.4252 -0.2539  0.0944
  205MPD1     C 3113   0.900   0.749  16.772  0.0381  0.0489 -0.2904
  205MPD1    C1 3114   0.952   0.877  16.793  0.7281 -0.5471 -0.0394
  205MPD1    C2 3115   0.998   0.898  16.921 -0.1983  0.5929 -0.2968
  205MPD1    C3 3116   0.973   0.816  17.022 -0.7982  0.1885 -0.2124
  205MPD1    C4 3117   0.897   0.705  17.003  1.1569  0.4259 -0.8096
  205MPD1    C5 3118   0.864   0.669  16.877 -0.6922  0.5390 -0.1104
  205MPD1     H 3119   1.056   0.985  16.949  1.6958 -1.8275  3.4115
  205MPD1    H1 3120   0.882   0.639  17.088 -0.2451  1.9940  0.1643
  205MPD1    H2 3121   0.877   0.703  16.677 -2.2862  0.6496 -0.0308
  205MPD1    H3 3122   0.822   0.570  16.859  0.7331 -0.2287  0.8191
  205MPD1     N 3123   1.019   0.832  17.155 -0.5809  0.3428 -0.1783
  205MPD1    H5 3124   0.993   0.759  17.221 -0.9839 -1.5113 -2.4257
  205MPD1    N1 3125   0.989   0.955  16.685  0.1343  0.0763 -0.1932
  205MPD1    H6 3126   0.924   0.950  16.607 -1.2952 -0.3346  1.0223
  205MPD1    H7 3127   1.002   1.053  16.710  0.6876 -0.6747  2.4255
  206MPD1     C 3128   1.663   4.506  16.569  0.3536 -0.3969 -0.1528
  206MPD1    C1 3129   1.681   4.384  16.515  0.3243 -0.3467  0.0224
  206MPD1    C2 3130   1.565   4.321  16.459 -0.1103 -1.0526 -0.0288
  206MPD1    C3 3131   1.441   4.384  16.452  0.1080 -0.3316  0.9043
  206MPD1    C4 3132   1.436   4.514  16.492  0.0713  0.2332  0.0367
  206MPD1    C5 3133   1.545   4.574  16.552 -0.7540  0.3581  0.4679
  206MPD1     H 3134   1.576   4.218  16.427  1.6547 -0.8936  0.0653
  206MPD1    H1 3135   1.348   4.577  16.485 -0.0970 -0.3155 -2.6248
  206MPD1    H2 3136   1.746   4.549  16.624 -0.0133 -0.4279  0.4243
  206MPD1    H3 3137   1.532   4.675  16.589  0.5322  0.4150  0.7768
  206MPD1     N 3138   1.325   4.326  16.394  0.0264  0.5753 -0.9808
  206MPD1    H5 3139   1.243   4.386  16.395 -1.7691 -1.9053  0.7117
  206MPD1    N1 3140   1.791   4.306  16.542 -0.2979 -0.0844  0.2402
  206MPD1    H6 3141   1.871   4.364  16.567  0.4956 -0.1735 -2.0522
  206MPD1    H7 3142   1.833   4.248  16.470 -2.0812 -2.2265  0.9153
  207MPD1     C 3143   3.581   1.666   8.779  0.2053 -0.5578 -0.1666
  207MPD1    C1 3144   3.696   1.685   8.847  0.1511 -0.0472  0.0922
  207MPD1    C2 3145   3.685   1.735   8.980  0.2869  0.0298 -0.3853
  207MPD1    C3 3146   3.565   1.775   9.031  0.0325 -0.5007  0.8253
  207MPD1    C4 3147   3.457   1.752   8.955 -0.1317  0.2168  0.8920
  207MPD1    C5 3148   3.463   1.700   8.831 -0.1734  0.1300  0.4377
  207MPD1     H 3149   3.773   1.737   9.044 -1.1062  2.2500  1.4462
  207MPD1    H1 3150   3.358   1.780   8.990 -1.1306 -0.5932 -1.2997
  207MPD1    H2 3151   3.588   1.628   8.677  2.9455  1.2246 -0.6221
  207MPD1    H3 3152   3.368   1.686   8.781 -0.1971 -0.8387  0.7601
  207MPD1     N 3153   3.539   1.841   9.158 -0.3761  0.7536 -0.0261
  207MPD1    H5 3154   3.442   1.857   9.183 -0.3190 -1.6582  1.7444
  207MPD1    N1 3155   3.812   1.633   8.788 -0.7765 -0.0998  0.4358
  207MPD1    H6 3156   3.896   1.669   8.832  0.0223 -0.3067 -0.9149
  207MPD1    H7 3157   3.814   1.657   8.689 -0.0099  0.6724  0.6353
  208MPD1     C 3158   2.458   0.839   0.308  0.0530  0.4564 -0.0311
  208MPD1    C1 3159   2.358   0.816   0.217 -0.1243  0.1491  0.7333
  208MPD1    C2 3160   2.230   0.807   0.258  0.2168 -0.2393  0.0951
  208MPD1    C3 3161   2.194   0.810   0.392  0.0971 -0.4435 -0.0743
  208MPD1    C4 3162   2.291   0.846   0.481 -0.3285  0.4788  0.4146
  208MPD1    C5 3163   2.422   0.846   0.440  0.7728  0.0319  0.3223
  208MPD1     H 3164   2.157   0.771   0.186  0.3629 -1.3750  0.5185
  208MPD1    H1 3165   2.268   0.845   0.587  2.2578  0.5416  0.9805
  208MPD1    H2 3166   2.563   0.836   0.285  0.3181 -0.3260  1.2374
  208MPD1    H3 3167   2.504   0.847   0.510  0.5453  1.0114  0.5636
  208MPD1     N 3168   2.060   0.776   0.426 -0.8809  0.0972 -0.1139
  208MPD1    H5 3169   1.992   0.758   0.353 -2.4451  2.8892  0.6847
  208MPD1    N1 3170   2.391   0.827   0.082 -0.4440  0.1801  0.3869
  208MPD1    H6 3171   2.482   0.792   0.053 -0.7178  1.2079 -1.7112
  208MPD1    H7 3172   2.322   0.777   0.027 -0.4581  2.1370 -1.3727
  209MPD1     C 3173   2.153   1.206   9.528  0.2258 -0.8043  0.3207
  209MPD1    C1 3174   2.204   1.306   9.455 -0.2190 -0.1848  0.8215
  209MPD1    C2 3175   2.293   1.399   9.515  0.5603  0.7608 -0.5756
  209MPD1    C3 3176   2.313   1.395   9.657 -0.2854  0.3068  0.4042
  209MPD1    C4 3177   2.260   1.284   9.729 -0.2487 -0.3341  0.0636
  209MPD1    C5 3178   2.186   1.188   9.661  0.3221  0.7604 -0.1692
  209MPD1     H 3179   2.338   1.485   9.467  0.1740 -0.3261 -2.8776
  209MPD1    H1 3180   2.261   1.280   9.838 -1.9124  1.2896  0.1280
  209MPD1    H2 3181   2.086   1.129   9.491  0.7539 -0.0228 -2.2419
  209MPD1    H3 3182   2.133   1.103   9.702  1.2465  1.3004  2.1045
  209MPD1     N 3183   2.381   1.501   9.719  0.4948  0.4043  0.2916
  209MPD1    H5 3184   2.426   1.563   9.653  2.1453 -1.0075  0.0678
  209MPD1    N1 3185   2.167   1.314   9.315  0.1137  0.2486  0.5705
  209MPD1    H6 3186   2.246   1.348   9.261 -0.7359  2.7846  0.9186
  209MPD1    H7 3187   2.118   1.235   9.272  0.5701  1.2365 -1.7456
  210MPD1     C 3188   2.207   1.836  10.565 -0.2457 -0.2128  0.5284
  210MPD1    C1 3189   2.345   1.865  10.567  0.2276 -0.1648 -0.5707
  210MPD1    C2 3190   2.418   1.848  10.448 -0.0394  0.5995 -0.7282
  210MPD1    C3 3191   2.348   1.829  10.334  0.2929 -0.3552  0.3322
  210MPD1    C4 3192   2.213   1.841  10.330 -0.4328 -0.1359  0.2798
  210MPD1    C5 3193   2.144   1.838  10.446  0.5615 -0.2185 -0.4846
  210MPD1     H 3194   2.525   1.841  10.464 -0.2152  0.5567  0.4318
  210MPD1    H1 3195   2.147   1.839  10.244 -2.1408 -0.0715  1.5697
  210MPD1    H2 3196   2.153   1.827  10.659 -0.1092 -0.4937  0.5804
  210MPD1    H3 3197   2.037   1.844  10.456  0.4517 -2.9015  0.0038
  210MPD1     N 3198   2.420   1.806  10.219 -0.1537 -0.0324  0.2422
  210MPD1    H5 3199   2.369   1.785  10.134  0.5562  2.8335 -0.8938
  210MPD1    N1 3200   2.424   1.870  10.686  0.3277  0.0850 -0.3793
  210MPD1    H6 3201   2.372   1.891  10.771  1.2621  0.6011  0.0623
  210MPD1    H7 3202   2.501   1.937  10.679  0.7077 -0.3135 -0.0503
  211MPD1     C 3203   1.935   1.113  16.486 -0.6817 -0.2141  0.5391
  211MPD1    C1 3204   1.826   1.070  16.566  0.1739 -0.0784  0.1682
  211MPD1    C2 3205   1.697   1.113  16.519 -0.2277 -0.3213 -0.0988
  211MPD1    C3 3206   1.670   1.190  16.406 -0.8311  0.3506  0.0918
  211MPD1    C4 3207   1.781   1.220  16.332 -0.2493 -0.4403 -0.1768
  211MPD1    C5 3208   1.911   1.177  16.369  0.5260 -0.2260 -0.0701
  211MPD1     H 3209   1.613   1.075  16.576  1.1521 -2.1618  0.7233
  211MPD1    H1 3210   1.772   1.276  16.239  1.8166  1.0909  0.5610
  211MPD1    H2 3211   2.037   1.083  16.507 -0.9540 -0.5724  1.3422
  211MPD1    H3 3212   1.992   1.201  16.301 -0.5439  2.3093 -0.4519
  211MPD1     N 3213   1.539   1.220  16.369  0.2757 -0.2174  0.3191
  211MPD1    H5 3214   1.470   1.195  16.439  0.1207  0.6586  0.4804
  211MPD1    N1 3215   1.846   0.994  16.683 -0.1000  0.2459 -0.0432
  211MPD1    H6 3216   1.782   1.031  16.753 -0.9723  0.3755 -0.9112
  211MPD1    H7 3217   1.937   1.026  16.715  2.1828 -4.6924 -1.4825
  212MPD1     C 3218   0.575   4.141  16.317  0.6795  0.4229  0.7501
  212MPD1    C1 3219   0.436   4.156  16.329 -0.1106 -0.0163 -0.4682
  212MPD1    C2 3220   0.369   4.096  16.437  0.0878 -0.7337 -0.2438
  212MPD1    C3 3221   0.433   3.997  16.518  1.0129  0.2533  0.1548
  212MPD1    C4 3222   0.568   3.979  16.501 -0.2128  0.1964 -0.0384
  212MPD1    C5 3223   0.640   4.056  16.405  0.5673  0.3659 -0.0708
  212MPD1     H 3224   0.263   4.113  16.453  0.0678  0.1973 -1.3473
  212MPD1    H1 3225   0.623   3.923  16.576 -1.4530 -2.9750 -1.5220
  212MPD1    H2 3226   0.637   4.197  16.248 -0.4158  1.9261  0.9890
  212MPD1    H3 3227   0.746   4.038  16.397  0.5968  1.3778 -2.0112
  212MPD1     N 3228   0.365   3.912  16.604 -0.4497  0.4315 -0.3101
  212MPD1    H5 3229   0.429   3.846  16.648  1.6583  1.0926 -2.3875
  212MPD1    N1 3230   0.371   4.244  16.236  0.1276 -0.1512  0.6655
  212MPD1    H6 3231   0.428   4.269  16.155 -0.9606 -1.4293 -0.5039
  212MPD1    H7 3232   0.286   4.197  16.206  0.1465  0.2727 -0.0373
  213MPD1     C 3233   2.689   0.930  15.575  0.1965  0.0392  0.2881
  213MPD1    C1 3234   2.632   0.924  15.447  0.1126 -0.7338 -0.3087
  213MPD1    C2 3235   2.650   0.807  15.383 -0.3020  0.1055 -0.2205
  213MPD1    C3 3236   2.700   0.692  15.444 -0.2950  0.2975  0.6326
  213MPD1    C4 3237   2.722   0.694  15.578 -0.5553 -0.0849  0.7581
  213MPD1    C5 3238   2.709   0.814  15.642 -0.2542  0.2151  0.0925
  213MPD1     H 3239   2.636   0.798  15.276 -1.1453  2.0092 -0.2574
  213MPD1    H1 3240   2.761   0.610  15.633 -1.5195  0.8108  2.8067
  213MPD1    H2 3241   2.675   1.015  15.641 -3.0883 -1.1650  1.1825
  213MPD1    H3 3242   2.728   0.827  15.748  1.2420  1.3552 -0.3139
  213MPD1     N 3243   2.715   0.578  15.359 -0.2233 -0.5507 -0.1537
  213MPD1    H5 3244   2.701   0.598  15.260  0.2288 -3.0356 -0.7372
  213MPD1    N1 3245   2.633   1.042  15.376 -0.0905 -0.0732  0.1992
  213MPD1    H6 3246   2.576   1.118  15.414 -0.2651 -0.1914  0.1704
  213MPD1    H7 3247   2.591   1.032  15.284  1.1656 -1.9582 -0.1716
  214MPD1     C 3248   2.392   4.387  15.344 -0.6984 -0.2555  0.1846
  214MPD1    C1 3249   2.523   4.364  15.296  0.2522 -0.4761  0.6248
  214MPD1    C2 3250   2.604   4.473  15.281  0.1931 -0.7239  0.4377
  214MPD1    C3 3251   2.562   4.601  15.316 -0.5334 -0.5847 -0.6583
  214MPD1    C4 3252   2.435   4.620  15.351  0.0061  0.5286  0.5988
  214MPD1    C5 3253   2.350   4.513  15.375 -0.3157 -0.1634  0.4224
  214MPD1     H 3254   2.700   4.457  15.234  0.1308  3.7393 -1.2543
  214MPD1    H1 3255   2.399   4.715  15.389 -0.5027  0.4093  0.4252
  214MPD1    H2 3256   2.312   4.316  15.364  0.4819 -1.1837  1.5677
  214MPD1    H3 3257   2.251   4.528  15.417 -0.0629 -0.2148  1.0355
  214MPD1     N 3258   2.645   4.714  15.317 -0.4955  0.5418 -0.8576
  214MPD1    H5 3259   2.603   0.079  15.332 -1.4240 -0.2227  1.2054
  214MPD1    N1 3260   2.560   4.243  15.234 -0.5507 -0.1087  0.2551
  214MPD1    H6 3261   2.658   4.223  15.251  0.2522  1.4414 -2.4245
  214MPD1    H7 3262   2.507   4.162  15.267 -0.3367 -0.1251  0.5567
  215MPD1     C 3263   1.944   0.860  11.507 -0.3506  0.8792 -0.4257
  215MPD1    C1 3264   2.073   0.858  11.529 -0.3519  0.0062  0.0079
  215MPD1    C2 3265   2.148   0.916  11.425  0.6797  0.2364 -0.5505
  215MPD1    C3 3266   2.093   0.948  11.299 -0.3263 -0.0868 -0.6477
  215MPD1    C4 3267   1.958   0.942  11.280  0.1092  0.3963 -0.1489
  215MPD1    C5 3268   1.889   0.897  11.386  0.4396  1.5752 -0.8552
  215MPD1     H 3269   2.254   0.934  11.441  0.7353  0.0356 -0.6913
  215MPD1    H1 3270   1.909   0.965  11.187 -0.9843 -0.1905  0.2936
  215MPD1    H2 3271   1.870   0.839  11.583  1.1049 -0.2049  0.6787
  215MPD1    H3 3272   1.783   0.884  11.370  0.1893  2.5627 -0.0275
  215MPD1     N 3273   2.190   0.980  11.207  0.3977  0.4116  0.1344
  215MPD1    H5 3274   2.286   0.981  11.240  0.2302  2.3325  0.5684
  215MPD1    N1 3275   2.122   0.847  11.661  0.4874 -0.2802  0.4842
  215MPD1    H6 3276   2.221   0.827  11.662  0.7478  0.9582 -1.5620
  215MPD1    H7 3277   2.078   0.777  11.721 -0.0464  1.4140  2.0952
  216MPD1     C 3278   0.618   3.676  16.407 -0.0873 -0.2497 -0.7221
  216MPD1    C1 3279   0.510   3.593  16.376 -0.5904  0.2810 -0.0732
  216MPD1    C2 3280   0.487   3.486  16.462 -0.3918  0.0871 -0.1110
  216MPD1    C3 3281   0.558   3.470  16.576  0.4362 -0.1964  0.4448
  216MPD1    C4 3282   0.666   3.553  16.600  0.5062  0.0134 -0.5394
  216MPD1    C5 3283   0.695   3.657  16.516 -0.1543  0.5301 -0.9179
  216MPD1     H 3284   0.397   3.431  16.436 -0.9211  0.4743  0.9078
  216MPD1    H1 3285   0.744   3.540  16.674  0.4817  1.3674 -0.2795
  216MPD1    H2 3286   0.644   3.757  16.340 -2.1856  1.0502  0.0023
  216MPD1    H3 3287   0.783   3.720  16.518  0.9644 -1.0868  0.3647
  216MPD1     N 3288   0.526   3.352  16.654  0.2558 -0.6851 -0.2360
  216MPD1    H5 3289   0.464   3.285  16.611 -0.3081 -0.4825  0.2633
  216MPD1    N1 3290   0.445   3.601  16.251  0.0654 -0.0657 -0.0889
  216MPD1    H6 3291   0.463   3.695  16.216 -1.4921  0.0783 -0.4921
  216MPD1    H7 3292   0.347   3.579  16.261  0.1845  0.1613  1.4648
  217MPD1     C 3293   1.490   1.590   8.393  0.1883 -0.1190  0.0413
  217MPD1    C1 3294   1.588   1.526   8.462 -0.7575 -0.1705 -0.4169
  217MPD1    C2 3295   1.570   1.398   8.520  0.0058 -0.8759 -0.1212
  217MPD1    C3 3296   1.439   1.346   8.502  0.0662 -0.5792  0.7034
  217MPD1    C4 3297   1.337   1.420   8.450  0.0586  0.4398  1.1095
  217MPD1    C5 3298   1.366   1.540   8.394  0.2417  0.3508  0.1399
  217MPD1     H 3299   1.655   1.349   8.565  0.6372 -0.5537 -0.9691
  217MPD1    H1 3300   1.232   1.393   8.446  0.0548  0.5044  0.7394
  217MPD1    H2 3301   1.507   1.674   8.326  1.6401  0.2919  0.9201
  217MPD1    H3 3302   1.286   1.596   8.347  2.1572  0.5580 -2.8373
  217MPD1     N 3303   1.405   1.228   8.573  0.5993 -0.5409 -0.2679
  217MPD1    H5 3304   1.308   1.213   8.599 -0.0995  1.5073 -1.6904
  217MPD1    N1 3305   1.720   1.567   8.448 -0.8858  0.5103  0.0697
  217MPD1    H6 3306   1.706   1.667   8.430  1.0554  0.1830 -3.1992
  217MPD1    H7 3307   1.759   1.548   8.540  0.7556 -0.5604 -0.8591
  218MPD1     C 3308   2.228   1.056  12.673 -0.0036 -0.3464  0.7388
  218MPD1    C1 3309   2.318   1.023  12.777 -0.5937  0.0708  0.6132
  218MPD1    C2 3310   2.448   1.075  12.774 -0.2673  0.1851 -0.2669
  218MPD1    C3 3311   2.489   1.123  12.652 -0.3503  0.3744  0.0240
  218MPD1    C4 3312   2.400   1.128  12.542 -0.5775  0.0745  0.9993
  218MPD1    C5 3313   2.272   1.094  12.551 -0.7155  0.0016  0.5020
  218MPD1     H 3314   2.515   1.062  12.857 -0.1457  0.4156 -0.3295
  218MPD1    H1 3315   2.428   1.173  12.447 -1.8135 -1.7116 -0.2135
  218MPD1    H2 3316   2.121   1.043  12.682 -0.1948  1.0115  0.4669
  218MPD1    H3 3317   2.208   1.121  12.468  0.0261  0.2075 -0.0044
  218MPD1     N 3318   2.622   1.161  12.642  0.5923 -0.2216 -0.2053
  218MPD1    H5 3319   2.674   1.168  12.729  1.1375  0.4634 -0.5871
  218MPD1    N1 3320   2.257   0.982  12.897 -0.0600  0.1386  0.0808
  218MPD1    H6 3321   2.330   0.945  12.956  0.2575  1.3137  0.4225
  218MPD1    H7 3322   2.196   0.903  12.878  0.2964 -0.5248  1.7175
  219MPD1     C 3323   3.503   1.246  11.984  0.4384  0.4235  0.1549
  219MPD1    C1 3324   3.374   1.265  11.950 -0.2554 -0.5164 -0.3870
  219MPD1    C2 3325   3.281   1.261  12.052  0.1332 -0.3401 -0.4333
  219MPD1    C3 3326   3.314   1.250  12.186  0.3684 -0.5927 -0.2794
  219MPD1    C4 3327   3.446   1.215  12.215  1.4624 -0.2417 -0.3995
  219MPD1    C5 3328   3.532   1.212  12.110  0.3272  0.2484  0.5380
  219MPD1     H 3329   3.177   1.276  12.029  0.6098  0.7415 -1.8765
  219MPD1    H1 3330   3.475   1.176  12.312  1.4132 -1.9141 -1.0565
  219MPD1    H2 3331   3.585   1.246  11.913 -0.5685 -1.4589 -1.0179
  219MPD1    H3 3332   3.632   1.183  12.140 -0.6149 -1.5018  1.9696
  219MPD1     N 3333   3.231   1.253  12.302 -0.2991  0.3774  0.7738
  219MPD1    H5 3334   3.276   1.247  12.393  1.4102 -0.4318 -0.1232
  219MPD1    N1 3335   3.332   1.266  11.819 -0.5030 -0.2393  0.4578
  219MPD1    H6 3336   3.246   1.319  11.815 -1.3761 -1.7054 -0.4284
  219MPD1    H7 3337   3.394   1.309  11.750  1.3699 -0.2820  2.1243
  220MPD1     C 3338   1.842   1.693   9.366 -1.1752 -0.2968 -0.3132
  220MPD1    C1 3339   1.913   1.576   9.377  0.6943  0.4993 -0.2190
  220MPD1    C2 3340   1.903   1.503   9.492  0.2195  0.2787  0.4238
  220MPD1    C3 3341   1.810   1.545   9.591 -0.8546  0.0106 -0.0213
  220MPD1    C4 3342   1.734   1.652   9.575  0.3583 -0.1741  0.0599
  220MPD1    C5 3343   1.749   1.732   9.463 -0.0135  0.0233 -0.7900
  220MPD1     H 3344   1.955   1.409   9.503  0.9384  0.5033 -0.9978
  220MPD1    H1 3345   1.649   1.668   9.641  2.5034 -0.6842  2.9661
  220MPD1    H2 3346   1.859   1.743   9.271 -1.8435 -1.6410 -1.1504
  220MPD1    H3 3347   1.683   1.816   9.446 -1.1021 -0.4029  1.3639
  220MPD1     N 3348   1.816   1.480   9.717 -0.2625 -0.1340 -0.9576
  220MPD1    H5 3349   1.894   1.415   9.722 -1.5749 -1.6211  0.0400
  220MPD1    N1 3350   1.998   1.539   9.275  0.1255  0.9420  0.0246
  220MPD1    H6 3351   2.064   1.613   9.250  0.9003  0.4610  0.6198
  220MPD1    H7 3352   2.051   1.458   9.309 -1.5212  0.5576  1.6362
  221MPD1     C 3353   0.529   0.341  16.313  0.4902 -0.5109 -0.0706
  221MPD1    C1 3354   0.656   0.354  16.361 -0.5816  0.3702 -0.2887
  221MPD1    C2 3355   0.752   0.272  16.284  0.4304  0.3565 -0.0161
  221MPD1    C3 3356   0.716   0.202  16.168 -0.3367 -0.7505 -1.0626
  221MPD1    C4 3357   0.581   0.201  16.128 -0.1305  1.0541 -0.1150
  221MPD1    C5 3358   0.494   0.275  16.201 -0.0376  0.1735  0.2966
  221MPD1     H 3359   0.856   0.279  16.316  0.6728 -2.9010 -0.0856
  221MPD1    H1 3360   0.550   0.146  16.040  1.0815  0.5222 -0.2026
  221MPD1    H2 3361   0.451   0.400  16.360  0.8116 -0.6204  0.5954
  221MPD1    H3 3362   0.391   0.278  16.166  0.0934 -0.8500 -0.1735
  221MPD1     N 3363   0.805   0.125  16.087  0.0498 -0.1229  0.0090
  221MPD1    H5 3364   0.763   0.075  16.009 -0.7604  0.4378  0.0854
  221MPD1    N1 3365   0.685   0.430  16.474 -0.0843 -0.0707  0.1612
  221MPD1    H6 3366   0.617   0.506  16.474 -0.4195 -0.3697  0.8591
  221MPD1    H7 3367   0.781   0.461  16.482  1.0277 -3.7533  1.1894
  222MPD1     C 3368   0.717   3.801  16.935 -0.0770  0.0651  0.4173
  222MPD1    C1 3369   0.593   3.849  16.905 -0.0223  0.1025 -0.1759
  222MPD1    C2 3370   0.581   3.980  16.866  0.5191  0.6280  0.1470
  222MPD1    C3 3371   0.684   4.069  16.860  0.1243 -0.5004  0.1181
  222MPD1    C4 3372   0.809   4.021  16.898 -0.5512  0.0332 -0.8599
  222MPD1    C5 3373   0.822   3.892  16.932  0.7272 -0.0195 -0.0057
  222MPD1     H 3374   0.485   4.015  16.832  0.6378  1.7420  0.9633
  222MPD1    H1 3375   0.902   4.075  16.904 -0.1931 -0.7131  0.2439
  222MPD1    H2 3376   0.745   3.697  16.951  2.2135  0.9457  2.1817
  222MPD1    H3 3377   0.924   3.855  16.943  0.7725  0.1669  0.1855
  222MPD1     N 3378   0.666   4.209  16.830  0.4939 -0.1295 -0.6110
  222MPD1    H5 3379   0.748   4.266  16.847 -0.2313  0.7251  0.0489
  222MPD1    N1 3380   0.491   3.754  16.876 -0.7458  0.7630 -0.0711
  222MPD1    H6 3381   0.398   3.791  16.897 -1.7359 -0.6549 -1.9201
  222MPD1    H7 3382   0.499   3.668  16.930  2.1650  1.0399 -0.0694
  223MPD1     C 3383   0.178   4.537  17.546  0.6198 -0.2262  0.2963
  223MPD1    C1 3384   0.317   4.551  17.549  0.0192 -0.5072  0.4987
  223MPD1    C2 3385   0.375   4.566  17.427  0.1557 -0.0412  0.1503
  223MPD1    C3 3386   0.314   4.542  17.308  0.3726 -0.4617 -0.0956
  223MPD1    C4 3387   0.179   4.508  17.308 -0.2373 -0.1573 -0.1187
  223MPD1    C5 3388   0.114   4.504  17.428 -0.3059  0.4886  0.1670
  223MPD1     H 3389   0.480   4.593  17.424 -0.9393  4.6425  3.8407
  223MPD1    H1 3390   0.122   4.490  17.217  0.0929  1.8839 -0.7434
  223MPD1    H2 3391   0.131   4.540  17.643  0.0918  0.3136  0.0300
  223MPD1    H3 3392   0.014   4.461  17.428 -0.3339  0.5540  0.1083
  223MPD1     N 3393   0.392   4.556  17.185  0.1143  0.2603 -0.8938
  223MPD1    H5 3394   0.488   4.584  17.203 -0.5015  2.8792 -1.6360
  223MPD1    N1 3395   0.389   4.576  17.662  0.1006 -0.0359 -0.4106
  223MPD1    H6 3396   0.490   4.563  17.654  0.6219  2.9423  1.6433
  223MPD1    H7 3397   0.352   4.521   0.036 -1.4649  0.7327 -0.6200
  224MPD1     C 3398   1.597   1.348   8.864  0.5144 -0.5203 -0.5430
  224MPD1    C1 3399   1.491   1.403   8.933 -0.2005 -0.1307  0.0674
  224MPD1    C2 3400   1.419   1.312   9.014  0.6860 -0.6941 -0.2668
  224MPD1    C3 3401   1.462   1.184   9.049 -0.1758  0.1051  0.4436
  224MPD1    C4 3402   1.573   1.131   8.977 -1.0926 -0.6941  0.6223
  224MPD1    C5 3403   1.637   1.210   8.882 -0.1389  0.4842  0.1880
  224MPD1     H 3404   1.346   1.354   9.082  0.0045  0.1447 -1.5072
  224MPD1    H1 3405   1.614   1.032   8.994 -0.5282 -0.5752 -0.0808
  224MPD1    H2 3406   1.659   1.409   8.799  1.0864 -1.0097 -0.4569
  224MPD1    H3 3407   1.726   1.173   8.832  1.4761  0.6773  2.9180
  224MPD1     N 3408   1.414   1.111   9.161 -0.2201 -0.3255 -0.7608
  224MPD1    H5 3409   1.467   1.028   9.185 -0.0042  0.4611  1.5360
  224MPD1    N1 3410   1.452   1.533   8.916 -0.2592  0.6025 -0.3208
  224MPD1    H6 3411   1.529   1.597   8.898 -2.0831  3.1565  1.0058
  224MPD1    H7 3412   1.402   1.564   8.999 -0.3623 -0.3437 -0.0200
  225MPD1     C 3413   2.948   2.282  12.611 -0.4711 -0.3094 -0.6634
  225MPD1    C1 3414   2.932   2.149  12.567  0.5876  0.0041 -0.2169
  225MPD1    C2 3415   2.812   2.116  12.503  0.2903 -0.0839 -0.0963
  225MPD1    C3 3416   2.715   2.217  12.478  0.2924 -0.3549  0.2757
  225MPD1    C4 3417   2.737   2.345  12.526  0.4867  0.4961  0.1777
  225MPD1    C5 3418   2.851   2.374  12.597 -0.4290 -0.6827  0.6526
  225MPD1     H 3419   2.797   2.012  12.480  0.2002 -0.6529  2.4845
  225MPD1    H1 3420   2.656   2.417  12.522  3.4981  3.9558  0.2946
  225MPD1    H2 3421   3.023   2.305  12.685 -1.6423  0.2945  0.3416
  225MPD1    H3 3422   2.869   2.474  12.636 -1.5791  0.3582 -1.4913
  225MPD1     N 3423   2.590   2.190  12.411  0.1033 -0.0261 -0.0302
  225MPD1    H5 3424   2.529   2.271  12.404  0.2114 -0.0482 -1.3225
  225MPD1    N1 3425   3.012   2.045  12.606 -0.4390 -0.1046  0.1230
  225MPD1    H6 3426   3.108   2.062  12.636 -0.1368  1.8435 -1.9750
  225MPD1    H7 3427   3.019   1.974  12.533 -1.9131 -1.0768  0.9180
  226MPD1     C 3428   0.720   0.848   9.395 -0.1558  0.6724 -0.4355
  226MPD1    C1 3429   0.835   0.897   9.332  0.0491  0.0665 -0.1672
  226MPD1    C2 3430   0.843   1.034   9.296  0.9952  0.9221 -0.2145
  226MPD1    C3 3431   0.745   1.124   9.341 -1.2684 -0.4799  0.0507
  226MPD1    C4 3432   0.640   1.066   9.419  0.2434 -0.0803  0.6449
  226MPD1    C5 3433   0.619   0.931   9.430 -0.4380  0.6971 -0.4606
  226MPD1     H 3434   0.927   1.071   9.238  2.4476 -2.3018 -0.1987
  226MPD1    H1 3435   0.563   1.126   9.466  0.4389  1.7203 -1.2984
  226MPD1    H2 3436   0.707   0.746   9.428 -1.0821  0.5974 -1.0567
  226MPD1    H3 3437   0.530   0.907   9.486 -0.3850 -0.5494 -0.9004
  226MPD1     N 3438   0.765   1.262   9.317 -0.3321 -0.0144  0.4464
  226MPD1    H5 3439   0.846   1.293   9.264  0.5801  1.0193  2.4371
  226MPD1    N1 3440   0.926   0.805   9.280  0.0119  0.0721 -0.1626
  226MPD1    H6 3441   1.015   0.851   9.263 -0.9792  2.3605  1.0068
  226MPD1    H7 3442   0.929   0.719   9.335 -1.3906 -0.0111 -0.2133
  227MPD1     C 3443   0.349   2.305   9.359  0.2290 -0.2060  0.3372
  227MPD1    C1 3444   0.440   2.310   9.252 -0.9863 -0.3694  0.7121
  227MPD1    C2 3445   0.510   2.190   9.229 -0.1432 -0.1820  0.6236
  227MPD1    C3 3446   0.479   2.068   9.294 -0.0274 -0.3779 -0.3217
  227MPD1    C4 3447   0.387   2.070   9.394 -0.2402  0.5910 -0.5837
  227MPD1    C5 3448   0.321   2.189   9.425 -1.4573  0.3535  0.5167
  227MPD1     H 3449   0.587   2.193   9.152 -1.3906  0.3039 -0.6003
  227MPD1    H1 3450   0.357   1.980   9.445  0.3964  1.3050  1.0704
  227MPD1    H2 3451   0.309   2.399   9.393  0.6317  1.3384 -3.4155
  227MPD1    H3 3452   0.236   2.185   9.491 -2.3733  0.1639 -0.6714
  227MPD1     N 3453   0.549   1.952   9.262 -0.0393 -0.3315 -0.0480
  227MPD1    H5 3454   0.631   1.964   9.203  1.7860 -0.4926  2.4414
  227MPD1    N1 3455   0.478   2.432   9.194 -0.2232 -0.7310 -0.5315
  227MPD1    H6 3456   0.521   2.430   9.102  0.2047  0.9553 -0.3641
  227MPD1    H7 3457   0.401   2.499   9.195  1.9846  1.7757  0.4521
  228MPD1     C 3458   3.750   0.027  12.634 -0.3861 -0.6382 -0.8429
  228MPD1    C1 3459   3.649   4.716  12.545 -0.0060 -1.0053 -0.3811
  228MPD1    C2 3460   3.544   4.653  12.607 -0.7225 -0.9184  0.1246
  228MPD1    C3 3461   3.544   4.613  12.740 -0.2382 -0.7664  0.5232
  228MPD1    C4 3462   3.647   4.657  12.821  0.6748  0.6549 -0.3958
  228MPD1    C5 3463   3.747   4.720  12.764 -0.3508  0.8154 -0.0769
  228MPD1     H 3464   3.453   4.637  12.550  1.5240 -3.0211 -2.8524
  228MPD1    H1 3465   3.675   4.629  12.922 -2.8003  2.1763  0.9938
  228MPD1    H2 3466   3.838   0.080  12.599 -0.6394 -0.1118 -0.6721
  228MPD1    H3 3467   3.828   0.025  12.828 -0.0040 -0.9367  0.3236
  228MPD1     N 3468   3.436   4.536  12.784  0.7970 -0.2937 -0.4971
  228MPD1    H5 3469   3.366   4.508  12.716  0.0373 -0.4588  0.3574
  228MPD1    N1 3470   3.632   0.033  12.412 -0.1782  0.4368  0.5957
  228MPD1    H6 3471   3.719   0.040  12.360  0.6264 -1.4659  1.6886
  228MPD1    H7 3472   3.574   4.697  12.357 -3.5322  2.9001  1.3747
  229MPD1     C 3473   3.581   3.301  14.475 -0.0940  0.5982  0.8077
  229MPD1    C1 3474   3.594   3.255  14.603  0.7081 -0.8492 -0.0749
  229MPD1    C2 3475   3.661   3.141  14.638  0.3434  0.2188  0.0673
  229MPD1    C3 3476   3.744   3.079  14.540 -0.2833 -0.1773  0.0417
  229MPD1    C4 3477   3.748   3.137  14.413  0.0290  0.3625  0.0633
  229MPD1    C5 3478   3.669   3.250  14.382 -0.2304  0.4684 -0.4477
  229MPD1     H 3479   3.645   3.097  14.736 -0.1870  1.2273  0.4304
  229MPD1    H1 3480   3.809   3.091  14.336  0.0739 -2.3874  1.7109
  229MPD1    H2 3481   3.516   3.383  14.448 -0.2582  0.8138  1.8593
  229MPD1    H3 3482   3.672   3.286  14.280 -1.5495 -1.0117 -1.0042
  229MPD1     N 3483   3.825   2.968  14.571 -0.0055  0.1765 -0.0591
  229MPD1    H5 3484   3.854   2.922  14.485 -1.7253  0.6303 -0.8882
  229MPD1    N1 3485   3.506   3.316  14.701 -0.3936 -0.4955 -0.2384
  229MPD1    H6 3486   3.492   3.417  14.701  0.1129 -0.4253  2.5657
  229MPD1    H7 3487   3.538   3.294  14.795 -0.4780 -0.7157 -0.2619
  230MPD1     C 3488   4.082   2.665  15.514  0.2521  0.2945  0.3534
  230MPD1    C1 3489   3.971   2.742  15.462 -0.6015  0.5437 -0.3163
  230MPD1    C2 3490   3.951   2.738  15.328 -0.5039 -0.1928 -0.8081
  230MPD1    C3 3491   4.025   2.663  15.237 -0.5704 -1.1699 -0.1441
  230MPD1    C4 3492   4.131   2.594  15.284  0.4273 -0.2433 -0.4296
  230MPD1    C5 3493   4.161   2.604  15.419 -0.3934  0.1249 -0.0891
  230MPD1     H 3494   3.863   2.792  15.296 -2.1753 -1.4178  1.6634
  230MPD1    H1 3495   4.193   2.537  15.217  0.5524  0.7084 -1.1301
  230MPD1    H2 3496   4.110   2.656  15.618  0.4291  0.3829  0.3128
  230MPD1    H3 3497   4.247   2.548  15.453 -1.3234 -0.9823  0.4078
  230MPD1     N 3498   3.987   2.675  15.104  0.2513  0.4734 -0.1132
  230MPD1    H5 3499   3.896   2.716  15.084 -0.0355  0.0762  0.4136
  230MPD1    N1 3500   3.865   2.804  15.536 -0.5783 -0.2522  0.3211
  230MPD1    H6 3501   3.901   2.816  15.630  0.5176 -3.7514  0.3359
  230MPD1    H7 3502   3.854   2.894  15.489 -1.7752 -0.0608  0.9723
  231MPD1     C 3503   2.004   0.016  15.392  0.0622  0.0077  0.2066
  231MPD1    C1 3504   1.969   0.040  15.252  0.3498 -0.1901 -0.4174
  231MPD1    C2 3505   2.060   0.108  15.167 -0.3354 -0.4407 -0.0732
  231MPD1    C3 3506   2.176   0.159  15.216 -0.1480  0.4203  1.3341
  231MPD1    C4 3507   2.208   0.143  15.349  0.1678  0.2268  0.0451
  231MPD1    C5 3508   2.119   0.075  15.433  0.3826 -0.5662  0.2014
  231MPD1     H 3509   2.046   0.113  15.059  1.0726 -1.6410 -0.3113
  231MPD1    H1 3510   2.299   0.185  15.390  0.3545  0.8139 -0.9752
  231MPD1    H2 3511   1.946   4.693  15.470 -2.3422  0.4586 -1.2812
  231MPD1    H3 3512   2.130   0.079  15.541  0.1882 -1.2098  0.2462
  231MPD1     N 3513   2.269   0.209  15.124 -0.2947 -1.0210 -0.3965
  231MPD1    H5 3514   2.236   0.230  15.031  2.0428  0.3060 -0.9322
  231MPD1    N1 3515   1.851   4.715  15.194 -0.5665  0.1742  0.9806
  231MPD1    H6 3516   1.771   4.705  15.256  0.3938 -1.4858  1.9599
  231MPD1    H7 3517   1.814   0.043  15.116 -1.4089  0.8613  1.8546
  232MPD1     C 3518   4.716   2.669   0.759 -0.1900  0.4418 -0.5311
  232MPD1    C1 3519   0.038   2.750   0.657 -0.4308 -0.0799  0.2111
  232MPD1    C2 3520   4.686   2.754   0.540 -0.0449 -0.6640 -0.0866
  232MPD1    C3 3521   4.564   2.683   0.525  0.1838  0.2957  0.5282
  232MPD1    C4 3522   4.531   2.597   0.621 -0.1153 -0.6685 -0.0895
  232MPD1    C5 3523   4.606   2.587   0.738  0.0768 -0.1132 -0.1368
  232MPD1     H 3524   4.715   2.825   0.463 -0.6726 -1.0840 -0.7087
  232MPD1    H1 3525   4.455   2.521   0.607 -0.0741 -0.8543  0.7146
  232MPD1    H2 3526   0.038   2.652   0.854  0.1909 -1.1158 -0.9951
  232MPD1    H3 3527   4.586   2.500   0.799 -2.3990 -0.9356 -2.1254
  232MPD1     N 3528   4.493   2.703   0.405  0.4153  0.0330 -0.2678
  232MPD1    H5 3529   4.522   2.780   0.346  1.3235 -0.5946 -0.6335
  232MPD1    N1 3530   0.141   2.843   0.683  0.0030 -0.0987 -0.3498
  232MPD1    H6 3531   0.211   2.811   0.750  0.5177  0.2005 -0.7434
  232MPD1    H7 3532   0.187   2.859   0.593 -0.8577 -0.5370 -0.8609
  233MPD1     C 3533   0.053   1.208   0.767 -0.4818 -0.3417 -0.1480
  233MPD1    C1 3534   0.111   1.278   0.872 -1.0324 -0.3155 -0.1114
  233MPD1    C2 3535   0.189   1.206   0.965  0.0984 -0.3480 -0.5592
  233MPD1    C3 3536   0.210   1.070   0.944  0.3551 -0.4079  0.1475
  233MPD1    C4 3537   0.174   1.006   0.827  0.0218  0.0046 -0.1165
  233MPD1    C5 3538   0.086   1.080   0.746 -1.4025  0.2469 -0.2313
  233MPD1     H 3539   0.221   1.256   1.055 -1.4438  1.5120 -1.0545
  233MPD1    H1 3540   0.205   0.907   0.797  0.2093  0.2846 -0.8428
  233MPD1    H2 3541   4.718   1.264   0.697  0.4690  0.1670 -0.5656
  233MPD1    H3 3542   0.047   1.038   0.655 -0.8682 -2.2326  0.6988
  233MPD1     N 3543   0.286   0.985   1.029 -0.2058  0.0728  0.2297
  233MPD1    H5 3544   0.303   0.893   0.988 -0.4755  0.0890  0.0850
  233MPD1    N1 3545   0.092   1.414   0.893 -0.0072  0.2389 -0.3340
  233MPD1    H6 3546   0.082   1.469   0.808 -0.6804  1.8289  0.7595
  233MPD1    H7 3547   0.166   1.450   0.953  0.3508 -1.2434  0.1114
  234MPD1     C 3548   1.469   4.086   9.399  0.6686  0.3331  0.0825
  234MPD1    C1 3549   1.568   4.134   9.478  0.1458  0.6595  0.0450
  234MPD1    C2 3550   1.597   4.269   9.482 -0.3050 -0.3334 -0.0899
  234MPD1    C3 3551   1.533   4.360   9.397 -0.1152  0.2899 -0.3266
  234MPD1    C4 3552   1.443   4.301   9.302 -0.5341 -0.3942 -0.0038
  234MPD1    C5 3553   1.409   4.172   9.305 -0.2632  0.2615  0.1676
  234MPD1     H 3554   1.673   4.297   9.554  0.3634 -1.4077 -0.3715
  234MPD1    H1 3555   1.391   4.356   9.224  0.3706  1.0720  0.4270
  234MPD1    H2 3556   1.439   3.982   9.394  1.7532  0.0411 -0.1800
  234MPD1    H3 3557   1.322   4.144   9.246  0.1774 -0.1925 -0.2669
  234MPD1     N 3558   1.559   4.496   9.403  0.0323 -0.5869 -0.1619
  234MPD1    H5 3559   1.619   4.528   9.479 -1.7120 -0.0029  0.9811
  234MPD1    N1 3560   1.627   4.051   9.578  0.1715  0.0105 -0.0709
  234MPD1    H6 3561   1.637   3.952   9.555  2.3623 -0.0145  0.9369
  234MPD1    H7 3562   1.717   4.084   9.613  0.1748  0.2543 -0.3111
  235MPD1     C 3563   3.266   1.706  10.394  0.3390 -0.0675 -0.3267
  235MPD1    C1 3564   3.276   1.695  10.256 -0.3512  0.2408 -0.2629
  235MPD1    C2 3565   3.294   1.815  10.190  0.6563  0.1848 -0.7096
  235MPD1    C3 3566   3.303   1.933  10.252 -0.0779  0.2323  0.2483
  235MPD1    C4 3567   3.276   1.945  10.387  0.0687 -1.3430 -0.4759
  235MPD1    C5 3568   3.253   1.830  10.455 -0.0663 -0.0517 -0.5556
  235MPD1     H 3569   3.299   1.817  10.082  1.4906  0.9402 -0.6642
  235MPD1    H1 3570   3.272   2.037  10.443 -0.1704 -3.2152  2.5784
  235MPD1    H2 3571   3.254   1.615  10.451 -0.3294  0.5115  0.4561
  235MPD1    H3 3572   3.251   1.823  10.563 -0.1672 -1.2323 -0.6351
  235MPD1     N 3573   3.344   2.046  10.178 -0.1763  0.4258  0.3555
  235MPD1    H5 3574   3.369   2.036  10.080 -2.4128 -0.1916 -0.1328
  235MPD1    N1 3575   3.292   1.571  10.192 -0.1264 -0.1065  0.0032
  235MPD1    H6 3576   3.260   1.578  10.095 -0.6920  2.5414  0.3737
  235MPD1    H7 3577   3.241   1.493  10.233 -0.9547  0.7606  0.6444
  236MPD1     C 3578   2.651   2.429   9.628 -0.2177 -0.3670 -0.1509
  236MPD1    C1 3579   2.773   2.486   9.614 -0.0215  0.2183  0.0460
  236MPD1    C2 3580   2.822   2.566   9.714  0.4921  0.4752  0.0722
  236MPD1    C3 3581   2.762   2.568   9.840 -0.2963  0.0653  0.0447
  236MPD1    C4 3582   2.652   2.495   9.856 -0.3576  0.1529 -0.1051
  236MPD1    C5 3583   2.590   2.430   9.748  0.8426 -0.0595 -0.2248
  236MPD1     H 3584   2.910   2.627   9.697  0.9717 -0.0047  0.8850
  236MPD1    H1 3585   2.594   2.486   9.948 -1.3276 -1.8857 -0.9270
  236MPD1    H2 3586   2.593   2.379   9.551 -1.0549 -0.5294  0.5745
  236MPD1    H3 3587   2.493   2.383   9.761 -0.3222  1.8287 -2.0948
  236MPD1     N 3588   2.808   2.638   9.957 -0.1730 -0.0909 -0.1633
  236MPD1    H5 3589   2.765   2.607  10.044  1.0626 -3.2907 -0.6994
  236MPD1    N1 3590   2.846   2.468   9.493  0.2586  0.5520 -0.1765
  236MPD1    H6 3591   2.820   2.386   9.439 -1.3293  0.2555  1.0161
  236MPD1    H7 3592   2.943   2.462   9.522 -0.2156 -1.9470  0.9255
  237MPD1     C 3593   2.329   1.574  15.392  0.1177 -0.2051  0.4848
  237MPD1    C1 3594   2.274   1.576  15.264 -0.6976  0.8735  0.3600
  237MPD1    C2 3595   2.156   1.509  15.248 -0.6659  0.7710 -0.0212
  237MPD1    C3 3596   2.107   1.422  15.340  0.0291 -0.1639  0.2553
  237MPD1    C4 3597   2.171   1.406  15.459  0.4453  0.1475  0.6202
  237MPD1    C5 3598   2.277   1.488  15.492 -0.6511 -0.1703  0.0862
  237MPD1     H 3599   2.122   1.510  15.145  2.0583  3.4493 -0.9071
  237MPD1    H1 3600   2.139   1.337  15.536 -0.3719 -0.4152 -0.2274
  237MPD1    H2 3601   2.412   1.634  15.427 -0.2582 -0.3475  1.6460
  237MPD1    H3 3602   2.321   1.486  15.591 -0.2414 -1.8907 -0.1386
  237MPD1     N 3603   1.991   1.339  15.318  0.3403 -0.0774  0.0262
  237MPD1    H5 3604   1.953   1.296  15.402  1.2665  2.0828  1.5411
  237MPD1    N1 3605   2.304   1.682  15.176 -0.6721  0.4569 -0.2109
  237MPD1    H6 3606   2.403   1.705  15.166 -0.5237  0.4816  1.1727
  237MPD1    H7 3607   2.269   1.679  15.081 -0.0100 -2.1193 -0.3971
  238MPD1     C 3608   4.021   4.488  15.392 -0.0381  0.7700 -0.2884
  238MPD1    C1 3609   3.913   4.543  15.449 -0.6213  0.0819 -1.0688
  238MPD1    C2 3610   3.793   4.567  15.376  0.3185  0.4517 -0.8081
  238MPD1    C3 3611   3.802   4.539  15.238  0.6160  0.6170 -0.4069
  238MPD1    C4 3612   3.913   4.481  15.187  0.1596  0.4815 -0.6620
  238MPD1    C5 3613   4.021   4.449  15.262  0.2192  0.8575  0.5510
  238MPD1     H 3614   3.717   4.625  15.428  1.4119  0.9875  0.2013
  238MPD1    H1 3615   3.908   4.449  15.084 -0.6015 -2.1076  0.1838
  238MPD1    H2 3616   4.109   4.471  15.453  0.0383  0.7637 -0.4012
  238MPD1    H3 3617   4.108   4.401  15.219  0.2493  0.7443  0.7371
  238MPD1     N 3618   3.694   4.557  15.153  0.0947  0.1697  0.2283
  238MPD1    H5 3619   3.705   4.545  15.053 -2.9706 -0.6304 -0.0232
  238MPD1    N1 3620   3.922   4.579  15.584 -0.3645  0.0686  0.3483
  238MPD1    H6 3621   3.955   4.498  15.635  1.5372 -0.1534 -1.2684
  238MPD1    H7 3622   3.827   4.602  15.615 -1.8366 -2.2898 -2.5130
  239MPD1     C 3623   4.145   1.026  14.769 -0.2881  0.9389 -0.0081
  239MPD1    C1 3624   4.237   1.106  14.716  0.3433  0.0410  1.0146
  239MPD1    C2 3625   4.247   1.104  14.576  0.6127  0.2188  0.1684
  239MPD1    C3 3626   4.165   1.023  14.499  0.1517  0.5292 -0.8955
  239MPD1    C4 3627   4.057   0.958  14.561  0.0095 -1.0086 -0.4155
  239MPD1    C5 3628   4.058   0.954  14.695  0.4579 -0.3145  0.6368
  239MPD1     H 3629   4.322   1.175  14.544  1.4789 -1.0248 -0.5513
  239MPD1    H1 3630   3.981   0.899  14.511  0.8893 -0.4673 -2.4103
  239MPD1    H2 3631   4.145   1.012  14.877  3.7274  0.5947 -0.0490
  239MPD1    H3 3632   3.982   0.895  14.746 -1.1165  0.8850 -0.3159
  239MPD1     N 3633   4.176   1.012  14.359  0.0136 -0.4225 -0.2863
  239MPD1    H5 3634   4.104   0.957  14.313 -0.2196  0.2271 -0.6983
  239MPD1    N1 3635   4.325   1.172  14.801 -0.0767  0.3773  0.3618
  239MPD1    H6 3636   4.376   1.099  14.850 -0.1657 -0.0188 -0.1282
  239MPD1    H7 3637   4.384   1.241  14.757 -1.4649  0.0972 -1.9540
  240MPD1     C 3638   3.468   0.965  13.966  0.0573 -0.3491  0.7701
  240MPD1    C1 3639   3.338   0.919  13.984 -0.2488  0.7550 -0.6602
  240MPD1    C2 3640   3.310   0.827  14.083  0.1549 -0.7860 -0.6896
  240MPD1    C3 3641   3.407   0.797  14.182 -0.4387 -0.7960  0.2662
  240MPD1    C4 3642   3.531   0.850  14.163  0.5759  0.5833  0.4021
  240MPD1    C5 3643   3.562   0.922  14.050  0.0013 -0.2597 -0.4399
  240MPD1     H 3644   3.215   0.776  14.095 -0.5710  0.3656 -1.5333
  240MPD1    H1 3645   3.609   0.828  14.235  1.8700  2.8507 -0.3122
  240MPD1    H2 3646   3.495   1.038  13.891  0.9575 -1.2567  0.1998
  240MPD1    H3 3647   3.661   0.965  14.043  0.6621 -1.3723  2.0631
  240MPD1     N 3648   3.370   0.690  14.272 -0.4470 -0.0948  0.5682
  240MPD1    H5 3649   3.282   0.641  14.258 -0.6333  0.1499  0.8825
  240MPD1    N1 3650   3.244   0.952  13.886 -0.2171  0.3726 -0.0197
  240MPD1    H6 3651   3.147   0.934  13.910  0.9077 -3.9196  1.3432
  240MPD1    H7 3652   3.270   0.925  13.792 -0.1679 -1.3711  0.5059
  241MPD1     C 3653   3.206   0.463  15.326  0.0988 -0.0989  0.1299
  241MPD1    C1 3654   3.242   0.577  15.254  0.5777  0.1225  0.0523
  241MPD1    C2 3655   3.262   0.557  15.117 -0.0858  0.2374 -0.4460
  241MPD1    C3 3656   3.280   0.434  15.062  0.0450 -0.4917  0.4176
  241MPD1    C4 3657   3.263   0.325  15.143  0.7601 -0.0263  0.3404
  241MPD1    C5 3658   3.227   0.337  15.271 -0.1489 -0.0987  0.0289
  241MPD1     H 3659   3.273   0.651  15.063  0.3021  1.4094  1.6859
  241MPD1    H1 3660   3.284   0.230  15.094 -0.3849  0.2372 -0.6778
  241MPD1    H2 3661   3.198   0.459  15.434  2.1045  1.4180  0.3357
  241MPD1    H3 3662   3.210   0.244  15.324 -1.3179  0.9723  1.5382
  241MPD1     N 3663   3.315   0.419  14.921 -0.3277 -0.0347 -0.2452
  241MPD1    H5 3664   3.307   0.325  14.885  1.9913 -0.3149 -0.0324
  241MPD1    N1 3665   3.212   0.707  15.303  0.6191  0.4083  0.4523
  241MPD1    H6 3666   3.271   0.775  15.256  1.9957 -0.5856  0.7359
  241MPD1    H7 3667   3.234   0.708  15.402  0.0587  0.1676  0.5782
  242MPD1     C 3668   2.968   4.158  15.681  0.8714 -0.4269  0.6410
  242MPD1    C1 3669   3.086   4.109  15.741  0.1158 -0.1923 -0.1599
  242MPD1    C2 3670   3.179   4.044  15.662  0.0909 -0.2426 -0.2176
  242MPD1    C3 3671   3.165   4.041  15.524 -0.0074 -0.0043  0.2260
  242MPD1    C4 3672   3.051   4.098  15.464  0.0624 -0.7037 -0.4527
  242MPD1    C5 3673   2.959   4.161  15.543  0.1762 -0.7390  0.1156
  242MPD1     H 3674   3.271   4.003  15.701  0.3772 -0.1597 -0.8030
  242MPD1    H1 3675   3.038   4.095  15.356 -0.3722 -1.8949 -0.3585
  242MPD1    H2 3676   2.884   4.202  15.733 -0.7019 -0.3335 -1.9649
  242MPD1    H3 3677   2.873   4.208  15.497  0.2096 -1.9891 -1.2148
  242MPD1     N 3678   3.251   3.976  15.434 -0.1403  0.2581 -0.0091
  242MPD1    H5 3679   3.225   3.978  15.336  0.3829 -2.9756 -0.2004
  242MPD1    N1 3680   3.093   4.093  15.881 -0.4312  0.0120 -0.8469
  242MPD1    H6 3681   3.190   4.094  15.913 -0.1811  2.4942 -1.6894
  242MPD1    H7 3682   3.042   4.165  15.931  1.3476 -0.0303  1.0175
  243MPD1     C 3683   0.227   2.146  17.446  0.0110 -0.6261  0.4236
  243MPD1    C1 3684   0.297   2.028  17.444  0.1361 -0.4484 -0.1186
  243MPD1    C2 3685   0.366   1.997  17.332  0.4213  0.0517 -0.5110
  243MPD1    C3 3686   0.357   2.072  17.219 -0.7787 -0.0762  0.5932
  243MPD1    C4 3687   0.282   2.185  17.218  0.3557  0.0683  0.3181
  243MPD1    C5 3688   0.221   2.228  17.332 -0.0388 -0.2631  0.2541
  243MPD1     H 3689   0.428   1.909  17.340 -1.1214 -0.8788  1.2995
  243MPD1    H1 3690   0.269   2.250  17.132 -0.0988  1.2410  1.2711
  243MPD1    H2 3691   0.179   2.192  17.531  2.5102  1.8201  0.5310
  243MPD1    H3 3692   0.161   2.318  17.334 -0.1878 -0.3535 -0.2115
  243MPD1     N 3693   0.429   2.030  17.114 -0.4572 -1.1296  0.4133
  243MPD1    H5 3694   0.493   1.951  17.120  1.7727  0.5666 -1.0627
  243MPD1    N1 3695   0.322   1.974  17.575  0.7264  0.2204  0.2122
  243MPD1    H6 3696   0.232   1.952  17.616  1.0398 -1.8624 -0.2361
  243MPD1    H7 3697   0.371   1.885  17.575  1.5574  0.6697 -0.6090
  244MPD1     C 3698   1.218   1.536  16.824  0.1093 -0.3263  0.5225
  244MPD1    C1 3699   1.154   1.547  16.706  0.2185  0.1689 -0.2185
  244MPD1    C2 3700   1.041   1.625  16.700 -0.3538 -0.4707  0.3638
  244MPD1    C3 3701   1.002   1.699  16.811  0.0236 -0.6358  1.0876
  244MPD1    C4 3702   1.066   1.684  16.929  0.2881  0.1668  0.1041
  244MPD1    C5 3703   1.173   1.603  16.934  0.0902  0.4050  0.1043
  244MPD1     H 3704   0.975   1.633  16.615 -0.7534 -1.3547  0.5946
  244MPD1    H1 3705   1.038   1.735  17.020  1.7655 -0.1648  0.7422
  244MPD1    H2 3706   1.295   1.461  16.834 -1.2183 -1.6817  0.5737
  244MPD1    H3 3707   1.216   1.583  17.031 -2.1283 -2.2789  0.5144
  244MPD1     N 3708   0.880   1.764  16.797 -0.4761  0.1111  0.5637
  244MPD1    H5 3709   0.836   1.739  16.709  0.0904  2.7023 -0.4709
  244MPD1    N1 3710   1.184   1.469  16.595 -0.3363 -0.4331  0.5909
  244MPD1    H6 3711   1.166   1.526  16.513  1.6623 -1.9579 -0.8926
  244MPD1    H7 3712   1.281   1.439  16.586 -0.6555 -0.5566 -2.4253
  245MPD1     C 3713   1.809   2.389  13.062  0.3160  0.4445  0.1751
  245MPD1    C1 3714   1.921   2.389  13.143 -0.6162  0.3313 -0.4623
  245MPD1    C2 3715   1.988   2.515  13.162  0.1898  0.0198  0.2660
  245MPD1    C3 3716   1.949   2.632  13.094  0.3238  0.1278 -0.3418
  245MPD1    C4 3717   1.846   2.624  13.003 -0.0598  0.4564 -0.4164
  245MPD1    C5 3718   1.773   2.505  13.001 -0.8746 -0.4503  0.1679
  245MPD1     H 3719   2.056   2.521  13.247  0.3872 -3.3267  0.3352
  245MPD1    H1 3720   1.821   2.704  12.935 -1.5205  0.8193  0.5520
  245MPD1    H2 3721   1.750   2.301  13.039  2.3771 -1.0378  0.5376
  245MPD1    H3 3722   1.694   2.509  12.927 -0.6843 -3.3613 -0.2087
  245MPD1     N 3723   2.037   2.739  13.106  0.0731 -0.0204  0.0472
  245MPD1    H5 3724   2.108   2.733  13.178 -1.0963  2.6119  1.4394
  245MPD1    N1 3725   1.946   2.280  13.220 -0.0068 -0.5230  0.2343
  245MPD1    H6 3726   1.929   2.207  13.152 -0.9578 -0.8302  0.7945
  245MPD1    H7 3727   2.043   2.266  13.247 -0.6107 -1.0377  2.1579
  246MPD1     C 3728   3.470   4.256   9.263 -0.0234  0.3919  0.1913
  246MPD1    C1 3729   3.353   4.199   9.237  0.7960  0.3395 -0.4580
  246MPD1    C2 3730   3.246   4.230   9.316 -0.4003  0.0253 -0.1674
  246MPD1    C3 3731   3.258   4.300   9.436  0.1340  0.1038 -0.2483
  246MPD1    C4 3732   3.377   4.363   9.464 -0.2966  0.4889 -0.3789
  246MPD1    C5 3733   3.472   4.347   9.367 -0.4531 -0.0741  0.1665
  246MPD1     H 3734   3.151   4.190   9.282  0.4233 -0.3073 -2.1384
  246MPD1    H1 3735   3.388   4.443   9.536 -4.6250 -0.2948  1.1291
  246MPD1    H2 3736   3.551   4.255   9.191 -2.3476 -1.9082 -2.4008
  246MPD1    H3 3737   3.559   4.412   9.367 -0.5838  0.1006  0.2185
  246MPD1     N 3738   3.142   4.322   9.514  0.1791  0.4805  0.0877
  246MPD1    H5 3739   3.063   4.269   9.480  0.4332  2.0416 -2.8342
  246MPD1    N1 3740   3.326   4.122   9.123  0.5605  0.0156  0.5974
  246MPD1    H6 3741   3.402   4.061   9.095 -1.2111 -1.9673  0.1569
  246MPD1    H7 3742   3.238   4.072   9.130  0.6817 -0.0563  1.6503
  247MPD1     C 3743   1.858   3.179  16.547 -0.2224  0.1065  0.2560
  247MPD1    C1 3744   1.906   3.164  16.415 -0.4390 -0.1299  0.8773
  247MPD1    C2 3745   1.854   3.056  16.341  0.3159  0.6406 -0.1927
  247MPD1    C3 3746   1.782   2.954  16.401 -0.2695 -0.3907 -0.4977
  247MPD1    C4 3747   1.748   2.963  16.535  0.1932 -0.1068 -0.1376
  247MPD1    C5 3748   1.779   3.079  16.605 -0.1472  0.7191 -0.1632
  247MPD1     H 3749   1.879   3.053  16.236 -0.1664 -1.1106 -0.2561
  247MPD1    H1 3750   1.693   2.888  16.590  3.5634 -2.9187 -0.6355
  247MPD1    H2 3751   1.886   3.265  16.607 -2.2401  1.2006 -0.3642
  247MPD1    H3 3752   1.733   3.092  16.703  0.0552 -0.8131  0.1405
  247MPD1     N 3753   1.746   2.834  16.346  0.8513 -0.1154 -0.0989
  247MPD1    H5 3754   1.705   2.762  16.405 -1.7747  0.2465 -1.4656
  247MPD1    N1 3755   1.963   3.268  16.337  0.6048  0.0858 -0.4745
  247MPD1    H6 3756   2.019   3.242  16.256 -1.7194 -0.3242 -1.9676
  247MPD1    H7 3757   2.014   3.334  16.395 -1.3502  1.0658  0.1221
  248MPD1     C 3758   0.715   4.307   1.026 -0.0750 -0.5520 -0.7295
  248MPD1    C1 3759   0.622   4.402   0.999  0.2344 -0.4090 -0.2402
  248MPD1    C2 3760   0.620   4.515   1.086  0.0366  0.1878 -0.2339
  248MPD1    C3 3761   0.697   4.513   1.208  0.6416  0.6193 -0.0506
  248MPD1    C4 3762   0.781   4.409   1.231 -0.0479 -0.5684 -0.0048
  248MPD1    C5 3763   0.781   4.300   1.144 -0.5605  0.6000  0.2220
  248MPD1     H 3764   0.569   4.603   1.049 -2.0890 -0.0548  2.1215
  248MPD1    H1 3765   0.856   4.409   1.309 -0.0841 -1.3766  0.0355
  248MPD1    H2 3766   0.717   4.226   0.954 -2.3399  0.8814 -2.4028
  248MPD1    H3 3767   0.840   4.211   1.163 -2.6021 -0.9295 -0.6353
  248MPD1     N 3768   0.694   4.624   1.292  0.2749 -0.1774 -0.6418
  248MPD1    H5 3769   0.754   4.618   1.374  1.3521 -1.3194 -1.5117
  248MPD1    N1 3770   0.577   4.403   0.868  0.5061  0.6275  0.3266
  248MPD1    H6 3771   0.499   4.467   0.851 -0.1300 -0.2004  0.1061
  248MPD1    H7 3772   0.568   4.315   0.818 -1.3321  0.4524  0.9583
  249MPD1     C 3773   2.837   1.527  10.261  0.0833  0.7003 -0.1906
  249MPD1    C1 3774   2.826   1.408  10.194 -0.0048  0.2966  0.1558
  249MPD1    C2 3775   2.904   1.394  10.082  0.0967 -0.6945  0.3155
  249MPD1    C3 3776   2.976   1.500  10.020 -0.5949  0.2899  0.1093
  249MPD1    C4 3777   2.985   1.614  10.091  0.3550 -0.1139  0.0254
  249MPD1    C5 3778   2.918   1.624  10.212 -0.2026  0.0609  0.0941
  249MPD1     H 3779   2.907   1.297  10.033 -0.2902 -0.6816  0.2634
  249MPD1    H1 3780   3.038   1.703  10.058 -0.0128  0.1252  0.0769
  249MPD1    H2 3781   2.792   1.537  10.359 -0.6038 -2.5800 -0.1671
  249MPD1    H3 3782   2.928   1.713  10.272  3.1483 -1.3106  1.5408
  249MPD1     N 3783   3.043   1.474   9.897  0.2639 -0.1610  0.0550
  249MPD1    H5 3784   3.019   1.387   9.850 -3.9412  0.7213  0.5548
  249MPD1    N1 3785   2.756   1.304  10.256 -0.1644 -0.0738  0.5187
  249MPD1    H6 3786   2.720   1.239  10.187 -0.3953  1.6669 -0.9951
  249MPD1    H7 3787   2.687   1.333  10.324  0.5982  0.4446  1.0742
  250MPD2     C 3788   0.063   1.564  13.144 -0.2248  0.0410  0.5006
  250MPD2    C1 3789   0.087   1.630  13.030 -0.7840 -0.7852 -0.1918
  250MPD2    C2 3790   0.070   1.563  12.912 -0.9495 -0.4431  0.4073
  250MPD2    C3 3791   0.027   1.426  12.896  0.2365 -0.4049 -0.1807
  250MPD2    C4 3792   4.720   1.365  13.018  0.6773 -0.8136 -0.1472
  250MPD2    C5 3793   0.022   1.433  13.138 -0.6614  0.0675 -0.0876
  250MPD2     H 3794   0.075   1.614  12.817  0.1523 -3.9549 -1.4229
  250MPD2    H1 3795   4.676   1.266  13.011 -1.8030  0.2966 -0.3383
  250MPD2    H2 3796   0.067   1.612  13.241  1.1796  2.5872 -0.8035
  250MPD2    H3 3797   4.725   1.385  13.233 -0.4339  1.1856  0.5239
  250MPD2     N 3798   0.013   1.362  12.777 -0.2938 -0.1008  0.0752
  250MPD2    H5 3799   0.014   1.260  12.777  2.2510 -0.0841 -0.1247
  250MPD2    N1 3800   0.124   1.767  13.040 -0.3209 -0.6379  0.5766
  250MPD2    H7 3801   0.153   1.797  13.132  1.4482  0.5169 -0.3636
  251TMC3    C1 3802   0.153   1.990  12.985  0.1913 -0.1586  1.0085
  251TMC3    C2 3803   0.119   2.095  12.900 -0.6694  0.0564  0.3094
  251TMC3    C3 3804   0.192   2.213  12.907  0.7742 -0.4354  0.3146
  251TMC3    C4 3805   0.259   1.999  13.072 -1.0004  0.2659  0.4887
  251TMC3    C5 3806   0.339   2.109  13.062  0.6464 -0.5212  0.7083
  251TMC3    C6 3807   0.308   2.219  12.986  0.6441 -0.2294  1.0427
  251TMC3     C 3808   0.123   1.857  12.941 -0.2551  0.1262 -0.3785
  251TMC3     O 3809   0.089   1.837  12.826  0.4188  0.3727  0.1011
  251TMC3     H 3810   0.054   2.073  12.817 -1.1622 -0.6279  0.8810
  251TMC3    H1 3811   0.295   1.914  13.128  0.6134  1.1814  0.8149
  251TMC3    H2 3812   0.372   2.306  12.990 -0.4212  0.5117  2.1919
  251TMC3    C7 3813   0.471   2.099  13.120 -0.2837  0.0081 -0.1492
  251TMC3    C8 3814   0.140   2.327  12.841 -0.6258  0.1394 -0.0445
  251TMC3    O1 3815   0.487   2.035  13.221 -0.3865  0.6117 -0.3386
  251TMC3    O2 3816   0.201   2.434  12.849  0.0293  0.4211  0.6491
  252TMC3    C1 3817   0.240   2.980   9.216  0.2464 -0.4273  0.1356
  252TMC3    C2 3818   0.374   2.983   9.196  0.0588  0.1280 -0.4775
  252TMC3    C3 3819   0.445   2.955   9.306 -0.7824 -0.6880 -0.1076
  252TMC3    C4 3820   0.177   2.958   9.333  0.4286  0.4218 -0.2463
  252TMC3    C5 3821   0.253   2.936   9.439 -0.7215  0.3848  0.1439
  252TMC3    C6 3822   0.389   2.937   9.431  0.1386  0.1102 -0.8241
  252TMC3     C 3823   0.161   3.005   9.095 -0.4311 -0.1806 -0.6666
  252TMC3     O 3824   0.223   3.033   8.993  0.3438  0.2588  0.7268
  252TMC3     H 3825   0.428   2.993   9.103  0.3247 -0.2702 -0.3661
  252TMC3    H1 3826   0.069   2.960   9.339  0.3709  0.8792 -1.4266
  252TMC3    H2 3827   0.448   2.941   9.522  1.4278 -0.9743 -1.5903
  252TMC3    C7 3828   0.182   2.833   9.525  0.1912  0.2093  0.1588
  252TMC3    C8 3829   0.591   2.984   9.293 -0.8270 -0.6500  0.3616
  252TMC3    O1 3830   0.062   2.830   9.514 -0.4368  0.0595 -0.5770
  252TMC3    O2 3831   0.631   3.020   9.180  0.4055  0.4244  0.1667
  253MPD2     C 3832   1.882   1.658  15.465 -0.4501  0.9585 -0.1455
  253MPD2    C1 3833   1.751   1.635  15.490 -0.4217 -0.0726  0.3800
  253MPD2    C2 3834   1.693   1.645  15.616 -0.3182  0.7999  0.2552
  253MPD2    C3 3835   1.766   1.664  15.729  0.1699  0.3277  0.6869
  253MPD2    C4 3836   1.907   1.689  15.704 -0.1958  0.1126 -0.3561
  253MPD2    C5 3837   1.951   1.688  15.576 -0.2251  0.1319 -0.3509
  253MPD2     H 3838   1.586   1.628  15.624 -0.4711  2.1077  0.9666
  253MPD2    H1 3839   1.968   1.722  15.787 -0.0293  3.2335 -1.7006
  253MPD2    H2 3840   1.936   1.666  15.371  0.9289  1.1075  0.6776
  253MPD2    H3 3841   2.054   1.714  15.555 -0.3887  1.9161  1.0033
  253MPD2     N 3842   1.714   1.666  15.858  0.0915 -0.2903 -0.1966
  253MPD2    H5 3843   1.779   1.699  15.929  0.5945  0.8699 -1.1892
  253MPD2    N1 3844   1.651   1.618  15.385 -0.2037  0.9560  0.2562
  253MPD2    H7 3845   1.557   1.586  15.408  0.4547 -1.7389 -0.8223
  254TMC3    C1 3846   1.555   1.668  16.029 -0.1712 -0.3323  0.2841
  254TMC3    C2 3847   1.437   1.741  16.059 -0.3733 -0.0860  1.1519
  254TMC3    C3 3848   1.418   1.773  16.193 -0.3790  0.4002 -0.6709
  254TMC3    C4 3849   1.646   1.622  16.124  0.1054  0.1952 -0.4095
  254TMC3    C5 3850   1.615   1.661  16.251  0.3911 -0.2969 -0.1442
  254TMC3    C6 3851   1.511   1.739  16.292 -0.0537  0.0485 -0.1000
  254TMC3     C 3852   1.581   1.648  15.887 -0.9546 -0.2913  0.4069
  254TMC3     O 3853   1.488   1.608  15.815 -0.0391 -0.5730  0.6811
  254TMC3     H 3854   1.366   1.769  15.982 -0.0338  2.3854  1.7277
  254TMC3    H1 3855   1.734   1.563  16.098  0.1104  0.8212 -1.7873
  254TMC3    H2 3856   1.486   1.751  16.397  0.9167 -0.6436  0.2166
  254TMC3    C7 3857   1.707   1.617  16.357 -0.4292 -0.0164 -0.0341
  254TMC3    C8 3858   1.312   1.855  16.238  0.1261  0.0160 -0.0158
  254TMC3    O1 3859   1.661   1.631  16.468 -0.1352 -0.7239  0.6177
  254TMC3    O2 3860   1.287   1.854  16.358 -0.0174 -0.0784  0.1221
  255MPD2     C 3861   4.339   4.269   9.921  0.1962  0.0378 -0.3385
  255MPD2    C1 3862   4.470   4.296   9.898  0.3156  0.1956  0.0837
  255MPD2    C2 3863   4.571   4.201   9.916  0.0905  0.3068 -0.4921
  255MPD2    C3 3864   4.540   4.073   9.970 -0.1783  0.1428 -0.0465
  255MPD2    C4 3865   4.407   4.056  10.000 -0.1219 -0.8132 -0.3507
  255MPD2    C5 3866   4.310   4.146   9.971 -0.1312  0.4026 -0.1206
  255MPD2     H 3867   4.671   4.222   9.881 -0.0638 -0.6140 -1.5112
  255MPD2    H1 3868   4.367   3.960  10.029  0.3900 -0.8111  0.3519
  255MPD2    H2 3869   4.257   4.335   9.894  0.7772  1.0987  0.4994
  255MPD2    H3 3870   4.205   4.122   9.982  0.4413 -0.0369  4.4858
  255MPD2     N 3871   4.633   3.963   9.967 -0.5891  0.3747 -0.3108
  255MPD2    H5 3872   4.600   3.868   9.973  0.9141 -0.2947 -2.6679
  255MPD2    N1 3873   4.503   4.426   9.859 -0.2043 -0.6322  0.6489
  255MPD2    H7 3874   4.428   4.477   9.812 -1.3251 -1.7146  1.2664
  256TMC3    C1 3875   4.646   4.562   9.753 -0.2477  0.1532  0.0236
  256TMC3    C2 3876   0.052   4.592   9.724 -0.5508  0.0499 -0.2487
  256TMC3    C3 3877   0.091   4.614   9.594 -0.0158  0.1145  0.1046
  256TMC3    C4 3878   4.554   4.558   9.647  0.4615  0.5384 -0.2448
  256TMC3    C5 3879   4.599   4.586   9.515 -0.1288  0.0652  0.0371
  256TMC3    C6 3880   0.005   4.613   9.488  0.4344 -0.0124 -0.2472
  256TMC3     C 3881   4.626   4.477   9.862  0.4262 -0.4808  0.7726
  256TMC3     O 3882   4.724   4.438   9.924  0.8256  0.2977 -0.7118
  256TMC3     H 3883   0.126   4.610   9.800 -0.0134 -0.5634 -0.6301
  256TMC3    H1 3884   4.447   4.543   9.660  0.6293  0.1657  0.7198
  256TMC3    H2 3885   0.037   4.609   9.385  1.0076 -1.3654 -0.0200
  256TMC3    C7 3886   4.524   4.520   9.411 -0.3493 -0.0618  0.7703
  256TMC3    C8 3887   0.231   4.638   9.577  0.7911  0.8409  0.7649
  256TMC3    O1 3888   4.467   4.414   9.431 -0.1204  0.3846  0.2870
  256TMC3    O2 3889   0.307   4.588   9.662 -0.2059  0.0547  0.0956
  257MPD2     C 3890   4.058   1.649  13.214  0.9119 -0.1461  0.4452
  257MPD2    C1 3891   4.028   1.551  13.121 -0.1337  0.1163  0.0865
  257MPD2    C2 3892   3.996   1.426  13.162  0.2204  0.8055  0.1198
  257MPD2    C3 3893   3.999   1.394  13.297  0.1371  0.2077  0.2713
  257MPD2    C4 3894   4.026   1.496  13.386  0.3915 -0.0882 -0.1996
  257MPD2    C5 3895   4.056   1.621  13.347  0.4557 -0.1304  0.5569
  257MPD2     H 3896   3.982   1.345  13.091  0.9356  0.2239  0.6370
  257MPD2    H1 3897   4.021   1.479  13.493  1.5772  0.3343 -0.0822
  257MPD2    H2 3898   4.079   1.751  13.186  3.1421 -0.4223  1.0643
  257MPD2    H3 3899   4.061   1.710  13.409 -2.5279  1.0685 -0.9278
  257MPD2     N 3900   3.982   1.265  13.339 -0.0087 -0.5039  0.3180
  257MPD2    H5 3901   3.962   1.199  13.264  1.0597 -1.2493  0.6931
  257MPD2    N1 3902   4.047   1.594  12.988 -0.0751  0.2614  0.0976
  257MPD2    H7 3903   4.074   1.689  12.967  1.5927  0.0800  1.4039
  258TMC3    C1 3904   3.960   1.071  13.479  0.0511  0.3010 -0.0081
  258TMC3    C2 3905   3.861   1.023  13.397  0.3294 -0.6256  0.2310
  258TMC3    C3 3906   3.838   0.891  13.386  0.0932 -0.6151  0.2919
  258TMC3    C4 3907   4.022   0.984  13.565 -0.0449 -0.1580 -0.3839
  258TMC3    C5 3908   3.993   0.848  13.560 -0.3352  0.2108 -0.4368
  258TMC3    C6 3909   3.895   0.800  13.478  0.4385  0.2633 -0.5848
  258TMC3     C 3910   3.984   1.216  13.472 -0.3721  0.1018  0.0302
  258TMC3     O 3911   4.040   1.265  13.567  0.0404 -0.1968  0.8240
  258TMC3     H 3912   3.801   1.098  13.346 -0.0764 -2.1351 -1.5261
  258TMC3    H1 3913   4.112   1.015  13.617 -0.4024 -0.7345  0.5725
  258TMC3    H2 3914   3.873   0.694  13.487  1.9659 -0.0129 -0.1311
  258TMC3    C7 3915   4.012   0.770  13.677 -0.1621 -0.6766  0.0447
  258TMC3    C8 3916   3.740   0.843  13.300  0.0621 -0.1444 -0.2668
  258TMC3    O1 3917   3.922   0.695  13.709  0.2189  0.0971  0.7566
  258TMC3    O2 3918   3.729   0.916  13.202 -0.4396  0.4382 -0.5020
  259MPD2     C 3919   3.493   3.400   1.331  0.4023  0.3709 -0.6415
  259MPD2    C1 3920   3.375   3.370   1.259 -0.0031 -0.3507  0.4654
  259MPD2    C2 3921   3.376   3.407   1.125 -0.8831  0.0524  0.1109
  259MPD2    C3 3922   3.496   3.432   1.062  0.8203 -0.4572  0.0066
  259MPD2    C4 3923   3.611   3.446   1.134  0.1858 -0.0940 -0.5020
  259MPD2    C5 3924   3.605   3.450   1.270  0.0839 -0.1753 -0.7188
  259MPD2     H 3925   3.282   3.397   1.071 -0.0674 -0.1599 -1.2720
  259MPD2    H1 3926   3.711   3.465   1.097  0.2331  0.0521 -0.2934
  259MPD2    H2 3927   3.498   3.382   1.438  1.5914  1.6085 -0.4773
  259MPD2    H3 3928   3.694   3.470   1.328 -2.6858  3.2452  2.3912
  259MPD2     N 3929   3.493   3.431   0.921 -0.1448  0.4490  0.3767
  259MPD2    H5 3930   3.405   3.410   0.875  0.2587 -0.3519 -0.0303
  259MPD2    N1 3931   3.261   3.335   1.332 -0.2567  0.0304 -0.5370
  259MPD2    H7 3932   3.278   3.316   1.430 -1.4266  0.9741 -0.1514
  260TMC3    C1 3933   3.583   3.420   0.701  0.0877  0.3682 -0.5878
  260TMC3    C2 3934   3.664   3.473   0.604  0.2544  0.2271  0.0857
  260TMC3    C3 3935   3.644   3.444   0.474 -0.1894  0.1906  0.5250
  260TMC3    C4 3936   3.484   3.324   0.671 -0.1215 -0.0289 -0.0485
  260TMC3    C5 3937   3.471   3.294   0.535 -0.1519  0.8565 -0.1633
  260TMC3    C6 3938   3.549   3.354   0.437 -0.1388 -0.0037 -0.4372
  260TMC3     C 3939   3.604   3.457   0.839 -0.0928 -0.0047  0.5963
  260TMC3     O 3940   3.705   3.519   0.865  0.4139  0.0566  0.4067
  260TMC3     H 3941   3.755   3.530   0.623 -0.8844  1.4546  1.8301
  260TMC3    H1 3942   3.434   3.261   0.743  1.5289 -0.9501  0.3057
  260TMC3    H2 3943   3.540   3.333   0.331 -0.6645  0.7127 -0.5369
  260TMC3    C7 3944   3.388   3.185   0.480 -0.3186  0.3495  0.0561
  260TMC3    C8 3945   3.770   3.458   0.398 -0.4683 -0.6500  0.4703
  260TMC3    O1 3946   3.407   3.167   0.361 -0.0414 -0.0983  0.3225
  260TMC3    O2 3947   3.829   3.562   0.413  0.4776 -0.3478 -0.4033
  261MPD2     C 3948   0.082   1.304  11.923  0.1023 -0.2607 -0.0241
  261MPD2    C1 3949   0.021   1.406  11.995  0.0889 -0.4803  0.5464
  261MPD2    C2 3950   4.701   1.518  11.917  0.3541  0.6644  0.0435
  261MPD2    C3 3951   4.720   1.519  11.785 -0.6149 -0.2237  0.0555
  261MPD2    C4 3952   0.064   1.422  11.721  0.0229  0.8521  0.0762
  261MPD2    C5 3953   0.105   1.308  11.789 -0.3757 -0.4754 -0.6076
  261MPD2     H 3954   4.640   1.592  11.968  1.7630  2.2571 -0.5908
  261MPD2    H1 3955   0.105   1.433  11.621  1.1161 -0.1541  0.4172
  261MPD2    H2 3956   0.124   1.216  11.971 -0.7988 -0.3425  0.5980
  261MPD2    H3 3957   0.174   1.239  11.743  2.3259  0.9719  1.3101
  261MPD2     N 3958   4.674   1.635  11.721 -0.1419 -0.9785 -0.3509
  261MPD2    H5 3959   4.644   1.710  11.782  2.8841  1.2602 -1.6441
  261MPD2    N1 3960   4.712   1.396  12.132  0.9633  0.2537 -0.1226
  261MPD2    H7 3961   4.685   1.482  12.178  1.0186  0.6949 -0.9206
  262TMC3    C1 3962   4.629   1.773  11.527 -1.2182  0.1413 -0.3627
  262TMC3    C2 3963   4.632   1.890  11.598  0.3098  0.3091  0.1929
  262TMC3    C3 3964   4.615   2.001  11.520 -0.5187 -0.1424  0.7500
  262TMC3    C4 3965   4.593   1.763  11.389  0.1812 -0.8748 -0.4846
  262TMC3    C5 3966   4.556   1.879  11.330  0.4236  0.0559  0.6931
  262TMC3    C6 3967   4.579   1.997  11.390 -0.2116 -0.5796  0.5345
  262TMC3     C 3968   4.654   1.644  11.585 -0.2007 -0.4708  0.9533
  262TMC3     O 3969   4.644   1.552  11.510 -0.0694 -0.3154 -0.1045
  262TMC3     H 3970   4.653   1.894  11.704 -1.4094 -0.8171  0.5870
  262TMC3    H1 3971   4.603   1.669  11.335  1.2206 -0.6124 -0.7490
  262TMC3    H2 3972   4.554   2.089  11.338  0.9272 -0.9496 -0.6744
  262TMC3    C7 3973   4.530   1.871  11.189 -0.4390  0.3543  0.2683
  262TMC3    C8 3974   4.600   2.129  11.590  0.3032  0.0295  0.3437
  262TMC3    O1 3975   4.594   1.786  11.125  0.1802 -0.1289 -0.2314
  262TMC3    O2 3976   4.619   2.234  11.531  0.1613 -0.5151 -0.2313
  263MPD2     C 3977   0.478   0.774  11.428  0.6861 -0.4813 -0.4775
  263MPD2    C1 3978   0.597   0.839  11.425  0.7280 -0.6268 -0.1788
  263MPD2    C2 3979   0.623   0.934  11.323  0.6305 -0.2521 -0.5715
  263MPD2    C3 3980   0.517   0.958  11.227 -0.0090  0.4391  0.2249
  263MPD2    C4 3981   0.401   0.891  11.239  0.8212 -1.0213 -0.6436
  263MPD2    C5 3982   0.381   0.806  11.345  0.5300 -0.0317  0.6181
  263MPD2     H 3983   0.712   0.995  11.320  0.2224  0.3719  0.2229
  263MPD2    H1 3984   0.314   0.916  11.180  0.3717 -1.6362 -0.2452
  263MPD2    H2 3985   0.458   0.706  11.510 -0.2066  1.3603  0.8154
  263MPD2    H3 3986   0.289   0.751  11.363  0.1715  0.5797  0.6502
  263MPD2     N 3987   0.532   1.047  11.125 -0.4054 -0.8338 -0.7532
  263MPD2    H5 3988   0.624   1.084  11.104 -0.6663  0.0653 -0.2816
  263MPD2    N1 3989   0.694   0.808  11.522  0.2222  0.1350  0.4690
  263MPD2    H7 3990   0.675   0.726  11.578 -1.4200 -1.7117 -2.7447
  264TMC3    C1 3991   0.489   1.182  10.938 -0.0024  0.5979 -0.4040
  264TMC3    C2 3992   0.571   1.288  10.967 -0.0831 -0.0438  0.1946
  264TMC3    C3 3993   0.586   1.374  10.859 -0.0970  0.5029  1.3295
  264TMC3    C4 3994   0.436   1.157  10.814  0.5204  0.0685 -0.3544
  264TMC3    C5 3995   0.463   1.236  10.703  0.4409  0.4303  0.1375
  264TMC3    C6 3996   0.537   1.344  10.734  0.3130 -0.3923 -0.2505
  264TMC3     C 3997   0.438   1.093  11.040  0.4929 -0.1733 -0.2116
  264TMC3     O 3998   0.324   1.054  11.019  0.3846 -0.5017 -0.6728
  264TMC3     H 3999   0.602   1.301  11.070 -0.2203  1.5543  0.0296
  264TMC3    H1 4000   0.378   1.066  10.808  0.8088  0.0171 -2.2489
  264TMC3    H2 4001   0.573   1.408  10.655 -0.5931 -0.0135 -0.3626
  264TMC3    C7 4002   0.470   1.166  10.568 -0.0871 -0.2458  0.0245
  264TMC3    C8 4003   0.663   1.489  10.858 -0.7786 -0.3011  0.0647
  264TMC3    O1 4004   0.549   1.211  10.488 -0.2588 -0.1582 -0.1892
  264TMC3    O2 4005   0.716   1.536  10.759 -0.1196 -0.1503  0.2634
  265MPD2     C 4006   2.961   1.159  15.350  0.3132  0.0005  0.2233
  265MPD2    C1 4007   2.999   1.279  15.290 -0.9678  1.5225  0.5717
  265MPD2    C2 4008   3.046   1.271  15.160  0.3540  0.9139 -0.2045
  265MPD2    C3 4009   3.069   1.154  15.093  0.5000  0.6201  0.6030
  265MPD2    C4 4010   3.040   1.035  15.160  0.6442  0.0365  0.3481
  265MPD2    C5 4011   2.972   1.044  15.278  1.0720  0.3913 -0.0250
  265MPD2     H 4012   3.072   1.360  15.104  0.7877  0.8818 -0.0541
  265MPD2    H1 4013   3.076   0.938  15.129  1.4884  0.8877 -1.3171
  265MPD2    H2 4014   2.911   1.148  15.446 -0.1736  2.0590  0.2167
  265MPD2    H3 4015   2.946   0.950  15.327  2.5013  0.9649  1.8428
  265MPD2     N 4016   3.123   1.138  14.967  0.4670  0.0673 -0.0358
  265MPD2    H5 4017   3.152   1.044  14.942  1.1690  0.4017 -0.4586
  265MPD2    N1 4018   2.986   1.400  15.356 -0.2619  0.1136 -0.5826
  265MPD2    H7 4019   3.006   1.485  15.304  1.9804  0.0502  0.1912
  266TMC3    C1 4020   2.972   1.554  15.536 -0.8266  0.3991 -0.0021
  266TMC3    C2 4021   3.001   1.577  15.662  0.2264  1.0727  0.0961
  266TMC3    C3 4022   3.018   1.705  15.707  0.3509  0.3426  0.0081
  266TMC3    C4 4023   2.937   1.652  15.438  0.4798  0.1050 -0.4316
  266TMC3    C5 4024   2.956   1.777  15.486 -0.1601  0.0766 -0.4132
  266TMC3    C6 4025   3.004   1.802  15.613  0.1362  0.3059 -0.5096
  266TMC3     C 4026   2.964   1.417  15.489  0.1729 -0.4359 -0.5966
  266TMC3     O 4027   2.956   1.333  15.580  0.0414  0.2651 -0.2258
  266TMC3     H 4028   3.012   1.497  15.734  1.3779  0.6319 -0.5572
  266TMC3    H1 4029   2.905   1.649  15.335  1.1889  2.6145 -0.7256
  266TMC3    H2 4030   3.021   1.907  15.636  1.2044  0.3456 -1.4913
  266TMC3    C7 4031   2.914   1.873  15.383 -0.2517  0.7775 -0.2992
  266TMC3    C8 4032   3.081   1.728  15.837  0.3827  0.1368  0.4654
  266TMC3    O1 4033   2.806   1.847  15.330  0.1159  0.8628 -0.0499
  266TMC3    O2 4034   3.074   1.639  15.918 -0.1690 -0.9068  0.5104
  267MPD2     C 4035   0.966   2.611  17.294  0.1826  0.7016 -0.0061
  267MPD2    C1 4036   0.959   2.742  17.316 -0.1497 -0.6155 -0.3916
  267MPD2    C2 4037   0.857   2.813  17.258  0.0136 -0.0931  0.5526
  267MPD2    C3 4038   0.776   2.758  17.164  0.4477  1.2011  0.1945
  267MPD2    C4 4039   0.785   2.618  17.144 -0.0386 -0.2235 -0.0802
  267MPD2    C5 4040   0.879   2.542  17.213 -0.4702 -0.9706  0.4996
  267MPD2     H 4041   0.836   2.915  17.287  3.3325  0.4117  1.1641
  267MPD2    H1 4042   0.727   2.563  17.071 -1.2838  0.3169  0.5019
  267MPD2    H2 4043   1.045   2.554  17.342  0.8991  0.5518 -1.3557
  267MPD2    H3 4044   0.901   2.440  17.183 -0.5578 -0.5862 -0.8685
  267MPD2     N 4045   0.683   2.827  17.088 -0.4601 -0.3667 -0.3460
  267MPD2    H5 4046   0.627   2.778  17.020  1.9158 -2.7380 -0.6107
  267MPD2    N1 4047   1.055   2.804  17.394  0.6917  0.7786 -0.5591
  267MPD2    H7 4048   1.121   2.740  17.438 -2.3363 -1.1825  1.1242
  268TMC3    C1 4049   1.213   2.974  17.466  0.4511 -0.2986 -0.7060
  268TMC3    C2 4050   1.267   3.096  17.433  0.2909 -0.2852  0.1832
  268TMC3    C3 4051   1.376   3.135  17.504  0.3634  0.0843 -0.3105
  268TMC3    C4 4052   1.258   2.901  17.569  0.1336  0.7527  0.0249
  268TMC3    C5 4053   1.373   2.935  17.634 -0.0935  0.2496 -0.0431
  268TMC3    C6 4054   1.428   3.057  17.605  0.1336 -0.0872 -0.0512
  268TMC3     C 4055   1.085   2.939  17.402  0.3707 -0.2796 -0.0923
  268TMC3     O 4056   1.041   3.023  17.328 -0.2336 -0.2442 -0.2429
  268TMC3     H 4057   1.213   3.163  17.366 -1.4473 -0.3448  1.5332
  268TMC3    H1 4058   1.203   2.814  17.603  0.7656  0.2907 -0.1374
  268TMC3    H2 4059   1.519   3.084  17.658 -0.4763 -0.2769  1.0870
  268TMC3    C7 4060   1.382   2.882   0.065 -0.3986  0.3736 -0.3013
  268TMC3    C8 4061   1.468   3.237  17.448  0.5163  0.9380 -0.0234
  268TMC3    O1 4062   1.275   2.855   0.111  0.2648  0.4229  0.1789
  268TMC3    O2 4063   1.586   3.250  17.495  0.3104 -0.0751  0.7305
  269MPD2     C 4064   0.847   1.738  15.604 -0.6215 -0.5829  0.1579
  269MPD2    C1 4065   0.718   1.781  15.628 -0.1385 -0.3688 -0.9045
  269MPD2    C2 4066   0.676   1.912  15.589 -1.3597  0.4484 -0.2567
  269MPD2    C3 4067   0.765   1.998  15.529  0.2617  0.2657 -0.2375
  269MPD2    C4 4068   0.901   1.960  15.507 -0.0781 -0.1157 -0.8394
  269MPD2    C5 4069   0.935   1.825  15.541  0.1643  0.4185 -0.5676
  269MPD2     H 4070   0.573   1.944  15.601 -2.4808 -4.0031  2.1898
  269MPD2    H1 4071   0.981   2.023  15.468 -0.4253 -0.1926 -1.6727
  269MPD2    H2 4072   0.882   1.642  15.639  0.1068 -0.7905 -1.1279
  269MPD2    H3 4073   1.032   1.781  15.525 -0.6002 -1.2204 -0.7391
  269MPD2     N 4074   0.717   2.125  15.492 -0.0877 -0.2952  0.3619
  269MPD2    H5 4075   0.620   2.153  15.500  0.2502  1.1478 -0.4521
  269MPD2    N1 4076   0.629   1.700  15.704 -0.0165 -0.2831 -0.3020
  269MPD2    H7 4077   0.676   1.616  15.736  0.7736  0.2215 -0.1377
  270TMC3    C1 4078   0.428   1.590  15.754 -0.0997 -0.0583  0.5644
  270TMC3    C2 4079   0.305   1.574  15.696 -0.4483 -0.2241 -0.9221
  270TMC3    C3 4080   0.226   1.476  15.736 -0.6417 -0.3811  0.4306
  270TMC3    C4 4081   0.466   1.517  15.863 -0.1066 -0.1708  0.3519
  270TMC3    C5 4082   0.374   1.424  15.915  0.1941 -0.1870 -0.1667
  270TMC3    C6 4083   0.254   1.406  15.849  0.2536 -0.3958  0.2946
  270TMC3     C 4084   0.492   1.714  15.715  0.2134  0.6228  0.2100
  270TMC3     O 4085   0.414   1.798  15.679  0.6173  0.3359  0.6163
  270TMC3     H 4086   0.279   1.636  15.611  0.7321 -0.8380 -1.7260
  270TMC3    H1 4087   0.563   1.520  15.910  0.8740 -0.7461 -1.6748
  270TMC3    H2 4088   0.203   1.312  15.867  0.3473 -0.6457 -0.7453
  270TMC3    C7 4089   0.437   1.308  15.986  0.0477  0.0885  0.3665
  270TMC3    C8 4090   0.173   1.386  15.633  0.0608  0.2262 -0.2935
  270TMC3    O1 4091   0.556   1.289  15.967  0.0853 -0.0168 -0.0300
  270TMC3    O2 4092   0.091   1.302  15.675  0.0425 -0.3577 -0.3611
  271MPD2     C 4093   4.490   1.455  13.890 -0.5524  0.1704  0.1084
  271MPD2    C1 4094   4.426   1.431  14.012 -0.0791 -0.0434 -0.1032
  271MPD2    C2 4095   4.294   1.456  14.024  0.2892  0.5866  0.3638
  271MPD2    C3 4096   4.224   1.502  13.915  0.3917  0.1159 -0.7935
  271MPD2    C4 4097   4.284   1.514  13.795  0.0124  0.0931  0.2614
  271MPD2    C5 4098   4.416   1.493  13.785  0.4317  0.2637  0.2145
  271MPD2     H 4099   4.247   1.436  14.120  0.4453  0.4800  0.4172
  271MPD2    H1 4100   4.227   1.541  13.706  2.5481  0.3387 -1.2713
  271MPD2    H2 4101   4.595   1.433  13.877 -0.0136  2.7247  0.1761
  271MPD2    H3 4102   4.478   1.500  13.696  2.2960  0.2150  1.4994
  271MPD2     N 4103   4.088   1.532  13.923  0.5374  0.0164 -0.5680
  271MPD2    H5 4104   4.040   1.553  13.836  0.3565  1.5617 -0.0960
  271MPD2    N1 4105   4.503   1.388  14.123  0.5471 -0.2002  0.2770
  271MPD2    H7 4106   4.462   1.394  14.215 -0.0323 -0.1768  0.0129
  272TMC3    C1 4107   4.680   1.300  14.252  0.9621 -0.5427 -0.3968
  272TMC3    C2 4108   0.086   1.259  14.256  0.1240  0.1923 -0.8590
  272TMC3    C3 4109   0.154   1.258  14.376  0.4006  0.2604  0.7354
  272TMC3    C4 4110   4.609   1.325  14.366  0.1841 -0.2236  0.6396
  272TMC3    C5 4111   4.676   1.319  14.480  0.5263  0.2993  0.7298
  272TMC3    C6 4112   0.089   1.295  14.489 -0.0979 -0.1261  0.2724
  272TMC3     C 4113   4.630   1.334  14.117  0.2648 -0.0233 -0.2052
  272TMC3     O 4114   4.705   1.314  14.025 -0.1955  0.0102 -0.4339
  272TMC3     H 4115   0.145   1.248  14.167  2.6321  1.4153  0.6489
  272TMC3    H1 4116   4.501   1.333  14.363  0.2189 -0.1371 -0.4929
  272TMC3    H2 4117   0.148   1.294  14.580 -0.7177  2.6930  0.7171
  272TMC3    C7 4118   4.604   1.341  14.601 -0.2940  0.1846  0.2487
  272TMC3    C8 4119   0.293   1.215  14.367 -0.2347  0.2913  0.7766
  272TMC3    O1 4120   4.489   1.308  14.601 -0.3956 -0.3698 -0.4741
  272TMC3    O2 4121   0.345   1.209  14.260  0.2515 -0.0246  0.2702
  273MPD2     C 4122   1.686   4.431  11.654 -0.0169  0.3139  0.5886
  273MPD2    C1 4123   1.641   4.565  11.669 -0.3682  0.4613 -0.3762
  273MPD2    C2 4124   1.553   4.614  11.572 -0.0262 -0.2450  0.5862
  273MPD2    C3 4125   1.493   4.529  11.480 -0.0722  0.2181  0.4557
  273MPD2    C4 4126   1.535   4.394  11.471 -0.2234  1.3306 -0.3196
  273MPD2    C5 4127   1.636   4.355  11.554  0.7949 -0.1172  0.1847
  273MPD2     H 4128   1.529   4.720  11.571 -0.9518 -0.4739 -1.6454
  273MPD2    H1 4129   1.497   4.317  11.405 -0.4657  2.1990 -1.1994
  273MPD2    H2 4130   1.763   4.385  11.714 -0.1326 -1.4980 -0.6856
  273MPD2    H3 4131   1.669   4.252  11.540  1.9897  0.2510  0.2810
  273MPD2     N 4132   1.403   4.583  11.391 -0.4393  0.1201  0.4170
  273MPD2    H5 4133   1.388   4.679  11.420  1.2585  0.8733 -1.1280
  273MPD2    N1 4134   1.684   4.647  11.774  0.8699 -0.2139  0.1186
  273MPD2    H7 4135   1.646   0.016  11.778  0.3471 -0.4604  0.9196
  274TMC3    C1 4136   1.308   4.632  11.176 -0.5638  0.3348 -0.2423
  274TMC3    C2 4137   1.217   4.592  11.078  0.4676  0.1407 -0.2566
  274TMC3    C3 4138   1.136   4.696  11.025  0.0354  0.3231  0.4429
  274TMC3    C4 4139   1.329   0.036  11.210  0.6696  0.0471 -0.2233
  274TMC3    C5 4140   1.243   0.130  11.160 -0.2444 -0.9040 -0.1862
  274TMC3    C6 4141   1.151   0.107  11.064  0.3187  0.1983 -0.4263
  274TMC3     C 4142   1.357   4.529  11.274  0.0838  0.5513  0.4270
  274TMC3     O 4143   1.377   4.417  11.228 -0.0822  0.2643 -0.2738
  274TMC3     H 4144   1.207   4.486  11.059 -0.6098 -0.2984  2.6216
  274TMC3    H1 4145   1.405   0.068  11.280 -1.1979 -1.8865  2.6348
  274TMC3    H2 4146   1.073   0.176  11.035 -0.9267 -0.0134  2.4008
  274TMC3    C7 4147   1.241   0.257  11.232  0.8333  0.2674  0.0196
  274TMC3    C8 4148   1.024   4.663  10.940 -0.4242  0.3275 -0.1783
  274TMC3    O1 4149   1.135   0.278  11.288 -0.3435 -0.3831  0.3419
  274TMC3    O2 4150   0.955   0.032  10.894 -0.3756  0.1320  0.1216
  275MPD2     C 4151   1.471   2.312  14.268  0.0023 -0.1922 -0.2952
  275MPD2    C1 4152   1.387   2.362  14.370  0.0671  0.5670  0.5882
  275MPD2    C2 4153   1.249   2.345  14.372  0.0869 -0.0531  0.4193
  275MPD2    C3 4154   1.190   2.266  14.276  0.1238  0.7074 -0.4111
  275MPD2    C4 4155   1.269   2.211  14.181 -0.7004  0.1983  0.0476
  275MPD2    C5 4156   1.405   2.227  14.181 -0.5495 -0.0184  0.0317
  275MPD2     H 4157   1.187   2.403  14.439  0.6716  1.0194  0.0180
  275MPD2    H1 4158   1.231   2.147  14.103  0.6566 -1.2470  0.5735
  275MPD2    H2 4159   1.579   2.325  14.262  0.0303  1.0518  2.7330
  275MPD2    H3 4160   1.458   2.177  14.101 -2.1715 -0.5833 -0.6950
  275MPD2     N 4161   1.046   2.249  14.260  0.2149  0.2631  0.4088
  275MPD2    H5 4162   1.022   2.185  14.185 -3.1175 -0.5390  2.1875
  275MPD2    N1 4163   1.439   2.445  14.477 -0.6066 -0.0411 -0.2223
  275MPD2    H7 4164   1.371   2.488  14.538  0.9644 -1.2849  2.3812
  276TMC3    C1 4165   1.590   2.540  14.639 -0.8969  0.0493  0.5108
  276TMC3    C2 4166   1.490   2.528  14.734  0.5213 -1.0008  0.1005
  276TMC3    C3 4167   1.501   2.604  14.850 -0.8559 -0.8422  0.8179
  276TMC3    C4 4168   1.703   2.614  14.657 -0.1298  0.0278 -0.5596
  276TMC3    C5 4169   1.714   2.679  14.772  0.3238 -0.3995 -0.4416
  276TMC3    C6 4170   1.611   2.684  14.864  0.2954 -0.2046 -0.8081
  276TMC3     C 4171   1.575   2.473  14.506 -0.1559 -0.0756  0.4094
  276TMC3     O 4172   1.672   2.456  14.434 -0.0777  0.1655  0.5239
  276TMC3     H 4173   1.400   2.470  14.717 -0.4318 -0.2893  2.7653
  276TMC3    H1 4174   1.781   2.620  14.582  0.1771 -1.8921 -0.3982
  276TMC3    H2 4175   1.635   2.714  14.965 -1.5933 -0.6859 -0.2065
  276TMC3    C7 4176   1.837   2.745  14.814  0.2359  0.4053 -0.3947
  276TMC3    C8 4177   1.441   2.551  14.969  0.3374  0.0247  0.3804
  276TMC3    O1 4178   1.842   2.792  14.927  0.1202  0.3748  0.0065
  276TMC3    O2 4179   1.425   2.628  15.062 -0.5010 -0.2360  0.3781
  277MPD2     C 4180   3.482   1.280  13.137 -0.2372  0.0288 -0.5059
  277MPD2    C1 4181   3.345   1.281  13.117 -0.1582 -0.5973  0.1017
  277MPD2    C2 4182   3.262   1.194  13.187  0.3264 -0.5014  0.4751
  277MPD2    C3 4183   3.317   1.127  13.295 -0.5111 -0.1775  0.1399
  277MPD2    C4 4184   3.452   1.141  13.324 -0.1758 -0.6396 -1.0143
  277MPD2    C5 4185   3.534   1.209  13.249 -0.3974  0.4429  0.3609
  277MPD2     H 4186   3.155   1.186  13.174  0.2999  0.6198  0.0028
  277MPD2    H1 4187   3.491   1.103  13.418  1.0598  2.4001 -0.3221
  277MPD2    H2 4188   3.539   1.359  13.089 -2.2350  1.3726 -0.6509
  277MPD2    H3 4189   3.634   1.221  13.290 -1.3175  2.4791  1.9929
  277MPD2     N 4190   3.227   1.065  13.379 -0.0381 -0.4919 -0.2578
  277MPD2    H5 4191   3.128   1.060  13.357 -0.1536  0.5904  0.0063
  277MPD2    N1 4192   3.288   1.387  13.043  0.1117  0.3930  0.5382
  277MPD2    H7 4193   3.361   1.445  13.003  1.7363 -1.6794  0.4562
  278TMC3    C1 4194   3.128   0.962  13.566 -0.6276  0.6584 -0.4690
  278TMC3    C2 4195   3.113   0.827  13.574 -0.4262 -0.7180  0.6908
  278TMC3    C3 4196   2.982   0.788  13.596 -0.2474  0.2362  0.7135
  278TMC3    C4 4197   3.030   1.053  13.575 -0.0133  0.3893  0.6648
  278TMC3    C5 4198   2.909   1.009  13.629  0.0467  0.0858 -0.1184
  278TMC3    C6 4199   2.881   0.878  13.637 -0.0852  0.0770 -0.2932
  278TMC3     C 4200   3.255   1.001  13.503  0.2303 -0.0040 -0.1832
  278TMC3     O 4201   3.359   0.970  13.559  0.0939 -0.6011 -0.3334
  278TMC3     H 4202   3.186   0.757  13.537 -0.9165 -1.8477  1.8653
  278TMC3    H1 4203   3.058   1.156  13.560 -0.1945  0.0859 -1.6612
  278TMC3    H2 4204   2.790   0.833  13.676  0.0073 -0.1177 -0.3001
  278TMC3    C7 4205   2.816   1.115  13.646  0.4444 -0.2218  0.1266
  278TMC3    C8 4206   2.959   0.647  13.576 -0.1375 -1.0246  0.2541
  278TMC3    O1 4207   2.857   1.229  13.663  0.0726  0.1472  0.0191
  278TMC3    O2 4208   3.059   0.573  13.594  0.3741  0.1806 -0.0926
  279MPD2     C 4209   2.950   2.025   0.495  0.8580  0.3879  0.4084
  279MPD2    C1 4210   2.862   1.929   0.463  0.4238 -0.3844  0.5734
  279MPD2    C2 4211   2.876   1.861   0.344 -0.1118 -0.9055 -0.1799
  279MPD2    C3 4212   2.976   1.903   0.252 -0.7957 -0.5433  0.1571
  279MPD2    C4 4213   3.067   1.997   0.283 -0.4246 -0.3046 -0.0685
  279MPD2    C5 4214   3.053   2.060   0.402 -0.3432 -0.8448 -0.0305
  279MPD2     H 4215   2.802   1.786   0.320  1.4787 -2.8041  0.9105
  279MPD2    H1 4216   3.142   2.022   0.209 -1.9003  1.4159 -0.9778
  279MPD2    H2 4217   2.945   2.078   0.589 -1.2748 -2.7218  2.0340
  279MPD2    H3 4218   3.122   2.139   0.431 -0.7412 -0.8496  0.9426
  279MPD2     N 4219   2.971   1.859   0.122 -0.5391 -0.6480 -0.1266
  279MPD2    H5 4220   3.024   1.915   0.056  0.0553  0.6447  1.4298
  279MPD2    N1 4221   2.779   1.895   0.569 -0.8010  0.0997 -0.1038
  279MPD2    H7 4222   2.774   1.953   0.652 -0.4130 -1.7572  1.2112
  280TMC3    C1 4223   2.601   1.792   0.676 -0.5444 -1.3199 -0.3701
  280TMC3    C2 4224   2.516   1.691   0.671  0.1095  0.0718  0.6718
  280TMC3    C3 4225   2.381   1.719   0.695  0.2213 -0.9900 -0.5269
  280TMC3    C4 4226   2.554   1.925   0.698 -0.2097  0.1034  0.1129
  280TMC3    C5 4227   2.415   1.943   0.714 -0.5358 -0.3103 -0.2184
  280TMC3    C6 4228   2.325   1.841   0.715 -0.4632 -0.0846 -0.1860
  280TMC3     C 4229   2.705   1.779   0.574 -0.3113  0.1743 -0.0325
  280TMC3     O 4230   2.712   1.681   0.503  0.0728  0.1571  0.0011
  280TMC3     H 4231   2.547   1.597   0.627 -1.5653  0.1601 -0.6717
  280TMC3    H1 4232   2.614   2.015   0.690 -2.2294  1.6242  2.0117
  280TMC3    H2 4233   2.219   1.863   0.715 -1.0365 -2.8538  0.1729
  280TMC3    C7 4234   2.383   2.081   0.710  0.2401 -0.5510  0.2479
  280TMC3    C8 4235   2.295   1.603   0.712 -0.1026 -0.6291  0.3602
  280TMC3    O1 4236   2.450   2.160   0.774  0.3890  0.2211 -0.2246
  280TMC3    O2 4237   2.173   1.607   0.700  0.0134 -0.4818  0.1671
  281TMC3    C1 4238   1.091   1.885  13.553  0.4312  0.0532 -0.2535
  281TMC3    C2 4239   1.097   1.877  13.420 -0.3782 -0.0102 -0.1166
  281TMC3    C3 4240   1.020   1.785  13.357  0.0620 -0.3875 -0.6347
  281TMC3    C4 4241   1.028   1.785  13.630  0.3041  0.2264  0.3298
  281TMC3    C5 4242   0.979   1.674  13.566 -0.3670 -0.5642  0.2990
  281TMC3    C6 4243   0.971   1.676  13.428  0.6850 -0.6432 -0.5917
  281TMC3     C 4244   1.156   1.985  13.632  0.2825 -0.3472  0.3885
  281TMC3     O 4245   1.137   1.981  13.752  0.0303  0.5325 -0.2747
  281TMC3     H 4246   1.143   1.958  13.365 -0.5026 -1.0531 -1.7252
  281TMC3    H1 4247   1.008   1.801  13.735 -0.5229  0.5485  0.1245
  281TMC3    H2 4248   0.900   1.609  13.380 -0.1347  0.2910 -0.6870
  281TMC3    C7 4249   0.856   1.617  13.626  0.2659 -0.5021 -0.0560
  281TMC3    C8 4250   0.915   1.838  13.269 -0.1267  0.1384 -0.1612
  281TMC3    O1 4251   0.796   1.681  13.710  0.4296  0.3970  0.1580
  281TMC3    O2 4252   0.802   1.786  13.259  0.2555 -0.0473  0.2829
  282MPD2     C 4253   3.028   2.911  14.956  0.2566  0.1134  0.0582
  282MPD2    C1 4254   2.921   2.980  15.000  0.5755  0.5011  0.2076
  282MPD2    C2 4255   2.832   3.021  14.901  0.0646 -0.4748 -0.0848
  282MPD2    C3 4256   2.863   3.010  14.765  0.1766  0.3287 -0.3563
  282MPD2    C4 4257   2.976   2.950  14.720 -0.0298  0.2410  0.0472
  282MPD2    C5 4258   3.053   2.897  14.819 -0.1822  0.0535 -0.4927
  282MPD2     H 4259   2.738   3.070  14.925  0.1408  0.2519 -1.2574
  282MPD2    H1 4260   2.998   2.946  14.614  1.2476  0.1633  0.3110
  282MPD2    H2 4261   3.108   2.887  15.025  0.3491  0.4681  0.0770
  282MPD2    H3 4262   3.143   2.841  14.793 -1.0672 -0.8960 -1.5026
  282MPD2     N 4263   2.768   3.064  14.675 -0.2896 -0.0805 -0.6508
  282MPD2    H5 4264   2.685   3.096  14.724  0.9900  0.8328  0.9547
  282MPD2    N1 4265   2.916   3.031  15.133  0.1229 -0.3718  0.1235
  282MPD2    H7 4266   2.842   3.098  15.154 -0.0449 -0.9992  1.5309
  283TMC3    C1 4267   2.944   3.006  15.364 -0.3710  0.4722  0.0437
  283TMC3    C2 4268   2.956   3.137  15.394  0.1417 -0.3323 -0.1019
  283TMC3    C3 4269   2.945   3.174  15.528 -0.4157  0.3498  0.1299
  283TMC3    C4 4270   2.924   2.906  15.466 -0.5041 -0.2817 -0.1463
  283TMC3    C5 4271   2.911   2.949  15.591  0.0622 -0.8870 -0.4259
  283TMC3    C6 4272   2.929   3.077  15.623  1.6000  0.0249  0.4352
  283TMC3     C 4273   2.974   2.961  15.233 -0.5376 -0.6084 -0.0100
  283TMC3     O 4274   3.043   2.861  15.235 -0.5285 -0.0816 -0.0213
  283TMC3     H 4275   2.993   3.205  15.318  0.1286 -2.1253 -1.7131
  283TMC3    H1 4276   2.884   2.810  15.434 -1.4860  0.4750 -1.1997
  283TMC3    H2 4277   2.930   3.114  15.726  0.6772  2.0346 -0.2796
  283TMC3    C7 4278   2.844   2.862  15.690  0.3544 -0.0035 -0.0499
  283TMC3    C8 4279   2.950   3.309  15.563  0.3647 -0.0934  0.4840
  283TMC3    O1 4280   2.815   2.911  15.800  0.5355  0.3094 -0.2723
  283TMC3    O2 4281   2.987   3.341  15.674 -0.3932  0.2820  0.1544
  284MPD2     C 4282   1.100   2.354  12.048  0.2196  0.2321 -0.6673
  284MPD2    C1 4283   1.137   2.271  11.942 -0.6019  1.2968 -0.3761
  284MPD2    C2 4284   1.059   2.168  11.890 -0.4317  0.5205  0.7173
  284MPD2    C3 4285   0.929   2.152  11.943 -0.9942  0.1936  0.2923
  284MPD2    C4 4286   0.884   2.235  12.045  0.0175 -0.6070 -0.7366
  284MPD2    C5 4287   0.968   2.335  12.090 -0.3645 -0.4625  0.4400
  284MPD2     H 4288   1.103   2.102  11.816  0.3034  1.8366 -0.0154
  284MPD2    H1 4289   0.783   2.239  12.085  1.3457 -0.6770  2.6037
  284MPD2    H2 4290   1.159   2.433  12.093  0.8662 -0.3132 -0.5522
  284MPD2    H3 4291   0.924   2.399  12.165 -0.1080 -1.4406  1.4243
  284MPD2     N 4292   0.836   2.055  11.893 -0.0807 -0.3645  0.3891
  284MPD2    H5 4293   0.755   2.042  11.952  1.8964 -0.6175  3.0842
  284MPD2    N1 4294   1.267   2.277  11.885  0.1351  0.3540 -0.0644
  284MPD2    H7 4295   1.298   2.195  11.834 -0.9383 -0.2994  0.3254
  285TMC3    C1 4296   1.480   2.383  11.845  0.4991  0.3797  0.9092
  285TMC3    C2 4297   1.501   2.290  11.749 -0.2114  0.1742 -0.5452
  285TMC3    C3 4298   1.618   2.309  11.677 -0.0388  0.4452  0.3105
  285TMC3    C4 4299   1.556   2.494  11.864 -0.4762 -0.1838 -0.2386
  285TMC3    C5 4300   1.675   2.501  11.802  0.6013  0.3117  0.2034
  285TMC3    C6 4301   1.708   2.412  11.701 -0.4253 -0.0155  0.3731
  285TMC3     C 4302   1.351   2.390  11.913  0.1834 -0.2250 -0.1804
  285TMC3     O 4303   1.327   2.497  11.970 -0.2709  0.2539  0.3974
  285TMC3     H 4304   1.430   2.217  11.711  1.1655 -1.7748  0.6302
  285TMC3    H1 4305   1.531   2.573  11.934 -0.5558 -0.1163 -0.3417
  285TMC3    H2 4306   1.796   2.428  11.640 -0.9054 -1.3242 -0.6486
  285TMC3    C7 4307   1.743   2.632  11.810 -0.4952 -0.2978 -1.1380
  285TMC3    C8 4308   1.616   2.243  11.546 -0.0356 -0.5117 -0.7961
  285TMC3    O1 4309   1.674   2.730  11.835  0.4881 -0.4257 -0.1886
  285TMC3    O2 4310   1.522   2.188  11.501 -0.0699  0.0024 -0.1453
  286MPD2     C 4311   1.298   1.434   1.190  0.3911  0.2304  0.2040
  286MPD2    C1 4312   1.389   1.510   1.265  0.2100 -0.0287  0.6768
  286MPD2    C2 4313   1.516   1.452   1.294  0.1441  0.4130  0.3167
  286MPD2    C3 4314   1.555   1.323   1.252  1.5201  0.1286  1.0080
  286MPD2    C4 4315   1.469   1.255   1.177  0.8688 -0.5799  0.6502
  286MPD2    C5 4316   1.345   1.312   1.153 -0.0699  0.3158 -0.5189
  286MPD2     H 4317   1.589   1.507   1.351  0.8550 -1.5918  1.3514
  286MPD2    H1 4318   1.489   1.151   1.153  0.5824 -0.9914  2.1965
  286MPD2    H2 4319   1.201   1.474   1.163  1.2153  1.6422 -0.6300
  286MPD2    H3 4320   1.267   1.251   1.107  0.0016 -1.0008  1.1188
  286MPD2     N 4321   1.677   1.259   1.275 -0.2181  0.3839 -0.2838
  286MPD2    H5 4322   1.679   1.163   1.243 -0.0917 -0.2630  1.6430
  286MPD2    N1 4323   1.364   1.638   1.305  0.2144 -0.2934 -0.2648
  286MPD2    H7 4324   1.426   1.694   1.363 -0.5036  1.0257 -0.7577
  287TMC3    C1 4325   1.873   1.216   1.399  0.3119  0.2809  0.1865
  287TMC3    C2 4326   1.931   1.144   1.303  0.3837  0.0708  0.2861
  287TMC3    C3 4327   2.049   1.085   1.337  0.2341 -0.0006 -0.3948
  287TMC3    C4 4328   1.936   1.247   1.520  0.1416  0.9109 -0.3668
  287TMC3    C5 4329   2.061   1.198   1.540  0.6960  0.4839  0.6281
  287TMC3    C6 4330   2.122   1.120   1.448 -0.0149  0.5616 -0.2200
  287TMC3     C 4331   1.759   1.298   1.377 -0.5770 -0.5082  0.3511
  287TMC3     O 4332   1.745   1.386   1.461 -0.0297 -0.7291 -0.2118
  287TMC3     H 4333   1.880   1.117   1.211  1.8002 -1.4479 -0.0618
  287TMC3    H1 4334   1.895   1.312   1.596  2.4214 -0.3863  1.9644
  287TMC3    H2 4335   2.209   1.064   1.479 -0.1142  0.6488  0.2123
  287TMC3    C7 4336   2.140   1.268   1.643  0.0103 -0.9251 -0.0172
  287TMC3    C8 4337   2.105   0.996   1.231 -0.1491  0.4637  0.7799
  287TMC3    O1 4338   2.079   1.349   1.710 -0.1942 -0.4309  0.0692
  287TMC3    O2 4339   2.023   0.933   1.160  0.2944 -0.6531 -0.6245
  288TMC3    C1 4340   2.944   0.988  14.168 -0.0288 -0.0499 -0.0508
  288TMC3    C2 4341   2.905   0.992  14.304 -0.1255 -0.1342  0.1157
  288TMC3    C3 4342   2.939   1.108  14.375  0.4566  0.2187 -0.2239
  288TMC3    C4 4343   3.012   1.091  14.107 -0.0109  0.6727  0.3911
  288TMC3    C5 4344   3.052   1.199  14.186 -0.6918  0.4499  0.1852
  288TMC3    C6 4345   3.020   1.211  14.316 -0.4142  0.6396  0.8421
  288TMC3     C 4346   2.941   0.863  14.096 -0.1876  0.0062  0.3091
  288TMC3     O 4347   2.972   0.867  13.976 -0.1930 -0.6577  0.0173
  288TMC3     H 4348   2.827   0.925  14.339  1.9970 -1.7117  1.8374
  288TMC3    H1 4349   3.026   1.080  14.000  0.6586  0.3863  0.5110
  288TMC3    H2 4350   3.046   1.301  14.371  1.3452 -1.4428  3.4270
  288TMC3    C7 4351   3.118   1.308  14.124  0.7250 -0.1900  0.0444
  288TMC3    C8 4352   2.895   1.122  14.514 -0.8054  0.9742 -0.3760
  288TMC3    O1 4353   3.139   1.403  14.191  0.6500 -0.1326  0.1288
  288TMC3    O2 4354   2.898   1.230  14.571  0.2707 -0.2209 -0.3351
  289MPD2     C 4355   3.139   4.634  14.548  0.8226 -0.6895 -0.2981
  289MPD2    C1 4356   3.115   0.025  14.475 -0.1965  0.2501  0.2346
  289MPD2    C2 4357   3.030   0.020  14.364  0.4013 -1.0435 -0.2318
  289MPD2    C3 4358   2.956   4.632  14.335  0.0772 -0.1623 -0.4072
  289MPD2    C4 4359   2.992   4.520  14.403 -0.0622 -0.7828  0.2615
  289MPD2    C5 4360   3.084   4.517  14.507 -0.4778 -0.2056  0.2290
  289MPD2     H 4361   3.031   0.110  14.304  2.2008 -3.4014 -3.7925
  289MPD2    H1 4362   2.925   4.434  14.403  0.3014 -1.0692  0.3935
  289MPD2    H2 4363   3.203   4.636  14.635  0.4192 -2.4154  0.0332
  289MPD2    H3 4364   3.086   4.425  14.565 -1.4361 -1.0712 -1.1163
  289MPD2     N 4365   2.855   4.628  14.232 -0.2091 -0.1582  0.1768
  289MPD2    H5 4366   2.830   4.534  14.205 -1.4807  0.4846 -0.8710
  289MPD2    N1 4367   3.181   0.143  14.512 -0.0441 -0.3983 -0.2238
  289MPD2    H7 4368   3.247   0.140  14.590  0.3100 -0.2642 -0.5162
  290TMC3    C1 4369   2.700   0.014  14.080 -0.3688  0.6058 -0.4275
  290TMC3    C2 4370   2.635   0.134  14.060  0.2195 -0.0182  0.3349
  290TMC3    C3 4371   2.562   0.151  13.942 -0.1762 -0.1249 -0.3254
  290TMC3    C4 4372   2.671   4.632  14.004  0.0587 -0.0263 -0.8998
  290TMC3    C5 4373   2.587   4.643  13.894 -0.1052  0.5782  0.4375
  290TMC3    C6 4374   2.532   0.041  13.867 -0.1131  0.0868  0.7248
  290TMC3     C 4375   2.786   0.018  14.200  0.4745 -0.4219 -0.3102
  290TMC3     O 4376   2.787   0.122  14.268 -0.1748 -0.2122 -0.2854
  290TMC3     H 4377   2.647   0.220  14.125  0.5111 -0.3431  0.7067
  290TMC3    H1 4378   2.736   4.547  14.025  0.4903  0.3998 -0.4985
  290TMC3    H2 4379   2.462   0.053  13.785  1.4059  0.3306 -0.5496
  290TMC3    C7 4380   2.528   4.529  13.821  0.7386 -0.0887  0.6382
  290TMC3    C8 4381   2.510   0.279  13.893 -0.6159  0.2139  0.9600
  290TMC3    O1 4382   2.438   4.552  13.740 -0.1195  0.0636  0.0058
  290TMC3    O2 4383   2.442   0.265  13.790 -0.6771  0.1524 -0.0218
  291MPD2     C 4384   2.767   0.288   0.096 -0.2213 -0.3046  0.1163
  291MPD2    C1 4385   2.807   0.164   0.047 -1.4819 -0.6362 -0.2502
  291MPD2    C2 4386   2.901   0.166  17.651 -0.3165 -0.1983  0.3088
  291MPD2    C3 4387   2.948   0.281  17.591  0.7634  0.4161  0.4890
  291MPD2    C4 4388   2.904   0.404  17.640 -0.5926 -0.1657  0.7441
  291MPD2    C5 4389   2.817   0.406   0.040 -0.6240  1.0886  0.5038
  291MPD2     H 4390   2.946   0.071  17.624  1.2225  0.8716 -0.8044
  291MPD2    H1 4391   2.940   0.498  17.600 -3.7511  0.7270  0.0742
  291MPD2    H2 4392   2.683   0.295   0.164 -1.3447 -0.4112 -1.2485
  291MPD2    H3 4393   2.783   0.502   0.077  0.1758  1.6789 -0.2866
  291MPD2     N 4394   3.048   0.287  17.493 -0.4080  0.3401 -0.9541
  291MPD2    H5 4395   3.057   0.377  17.447 -2.4188  1.1155  0.1299
  291MPD2    N1 4396   2.753   0.035   0.093 -0.4162  0.4035  0.1791
  291MPD2    H7 4397   2.790   4.678   0.049  1.2235  1.1599  0.1377
  292TMC3    C1 4398   2.627   4.611   0.224  0.6113 -0.5795 -0.6876
  292TMC3    C2 4399   2.552   4.608   0.335  0.5389  0.0869  0.1467
  292TMC3    C3 4400   2.431   4.538   0.338  0.4676 -0.1704  0.7784
  292TMC3    C4 4401   2.592   4.541   0.109 -0.3141 -0.2525 -0.5269
  292TMC3    C5 4402   2.472   4.477   0.117  0.3289  0.4486 -0.3131
  292TMC3    C6 4403   2.379   4.479   0.222 -0.0968 -0.4893  0.0922
  292TMC3     C 4404   2.675   0.022   0.207 -0.6631 -0.8089 -0.5947
  292TMC3     O 4405   2.615   0.109   0.272 -0.0660  0.2340 -0.4565
  292TMC3     H 4406   2.569   4.657   0.430  0.3785 -0.4697  0.4653
  292TMC3    H1 4407   2.647   4.548   0.016 -2.8240  1.5847 -1.8653
  292TMC3    H2 4408   2.285   4.425   0.220 -0.2455 -0.1968 -0.6214
  292TMC3    C7 4409   2.468   4.366   0.023  0.3467 -0.0621 -0.2561
  292TMC3    C8 4410   2.352   4.503   0.453  0.1552 -0.1344 -0.1263
  292TMC3    O1 4411   2.568   4.338  17.662  0.0342 -0.5358  0.3295
  292TMC3    O2 4412   2.234   4.472   0.437 -0.0248 -0.6039 -0.6607
  293MPD2     C 4413   4.378   1.444  12.257 -0.4401 -0.2393  0.5230
  293MPD2    C1 4414   4.309   1.371  12.350  0.0765  0.1424 -0.2592
  293MPD2    C2 4415   4.339   1.392  12.481  0.3182 -0.2145  0.2286
  293MPD2    C3 4416   4.421   1.496  12.531  0.2599  0.2411  0.1953
  293MPD2    C4 4417   4.478   1.573  12.432  0.0070 -0.2656 -0.4849
  293MPD2    C5 4418   4.463   1.545  12.300  0.3320 -0.2926  0.6279
  293MPD2     H 4419   4.287   1.330  12.554  0.2658 -2.5222 -1.7693
  293MPD2    H1 4420   4.558   1.644  12.453  1.1222 -1.4408 -0.7617
  293MPD2    H2 4421   4.363   1.443  12.150 -2.2583  0.5068  0.7620
  293MPD2    H3 4422   4.531   1.600  12.236 -1.4334  0.9821 -0.1782
  293MPD2     N 4423   4.432   1.516  12.668 -0.5201  0.2150 -0.4462
  293MPD2    H5 4424   4.401   1.434  12.719  0.9999  0.0416  0.1856
  293MPD2    N1 4425   4.213   1.278  12.304  0.5258  0.5389 -0.0835
  293MPD2    H7 4426   4.208   1.271  12.203  0.5518  2.2316 -0.2047
  294TMC3    C1 4427   4.026   1.141  12.296  0.3487  0.2331  0.4609
  294TMC3    C2 4428   3.936   1.069  12.363  0.7905 -0.1257 -0.2495
  294TMC3    C3 4429   3.836   1.004  12.294 -0.5662 -0.0003  0.2282
  294TMC3    C4 4430   4.025   1.149  12.159 -0.7555 -0.5748 -0.1011
  294TMC3    C5 4431   3.917   1.094  12.092  0.1852 -0.4676  0.4806
  294TMC3    C6 4432   3.831   1.009  12.157  0.0491  0.4322 -0.1357
  294TMC3     C 4433   4.124   1.212  12.378 -0.4368 -0.0980  0.0802
  294TMC3     O 4434   4.106   1.211  12.500 -0.7557 -0.3114  0.3466
  294TMC3     H 4435   3.940   1.038  12.467 -1.9404 -1.4156 -0.5371
  294TMC3    H1 4436   4.092   1.215  12.105 -1.3184 -1.4120 -1.8333
  294TMC3    H2 4437   3.752   0.958  12.104  0.3640 -2.1569  1.8817
  294TMC3    C7 4438   3.892   1.112  11.951  0.1866 -0.0086 -0.5946
  294TMC3    C8 4439   3.731   0.929  12.368  0.0388 -0.0756  0.0262
  294TMC3    O1 4440   3.775   1.096  11.918  0.4395 -0.1834  0.0444
  294TMC3    O2 4441   3.728   0.945  12.491  0.6930  0.2965 -0.7441
  295MPD2     C 4442   1.121   0.052   0.349  0.0006 -0.3030  0.6905
  295MPD2    C1 4443   1.019   0.117   0.278 -0.2379  0.6081 -0.1519
  295MPD2    C2 4444   0.896   0.134   0.341  0.3395 -0.4358  0.0654
  295MPD2    C3 4445   0.874   0.099   0.475  0.0415 -0.1821 -0.3323
  295MPD2    C4 4446   0.981   0.040   0.538 -0.8324  0.4954 -0.6616
  295MPD2    C5 4447   1.103   0.037   0.483 -0.0368  0.1208  0.6096
  295MPD2     H 4448   0.818   0.178   0.280 -2.0182 -3.1396  1.1727
  295MPD2    H1 4449   0.974   0.021   0.645 -0.8409  0.6512 -0.6342
  295MPD2    H2 4450   1.219   0.035   0.306  1.1085  0.7322  2.8296
  295MPD2    H3 4451   1.190   0.007   0.539  1.9515  2.8315 -1.0446
  295MPD2     N 4452   0.749   0.117   0.546 -0.7455 -1.1771  0.5356
  295MPD2    H5 4453   0.745   0.073   0.637 -0.5452  0.2599  1.2371
  295MPD2    N1 4454   1.039   0.165   0.144  0.3581  0.2633 -0.2756
  295MPD2    H7 4455   0.964   0.223   0.107  0.6366  0.2489 -0.8628
  296TMC3    C1 4456   0.531   0.194   0.603  0.9273 -0.3733  0.5912
  296TMC3    C2 4457   0.455   0.311   0.612 -0.9580  0.0457 -0.2192
  296TMC3    C3 4458   0.379   0.320   0.726 -0.1406  0.3008  0.3508
  296TMC3    C4 4459   0.531   0.094   0.693 -0.2511 -0.3668  0.3781
  296TMC3    C5 4460   0.445   0.097   0.795 -0.0206  0.1055  0.4721
  296TMC3    C6 4461   0.371   0.214   0.825  0.2725 -0.0507 -0.7016
  296TMC3     C 4462   0.636   0.188   0.502  0.4646 -0.8816  0.5643
  296TMC3     O 4463   0.623   0.251   0.398  0.2814  0.1514  0.5130
  296TMC3     H 4464   0.446   0.387   0.535  0.9853  0.2548 -0.2625
  296TMC3    H1 4465   0.575   0.001   0.658 -2.3962 -0.4444 -2.1594
  296TMC3    H2 4466   0.295   0.222   0.902  0.9919 -1.1269  0.1261
  296TMC3    C7 4467   0.388   4.692   0.827  0.6463  0.2772 -1.0188
  296TMC3    C8 4468   0.270   0.416   0.728  0.9263 -0.1117  0.5941
  296TMC3    O1 4469   0.418   4.600   0.748  0.1337 -0.3194  0.4816
  296TMC3    O2 4470   0.197   0.423   0.631 -0.1577 -0.1470  0.2794
  297MPD2     C 4471   2.378   2.263  16.678 -0.1158 -0.0905 -0.0845
  297MPD2    C1 4472   2.291   2.293  16.575 -0.3842  0.3210  0.5036
  297MPD2    C2 4473   2.330   2.387  16.480 -0.4129 -0.4935 -0.2155
  297MPD2    C3 4474   2.458   2.438  16.479 -0.2156 -1.0633  0.3189
  297MPD2    C4 4475   2.540   2.415  16.584 -0.7288 -0.2775 -0.2208
  297MPD2    C5 4476   2.502   2.324  16.685  0.3878  0.2263 -0.2861
  297MPD2     H 4477   2.255   2.414  16.406 -0.7773 -0.9892 -0.0306
  297MPD2    H1 4478   2.638   2.462  16.594 -0.9936 -0.5839  3.8342
  297MPD2    H2 4479   2.354   2.195  16.759  0.8228  1.0030  1.1082
  297MPD2    H3 4480   2.569   2.290  16.762  1.1996  1.0722 -0.6110
  297MPD2     N 4481   2.482   2.526  16.375 -1.1727 -0.2006 -0.2199
  297MPD2    H5 4482   2.406   2.553  16.314 -0.2345 -0.3160 -1.4379
  297MPD2    N1 4483   2.167   2.224  16.564  0.1367  0.4489  0.2060
  297MPD2    H7 4484   2.107   2.245  16.485 -2.8324  0.9860  2.6068
  298TMC3    C1 4485   1.977   2.094  16.626 -0.4360  0.2928 -0.0959
  298TMC3    C2 4486   1.958   2.046  16.498 -0.5924  0.4631 -0.6671
  298TMC3    C3 4487   1.846   1.975  16.485 -0.2805  0.1205  0.1512
  298TMC3    C4 4488   1.896   2.086  16.731  1.0779 -0.3228  0.5384
  298TMC3    C5 4489   1.776   2.040  16.699  0.0895 -0.0366  0.6225
  298TMC3    C6 4490   1.756   1.966  16.584 -0.5927  0.3485 -0.1063
  298TMC3     C 4491   2.104   2.157  16.659 -0.3827 -0.0491  0.1653
  298TMC3     O 4492   2.136   2.143  16.777  0.0486  0.1397 -0.0423
  298TMC3     H 4493   2.026   2.068  16.416  0.4798 -3.0692 -0.7616
  298TMC3    H1 4494   1.901   2.154  16.815 -2.1915 -0.7804  1.0816
  298TMC3    H2 4495   1.663   1.912  16.581 -0.8588  0.8329 -0.4788
  298TMC3    C7 4496   1.662   2.131  16.739  0.3978  0.7596 -0.0052
  298TMC3    C8 4497   1.778   2.012  16.365  0.1213  0.7493 -0.1210
  298TMC3    O1 4498   1.675   2.208  16.833 -0.1561 -0.6118 -0.1367
  298TMC3    O2 4499   1.664   2.048  16.382 -0.1956  0.3253 -0.4537
  299MPD2     C 4500   2.627   2.071   9.732 -0.0185 -0.0242 -0.3441
  299MPD2    C1 4501   2.568   2.077   9.853 -0.3220 -0.2016  0.2670
  299MPD2    C2 4502   2.441   2.018   9.868  0.7281  0.0791  0.3598
  299MPD2    C3 4503   2.379   1.964   9.757  0.2554  0.0220  0.0391
  299MPD2    C4 4504   2.428   1.989   9.627 -0.2296  0.4367 -0.2782
  299MPD2    C5 4505   2.552   2.039   9.625 -0.5676 -0.3231  0.6415
  299MPD2     H 4506   2.403   2.015   9.969 -1.3511  0.6328 -0.3979
  299MPD2    H1 4507   2.368   1.968   9.539  0.4775  0.7353 -0.8266
  299MPD2    H2 4508   2.719   2.126   9.714  0.3435 -0.9942 -1.4349
  299MPD2    H3 4509   2.598   2.063   9.530  1.8298  0.6155  2.0243
  299MPD2     N 4510   2.261   1.889   9.762  0.1448 -0.5851 -0.0868
  299MPD2    H5 4511   2.223   1.861   9.673 -0.5408 -0.8931  0.3011
  299MPD2    N1 4512   2.655   2.125   9.955 -0.5153  0.6942  0.6938
  299MPD2    H7 4513   2.750   2.151   9.932 -0.4383 -0.0902  0.1061
  300TMC3    C1 4514   2.084   1.767   9.847 -0.0987 -0.2832 -0.0028
  300TMC3    C2 4515   1.991   1.856   9.796 -0.2910 -0.4982 -0.7004
  300TMC3    C3 4516   1.868   1.852   9.858 -0.0460 -0.6683 -0.0327
  300TMC3    C4 4517   2.054   1.672   9.944  0.1490 -0.4010 -0.4799
  300TMC3    C5 4518   1.941   1.685  10.017  0.0739 -0.7671  0.5937
  300TMC3    C6 4519   1.842   1.767   9.964  0.3944  0.0696 -0.2422
  300TMC3     C 4520   2.208   1.835   9.873  0.2172 -0.1033  0.5553
  300TMC3     O 4521   2.240   1.846   9.990 -0.2034  0.3327 -0.0553
  300TMC3     H 4522   2.012   1.931   9.720  0.3338 -1.1962 -1.2106
  300TMC3    H1 4523   2.124   1.604   9.992  0.9502 -0.6028 -1.9208
  300TMC3    H2 4524   1.746   1.780  10.013 -0.0058 -0.7204 -0.8135
  300TMC3    C7 4525   1.926   1.621  10.141  0.5048  0.4236  0.0098
  300TMC3    C8 4526   1.824   1.974   9.916  0.5209 -0.0088  0.1680
  300TMC3    O1 4527   1.995   1.521  10.155  0.4385 -0.3467 -0.0069
  300TMC3    O2 4528   1.725   2.025   9.861 -0.0673  0.1835  0.3533
  301MPD2     C 4529   4.634   2.990   1.024 -0.0236  0.1579 -0.0140
  301MPD2    C1 4530   4.504   2.958   1.040  0.5477 -0.0042  0.0434
  301MPD2    C2 4531   4.471   2.831   1.068 -0.0364 -0.3077  0.6053
  301MPD2    C3 4532   4.564   2.742   1.101 -0.7463 -0.4972  1.0295
  301MPD2    C4 4533   4.696   2.773   1.096  0.2838  0.4610 -0.0207
  301MPD2    C5 4534   4.723   2.896   1.054 -0.0279 -0.1129 -0.4152
  301MPD2     H 4535   4.366   2.809   1.053 -0.6818  2.5154  1.0529
  301MPD2    H1 4536   0.050   2.699   1.101  0.3123  0.3292 -2.4042
  301MPD2    H2 4537   4.677   3.085   0.995 -1.2213  0.4914 -0.7383
  301MPD2    H3 4538   0.099   2.905   1.015  0.4327  1.1223  1.0908
  301MPD2     N 4539   4.529   2.605   1.120  0.3223  0.2388 -0.1452
  301MPD2    H5 4540   4.605   2.540   1.138  1.0616  0.7474 -1.3547
  301MPD2    N1 4541   4.397   3.047   1.012  0.5809 -0.1779 -0.3024
  301MPD2    H7 4542   4.303   3.017   1.038  1.2871 -0.9080  1.3852
  302TMC3    C1 4543   4.388   2.416   1.159  0.3573 -0.1832  0.3313
  302TMC3    C2 4544   4.489   2.322   1.134  0.7021  0.2715  0.6759
  302TMC3    C3 4545   4.464   2.186   1.143  0.0120  0.5132  0.3652
  302TMC3    C4 4546   4.267   2.364   1.187  0.5859  0.0099  0.5997
  302TMC3    C5 4547   4.236   2.232   1.195 -0.0865  0.2461  0.7091
  302TMC3    C6 4548   4.339   2.137   1.178 -0.2486  0.4848  0.0292
  302TMC3     C 4549   4.394   2.557   1.124 -0.1413 -0.0928 -0.3173
  302TMC3     O 4550   4.289   2.618   1.126  0.2954 -0.3989 -0.3461
  302TMC3     H 4551   4.590   2.354   1.113  0.5763 -0.4292 -0.9943
  302TMC3    H1 4552   4.196   2.439   1.219  0.1585 -0.4581  0.7561
  302TMC3    H2 4553   4.311   2.033   1.161  0.6014  0.2315  0.1604
  302TMC3    C7 4554   4.102   2.198   1.163  0.7161 -0.0491  0.2117
  302TMC3    C8 4555   4.574   2.097   1.104 -0.2896 -0.5723  0.0677
  302TMC3    O1 4556   4.041   2.116   1.233  0.1653 -0.0198  0.0792
  302TMC3    O2 4557   4.671   2.150   1.046  0.0618 -1.5618  0.2173
  303MPD2     C 4558   4.629   1.239  10.536  0.1163 -0.1129  0.4160
  303MPD2    C1 4559   4.502   1.263  10.504 -0.5683 -0.0664 -0.1982
  303MPD2    C2 4560   4.481   1.306  10.377  0.5137 -0.4329  0.0783
  303MPD2    C3 4561   4.583   1.318  10.282 -0.6321 -0.2081  0.1297
  303MPD2    C4 4562   4.714   1.298  10.325  0.2689  1.2675  0.1363
  303MPD2    C5 4563   0.009   1.262  10.454 -0.2348  0.5265  0.4418
  303MPD2     H 4564   4.383   1.343  10.350  0.4334 -0.6901  0.0130
  303MPD2    H1 4565   0.069   1.303  10.252 -0.3480 -0.6641 -0.6669
  303MPD2    H2 4566   4.655   1.206  10.636 -1.4118  1.2873  1.2843
  303MPD2    H3 4567   0.107   1.235  10.490 -0.5418  0.8889  1.5629
  303MPD2     N 4568   4.555   1.371  10.153  0.7197  0.0199  0.9943
  303MPD2    H5 4569   4.635   1.407  10.104  0.9089 -2.0178 -0.1796
  303MPD2    N1 4570   4.398   1.256  10.603 -0.1051  0.0595  0.3338
  303MPD2    H7 4571   4.426   1.225  10.696 -2.3392  0.5108  1.1777
  304TMC3    C1 4572   4.181   1.230  10.678  0.2327  0.4738  0.0621
  304TMC3    C2 4573   4.142   1.330  10.759  0.0495 -0.3695  0.3045
  304TMC3    C3 4574   4.018   1.326  10.812 -0.6375  0.5249 -0.0992
  304TMC3    C4 4575   4.108   1.119  10.662  0.6726 -0.3097  0.6461
  304TMC3    C5 4576   3.995   1.102  10.739  1.1696  0.2894  0.4969
  304TMC3    C6 4577   3.950   1.207  10.814 -0.4718  0.2716 -0.5253
  304TMC3     C 4578   4.264   1.271  10.572 -0.4513 -0.2276 -0.2742
  304TMC3     O 4579   4.212   1.331  10.473 -0.0521  0.1243 -0.7469
  304TMC3     H 4580   4.197   1.422  10.739 -1.2884  0.8124  2.1304
  304TMC3    H1 4581   4.143   1.052  10.584 -1.6256  0.5862 -1.1783
  304TMC3    H2 4582   3.857   1.200  10.870  0.6099  1.5663  1.4539
  304TMC3    C7 4583   3.885   1.026  10.679 -0.0991 -0.7827 -0.0762
  304TMC3    C8 4584   3.950   1.441  10.776  0.2108  0.5766 -0.3761
  304TMC3    O1 4585   3.776   1.069  10.712 -0.0745 -0.0273  0.0017
  304TMC3    O2 4586   3.990   1.558  10.797 -0.3256  0.2966  0.5201
  305MPD2     C 4587   2.758   2.950  14.165 -0.4081  0.0022 -0.2417
  305MPD2    C1 4588   2.838   3.047  14.101  0.4543 -0.1047  0.0118
  305MPD2    C2 4589   2.838   3.069  13.961  0.1758  0.0612  0.1530
  305MPD2    C3 4590   2.750   2.991  13.887  0.4678  0.5615 -0.1362
  305MPD2    C4 4591   2.679   2.897  13.948  0.1039  0.3583  0.4439
  305MPD2    C5 4592   2.680   2.876  14.078 -0.2211  0.2776  0.1796
  305MPD2     H 4593   2.893   3.149  13.914  2.1433 -0.9619  0.7223
  305MPD2    H1 4594   2.605   2.838  13.895 -0.7315  0.9269  0.9672
  305MPD2    H2 4595   2.756   2.927  14.271  3.6588 -0.4063 -0.2340
  305MPD2    H3 4596   2.620   2.800  14.126  1.4826 -1.2055 -0.0506
  305MPD2     N 4597   2.733   3.005  13.746 -0.7374  0.3222  0.0089
  305MPD2    H5 4598   2.652   2.957  13.709  0.6931 -1.8318 -0.2777
  305MPD2    N1 4599   2.929   3.124  14.187 -0.7214 -0.2904  0.0232
  305MPD2    H7 4600   2.918   3.107  14.286  0.6112  0.0478  0.2218
  306TMC3    C1 4601   3.132   3.233  14.263  0.7768  0.5880 -0.4774
  306TMC3    C2 4602   3.252   3.162  14.260 -0.0109 -0.1600  0.1908
  306TMC3    C3 4603   3.312   3.133  14.377  0.3391 -0.2734 -0.3260
  306TMC3    C4 4604   3.078   3.272  14.382 -0.3615  0.0992 -0.2710
  306TMC3    C5 4605   3.161   3.266  14.492  0.7048  0.1656 -0.5817
  306TMC3    C6 4606   3.272   3.184  14.497 -0.5721 -0.5359  0.5833
  306TMC3     C 4607   3.041   3.194  14.146  0.0880  0.6419  0.4085
  306TMC3     O 4608   3.098   3.202  14.039 -0.4964  0.6197  0.7242
  306TMC3     H 4609   3.279   3.103  14.173 -0.5457 -1.4106  0.8780
  306TMC3    H1 4610   2.985   3.327  14.381 -1.4765 -1.7885  0.2017
  306TMC3    H2 4611   3.318   3.170  14.594  1.1418  4.2567  0.4809
  306TMC3    C7 4612   3.110   3.316  14.619  0.1621 -0.0497 -0.3540
  306TMC3    C8 4613   3.396   3.014  14.379 -0.5879  0.1153 -0.5532
  306TMC3    O1 4614   2.989   3.337  14.613  0.2178  0.4080 -0.1218
  306TMC3    O2 4615   3.420   2.959  14.273  0.4520 -0.0866 -0.9221
  307MPD2     C 4616   1.273   0.540   0.537 -0.4844  0.6327  0.2198
  307MPD2    C1 4617   1.238   0.665   0.583 -0.2472 -0.2045  0.1301
  307MPD2    C2 4618   1.109   0.677   0.640  0.2725  0.3471  0.7211
  307MPD2    C3 4619   1.026   0.566   0.662  0.5677  0.2060 -0.8840
  307MPD2    C4 4620   1.057   0.449   0.598 -0.3040  0.3892  0.7499
  307MPD2    C5 4621   1.181   0.441   0.534 -0.0198 -0.0851 -0.6679
  307MPD2     H 4622   1.085   0.766   0.698  0.9936  2.1244 -1.7478
  307MPD2    H1 4623   0.985   0.367   0.594  1.1439 -0.8158 -0.4280
  307MPD2    H2 4624   1.357   0.515   0.473 -1.4138  1.2209 -1.2247
  307MPD2    H3 4625   1.215   0.355   0.479  1.4742  0.4457 -0.5611
  307MPD2     N 4626   0.907   0.590   0.738 -0.4527  0.0418 -0.0116
  307MPD2    H5 4627   0.898   0.684   0.775 -1.2888 -0.4571  1.0383
  307MPD2    N1 4628   1.329   0.773   0.572 -0.1827  0.5399  1.1089
  307MPD2    H7 4629   1.306   0.859   0.621  1.7294  2.1050 -0.7447
  308TMC3    C1 4630   0.545   0.735   0.723 -0.0518  0.6457 -0.4466
  308TMC3    C2 4631   0.568   0.822   0.827 -0.0306  0.3505 -0.6974
  308TMC3    C3 4632   0.653   0.776   0.921 -0.0994 -0.4539  0.8751
  308TMC3    C4 4633   0.605   0.619   0.717  0.0814  0.0002 -0.0253
  308TMC3    C5 4634   0.692   0.574   0.808  0.1734 -0.1570  0.0134
  308TMC3    C6 4635   0.717   0.654   0.912 -0.0707  0.8227 -0.1874
  308TMC3     C 4636   0.439   0.756   0.629  0.7241  0.0738  0.7509
  308TMC3     O 4637   0.387   0.654   0.583 -0.1992  0.1993  0.5291
  308TMC3     H 4638   0.511   0.913   0.842 -0.5492  0.2752 -2.2318
  308TMC3    H1 4639   0.586   0.557   0.630 -0.1096  1.2127 -0.8501
  308TMC3    H2 4640   0.791   0.617   0.982 -0.8387 -1.1283 -0.3968
  308TMC3    C7 4641   0.795   0.506   0.749  0.0743 -0.2912 -0.2863
  308TMC3    C8 4642   0.688   0.860   1.032 -0.3206 -0.5981  0.0192
  308TMC3    O1 4643   0.768   0.402   0.691  0.0958 -0.0467 -0.2855
  308TMC3    O2 4644   0.751   0.811   1.124 -0.1031 -0.0732  0.7375
  309MPD2     C 4645   0.202   1.780  16.763  0.1345 -0.2351  0.1606
  309MPD2    C1 4646   0.089   1.813  16.691 -0.5804 -0.0334 -0.2017
  309MPD2    C2 4647   4.700   1.868  16.748 -0.2708 -0.7973 -0.5630
  309MPD2    C3 4648   4.700   1.893  16.884  0.8141  0.2718  0.1337
  309MPD2    C4 4649   0.091   1.865  16.955  0.0510  0.1566  0.0327
  309MPD2    C5 4650   0.203   1.813  16.898  0.0738  0.3769  0.4022
  309MPD2     H 4651   4.609   1.883  16.690 -0.6178 -1.9819 -0.3324
  309MPD2    H1 4652   0.095   1.884  17.062  0.9931  0.6038 -0.0837
  309MPD2    H2 4653   0.297   1.746  16.723  0.2011  0.5046 -0.2962
  309MPD2    H3 4654   0.289   1.802  16.962  1.0657 -3.3415 -1.5933
  309MPD2     N 4655   4.594   1.937  16.964  0.2633  0.7055 -0.4925
  309MPD2    H5 4656   4.622   1.962  17.059  2.2991 -0.2170 -0.8421
  309MPD2    N1 4657   0.085   1.811  16.545  0.4743 -0.1420  0.0712
  309MPD2    H7 4658   0.025   1.875  16.493 -2.3720 -1.7640  1.3506
  310TMC3    C1 4659   0.192   1.770  16.340  0.4292 -0.3966  0.3047
  310TMC3    C2 4660   0.102   1.828  16.250 -0.4303 -0.2864 -0.8547
  310TMC3    C3 4661   0.155   1.860  16.122  0.2704  0.0600 -0.7579
  310TMC3    C4 4662   0.320   1.734  16.304  0.3942  0.5237 -0.4122
  310TMC3    C5 4663   0.363   1.765  16.180 -0.4829  0.0585 -0.2557
  310TMC3    C6 4664   0.287   1.831  16.085  0.7005  0.2243 -0.1510
  310TMC3     C 4665   0.163   1.728  16.480  0.1760 -0.5333  0.1019
  310TMC3     O 4666   0.242   1.645  16.523 -0.1040  0.3088 -0.1319
  310TMC3     H 4667   4.723   1.852  16.266  0.0772  0.4358  1.3627
  310TMC3    H1 4668   0.383   1.681  16.375 -0.4512  2.0914  1.5344
  310TMC3    H2 4669   0.329   1.842  15.986  1.0809  2.0331  0.2222
  310TMC3    C7 4670   0.488   1.709  16.136  0.4934  0.6911 -0.0894
  310TMC3    C8 4671   0.069   1.923  16.027 -0.4781  0.8061  0.7466
  310TMC3    O1 4672   0.515   1.593  16.166  0.1810  0.3642  0.2607
  310TMC3    O2 4673   4.677   1.900  16.036  0.5903  0.1279  0.3213
  311MPD2     C 4674   1.880   2.698  12.600 -0.1613 -0.2660 -0.8899
  311MPD2    C1 4675   1.872   2.829  12.640 -0.0351  0.1400 -0.3206
  311MPD2    C2 4676   1.750   2.882  12.672 -0.1519  0.2057  0.1502
  311MPD2    C3 4677   1.631   2.814  12.663  0.2998 -0.2183 -0.2281
  311MPD2    C4 4678   1.636   2.684  12.620 -0.0754  0.4476 -0.3694
  311MPD2    C5 4679   1.764   2.632  12.595  0.1763 -0.1667 -0.8132
  311MPD2     H 4680   1.749   2.990  12.684  0.5415  0.3659 -1.2171
  311MPD2    H1 4681   1.542   2.631  12.624 -0.8695  1.8850  0.0778
  311MPD2    H2 4682   1.973   2.654  12.568 -0.0118 -2.7231  2.8259
  311MPD2    H3 4683   1.765   2.529  12.560  1.9021 -0.4376  0.0153
  311MPD2     N 4684   1.506   2.891  12.671  0.1101  0.3131  0.0609
  311MPD2    H5 4685   1.507   2.989  12.699  2.4837  0.5894 -1.0201
  311MPD2    N1 4686   1.985   2.911  12.644  0.0053 -0.5121  0.5137
  311MPD2    H7 4687   1.972   3.012  12.648  0.8598 -0.2738 -2.5671
  312TMC3    C1 4688   1.274   2.916  12.705  0.3980 -0.5742 -1.4633
  312TMC3    C2 4689   1.152   2.910  12.653  0.1557 -0.6116  0.0934
  312TMC3    C3 4690   1.053   3.001  12.694  0.2567  0.0231  0.2172
  312TMC3    C4 4691   1.304   2.991  12.809 -0.0789  0.0420 -0.0176
  312TMC3    C5 4692   1.206   3.075  12.855 -0.4234 -0.5679  0.1998
  312TMC3    C6 4693   1.086   3.095  12.786  1.1025  0.1585 -0.5703
  312TMC3     C 4694   1.377   2.833  12.657  0.5438 -0.6799  0.1405
  312TMC3     O 4695   1.348   2.727  12.601  0.3416 -0.4846  0.2064
  312TMC3     H 4696   1.128   2.832  12.582  3.4682 -0.3922 -1.2638
  312TMC3    H1 4697   1.390   2.968  12.870 -0.2157 -0.6901 -0.0999
  312TMC3    H2 4698   1.007   3.153  12.833  1.3176  0.5815 -0.7328
  312TMC3    C7 4699   1.243   3.173  12.953  0.8305 -0.0841 -0.0543
  312TMC3    C8 4700   0.925   2.993  12.631 -0.0682  0.5303 -0.1644
  312TMC3    O1 4701   1.174   3.277  12.944  0.5535  0.6448 -0.6357
  312TMC3    O2 4702   0.925   2.927  12.524  0.3806  0.3747  0.2486
  313MPD2     C 4703   1.702   2.140  10.620 -0.3273 -0.1646 -0.1030
  313MPD2    C1 4704   1.568   2.181  10.605  0.4905  0.6206 -0.2030
  313MPD2    C2 4705   1.495   2.126  10.504 -0.1454 -0.7685  0.6058
  313MPD2    C3 4706   1.563   2.059  10.404  0.8915 -0.3516  0.0319
  313MPD2    C4 4707   1.703   2.038  10.406 -0.1330 -0.1138 -0.2469
  313MPD2    C5 4708   1.772   2.073  10.519 -0.0626 -0.4038 -0.0110
  313MPD2     H 4709   1.389   2.147  10.505 -0.3382 -1.6125 -1.9433
  313MPD2    H1 4710   1.761   1.986  10.330  0.2300  0.3845 -0.3076
  313MPD2    H2 4711   1.763   2.179  10.701  0.4588  0.2286 -0.8862
  313MPD2    H3 4712   1.874   2.044  10.544  0.1153  0.4742  0.2625
  313MPD2     N 4713   1.487   2.013  10.289  0.2982  0.3871 -0.3671
  313MPD2    H5 4714   1.386   2.030  10.290  0.2579  0.4011 -3.1561
  313MPD2    N1 4715   1.496   2.260  10.700  0.0471 -0.2825 -0.4732
  313MPD2    H7 4716   1.403   2.289  10.671 -1.7469 -1.4562  4.0544
  314TMC3    C1 4717   1.450   2.409  10.881  0.1160  0.5158 -0.4892
  314TMC3    C2 4718   1.501   2.503  10.967 -1.1578  0.4190 -0.4555
  314TMC3    C3 4719   1.421   2.599  11.018 -0.2983  0.3593  0.3323
  314TMC3    C4 4720   1.317   2.412  10.842  0.0378  0.3852  0.3814
  314TMC3    C5 4721   1.238   2.515  10.899  0.4257 -0.7578 -0.7423
  314TMC3    C6 4722   1.293   2.611  10.988 -0.2761  0.6849 -0.5640
  314TMC3     C 4723   1.551   2.328  10.812 -0.2947 -1.3122 -0.0541
  314TMC3     O 4724   1.673   2.349  10.826 -0.4776  0.7799  0.3805
  314TMC3     H 4725   1.607   2.519  10.981 -1.0211 -0.2223 -0.7513
  314TMC3    H1 4726   1.276   2.347  10.766 -0.7510  1.0473  0.2353
  314TMC3    H2 4727   1.232   2.694  11.022 -1.3637 -0.6435  0.7307
  314TMC3    C7 4728   1.116   2.562  10.829 -0.0396  0.9365  0.2124
  314TMC3    C8 4729   1.480   2.717  11.086 -0.6411 -0.6225 -0.0054
  314TMC3    O1 4730   1.043   2.647  10.872  0.4999 -0.6263  0.6427
  314TMC3    O2 4731   1.441   2.828  11.049  0.6663  0.0035 -0.1522
  315MPD2     C 4732   1.334   1.885   0.130 -0.5901 -0.8238 -0.7073
  315MPD2    C1 4733   1.403   1.939   0.237  1.0001  0.1293 -0.2600
  315MPD2    C2 4734   1.490   2.041   0.211  0.4132 -0.2318  0.0113
  315MPD2    C3 4735   1.512   2.097   0.087 -0.4387 -0.3425  0.0822
  315MPD2    C4 4736   1.441   2.033  17.685  0.7624 -0.1903  0.3068
  315MPD2    C5 4737   1.349   1.933   0.003 -1.0106 -0.2412 -0.3326
  315MPD2     H 4738   1.559   2.068   0.290 -0.2732 -1.3104  0.9834
  315MPD2    H1 4739   1.452   2.057  17.580 -0.0724  0.3667  0.3450
  315MPD2    H2 4740   1.275   1.794   0.134  0.4229 -1.5279 -1.6607
  315MPD2    H3 4741   1.308   1.876  17.623  1.7652  1.1955 -2.6766
  315MPD2     N 4742   1.613   2.189   0.073  0.2519  0.6631 -0.0049
  315MPD2    H5 4743   1.655   2.225   0.159  0.7159  0.2512 -0.0583
  315MPD2    N1 4744   1.403   1.886   0.369 -0.0913 -0.0123  0.0294
  315MPD2    H7 4745   1.491   1.901   0.418 -0.1922 -0.4725  0.3484
  316TMC3    C1 4746   1.760   2.346  17.674 -0.0823  0.2958  0.1955
  316TMC3    C2 4747   1.836   2.339   0.085 -0.1318 -0.7559 -0.3990
  316TMC3    C3 4748   1.902   2.456   0.110  0.2742 -0.1528 -0.3757
  316TMC3    C4 4749   1.747   2.451  17.585  0.3247 -0.0362  0.0166
  316TMC3    C5 4750   1.815   2.559  17.620  0.3207  0.3631 -0.0092
  316TMC3    C6 4751   1.897   2.566   0.025 -0.5052 -0.3440  0.1193
  316TMC3     C 4752   1.647   2.246  17.658 -0.1878 -0.8410 -0.5867
  316TMC3     O 4753   1.594   2.231  17.549  0.0518 -0.4070 -0.3545
  316TMC3     H 4754   1.832   2.254   0.152 -0.2674 -0.8095 -0.4759
  316TMC3    H1 4755   1.705   2.431  17.487 -1.7756  0.3197  0.8483
  316TMC3    H2 4756   1.972   2.644   0.022  0.2670 -1.0369  1.3433
  316TMC3    C7 4757   1.809   2.673  17.527 -0.4704  0.3268 -0.4063
  316TMC3    C8 4758   2.000   2.477   0.217 -0.3349 -0.0854  0.5872
  316TMC3    O1 4759   1.895   2.761  17.533  0.0443 -0.1230  0.4074
  316TMC3    O2 4760   2.037   2.594   0.243 -0.6187  0.6363 -0.0163
  317MPD2     C 4761   2.690   0.468  13.004  0.2523 -0.3751 -0.1751
  317MPD2    C1 4762   2.689   0.336  12.957  0.0972 -0.7525  0.7537
  317MPD2    C2 4763   2.780   0.246  13.014  0.4813  0.1955 -0.0780
  317MPD2    C3 4764   2.869   0.285  13.114 -0.2857 -0.4142  0.9576
  317MPD2    C4 4765   2.879   0.414  13.147 -0.0430  0.2479 -0.2655
  317MPD2    C5 4766   2.780   0.503  13.103 -0.1114  0.6039 -0.1239
  317MPD2     H 4767   2.783   0.147  12.970 -1.2598  0.2027 -0.2015
  317MPD2    H1 4768   2.954   0.452  13.215  1.1367 -2.3648 -0.1230
  317MPD2    H2 4769   2.634   0.547  12.955 -0.0169 -0.2977  0.2534
  317MPD2    H3 4770   2.793   0.608  13.125 -0.3736  0.3430  1.2530
  317MPD2     N 4771   2.948   0.188  13.167 -0.4649  0.3783 -0.4791
  317MPD2    H5 4772   2.919   0.095  13.139 -1.1685  0.1863  0.8921
  317MPD2    N1 4773   2.621   0.293  12.846 -0.4024  0.1334  0.3258
  317MPD2    H7 4774   2.640   0.199  12.813  1.7638  0.7060 -0.0622
  318TMC3    C1 4775   3.102   0.073  13.298  0.5905  0.4402  0.6231
  318TMC3    C2 4776   3.061   4.678  13.247 -0.0701 -0.1980 -0.0584
  318TMC3    C3 4777   3.101   4.565  13.318 -0.3314 -0.1362  0.0836
  318TMC3    C4 4778   3.196   0.088  13.395  0.3050 -0.2721 -0.3701
  318TMC3    C5 4779   3.240   4.697  13.453 -0.4118 -0.0691  0.0835
  318TMC3    C6 4780   3.187   4.574  13.420 -0.2284  0.6918 -0.2884
  318TMC3     C 4781   3.055   0.205  13.251 -0.3012  0.0202 -0.3321
  318TMC3     O 4782   3.118   0.306  13.286  0.3617  0.1134  0.3119
  318TMC3     H 4783   3.001   4.668  13.158  3.7824 -2.4338 -2.3843
  318TMC3    H1 4784   3.230   0.186  13.426 -0.5993 -0.3506  0.8875
  318TMC3    H2 4785   3.212   4.491  13.486 -3.0957 -0.0176 -0.0673
  318TMC3    C7 4786   3.344   4.714  13.550  0.2962 -0.0217 -0.4789
  318TMC3    C8 4787   3.044   4.434  13.293 -0.3226  0.0393  0.3429
  318TMC3    O1 4788   3.348   0.100  13.604 -0.2263 -0.4459 -0.2575
  318TMC3    O2 4789   3.111   4.350  13.356  0.3207 -0.3160  0.1715
  319MPD2     C 4790   4.342   1.446  16.434 -0.1550 -0.3145  0.0299
  319MPD2    C1 4791   4.227   1.470  16.510  0.0185  0.1739 -0.1600
  319MPD2    C2 4792   4.105   1.439  16.455  0.3527 -0.2418 -0.0609
  319MPD2    C3 4793   4.091   1.404  16.320  0.6312  0.0870 -0.3161
  319MPD2    C4 4794   4.204   1.399  16.242  0.4151  0.1579  0.5361
  319MPD2    C5 4795   4.333   1.414  16.299 -0.2630  0.7684  0.1639
  319MPD2     H 4796   4.021   1.451  16.523  1.3753 -1.4514  1.4113
  319MPD2    H1 4797   4.196   1.375  16.137  0.8344  3.1170 -0.1781
  319MPD2    H2 4798   4.437   1.449  16.487 -0.1942  0.9496  0.0243
  319MPD2    H3 4799   4.420   1.413  16.235 -0.1319 -2.0819  0.3822
  319MPD2     N 4800   3.964   1.373  16.267  0.3311  0.4661 -0.3652
  319MPD2    H5 4801   3.959   1.364  16.166 -1.8216 -2.8040  0.0588
  319MPD2    N1 4802   4.230   1.504  16.649  0.6323 -0.0341 -0.4996
  319MPD2    H7 4803   4.146   1.492  16.705 -1.2699  2.1430 -2.8747
  320TMC3    C1 4804   3.733   1.335  16.274  0.2157 -0.1738  0.2206
  320TMC3    C2 4805   3.716   1.407  16.159  0.7529  0.5894  0.7375
  320TMC3    C3 4806   3.637   1.362  16.062 -0.1832  0.1129 -0.6036
  320TMC3    C4 4807   3.669   1.212  16.279  0.0888  0.1394 -0.6130
  320TMC3    C5 4808   3.577   1.169  16.186  0.5117  0.4516  0.1461
  320TMC3    C6 4809   3.555   1.249  16.075 -0.3307 -0.2040  0.4598
  320TMC3     C 4810   3.859   1.353  16.348 -0.6439  0.3479  0.4623
  320TMC3     O 4811   3.852   1.310  16.462  0.0976  0.8702 -0.2146
  320TMC3     H 4812   3.778   1.496  16.150  2.8531 -0.7771  1.6734
  320TMC3    H1 4813   3.695   1.136  16.352 -0.0562  1.1480  0.4774
  320TMC3    H2 4814   3.480   1.213  16.005 -1.4924 -1.3838  2.2917
  320TMC3    C7 4815   3.556   1.029  16.170 -0.4777 -0.7512 -0.1992
  320TMC3    C8 4816   3.612   1.461  15.960 -0.3168 -0.4754 -0.5628
  320TMC3    O1 4817   3.646   0.952  16.203  0.1708  0.3529  0.3042
  320TMC3    O2 4818   3.661   1.573  15.980  0.1175 -0.5717 -0.8515
  321TMC3    C1 4819   4.332   1.536  16.861  0.4111 -0.0092  0.5158
  321TMC3    C2 4820   4.272   1.433  16.929  0.0657  0.3167  0.2966
  321TMC3    C3 4821   4.310   1.424  17.057  0.0098 -0.3981  0.2743
  321TMC3    C4 4822   4.419   1.624  16.914  0.3254  0.5450 -0.7927
  321TMC3    C5 4823   4.449   1.620  17.048  0.4052 -0.1394 -0.4262
  321TMC3    C6 4824   4.389   1.518  17.120  0.2834  0.7649 -0.5055
  321TMC3     C 4825   4.350   1.524  16.716 -0.3144  0.2617  0.7372
  321TMC3     O 4826   4.455   1.567  16.677 -0.0138 -0.5160  0.1016
  321TMC3     H 4827   4.233   1.346  16.879  1.8713 -1.0311  1.2163
  321TMC3    H1 4828   4.475   1.697  16.856  2.3983  0.8909  1.6115
  321TMC3    H2 4829   4.415   1.497  17.223  2.0800  1.9034 -0.7328
  321TMC3    C7 4830   4.587   1.619  17.061  0.2980  1.1340  0.6600
  321TMC3    C8 4831   4.347   1.288  17.097 -0.5930 -0.2634 -0.7014
  321TMC3    O1 4832   4.655   1.576  16.968 -0.2235 -0.2083 -0.0987
  321TMC3    O2 4833   4.279   1.197  17.052 -0.6824 -0.4745  0.2492
  322MPD2     C 4834   3.310   2.801  13.148  0.1361 -0.5806  0.0692
  322MPD2    C1 4835   3.222   2.750  13.239 -0.8059 -0.7876  0.2825
  322MPD2    C2 4836   3.157   2.632  13.207 -0.2702  0.4161 -0.4819
  322MPD2    C3 4837   3.195   2.560  13.092 -0.2555 -0.5555 -0.7940
  322MPD2    C4 4838   3.277   2.619  12.995  0.4486 -0.2499  0.2710
  322MPD2    C5 4839   3.330   2.741  13.032 -0.1730 -1.1050 -0.0630
  322MPD2     H 4840   3.089   2.582  13.274 -0.1979  1.2744  0.2285
  322MPD2    H1 4841   3.315   2.584  12.899  0.9235 -1.0021  0.7317
  322MPD2    H2 4842   3.362   2.893  13.171 -1.7021  0.9268 -1.8424
  322MPD2    H3 4843   3.403   2.792  12.970  0.7273 -0.6513  1.3774
  322MPD2     N 4844   3.147   2.431  13.081 -0.1866  0.7485 -0.3001
  322MPD2    H5 4845   3.081   2.395  13.149  0.5970 -0.8137 -0.3515
  322MPD2    N1 4846   3.202   2.818  13.362 -0.2594 -0.1676 -0.3558
  322MPD2    H7 4847   3.270   2.888  13.390 -2.3283  1.5539  0.3515
  323TMC3    C1 4848   3.117   2.861  13.581 -0.4029 -0.2654  0.0806
  323TMC3    C2 4849   3.184   2.978  13.601 -0.2452  0.4691 -0.7681
  323TMC3    C3 4850   3.213   3.025  13.730  0.1511  0.2195 -0.8601
  323TMC3    C4 4851   3.059   2.799  13.692  0.7663 -0.0599  0.3048
  323TMC3    C5 4852   3.086   2.848  13.817 -0.4618 -0.1418  0.3564
  323TMC3    C6 4853   3.154   2.967  13.835 -0.4026  0.1453  0.4267
  323TMC3     C 4854   3.106   2.791  13.455 -0.2694  0.3235 -1.7588
  323TMC3     O 4855   3.010   2.718  13.444  0.3795 -0.1024  0.4573
  323TMC3     H 4856   3.218   3.041  13.520  1.4534 -0.3853 -0.7333
  323TMC3    H1 4857   2.982   2.724  13.680  2.0919 -1.2565 -0.6877
  323TMC3    H2 4858   3.182   3.000  13.934  1.3613  1.3145 -0.4410
  323TMC3    C7 4859   3.056   2.756  13.926  0.2186  0.0867  0.9271
  323TMC3    C8 4860   3.319   3.119  13.746  0.0615  0.3484 -0.2756
  323TMC3    O1 4861   3.025   2.642  13.904 -0.2037 -0.5757 -0.4051
  323TMC3    O2 4862   3.410   3.116  13.665 -0.0075 -0.4420  0.5173
  324MPD2     C 4863   4.396   3.656  13.891  0.2106 -0.4610  0.3360
  324MPD2    C1 4864   4.350   3.723  13.999  0.2909 -0.7328 -1.2360
  324MPD2    C2 4865   4.210   3.749  14.002 -0.0355  0.1384  0.6342
  324MPD2    C3 4866   4.123   3.691  13.909  0.6460  0.4082  0.1097
  324MPD2    C4 4867   4.181   3.606  13.814  0.7795 -0.6067  0.4435
  324MPD2    C5 4868   4.316   3.595  13.801 -0.1816 -0.0229 -0.4681
  324MPD2     H 4869   4.171   3.824  14.071 -0.2972 -0.6632  1.3515
  324MPD2    H1 4870   4.124   3.552  13.739  0.5658 -0.2535  0.3532
  324MPD2    H2 4871   4.499   3.667  13.858 -0.5388  0.6682 -1.5959
  324MPD2    H3 4872   4.349   3.540  13.714  5.1365  1.0450  0.8892
  324MPD2     N 4873   3.985   3.716  13.903 -0.1415 -0.1396 -0.2906
  324MPD2    H5 4874   3.945   3.670  13.822 -1.1269 -0.5610  0.4342
  324MPD2    N1 4875   4.431   3.788  14.089 -0.1427  0.2740  0.2152
  324MPD2    H7 4876   4.385   3.848  14.156 -1.1933 -0.2983  0.0099
  325TMC3    C1 4877   3.773   3.801  13.930  0.4079  0.6638  0.5449
  325TMC3    C2 4878   3.730   3.694  13.860  0.1034 -0.3506  0.0947
  325TMC3    C3 4879   3.611   3.710  13.797 -0.1780  0.5836 -0.1676
  325TMC3    C4 4880   3.695   3.913  13.947 -0.0050  0.4726  0.1956
  325TMC3    C5 4881   3.577   3.921  13.886 -0.8545  0.5617  1.0945
  325TMC3    C6 4882   3.535   3.824  13.802 -0.0695  0.5854 -0.1563
  325TMC3     C 4883   3.913   3.811  13.967 -0.7874  0.0835 -0.1085
  325TMC3     O 4884   3.946   3.896  14.050  0.2695  0.1506  0.4009
  325TMC3     H 4885   3.775   3.595  13.857 -0.8676 -0.8112  0.6591
  325TMC3    H1 4886   3.731   4.004  13.993 -2.2934  0.8228  1.2760
  325TMC3    H2 4887   3.440   3.829  13.750 -0.8667 -3.0262  0.9641
  325TMC3    C7 4888   3.499   4.048  13.869  0.8677  0.6963 -0.1226
  325TMC3    C8 4889   3.557   3.603  13.715  0.7976 -0.4952  0.0761
  325TMC3    O1 4890   3.421   4.052  13.776 -0.1062 -0.2248  0.2453
  325TMC3    O2 4891   3.642   3.533  13.658 -0.3725 -0.1047 -0.0553
  326MPD2     C 4892   0.335   0.487  10.739  0.4320 -0.6892  0.0901
  326MPD2    C1 4893   0.425   0.377  10.738  0.0788  0.3529  0.3931
  326MPD2    C2 4894   0.549   0.391  10.804  0.3589 -0.7644  0.3468
  326MPD2    C3 4895   0.595   0.518  10.848 -0.7740  0.3152 -0.2916
  326MPD2    C4 4896   0.505   0.624  10.835 -0.0382  0.2112 -0.1457
  326MPD2    C5 4897   0.381   0.604  10.785 -0.0405 -0.1095 -0.1125
  326MPD2     H 4898   0.598   0.295  10.820  2.1601  0.0470 -0.3212
  326MPD2    H1 4899   0.529   0.721  10.877 -1.7482  0.1124  1.0829
  326MPD2    H2 4900   0.235   0.490  10.696 -0.2863  1.7319  1.9524
  326MPD2    H3 4901   0.315   0.690  10.781 -3.6580 -2.9118  0.2165
  326MPD2     N 4902   0.722   0.534  10.910  0.1529 -0.8892 -0.1285
  326MPD2    H5 4903   0.738   0.623  10.955 -0.5111 -1.0234  0.3743
  326MPD2    N1 4904   0.391   0.243  10.715  0.0297  0.2200  0.1534
  326MPD2    H7 4905   0.468   0.178  10.725  0.8825  0.8710 -2.1129
  327TMC3    C1 4906   0.299   0.083  10.567 -0.2315 -0.1645 -0.0873
  327TMC3    C2 4907   0.242   0.082  10.442  0.0217  0.4992  0.1270
  327TMC3    C3 4908   0.262   4.697  10.363  0.3686  0.2636  0.2113
  327TMC3    C4 4909   0.393   4.706  10.600  0.4635 -0.4227  0.0723
  327TMC3    C5 4910   0.426   4.611  10.506 -0.2932 -0.0531 -0.0764
  327TMC3    C6 4911   0.352   4.600  10.391 -0.0272  0.9969  0.0489
  327TMC3     C 4912   0.282   0.203  10.642  0.1334  0.3677 -0.2433
  327TMC3     O 4913   0.182   0.271  10.621 -0.2208  0.2784  0.0226
  327TMC3     H 4914   0.184   0.168  10.411  0.4202  0.8288  0.3040
  327TMC3    H1 4915   0.432   4.694  10.700  0.7293  0.9750  0.1312
  327TMC3    H2 4916   0.371   4.520  10.320 -1.8204  1.1776 -0.6324
  327TMC3    C7 4917   0.537   4.520  10.529 -0.4910  0.0418 -0.1056
  327TMC3    C8 4918   0.221   4.709  10.224 -0.4127 -0.2799 -0.1207
  327TMC3    O1 4919   0.532   4.422  10.463  0.4345  0.3382  0.2555
  327TMC3    O2 4920   0.301   4.687  10.131 -0.0222  0.2688 -0.1377
  328MPD2     C 4921   4.539   0.874  16.822  0.4782 -0.7527 -0.0924
  328MPD2    C1 4922   4.437   0.789  16.847 -0.5229  0.8152 -0.0275
  328MPD2    C2 4923   4.306   0.836  16.821 -0.2231  0.7523  0.2474
  328MPD2    C3 4924   4.287   0.971  16.776  0.5500 -0.0052  0.5241
  328MPD2    C4 4925   4.401   1.045  16.735  0.0323  0.3184 -0.0017
  328MPD2    C5 4926   4.528   0.998  16.777 -0.5502 -1.1214  0.1356
  328MPD2     H 4927   4.222   0.771  16.846  0.4480 -0.1537  0.1647
  328MPD2    H1 4928   4.390   1.152  16.722 -0.3313  0.5627  2.2931
  328MPD2    H2 4929   4.644   0.849  16.836  0.6565  1.9023  3.4024
  328MPD2    H3 4930   4.614   1.060  16.754 -2.4082  1.0098 -1.1851
  328MPD2     N 4931   4.161   1.028  16.756 -0.0638 -0.2050  0.1019
  328MPD2    H5 4932   4.172   1.119  16.715 -1.7932  1.9124  4.2945
  328MPD2    N1 4933   4.465   0.660  16.899  0.8427 -0.0613 -0.1410
  328MPD2    H7 4934   4.563   0.637  16.909  0.1611 -3.1278 -0.7100
  329TMC3    C1 4935   4.441   0.468  17.037 -0.2175 -0.5644  0.6147
  329TMC3    C2 4936   4.353   0.366  17.067  0.4024  0.2022 -0.1818
  329TMC3    C3 4937   4.373   0.303  17.187  0.0279 -0.6364 -0.8260
  329TMC3    C4 4938   4.541   0.508  17.118 -0.1676 -0.4592 -0.0766
  329TMC3    C5 4939   4.557   0.435  17.236  0.3340  0.5306 -0.2127
  329TMC3    C6 4940   4.477   0.324  17.270  0.3922 -0.0019  0.0549
  329TMC3     C 4941   4.374   0.565  16.945 -0.4617  0.0458 -0.8276
  329TMC3     O 4942   4.254   0.558  16.930  0.2032  0.7660 -0.0290
  329TMC3     H 4943   4.277   0.337  16.996  2.5318 -1.9751 -1.5542
  329TMC3    H1 4944   4.582   0.608  17.108  0.5474 -0.5930  1.4222
  329TMC3    H2 4945   4.492   0.267  17.361 -0.4293 -1.9329 -1.0199
  329TMC3    C7 4946   4.660   0.487  17.320  0.8835 -0.2061  0.3067
  329TMC3    C8 4947   4.285   0.195  17.221 -0.3601 -0.9123  0.7932
  329TMC3    O1 4948   0.022   0.563  17.273 -0.5176  0.1045 -0.0000
  329TMC3    O2 4949   4.326   0.125  17.310  0.5452 -0.4787  0.0051
  330TMC3    C1 4950   1.298   4.475   9.714  0.8563 -0.2328 -0.3370
  330TMC3    C2 4951   1.225   4.403   9.628  0.5869 -0.1798  0.5985
  330TMC3    C3 4952   1.235   4.265   9.636 -0.0075 -0.2178 -0.3390
  330TMC3    C4 4953   1.399   4.421   9.789  0.3336 -0.6017 -0.1024
  330TMC3    C5 4954   1.412   4.286   9.789 -0.8466  0.3628 -0.3280
  330TMC3    C6 4955   1.333   4.204   9.712  0.0224  0.2419  0.2856
  330TMC3     C 4956   1.306   4.621   9.692  0.0280  0.5902  0.0254
  330TMC3     O 4957   1.332   4.698   9.782 -0.6156  0.3053 -0.2811
  330TMC3     H 4958   1.142   4.447   9.573 -0.6458 -2.4772  0.6340
  330TMC3    H1 4959   1.459   4.499   9.832  0.2897 -0.2282 -0.7116
  330TMC3    H2 4960   1.351   4.098   9.702  0.9913  0.4586 -0.2075
  330TMC3    C7 4961   1.521   4.239   9.879  0.2167  0.5947 -0.5915
  330TMC3    C8 4962   1.148   4.188   9.535  0.9568  0.1691 -0.1886
  330TMC3    O1 4963   1.550   4.327   9.959  0.2553 -0.4771 -0.1035
  330TMC3    O2 4964   1.076   4.258   9.464  0.0844 -0.2445  0.1735
  331MPD2     C 4965   3.523   3.170  12.535  0.1427  0.0135  0.6097
  331MPD2    C1 4966   3.641   3.227  12.491 -0.5664  0.2477 -0.5131
  331MPD2    C2 4967   3.724   3.144  12.416  0.1151  0.1193 -0.2860
  331MPD2    C3 4968   3.700   3.010  12.402  0.1616  0.0932  1.1037
  331MPD2    C4 4969   3.586   2.952  12.459 -0.1203  0.2022  0.0075
  331MPD2    C5 4970   3.495   3.036  12.524 -0.4308  0.1404  0.3091
  331MPD2     H 4971   3.817   3.185  12.378 -0.7452  0.4969 -1.9715
  331MPD2    H1 4972   3.572   2.845  12.454  1.6989 -0.0061 -0.7208
  331MPD2    H2 4973   3.448   3.231  12.584  1.1378  0.4314  1.6174
  331MPD2    H3 4974   3.402   2.993  12.558 -0.5695 -1.1187 -1.6475
  331MPD2     N 4975   3.776   2.935  12.312 -0.2281 -0.1044  0.5173
  331MPD2    H5 4976   3.829   2.995  12.250 -1.2337 -0.8338 -1.0451
  331MPD2    N1 4977   3.667   3.365  12.499  0.6042 -0.5526 -0.4238
  331MPD2    H7 4978   3.582   3.420  12.512  1.0307  0.6549 -2.5890
  332TMC3    C1 4979   3.913   2.756  12.235  0.3672 -0.2451 -0.0667
  332TMC3    C2 4980   3.934   2.836  12.123  0.7141 -0.7433  0.1860
  332TMC3    C3 4981   4.064   2.856  12.090  0.0338 -0.0145 -0.3978
  332TMC3    C4 4982   4.011   2.686  12.294  0.1230 -0.4745 -0.3471
  332TMC3    C5 4983   4.138   2.715  12.259  0.7524  0.5758 -0.3048
  332TMC3    C6 4984   4.168   2.802  12.162  0.6193  0.5275  0.2857
  332TMC3     C 4985   3.801   2.798  12.325 -0.4405 -0.5393 -0.3770
  332TMC3     O 4986   3.766   2.714  12.403  0.1477  0.0128 -0.2812
  332TMC3     H 4987   3.854   2.869  12.057  2.0975 -0.0339 -1.1469
  332TMC3    H1 4988   3.992   2.627  12.383 -2.2174  2.8286  1.3415
  332TMC3    H2 4989   4.267   2.839  12.138  0.4707  0.8921  0.2485
  332TMC3    C7 4990   4.245   2.637  12.314  0.8823 -0.0105 -0.6608
  332TMC3    C8 4991   4.113   2.956  11.995 -0.3692 -0.7438 -0.1484
  332TMC3    O1 4992   4.211   2.564  12.406  0.0347  0.3738  0.7375
  332TMC3    O2 4993   4.201   3.029  12.040 -0.0700 -0.2774  1.1775
  333MPD2     C 4994   4.382   3.548  10.611  0.6860  0.8074  0.3380
  333MPD2    C1 4995   4.403   3.431  10.540 -0.4904 -0.2350  0.4468
  333MPD2    C2 4996   4.342   3.314  10.579 -0.9688 -0.4023 -0.6967
  333MPD2    C3 4997   4.259   3.319  10.693  0.1045 -0.1073  0.3545
  333MPD2    C4 4998   4.232   3.439  10.757 -0.1916 -0.7156  0.2134
  333MPD2    C5 4999   4.296   3.553  10.715  0.0389  0.6555 -1.0625
  333MPD2     H 5000   4.350   3.228  10.514 -0.8056 -0.4396 -0.6296
  333MPD2    H1 5001   4.162   3.448  10.839  0.3657 -0.7404  0.6940
  333MPD2    H2 5002   4.432   3.641  10.586 -0.0804  1.7982  2.5069
  333MPD2    H3 5003   4.286   3.653  10.755  0.9179  1.0732 -1.8537
  333MPD2     N 5004   4.209   3.191  10.736 -0.0380 -1.2056  0.0833
  333MPD2    H5 5005   4.223   3.106  10.682  0.8086  0.2209 -1.9792
  333MPD2    N1 5006   4.493   3.440  10.433 -0.5448  0.4896  0.0667
  333MPD2    H7 5007   4.537   3.531  10.425 -3.5880  1.9253 -0.1830
  334TMC3    C1 5008   4.652   3.377  10.265 -0.2293 -0.2448  0.0027
  334TMC3    C2 5009   0.005   3.275  10.229  0.5268  0.8615 -0.3469
  334TMC3    C3 5010   0.134   3.293  10.186  0.0907  1.0633 -0.5836
  334TMC3    C4 5011   4.697   3.505  10.262 -0.0420  0.4869 -0.3848
  334TMC3    C5 5012   0.099   3.525  10.209  0.3449 -0.0763 -0.5870
  334TMC3    C6 5013   0.181   3.416  10.167 -0.2351  0.2636  0.8337
  334TMC3     C 5014   4.539   3.339  10.351  0.0079 -0.4705 -0.0118
  334TMC3     O 5015   4.500   3.224  10.338  0.0190 -0.3427 -0.7512
  334TMC3     H 5016   4.702   3.171  10.244  0.2948  0.7525 -1.5176
  334TMC3    H1 5017   4.632   3.588  10.286  1.2479  1.5322 -0.4952
  334TMC3    H2 5018   0.267   3.432  10.103  1.1319 -0.3640  2.5037
  334TMC3    C7 5019   0.153   3.659  10.226 -0.7933 -0.3065 -0.8830
  334TMC3    C8 5020   0.217   3.180  10.208 -0.3647 -0.9014  0.5024
  334TMC3    O1 5021   0.073   3.749  10.228  0.4266 -0.2134 -0.1910
  334TMC3    O2 5022   0.181   3.067  10.170 -0.1146 -0.0701 -0.0723
  335TMC3    C1 5023   0.051   0.107  17.458  0.2031 -0.1505  0.1764
  335TMC3    C2 5024   4.678   0.065  17.370  0.2152  0.3632  0.2262
  335TMC3    C3 5025   4.709   0.052  17.238  0.0693 -0.1021 -0.0130
  335TMC3    C4 5026   0.176   0.145  17.418 -0.4603  1.2039 -0.5499
  335TMC3    C5 5027   0.204   0.141  17.287 -0.0136 -0.3091 -0.2011
  335TMC3    C6 5028   0.108   0.103  17.200 -0.9198  0.1706  0.1813
  335TMC3     C 5029   0.009   0.112  17.593 -0.4791 -0.1306  0.2055
  335TMC3     O 5030   4.613   0.135  17.615 -0.1494 -0.4783  0.1321
  335TMC3     H 5031   4.578   0.044  17.406  0.1567  2.1524  1.1436
  335TMC3    H1 5032   0.237   0.206  17.483  0.0341  0.1947 -0.0672
  335TMC3    H2 5033   0.131   0.089  17.095  0.0257  2.4045  0.0829
  335TMC3    C7 5034   0.331   0.169  17.226 -0.0784 -0.2887 -0.0999
  335TMC3    C8 5035   4.617   0.012  17.137  0.6465 -0.0517 -0.3673
  335TMC3    O1 5036   0.338   0.171  17.103 -0.5136  0.1848  0.1108
  335TMC3    O2 5037   4.603   0.071  17.033  0.0882  1.0282 -0.0478
  336MPD2     C 5038   3.906   2.446  15.695  0.2284  0.9988 -0.5975
  336MPD2    C1 5039   3.838   2.364  15.607  0.5872  0.3616  0.2522
  336MPD2    C2 5040   3.846   2.223  15.612  0.0129 -0.0020  0.4452
  336MPD2    C3 5041   3.929   2.170  15.710 -0.3642  0.8468 -0.5504
  336MPD2    C4 5042   3.993   2.252  15.800  0.6783 -0.1573 -0.3444
  336MPD2    C5 5043   3.986   2.387  15.789  0.7706 -0.5489 -0.4767
  336MPD2     H 5044   3.793   2.158  15.544  3.2480 -0.8161 -1.2622
  336MPD2    H1 5045   4.048   2.207  15.883 -0.8846  0.3164  0.9515
  336MPD2    H2 5046   3.903   2.554  15.685  0.0410  1.0994  0.5574
  336MPD2    H3 5047   4.041   2.454  15.854 -1.2535  1.2184 -0.5802
  336MPD2     N 5048   3.942   2.026  15.724 -0.3982  0.2489  0.6686
  336MPD2    H5 5049   3.984   1.995  15.811 -1.6339 -1.0898  0.7937
  336MPD2    N1 5050   3.760   2.429  15.507 -0.0485  0.0928 -0.0399
  336MPD2    H7 5051   3.768   2.530  15.507  1.1194  0.0076 -0.4515
  337TMC3    C1 5052   3.577   2.469  15.365 -0.2842  0.7313  0.0570
  337TMC3    C2 5053   3.441   2.442  15.350 -0.5566 -0.3913 -0.4316
  337TMC3    C3 5054   3.360   2.513  15.266 -0.0885  0.1312  0.0551
  337TMC3    C4 5055   3.641   2.567  15.293 -0.0987  0.6663  0.6612
  337TMC3    C5 5056   3.549   2.645  15.213  0.0670 -0.3485 -0.6004
  337TMC3    C6 5057   3.417   2.623  15.207  0.8467 -0.1534  0.0500
  337TMC3     C 5058   3.656   2.371  15.435  0.1420  0.2670  0.5466
  337TMC3     O 5059   3.607   2.259  15.439  0.3069 -0.1930  0.0984
  337TMC3     H 5060   3.402   2.373  15.423 -0.9858  3.1036  2.6430
  337TMC3    H1 5061   3.747   2.587  15.302 -0.0305 -0.0055  1.3215
  337TMC3    H2 5062   3.362   2.675  15.130  0.9045  0.9847  0.7793
  337TMC3    C7 5063   3.594   2.765  15.162 -0.4152 -0.1411 -0.9346
  337TMC3    C8 5064   3.218   2.507  15.285  0.0396 -0.1510  0.2197
  337TMC3    O1 5065   3.703   2.778  15.115  0.2348  0.2470 -0.2858
  337TMC3    O2 5066   3.171   2.443  15.380 -0.2436 -0.0495 -0.3079
  338MPD2     C 5067   4.623   1.706   0.850 -0.0434 -0.4700 -0.3616
  338MPD2    C1 5068   4.578   1.738   0.722  0.2956 -0.1336  0.0039
  338MPD2    C2 5069   4.447   1.790   0.719  0.0859  0.1460  0.0668
  338MPD2    C3 5070   4.365   1.792   0.835  1.1129 -0.1608  0.7712
  338MPD2    C4 5071   4.419   1.766   0.959  0.4162  0.4078  0.6230
  338MPD2    C5 5072   4.540   1.706   0.960 -0.9802 -0.0989 -0.0214
  338MPD2     H 5073   4.407   1.828   0.626  1.4492  3.0699  0.6550
  338MPD2    H1 5074   4.356   1.772   1.046 -1.1560 -0.6384 -0.4517
  338MPD2    H2 5075   4.721   1.664   0.866 -0.0908  0.2960  1.8632
  338MPD2    H3 5076   4.581   1.662   1.050 -0.1601  0.7779  0.0387
  338MPD2     N 5077   4.230   1.844   0.820 -0.4909 -0.8619 -0.0628
  338MPD2    H5 5078   4.203   1.883   0.731  0.7765  3.0804  1.2315
  338MPD2    N1 5079   4.649   1.737   0.594 -0.0354 -0.0709  0.5682
  338MPD2    H7 5080   4.602   1.771   0.511 -0.3790 -1.8506  0.0341
  339TMC3    C1 5081   4.016   1.921   0.870  0.6187 -0.3979  0.1113
  339TMC3    C2 5082   3.893   1.883   0.920  0.1295  0.0227 -0.4315
  339TMC3    C3 5083   3.784   1.930   0.850 -0.3070 -0.0318 -0.2879
  339TMC3    C4 5084   4.020   2.003   0.766  0.4928  0.5222  0.9545
  339TMC3    C5 5085   3.902   2.044   0.706 -0.9651 -0.3099  0.1151
  339TMC3    C6 5086   3.780   2.011   0.739  0.0489 -0.2863 -0.0602
  339TMC3     C 5087   4.137   1.858   0.918  0.5547 -0.0014  0.4796
  339TMC3     O 5088   4.139   1.834   1.037  0.5444  0.2269 -0.3201
  339TMC3     H 5089   3.876   1.814   1.001 -1.1786 -1.5093 -2.0097
  339TMC3    H1 5090   4.116   2.030   0.723  0.2173  1.5283  0.9607
  339TMC3    H2 5091   3.696   2.021   0.671  0.9986 -3.1787 -1.6584
  339TMC3    C7 5092   3.922   2.118   0.587 -0.2052  0.3450  0.3241
  339TMC3    C8 5093   3.651   1.923   0.905 -0.3077  1.0183 -0.4606
  339TMC3    O1 5094   4.035   2.135   0.545 -0.1431  0.6150  0.1429
  339TMC3    O2 5095   3.559   1.977   0.844 -0.2389 -0.3176 -0.4396
  340MPD2     C 5096   4.436   4.498   8.904  0.3324  0.6087 -0.7662
  340MPD2    C1 5097   4.402   4.405   8.997  1.3814  0.3069  0.0957
  340MPD2    C2 5098   4.423   4.435   9.133  0.2800  0.0728 -0.4977
  340MPD2    C3 5099   4.482   4.559   9.171  0.0875 -0.0749  0.3394
  340MPD2    C4 5100   4.521   4.651   9.072 -0.1067 -0.5942  0.2212
  340MPD2    C5 5101   4.504   4.616   8.943  0.2142  0.2750  0.0590
  340MPD2     H 5102   4.390   4.364   9.207  0.4311  0.0613 -0.4404
  340MPD2    H1 5103   4.567   0.024   9.083 -0.3896 -0.4729  0.3035
  340MPD2    H2 5104   4.424   4.481   8.798 -0.1757 -2.7632 -0.1664
  340MPD2    H3 5105   4.538   4.677   8.860 -1.5567 -0.6882 -1.3965
  340MPD2     N 5106   4.524   4.596   9.301  0.7486  0.1144 -0.4073
  340MPD2    H5 5107   4.561   4.690   9.315  1.2150 -0.5334  2.8089
  340MPD2    N1 5108   4.353   4.276   8.960 -0.2240  0.0873  0.1696
  340MPD2    H7 5109   4.364   4.264   8.860 -0.7423 -0.5526  0.1856
  341TMC3    C1 5110   4.284   4.057   8.973 -0.0713  0.2842  0.2074
  341TMC3    C2 5111   4.180   3.972   9.017  0.0437 -0.2891 -0.2353
  341TMC3    C3 5112   4.177   3.846   8.963 -0.4620  0.2849  0.1708
  341TMC3    C4 5113   4.380   4.016   8.891  0.0069  0.3804  0.5933
  341TMC3    C5 5114   4.369   3.888   8.835  0.0983 -0.2625 -0.1351
  341TMC3    C6 5115   4.261   3.807   8.864  0.0476 -1.0726  0.3987
  341TMC3     C 5116   4.302   4.179   9.041 -0.9716 -0.6913 -0.1714
  341TMC3     O 5117   4.270   4.188   9.160  0.0083  0.3377  0.2738
  341TMC3     H 5118   4.112   4.003   9.095 -0.7953 -3.0028  0.1188
  341TMC3    H1 5119   4.469   4.071   8.866 -0.6359  1.0475 -0.2305
  341TMC3    H2 5120   4.272   3.701   8.841 -0.6322 -1.1912  0.6154
  341TMC3    C7 5121   4.489   3.824   8.798  0.4555 -0.5204  0.0301
  341TMC3    C8 5122   4.102   3.738   9.029 -0.2659 -0.3852  0.9620
  341TMC3    O1 5123   4.578   3.843   8.879 -0.0297  0.3222 -0.2753
  341TMC3    O2 5124   4.057   3.647   8.959  0.0311 -0.0993  0.0882
  342MPD2     C 5125   2.300   3.073  16.791  0.0552  0.1426 -0.7020
  342MPD2    C1 5126   2.375   3.038  16.901 -0.0789  0.4576  0.4527
  342MPD2    C2 5127   2.398   3.140  16.998  0.4696 -0.0986 -0.6360
  342MPD2    C3 5128   2.346   3.272  16.976 -0.7043 -0.2131 -0.4550
  342MPD2    C4 5129   2.263   3.300  16.872 -0.5453  0.2381 -0.5548
  342MPD2    C5 5130   2.240   3.202  16.777 -0.2223 -0.2661 -0.0667
  342MPD2     H 5131   2.468   3.136  17.081  0.5604  1.7026 -0.6218
  342MPD2    H1 5132   2.221   3.400  16.864  0.0322  0.5359  0.1644
  342MPD2    H2 5133   2.287   2.999  16.713  2.7908  0.3504 -1.3539
  342MPD2    H3 5134   2.181   3.230  16.690 -0.0293  0.4436  0.0390
  342MPD2     N 5135   2.369   3.379  17.069 -0.5306 -0.0583  0.5692
  342MPD2    H5 5136   2.305   3.456  17.052 -1.2220 -0.9037 -0.7068
  342MPD2    N1 5137   2.438   2.915  16.917  0.0983 -0.1697 -0.0624
  342MPD2    H7 5138   2.487   2.907  17.005 -0.3410  0.1287  0.2070
  343TMC3    C1 5139   2.538   2.712  16.869 -0.0319  0.1986  0.0772
  343TMC3    C2 5140   2.665   2.683  16.835  0.6028 -0.3450  0.4753
  343TMC3    C3 5141   2.725   2.573  16.891 -0.4245  0.2616 -0.0959
  343TMC3    C4 5142   2.476   2.637  16.964  0.4081  0.2978  0.4466
  343TMC3    C5 5143   2.536   2.523  17.008 -0.3882  0.8783  0.0625
  343TMC3    C6 5144   2.661   2.485  16.977  0.3455  0.7722 -0.9160
  343TMC3     C 5145   2.482   2.835  16.817 -0.1374  0.1974  0.5022
  343TMC3     O 5146   2.482   2.860  16.696  0.2190  0.0859  0.3273
  343TMC3     H 5147   2.718   2.750  16.768  0.1619  1.2307  1.6918
  343TMC3    H1 5148   2.379   2.669  16.999 -0.5506 -1.1180 -0.9398
  343TMC3    H2 5149   2.705   2.390  17.005 -2.0031  0.1043  0.5399
  343TMC3    C7 5150   2.457   2.424  17.078  0.5297  0.2353 -0.7010
  343TMC3    C8 5151   2.823   2.508  16.806 -0.2730  0.5213  0.1670
  343TMC3    O1 5152   2.337   2.450  17.083  0.0864  0.2863 -0.3480
  343TMC3    O2 5153   2.823   2.383  16.797  0.1023  0.2744 -0.2190
  344MPD2     C 5154   3.216   2.580  10.071  0.4417 -0.4746 -0.4621
  344MPD2    C1 5155   3.154   2.492   9.988 -0.0449  0.2692 -0.2048
  344MPD2    C2 5156   3.163   2.510   9.852  0.7879 -0.0204 -0.8876
  344MPD2    C3 5157   3.230   2.622   9.799  0.1586 -1.1883  0.2921
  344MPD2    C4 5158   3.294   2.706   9.882  0.5423  0.5991  0.3261
  344MPD2    C5 5159   3.293   2.685  10.017 -0.0738 -0.4450 -0.6947
  344MPD2     H 5160   3.121   2.436   9.785  1.2746 -2.6894  1.7372
  344MPD2    H1 5161   3.351   2.791   9.846  0.2300 -0.7530 -3.3782
  344MPD2    H2 5162   3.197   2.570  10.177  2.1805  0.1306 -0.0863
  344MPD2    H3 5163   3.353   2.748  10.082  0.3402  0.1915 -1.7047
  344MPD2     N 5164   3.246   2.653   9.664 -0.3660  0.2222 -0.3431
  344MPD2    H5 5165   3.311   2.729   9.649  0.5595 -0.4664  0.1882
  344MPD2    N1 5166   3.072   2.381  10.036  0.1089 -0.0361  0.0743
  344MPD2    H7 5167   3.015   2.341   9.962  1.0858  0.5641 -1.0057
  345TMC3    C1 5168   3.229   2.664   9.435  0.4142 -0.3585 -0.1666
  345TMC3    C2 5169   3.331   2.749   9.423  0.0741  0.6147  0.4507
  345TMC3    C3 5170   3.329   2.855   9.337  0.8495 -0.0883  0.3205
  345TMC3    C4 5171   3.112   2.672   9.362 -0.1980 -0.6850  0.2932
  345TMC3    C5 5172   3.108   2.775   9.273  0.3928  0.1108 -0.1278
  345TMC3    C6 5173   3.208   2.870   9.268 -0.1673  0.1732  0.0440
  345TMC3     C 5174   3.210   2.585   9.549  0.6116  0.6761  0.3701
  345TMC3     O 5175   3.146   2.478   9.548 -0.0910  0.3009 -0.2376
  345TMC3     H 5176   3.412   2.749   9.495 -0.0241 -1.5290  0.5624
  345TMC3    H1 5177   3.025   2.611   9.383  1.0284 -2.0231  1.4148
  345TMC3    H2 5178   3.194   2.954   9.202  1.8098  0.7259  0.3396
  345TMC3    C7 5179   2.973   2.804   9.245  0.1990  0.5555  0.2459
  345TMC3    C8 5180   3.374   2.982   9.385  0.1823 -1.0395 -0.0951
  345TMC3    O1 5181   2.900   2.711   9.218 -0.4928  0.1967 -0.1438
  345TMC3    O2 5182   3.359   3.007   9.504  0.0357 -0.5987 -0.1331
  346MPD2     C 5183   2.983   4.046  14.578  0.0362  0.9184 -0.4908
  346MPD2    C1 5184   3.059   4.062  14.467  0.0474 -0.8750  0.4822
  346MPD2    C2 5185   3.174   4.134  14.479 -0.4855  0.4472  0.6439
  346MPD2    C3 5186   3.207   4.197  14.600  0.0012 -0.1545  0.3356
  346MPD2    C4 5187   3.129   4.182  14.711  0.1143  0.9415 -0.5073
  346MPD2    C5 5188   3.022   4.100  14.700 -0.5222  0.2809 -0.6647
  346MPD2     H 5189   3.230   4.160  14.390 -3.2318 -0.1283 -1.2439
  346MPD2    H1 5190   3.160   4.230  14.803  1.3114  1.4974 -1.1888
  346MPD2    H2 5191   2.893   3.985  14.574  0.9630 -0.4712 -0.2560
  346MPD2    H3 5192   2.959   4.084  14.787  0.8817 -1.5405  0.0072
  346MPD2     N 5193   3.316   4.286  14.585  0.1231 -0.5266 -0.1220
  346MPD2    H5 5194   3.356   4.288  14.492 -0.6747  0.1309 -0.4501
  346MPD2    N1 5195   3.003   4.028  14.342  0.1062  0.0983 -0.7909
  346MPD2    H7 5196   2.903   4.011  14.351  0.5258 -1.7659  0.1853
  347TMC3    C1 5197   3.474   4.454  14.633  0.3328 -0.3364  0.1788
  347TMC3    C2 5198   3.471   4.487  14.500 -0.0662 -0.6951 -0.6471
  347TMC3    C3 5199   3.575   4.562  14.451  0.0047  0.2018  0.4267
  347TMC3    C4 5200   3.568   4.504  14.715  0.8887 -0.1502  0.0318
  347TMC3    C5 5201   3.660   4.589  14.670 -0.4879 -0.2032  0.0851
  347TMC3    C6 5202   3.675   4.611  14.534 -0.4215  0.4727 -0.0710
  347TMC3     C 5203   3.385   4.353  14.691 -0.0511 -0.0685  0.2578
  347TMC3     O 5204   3.372   4.355  14.813  0.5091 -0.7191 -0.4635
  347TMC3     H 5205   3.385   4.468  14.437 -0.1799 -2.9328  0.1969
  347TMC3    H1 5206   3.562   4.479  14.820 -1.6738 -0.9614 -0.3114
  347TMC3    H2 5207   3.760   4.665  14.495 -0.4142 -0.0194 -0.7298
  347TMC3    C7 5208   3.766   4.632  14.760  0.1827  0.3002 -0.6912
  347TMC3    C8 5209   3.601   4.531  14.313 -0.3963 -0.5560 -0.5410
  347TMC3    O1 5210   3.771   4.573  14.866 -0.3567 -0.2014 -0.3193
  347TMC3    O2 5211   3.709   4.477  14.290 -0.0109 -0.0161 -0.1019
  348MPD2     C 5212   1.660   3.658  12.166 -0.5823 -0.3021  0.4696
  348MPD2    C1 5213   1.791   3.682  12.131 -0.0204  0.3935  0.9794
  348MPD2    C2 5214   1.825   3.764  12.024 -0.3980  0.2201 -0.0646
  348MPD2    C3 5215   1.727   3.813  11.938 -0.3606 -0.0806 -0.5673
  348MPD2    C4 5216   1.597   3.808  11.987 -0.1723  0.6008 -0.7480
  348MPD2    C5 5217   1.568   3.725  12.094 -0.1162 -0.2160 -0.1522
  348MPD2     H 5218   1.929   3.769  11.992 -0.2991  1.1164  0.4080
  348MPD2    H1 5219   1.517   3.860  11.937 -0.2454  1.8028  0.6337
  348MPD2    H2 5220   1.625   3.605  12.253  2.5984 -2.2190  0.5444
  348MPD2    H3 5221   1.464   3.716  12.123 -0.2488 -0.0937 -0.5953
  348MPD2     N 5222   1.767   3.884  11.824 -0.2805 -0.1347  0.0842
  348MPD2    H5 5223   1.866   3.875  11.801 -0.8569 -3.5750 -1.0351
  348MPD2    N1 5224   1.897   3.609  12.186  0.2192 -0.4355 -0.1441
  348MPD2    H7 5225   1.991   3.620  12.150  1.1216  0.9136  2.5453
  349TMC3    C1 5226   2.010   3.443  12.291 -0.3812 -0.0946 -0.3187
  349TMC3    C2 5227   2.009   3.307  12.296  0.2287 -0.2860 -0.3439
  349TMC3    C3 5228   2.131   3.251  12.290 -0.8730  0.0851 -0.2802
  349TMC3    C4 5229   2.124   3.522  12.283  0.3664 -0.0772 -0.7279
  349TMC3    C5 5230   2.240   3.453  12.273 -0.7676 -0.8311  0.8472
  349TMC3    C6 5231   2.247   3.320  12.267 -0.5499  0.5715 -0.2796
  349TMC3     C 5232   1.885   3.505  12.267  0.4009 -0.8332  0.2664
  349TMC3     O 5233   1.787   3.453  12.317 -0.8135 -0.3784 -0.6970
  349TMC3     H 5234   1.925   3.241  12.284  0.5665 -0.8440  0.3756
  349TMC3    H1 5235   2.121   3.630  12.286  0.8479 -0.0463 -1.3505
  349TMC3    H2 5236   2.347   3.280  12.259 -1.6130 -1.7885 -1.6613
  349TMC3    C7 5237   2.364   3.522  12.284  0.3795  0.0016  0.0581
  349TMC3    C8 5238   2.149   3.105  12.296 -0.2321 -0.2862 -0.3943
  349TMC3    O1 5239   2.439   3.491  12.374  0.2652 -0.1115 -0.4790
  349TMC3    O2 5240   2.056   3.034  12.334  0.0288 -0.1613 -0.0272
  350MPD2     C 5241   0.583   1.870  10.039 -0.4408  0.6355  0.3349
  350MPD2    C1 5242   0.646   1.758   9.995 -0.1177  0.1897 -0.4686
  350MPD2    C2 5243   0.785   1.756   9.983 -0.3149  0.0308  0.5013
  350MPD2    C3 5244   0.861   1.864  10.028 -0.3902  0.5586 -0.0085
  350MPD2    C4 5245   0.800   1.984  10.069  0.4647 -0.5570  0.1347
  350MPD2    C5 5246   0.660   1.984  10.071  0.5804  0.0132 -0.8858
  350MPD2     H 5247   0.835   1.664   9.955 -0.0665 -0.1796  1.6228
  350MPD2    H1 5248   0.855   2.074  10.095 -0.5645 -0.4423  1.9171
  350MPD2    H2 5249   0.475   1.871  10.052 -0.3868  0.1898  0.8120
  350MPD2    H3 5250   0.610   2.077  10.094 -0.6697 -1.1402  1.0899
  350MPD2     N 5251   1.003   1.852  10.017 -0.0398 -0.2564 -0.8217
  350MPD2    H5 5252   1.035   1.760   9.988 -1.7681 -1.2819  0.4938
  350MPD2    N1 5253   0.579   1.635   9.953  0.2122  0.4999 -0.1792
  350MPD2    H7 5254   0.646   1.562   9.929 -0.0308  0.3315 -0.3433
  351TMC3    C1 5255   0.403   1.488   9.893  0.4336 -0.4326  0.3785
  351TMC3    C2 5256   0.497   1.412   9.827  0.3641 -0.3446  1.2991
  351TMC3    C3 5257   0.465   1.286   9.787  0.4832 -0.2224 -0.7431
  351TMC3    C4 5258   0.283   1.443   9.925 -0.0025  0.1000 -0.1854
  351TMC3    C5 5259   0.251   1.320   9.877 -0.2484  0.2853  0.1500
  351TMC3    C6 5260   0.340   1.242   9.809 -0.3585  0.9607 -0.9760
  351TMC3     C 5261   0.443   1.605   9.963  0.1381 -0.6338 -0.3206
  351TMC3     O 5262   0.367   1.665  10.039 -0.0529 -0.3683  0.1534
  351TMC3     H 5263   0.588   1.459   9.792 -0.1095 -0.9756 -0.7874
  351TMC3    H1 5264   0.202   1.507   9.960  2.5078  2.7985  0.6747
  351TMC3    H2 5265   0.313   1.140   9.783  1.0305  0.5724 -0.8429
  351TMC3    C7 5266   0.111   1.276   9.892 -0.0319  0.1746 -0.7270
  351TMC3    C8 5267   0.586   1.209   9.762 -0.1798 -0.6126  0.2808
  351TMC3    O1 5268   0.061   1.310  10.001  0.0809  0.1607  0.0370
  351TMC3    O2 5269   0.680   1.269   9.715 -0.5240  0.1460  0.2833
  352MPD2     C 5270   3.916   3.968   1.268  0.6252  0.6053  0.0210
  352MPD2    C1 5271   4.007   3.974   1.161  0.5869 -0.1065 -0.0814
  352MPD2    C2 5272   4.050   3.853   1.106  0.2448  0.2373 -0.7754
  352MPD2    C3 5273   4.017   3.731   1.159 -0.6260 -0.0296 -0.2524
  352MPD2    C4 5274   3.928   3.727   1.265  0.0221 -0.7071  0.0662
  352MPD2    C5 5275   3.881   3.848   1.321 -0.6225 -0.4025 -0.2918
  352MPD2     H 5276   4.097   3.848   1.009  0.8429 -2.3411 -0.3552
  352MPD2    H1 5277   3.899   3.632   1.307 -2.4466  0.2605  0.5623
  352MPD2    H2 5278   3.876   4.061   1.307  1.9769  0.9711  0.5280
  352MPD2    H3 5279   3.803   3.849   1.397 -0.8377  3.9758 -0.6202
  352MPD2     N 5280   4.046   3.606   1.096  0.7273  0.0252 -0.4971
  352MPD2    H5 5281   3.988   3.528   1.126  0.5267  0.8337  1.2219
  352MPD2    N1 5282   4.050   4.100   1.116 -0.1203 -0.3282  0.4432
  352MPD2    H7 5283   4.012   4.183   1.159  0.4150 -0.2508  0.7608
  353TMC3    C1 5284   4.152   3.441   0.963  0.0497 -0.4179  0.3545
  353TMC3    C2 5285   4.276   3.382   0.953 -0.6084  0.4143 -0.4104
  353TMC3    C3 5286   4.285   3.241   0.947  0.4853  0.5658  0.1327
  353TMC3    C4 5287   4.033   3.372   0.974 -0.5266 -0.4025  0.2490
  353TMC3    C5 5288   4.047   3.238   0.964  0.4403 -0.6013  0.0175
  353TMC3    C6 5289   4.167   3.168   0.949 -0.5995  0.2759 -0.1710
  353TMC3     C 5290   4.144   3.577   1.004  0.6752 -0.1795 -0.1712
  353TMC3     O 5291   4.238   3.645   0.954  0.1783 -0.0917  0.0490
  353TMC3     H 5292   4.371   3.434   0.956 -0.1571 -0.3883 -1.1425
  353TMC3    H1 5293   3.939   3.426   0.970 -0.5979 -0.6722 -1.5754
  353TMC3    H2 5294   4.166   3.060   0.950  0.7670  0.2428 -2.0699
  353TMC3    C7 5295   3.933   3.162   0.916  0.1852  0.0231  0.1228
  353TMC3    C8 5296   4.416   3.182   0.979 -0.1200 -0.0442 -0.1729
  353TMC3    O1 5297   3.950   3.053   0.867  0.2095  0.1106 -0.2015
  353TMC3    O2 5298   4.516   3.245   0.957 -0.1676 -0.1614  0.3023
  354TMC3    C1 5299   0.728   0.024  13.496  0.3056  0.7736 -0.1622
  354TMC3    C2 5300   0.701   0.153  13.528  0.2929  0.0347  0.4650
  354TMC3    C3 5301   0.711   0.245  13.428 -0.1590 -0.1486  0.0124
  354TMC3    C4 5302   0.774   4.706  13.373  0.8117 -0.5943 -0.7565
  354TMC3    C5 5303   0.802   0.081  13.284  0.0091 -0.3694  0.0601
  354TMC3    C6 5304   0.779   0.215  13.312 -0.0072 -0.1325  0.4097
  354TMC3     C 5305   0.678   4.649  13.584 -0.0773  0.2061 -0.3341
  354TMC3     O 5306   0.632   4.546  13.536  0.0619 -0.2265 -0.2536
  354TMC3     H 5307   0.648   0.171  13.621  1.0750  2.2552  0.4846
  354TMC3    H1 5308   0.764   4.604  13.338 -0.1358 -0.3381 -1.2296
  354TMC3    H2 5309   0.783   0.286  13.230 -1.5740 -0.2445  0.2357
  354TMC3    C7 5310   0.833   0.048  13.147 -0.0185  0.0751  0.4248
  354TMC3    C8 5311   0.665   0.381  13.451 -0.8446 -0.4007  0.6195
  354TMC3    O1 5312   0.816   4.661  13.105 -0.2873  0.3486  0.0134
  354TMC3    O2 5313   0.575   0.383  13.533  0.1206 -0.2315  0.5306
  355MPD2     C 5314   1.058   0.899  12.131 -0.4255  0.4548  0.7846
  355MPD2    C1 5315   1.045   0.973  12.017  0.8306  0.0696 -0.4544
  355MPD2    C2 5316   1.155   1.017  11.949  0.1232 -0.0823  0.2512
  355MPD2    C3 5317   1.277   1.017  12.014  0.0336 -0.2787 -0.0441
  355MPD2    C4 5318   1.285   0.959  12.142 -0.3178 -0.8479  0.7802
  355MPD2    C5 5319   1.177   0.893  12.197 -0.5235  0.3784 -0.2400
  355MPD2     H 5320   1.151   1.045  11.844  2.7595  0.7506  0.3773
  355MPD2    H1 5321   1.373   0.961  12.205 -0.0557 -0.6209  0.4061
  355MPD2    H2 5322   0.970   0.868  12.187 -1.1167 -1.9317 -1.6350
  355MPD2    H3 5323   1.190   0.839  12.289 -0.2455 -1.7066 -1.5151
  355MPD2     N 5324   1.399   1.068  11.961 -0.3399 -0.3361 -0.0751
  355MPD2    H5 5325   1.480   1.057  12.021 -1.0470 -0.4176  0.8666
  355MPD2    N1 5326   0.916   0.978  11.963  0.2173 -0.2417  0.0166
  355MPD2    H7 5327   0.848   0.911  11.999 -1.2932  0.3927 -1.6485
  356TMC3    C1 5328   1.553   1.191  11.831 -0.3700  0.1023  0.0887
  356TMC3    C2 5329   1.592   1.238  11.707 -0.4384 -0.0784 -0.3373
  356TMC3    C3 5330   1.709   1.313  11.699 -0.6141 -0.8299 -0.3248
  356TMC3    C4 5331   1.625   1.233  11.941  0.7389 -0.0917  0.4183
  356TMC3    C5 5332   1.738   1.299  11.928 -0.4219 -0.4042  0.2348
  356TMC3    C6 5333   1.788   1.335  11.808  0.4378 -0.0014 -0.0299
  356TMC3     C 5334   1.419   1.134  11.844  0.5844 -0.2973  0.2930
  356TMC3     O 5335   1.343   1.158  11.754 -0.7402 -0.6362  0.4128
  356TMC3     H 5336   1.536   1.216  11.617 -1.5595 -1.1317  0.6127
  356TMC3    H1 5337   1.599   1.200  12.041 -0.7557 -2.5306 -0.7842
  356TMC3    H2 5338   1.891   1.365  11.796  0.4081 -0.0226 -0.3227
  356TMC3    C7 5339   1.825   1.306  12.042 -0.2685 -0.7249  0.6150
  356TMC3    C8 5340   1.754   1.353  11.567 -0.3985  0.1270  0.2061
  356TMC3    O1 5341   1.806   1.225  12.131  0.5935  0.0576  0.9556
  356TMC3    O2 5342   1.714   1.303  11.461  0.4086 -0.7694 -0.2672
  357MPD2     C 5343   0.893   1.130   1.803  0.0619 -0.0266 -0.0669
  357MPD2    C1 5344   0.934   1.022   1.727 -0.6393 -0.5559 -0.7717
  357MPD2    C2 5345   0.834   0.961   1.653 -0.1470 -0.0629  0.0021
  357MPD2    C3 5346   0.704   1.000   1.659  0.3308  0.2433  0.0545
  357MPD2    C4 5347   0.665   1.098   1.743  0.5158  0.2864  0.3286
  357MPD2    C5 5348   0.759   1.157   1.816  0.2488 -0.2024  0.1864
  357MPD2     H 5349   0.872   0.895   1.576 -0.4280  0.0448 -0.2295
  357MPD2    H1 5350   0.562   1.130   1.753 -0.2888 -1.5451 -1.9875
  357MPD2    H2 5351   0.968   1.194   1.848 -1.7165  0.9194  1.5806
  357MPD2    H3 5352   0.731   1.245   1.874 -2.2330 -1.2091  0.5177
  357MPD2     N 5353   0.602   0.953   1.583  0.0001  0.0503 -0.3755
  357MPD2    H5 5354   0.513   0.999   1.598  0.5190  0.7714  0.4292
  357MPD2    N1 5355   1.070   0.988   1.712 -0.5529  1.2630 -0.0496
  357MPD2    H7 5356   1.141   1.055   1.740 -0.0062  0.5322  0.3245
  358TMC3    C1 5357   1.260   0.870   1.616  0.3773  0.3503  0.8749
  358TMC3    C2 5358   1.280   0.822   1.489  0.2698  0.9126  0.4001
  358TMC3    C3 5359   1.404   0.845   1.443  0.0919 -0.7008  0.2024
  358TMC3    C4 5360   1.348   0.940   1.692 -0.4594 -0.0050  0.1236
  358TMC3    C5 5361   1.477   0.963   1.636  0.6351 -0.4994 -0.1954
  358TMC3    C6 5362   1.498   0.926   1.502  0.0639 -0.6130  0.2825
  358TMC3     C 5363   1.118   0.865   1.656  0.0820  0.0071  0.3272
  358TMC3     O 5364   1.055   0.763   1.620  0.1073  0.0593 -0.5375
  358TMC3     H 5365   1.200   0.763   1.445  0.6951  1.2296 -0.7810
  358TMC3    H1 5366   1.319   0.969   1.793  0.1197  1.9356 -0.2618
  358TMC3    H2 5367   1.601   0.923   1.469  0.9289  2.3240  2.6463
  358TMC3    C7 5368   1.581   1.047   1.695 -0.3498  0.2138  0.2645
  358TMC3    C8 5369   1.431   0.803   1.304 -0.1273 -0.3412  0.4587
  358TMC3    O1 5370   1.686   1.054   1.628 -0.7055  0.0311 -0.3366
  358TMC3    O2 5371   1.547   0.819   1.268  0.4544 -0.5877 -0.2822
  359MPD2     C 5372   1.558   0.011  12.552  0.6592 -0.3144 -0.3491
  359MPD2    C1 5373   1.531   4.686  12.429 -0.6512  0.0814 -0.1508
  359MPD2    C2 5374   1.426   4.600  12.415  0.5433  0.5887 -0.2240
  359MPD2    C3 5375   1.359   4.560  12.529 -0.7498  0.3722 -0.7148
  359MPD2    C4 5376   1.383   4.621  12.650  0.4779  0.2105  0.4640
  359MPD2    C5 5377   1.486   4.707  12.662  0.2660 -0.7100 -0.1542
  359MPD2     H 5378   1.397   4.567  12.316  2.0000  0.2458 -0.5383
  359MPD2    H1 5379   1.333   4.598  12.743  0.4130 -1.2313  0.0748
  359MPD2    H2 5380   1.631   0.089  12.572  2.7968 -3.0728  2.6895
  359MPD2    H3 5381   1.510   0.037  12.752  1.2338 -1.0422 -0.2076
  359MPD2     N 5382   1.281   4.444  12.529 -0.2198  0.0048 -0.0255
  359MPD2    H5 5383   1.234   4.422  12.616 -1.2438 -0.3589 -0.6601
  359MPD2    N1 5384   1.589   0.003  12.307  0.9080  0.6535  0.3641
  359MPD2    H7 5385   1.553   4.672  12.231  0.8121 -1.5716  2.0766
  360TMC3    C1 5386   1.736   0.104  12.153  0.4793 -1.0348  0.3915
  360TMC3    C2 5387   1.803   0.212  12.107 -0.4690  0.0011  0.1270
  360TMC3    C3 5388   1.860   0.213  11.981 -0.5775  0.2431  0.2934
  360TMC3    C4 5389   1.735   4.716  12.086 -0.7395 -0.5758 -0.2520
  360TMC3    C5 5390   1.781   4.718  11.957  0.1825 -0.9750 -0.3040
  360TMC3    C6 5391   1.855   0.102  11.911 -0.3639  0.0650 -0.1487
  360TMC3     C 5392   1.695   0.090  12.287 -0.0057  0.9198  0.1153
  360TMC3     O 5393   1.745   0.168  12.367 -0.4623  0.1957 -0.0335
  360TMC3     H 5394   1.851   0.283  12.173 -1.9661 -2.0915  3.4394
  360TMC3    H1 5395   1.710   4.617  12.123  0.1057 -0.4517  0.6461
  360TMC3    H2 5396   1.879   0.096  11.806  0.3390  0.3930 -0.0046
  360TMC3    C7 5397   1.764   4.603  11.878  0.0312  0.0571 -0.3675
  360TMC3    C8 5398   1.963   0.305  11.945  0.1456  0.5262  0.6959
  360TMC3    O1 5399   1.808   4.491  11.919 -0.1516 -0.0424  0.3001
  360TMC3    O2 5400   1.942   0.424  11.974 -0.0063  0.0637 -0.0977
  361MPD2     C 5401   3.611   3.637  16.723  0.3805 -0.5446  0.5936
  361MPD2    C1 5402   3.618   3.666  16.853 -0.3865 -0.4252  0.0490
  361MPD2    C2 5403   3.710   3.596  16.932 -0.5583 -0.0647 -0.2447
  361MPD2    C3 5404   3.781   3.487  16.876  0.0598 -0.2552  0.2643
  361MPD2    C4 5405   3.773   3.464  16.742  0.0903  0.0011 -0.4290
  361MPD2    C5 5406   3.696   3.549  16.664  0.4523  0.4024  0.5117
  361MPD2     H 5407   3.721   3.618  17.037 -1.5867  0.6059 -0.2799
  361MPD2    H1 5408   3.835   3.394  16.685 -0.4946 -0.1260 -0.9148
  361MPD2    H2 5409   3.538   3.691  16.662  1.9670 -0.1797 -0.9723
  361MPD2    H3 5410   3.679   3.530  16.558  1.9189 -1.0252  0.5248
  361MPD2     N 5411   3.866   3.397  16.950  0.2363  0.5507  0.2006
  361MPD2    H5 5412   3.901   3.319  16.895 -0.6597  1.2869 -1.4205
  361MPD2    N1 5413   3.531   3.744  16.926 -0.1754  0.0209  0.3388
  361MPD2    H7 5414   3.551   3.769  17.022 -4.1491 -1.1656  1.4844
  362TMC3    C1 5415   3.361   3.898  16.958  0.1433  0.7992 -0.8133
  362TMC3    C2 5416   3.225   3.892  16.949 -0.6828  0.6310 -0.1774
  362TMC3    C3 5417   3.150   3.987  17.007  0.4361  0.1780 -0.2425
  362TMC3    C4 5418   3.426   4.015  17.005  0.1342 -0.3855 -0.3538
  362TMC3    C5 5419   3.345   4.115  17.059 -1.1589 -0.0645 -0.1969
  362TMC3    C6 5420   3.209   4.098  17.066 -0.1845 -0.3608 -0.1872
  362TMC3     C 5421   3.432   3.812  16.867 -0.6382  0.5216  0.0498
  362TMC3     O 5422   3.370   3.782  16.765  0.0784  0.0335 -0.1637
  362TMC3     H 5423   3.174   3.804  16.909  1.7714 -1.4611  1.3129
  362TMC3    H1 5424   3.522   4.044  16.964  0.6966 -1.2465  0.3384
  362TMC3    H2 5425   3.150   4.179  17.109  0.5875  0.2120 -0.2057
  362TMC3    C7 5426   3.381   4.252  17.026  0.1529 -0.6187 -0.2933
  362TMC3    C8 5427   3.009   3.955  17.027 -0.1817  0.0095  0.0833
  362TMC3    O1 5428   3.281   4.311  16.985  0.0289  0.5608 -0.2282
  362TMC3    O2 5429   2.966   3.871  16.952  0.0147 -0.1504 -0.0121
  363TMC3    C1 5430   1.784   1.138   9.302 -0.4666  0.3031  0.6736
  363TMC3    C2 5431   1.807   1.069   9.420  0.5120 -0.0691 -0.8159
  363TMC3    C3 5432   1.748   1.123   9.534  0.0499  0.5543  0.0778
  363TMC3    C4 5433   1.715   1.256   9.293  0.0839  0.2300 -0.2835
  363TMC3    C5 5434   1.646   1.290   9.406 -0.0901 -1.3079 -0.2507
  363TMC3    C6 5435   1.662   1.225   9.524 -0.1201  0.1841 -0.9351
  363TMC3     C 5436   1.868   1.102   9.195  0.0588 -0.7343 -0.6397
  363TMC3     O 5437   1.911   0.989   9.185 -0.0101  0.4129 -0.3128
  363TMC3     H 5438   1.860   0.974   9.419 -0.9416 -0.9124  0.7912
  363TMC3    H1 5439   1.669   1.278   9.198  0.0887  1.2314 -0.0530
  363TMC3    H2 5440   1.608   1.261   9.611 -1.6900 -0.3656 -1.6911
  363TMC3    C7 5441   1.532   1.373   9.401 -0.1356  0.1387 -0.0018
  363TMC3    C8 5442   1.770   1.060   9.660  0.6363  0.4543 -0.0139
  363TMC3    O1 5443   1.449   1.355   9.491 -0.3778 -0.2404 -0.1594
  363TMC3    O2 5444   1.718   1.111   9.759 -0.0765 -1.1586  0.4833
  364MPD2     C 5445   4.625   0.138   9.862  0.4848  0.1590  0.4745
  364MPD2    C1 5446   0.035   0.157   9.878 -1.0544  0.1382  0.1645
  364MPD2    C2 5447   0.096   0.109   9.990 -0.2936  0.0134  0.6522
  364MPD2    C3 5448   0.025   0.052  10.095  0.2078 -0.0593 -0.3773
  364MPD2    C4 5449   4.613   0.058  10.089 -0.6755  0.7524 -0.8648
  364MPD2    C5 5450   4.553   0.088   9.967  0.1525  1.1936  0.0843
  364MPD2     H 5451   0.198   0.141  10.010 -0.1889 -0.4060  0.7963
  364MPD2    H1 5452   4.550   0.024  10.171  0.8045  1.5584  0.6108
  364MPD2    H2 5453   4.569   0.181   9.780  0.6169 -0.5254  0.0240
  364MPD2    H3 5454   4.446   0.087   9.954  0.2834  0.5620 -0.9803
  364MPD2     N 5455   0.091   0.018  10.217 -0.1703 -0.0960 -0.5042
  364MPD2    H5 5456   0.053   0.014  10.311 -1.1449 -3.6316 -1.0622
  364MPD2    N1 5457   0.094   0.251   9.792  0.4081 -0.2876 -0.2533
  364MPD2    H7 5458   0.037   0.307   9.730 -0.0871  0.4459  0.8607
  365TMC3    C1 5459   0.262   0.402   9.723 -0.2278  0.4485 -0.0388
  365TMC3    C2 5460   0.388   0.400   9.671 -0.6206  0.2606 -0.8385
  365TMC3    C3 5461   0.460   0.514   9.654  0.2982  0.0344  0.0813
  365TMC3    C4 5462   0.210   0.523   9.763 -0.2570 -0.3988  0.2652
  365TMC3    C5 5463   0.291   0.634   9.751  0.2480  0.4665  0.3146
  365TMC3    C6 5464   0.413   0.641   9.690 -0.0718 -0.2489 -0.2305
  365TMC3     C 5465   0.229   0.276   9.786 -0.2353 -1.0491  0.1732
  365TMC3     O 5466   0.332   0.217   9.824  0.3463 -0.4339  0.1566
  365TMC3     H 5467   0.436   0.309   9.635 -1.7527 -0.0323 -1.5934
  365TMC3    H1 5468   0.119   0.533   9.820 -1.0927 -1.3151 -0.9047
  365TMC3    H2 5469   0.490   0.716   9.703 -2.4652  2.1832 -0.2045
  365TMC3    C7 5470   0.272   0.745   9.834 -0.3073  0.3524  0.1470
  365TMC3    C8 5471   0.610   0.492   9.659 -0.1735  0.8390 -0.1780
  365TMC3    O1 5472   0.324   0.851   9.793  0.2226  0.0650 -0.2484
  365TMC3    O2 5473   0.676   0.579   9.600  0.1881  0.1142 -0.1541
  366MPD2     C 5474   3.370   1.368  15.175  0.4253 -0.1767 -0.2948
  366MPD2    C1 5475   3.387   1.458  15.075  0.1497  0.4045  0.0881
  366MPD2    C2 5476   3.476   1.422  14.981 -0.3948 -0.3142  0.4527
  366MPD2    C3 5477   3.538   1.299  14.977  0.1023 -0.0015 -0.1555
  366MPD2    C4 5478   3.529   1.224  15.082  0.2980  0.0049 -0.3260
  366MPD2    C5 5479   3.440   1.251  15.182 -0.4220 -0.1801 -0.3972
  366MPD2     H 5480   3.492   1.482  14.892  2.1189 -1.3311  0.2103
  366MPD2    H1 5481   3.574   1.126  15.093  0.6537  0.5539  3.0748
  366MPD2    H2 5482   3.303   1.392  15.258 -0.2033 -0.7091 -0.6504
  366MPD2    H3 5483   3.420   1.176  15.258  1.3462  1.5377  1.7966
  366MPD2     N 5484   3.623   1.284  14.864  0.0968 -0.1386  0.2372
  366MPD2    H5 5485   3.622   1.355  14.792 -0.6503  1.8764  2.2273
  366MPD2    N1 5486   3.313   1.582  15.059 -0.6562 -0.3296  0.1500
  366MPD2    H7 5487   3.353   1.651  14.997 -1.3595  0.9465  1.1362
  367TMC3    C1 5488   3.224   1.773  15.117 -0.1034  0.1148 -0.6402
  367TMC3    C2 5489   3.325   1.843  15.174 -0.5732 -0.2428 -0.0010
  367TMC3    C3 5490   3.373   1.948  15.107  0.1694 -0.1909  0.2511
  367TMC3    C4 5491   3.174   1.816  14.995 -0.5664 -0.4820 -0.5430
  367TMC3    C5 5492   3.222   1.923  14.934 -0.2250  0.4790 -0.3282
  367TMC3    C6 5493   3.325   1.994  14.989  0.3720 -0.0437 -0.9013
  367TMC3     C 5494   3.226   1.636  15.153  0.4940 -0.4162 -0.9050
  367TMC3     O 5495   3.186   1.597  15.263  0.0555 -0.4007  0.1795
  367TMC3     H 5496   3.382   1.791  15.250 -0.5814 -0.6157 -0.2542
  367TMC3    H1 5497   3.094   1.764  14.943 -0.1470  0.4889 -2.1398
  367TMC3    H2 5498   3.375   2.067  14.927  0.4061  0.7516  0.0666
  367TMC3    C7 5499   3.152   1.986  14.824  0.1695  0.4804  0.4869
  367TMC3    C8 5500   3.506   1.990  15.154  0.1009  0.3197 -0.1528
  367TMC3    O1 5501   3.182   2.103  14.805  0.2392 -0.0050 -0.0692
  367TMC3    O2 5502   3.568   1.913  15.224  0.2609  0.3377 -0.2168
  368MPD2     C 5503   4.194   4.047  13.100  0.1733  1.0228  0.6588
  368MPD2    C1 5504   4.186   4.137  12.990  0.3372  0.1422 -0.0966
  368MPD2    C2 5505   4.308   4.178  12.924 -0.4910  0.1433 -0.3609
  368MPD2    C3 5506   4.430   4.146  12.993 -0.2066 -0.0588  0.1197
  368MPD2    C4 5507   4.430   4.058  13.100  0.9353  0.1968 -0.6977
  368MPD2    C5 5508   4.320   4.010  13.145  0.2928 -0.1730 -0.1193
  368MPD2     H 5509   4.307   4.242  12.837 -3.1420  1.8190  0.9230
  368MPD2    H1 5510   4.526   4.028  13.139  0.7287 -1.5878 -1.5448
  368MPD2    H2 5511   4.108   4.006  13.151  0.5687 -3.0285 -1.9997
  368MPD2    H3 5512   4.319   3.929  13.219 -1.7114  1.4862  1.6890
  368MPD2     N 5513   4.556   4.161  12.943  0.1253 -0.0726 -0.1712
  368MPD2    H5 5514   4.621   4.103  12.995  0.4780  0.2168 -0.2859
  368MPD2    N1 5515   4.054   4.176  12.949  0.5923 -0.1051  0.2770
  368MPD2    H7 5516   3.977   4.135  13.000 -1.1665  4.3005  1.1774
  369TMC3    C1 5517   3.884   4.248  12.807  0.3218  0.3387 -0.5255
  369TMC3    C2 5518   3.842   4.330  12.697  0.0769  0.2798 -0.0624
  369TMC3    C3 5519   3.729   4.295  12.628 -0.3205  0.0377  0.9167
  369TMC3    C4 5520   3.821   4.126  12.826 -0.4824  0.4848  0.7835
  369TMC3    C5 5521   3.699   4.099  12.759 -0.5143 -0.6939 -0.0765
  369TMC3    C6 5522   3.657   4.189  12.666 -0.1410 -0.5741 -0.6429
  369TMC3     C 5523   4.022   4.259  12.848  0.4582  0.3359 -0.5561
  369TMC3     O 5524   4.099   4.336  12.792 -0.0072 -0.3655  0.0635
  369TMC3     H 5525   3.904   4.417  12.680 -0.9932  0.7516 -1.5518
  369TMC3    H1 5526   3.855   4.057  12.902 -1.9856  1.1374  2.0401
  369TMC3    H2 5527   3.564   4.164  12.616 -0.8670  0.3077  0.2519
  369TMC3    C7 5528   3.654   3.965  12.768  0.7403  0.1529 -0.2242
  369TMC3    C8 5529   3.688   4.366  12.505 -0.1518  0.5326  0.3381
  369TMC3    O1 5530   3.692   3.902  12.866 -0.4450 -1.0186  0.4039
  369TMC3    O2 5531   3.573   4.351  12.463 -0.0354 -0.1302 -0.3168
  370TMC3    C1 5532   4.618   4.208  16.145 -0.1993 -0.2850  0.0696
  370TMC3    C2 5533   4.539   4.178  16.256  0.4567  0.5458 -0.2188
  370TMC3    C3 5534   4.442   4.089  16.241 -0.0692 -0.1790  0.5673
  370TMC3    C4 5535   4.587   4.165  16.024  0.3503  0.5886  0.1565
  370TMC3    C5 5536   4.488   4.078  16.006  0.4694 -0.3820  0.0902
  370TMC3    C6 5537   4.413   4.039  16.115 -0.2091  0.1633 -0.3049
  370TMC3     C 5538   4.722   4.306  16.178  0.5457 -0.6794  0.1513
  370TMC3     O 5539   0.038   4.296  16.292 -0.4480 -0.2554 -0.0372
  370TMC3     H 5540   4.568   4.213  16.354  1.1051  0.9072 -0.5388
  370TMC3    H1 5541   4.649   4.197  15.941  0.6490  1.0432  0.5574
  370TMC3    H2 5542   4.353   3.949  16.108 -0.9796  0.6134  0.4047
  370TMC3    C7 5543   4.524   3.973  15.913 -0.2707 -0.1253  0.3141
  370TMC3    C8 5544   4.369   4.021  16.350 -0.0840  0.3581  0.0694
  370TMC3    O1 5545   4.643   3.951  15.883 -0.2677  0.4826  0.4471
  370TMC3    O2 5546   4.313   3.914  16.327 -0.0319  0.3799 -0.1064
  371TMC3    C1 5547   0.702   2.341  15.397 -0.3123  0.6781  0.2509
  371TMC3    C2 5548   0.570   2.343  15.435 -0.3847 -0.3958 -0.2278
  371TMC3    C3 5549   0.501   2.455  15.430 -0.1014  0.0394 -0.1393
  371TMC3    C4 5550   0.758   2.453  15.336 -0.2118  0.4798 -1.1136
  371TMC3    C5 5551   0.686   2.569  15.328  0.7792 -0.0544 -0.7155
  371TMC3    C6 5552   0.561   2.570  15.382 -0.0879 -0.3674  0.5592
  371TMC3     C 5553   0.788   2.233  15.435 -0.0422  0.1497  0.4188
  371TMC3     O 5554   0.906   2.242  15.402  0.2543  0.2706 -0.0420
  371TMC3     H 5555   0.511   2.254  15.456  0.9572 -1.2052  0.1180
  371TMC3    H1 5556   0.865   2.454  15.320 -0.1780  2.2307 -0.7266
  371TMC3    H2 5557   0.507   2.664  15.390 -3.3434 -2.4036  2.5517
  371TMC3    C7 5558   0.743   2.695  15.266 -0.3583 -0.1476  0.2696
  371TMC3    C8 5559   0.356   2.467  15.455  0.2154 -0.7430 -0.0997
  371TMC3    O1 5560   0.680   2.800  15.278  0.3462  0.7787 -0.3281
  371TMC3    O2 5561   0.288   2.373  15.417  0.0621 -0.1727 -0.0514
  372MPD2     C 5562   0.255   3.637  13.058  0.2949  0.5111  0.0421
  372MPD2    C1 5563   0.333   3.636  13.172  0.0946 -0.3608  0.6509
  372MPD2    C2 5564   0.388   3.513  13.202 -0.9800 -0.3776 -0.1977
  372MPD2    C3 5565   0.374   3.407  13.112 -0.1163  0.7332 -0.4626
  372MPD2    C4 5566   0.297   3.418  12.997 -0.5646  0.7293  0.0532
  372MPD2    C5 5567   0.240   3.537  12.970 -0.6088 -0.1842  0.2604
  372MPD2     H 5568   0.439   3.509  13.298 -1.4068 -1.8146 -0.0365
  372MPD2    H1 5569   0.289   3.343  12.920 -0.6144  0.1368  0.6344
  372MPD2    H2 5570   0.208   3.730  13.026  2.4439  0.9414 -1.8377
  372MPD2    H3 5571   0.181   3.562  12.882 -1.1115 -3.4421 -0.3067
  372MPD2     N 5572   0.443   3.285  13.138  0.1201  0.3861  0.6093
  372MPD2    H5 5573   0.507   3.289  13.217  1.0944  1.3116 -0.2253
  372MPD2    N1 5574   0.363   3.753  13.251 -0.4080 -0.6324  0.0531
  372MPD2    H7 5575   0.424   3.748  13.332 -2.5073 -1.1968  1.5829
  373TMC3    C1 5576   0.525   3.075  13.123 -0.7931  0.2709  0.5205
  373TMC3    C2 5577   0.450   2.971  13.171  0.4856 -0.7345 -0.0930
  373TMC3    C3 5578   0.493   2.840  13.178 -0.0722 -0.4465  0.2472
  373TMC3    C4 5579   0.648   3.050  13.066  0.1444 -0.5174 -0.1170
  373TMC3    C5 5580   0.692   2.918  13.080 -0.1270  0.3223 -0.5163
  373TMC3    C6 5581   0.622   2.812  13.136  0.3599  0.0300 -0.0365
  373TMC3     C 5582   0.434   3.172  13.069 -0.0342 -0.2796  0.1711
  373TMC3     O 5583   0.367   3.134  12.977  0.0560 -0.2840 -0.1798
  373TMC3     H 5584   0.344   2.985  13.191  1.2510  1.3737  2.5653
  373TMC3    H1 5585   0.701   3.133  13.019 -1.9139 -0.7082 -2.7744
  373TMC3    H2 5586   0.659   2.710  13.142  0.2407 -0.0691 -1.1178
  373TMC3    C7 5587   0.817   2.895  13.004 -0.2905 -0.9715 -0.0741
  373TMC3    C8 5588   0.458   2.771  13.306  0.3038 -0.8633  0.5440
  373TMC3    O1 5589   0.897   2.988  12.991  0.0806  0.4583 -0.0503
  373TMC3    O2 5590   0.363   2.822  13.363 -0.0460 -0.0198 -0.1560
  374TMC3    C1 5591   0.816   3.823   9.700 -0.0724  0.1979 -0.1088
  374TMC3    C2 5592   0.878   3.915   9.784 -0.8816 -0.0307  0.0972
  374TMC3    C3 5593   0.850   4.044   9.758 -0.5011 -0.0248 -0.4475
  374TMC3    C4 5594   0.727   3.857   9.599  0.6267 -0.7599 -0.3605
  374TMC3    C5 5595   0.698   3.988   9.584  0.0408 -0.6369 -0.1482
  374TMC3    C6 5596   0.766   4.083   9.656  0.5627 -0.2429  0.1001
  374TMC3     C 5597   0.807   3.684   9.748 -0.8173  0.4226  0.3227
  374TMC3     O 5598   0.709   3.625   9.706 -0.3977  0.1666 -0.4877
  374TMC3     H 5599   0.939   3.888   9.869 -2.2812 -0.7520  0.8759
  374TMC3    H1 5600   0.664   3.790   9.542 -1.4125  0.0706  0.9211
  374TMC3    H2 5601   0.731   4.186   9.654  2.0453  0.2031 -2.7694
  374TMC3    C7 5602   0.558   4.015   9.546  0.0996 -0.0792  0.2854
  374TMC3    C8 5603   0.917   4.156   9.821 -0.6684  0.0783  0.1073
  374TMC3    O1 5604   0.472   3.933   9.573  0.6312  0.3357 -0.1407
  374TMC3    O2 5605   0.883   4.268   9.782  0.1510  0.0552  0.5326
  375MPD2     C 5606   1.461   0.242  16.451 -0.2236  0.0046 -0.2657
  375MPD2    C1 5607   1.344   0.179  16.412 -0.3780 -0.2486 -0.8213
  375MPD2    C2 5608   1.351   0.078  16.321 -1.2156 -0.7546  0.1963
  375MPD2    C3 5609   1.474   0.040  16.269 -1.1739 -0.1282  0.4900
  375MPD2    C4 5610   1.590   0.100  16.316  0.3788  1.0998  0.1499
  375MPD2    C5 5611   1.584   0.201  16.407  0.1701 -0.4270 -0.5332
  375MPD2     H 5612   1.258   0.046  16.275 -1.3557 -2.1890  1.5019
  375MPD2    H1 5613   1.686   0.063  16.282  0.2497  0.5409  0.4120
  375MPD2    H2 5614   1.471   0.318  16.528  1.0670 -0.3596 -0.0624
  375MPD2    H3 5615   1.670   0.241  16.460 -1.1338 -2.2035  2.9253
  375MPD2     N 5616   1.483   4.652  16.183 -0.3881 -0.4051 -0.2654
  375MPD2    H5 5617   1.578   4.616  16.169 -0.8029 -0.5991 -2.6575
  375MPD2    N1 5618   1.213   0.204  16.467  0.0662  0.4390  0.4279
  375MPD2    H7 5619   1.131   0.152  16.436  0.2812  0.5932 -0.4037
  376TMC3    C1 5620   1.438   4.454  16.063  0.0302 -0.0085 -0.3778
  376TMC3    C2 5621   1.567   4.395  16.087 -0.2039  0.1206 -0.4053
  376TMC3    C3 5622   1.581   4.262  16.060 -0.5640 -0.1001  0.0576
  376TMC3    C4 5623   1.333   4.372  16.029  0.1335  0.1803 -0.1428
  376TMC3    C5 5624   1.348   4.240  16.010  0.5386 -0.6302  0.3973
  376TMC3    C6 5625   1.473   4.183  16.029 -0.1569  0.4810 -0.2212
  376TMC3     C 5626   1.385   4.569  16.141 -0.2751 -0.1946  0.1247
  376TMC3     O 5627   1.268   4.570  16.177 -0.9354 -0.0213  0.3464
  376TMC3     H 5628   1.646   4.450  16.136 -1.6733  2.3350 -0.5138
  376TMC3    H1 5629   1.240   4.424  16.006 -0.6068 -1.0134  0.1438
  376TMC3    H2 5630   1.490   4.080  16.000  0.2394  0.5975 -0.4115
  376TMC3    C7 5631   1.263   4.188  15.905  0.6049 -0.0282 -0.3017
  376TMC3    C8 5632   1.688   4.202  16.142 -0.0934 -0.7194 -0.2212
  376TMC3    O1 5633   1.143   4.210  15.924  0.2153  0.7561  0.8473
  376TMC3    O2 5634   1.792   4.267  16.157 -0.6233 -0.0817 -0.1844
  377MPD2     C 5635   3.235   4.182  12.065 -0.5568  0.4414 -1.1102
  377MPD2    C1 5636   3.302   4.156  12.178 -0.7036 -0.2706  0.7563
  377MPD2    C2 5637   3.225   4.106  12.286  0.4994 -0.6138 -0.2241
  377MPD2    C3 5638   3.086   4.083  12.269  0.3544  1.0415  0.2151
  377MPD2    C4 5639   3.030   4.151  12.163  0.3599 -0.6237 -0.1633
  377MPD2    C5 5640   3.106   4.197  12.059  0.2998  0.2677 -0.3156
  377MPD2     H 5641   3.277   4.066  12.372  1.5593  2.6663  0.6461
  377MPD2    H1 5642   2.924   4.172  12.160  0.4133 -0.0875  1.3419
  377MPD2    H2 5643   3.276   4.216  11.970 -1.4669  1.6785 -1.0517
  377MPD2    H3 5644   3.063   4.248  11.974 -0.3382  2.3486  1.2300
  377MPD2     N 5645   2.998   4.011  12.355 -1.0899  0.9700 -0.4761
  377MPD2    H5 5646   2.897   4.009  12.346 -1.2006 -2.7846  1.8606
  377MPD2    N1 5647   3.439   4.152  12.166  0.3712 -0.6678 -0.2910
  377MPD2    H7 5648   3.470   4.190  12.078 -0.2466  0.3765 -0.0507
  378TMC3    C1 5649   3.834   4.085  12.062  0.5842 -0.2607 -0.0480
  378TMC3    C2 5650   3.702   4.096  12.083 -0.2368  0.0513 -0.0451
  378TMC3    C3 5651   3.666   4.093  12.214 -0.3778 -0.1587 -0.2444
  378TMC3    C4 5652   3.940   4.095  12.154  0.1279 -0.4669 -0.1713
  378TMC3    C5 5653   3.899   4.083  12.286 -0.5844  1.2685  0.6067
  378TMC3    C6 5654   3.765   4.088  12.312  0.2384 -0.0174  0.2352
  378TMC3     C 5655   3.869   4.081  11.924 -0.3027  0.4312  0.3850
  378TMC3     O 5656   3.781   4.131  11.847  0.6158 -0.4852 -0.0830
  378TMC3     H 5657   3.629   4.088  12.003  0.9465 -1.9109 -0.9259
  378TMC3    H1 5658   4.041   4.116  12.122 -0.2044  0.0269 -0.8827
  378TMC3    H2 5659   3.729   4.080  12.414  1.6289  0.0834  0.7373
  378TMC3    C7 5660   3.988   4.050  12.398  0.3850 -0.3840  0.4484
  378TMC3    C8 5661   3.530   4.104  12.261  0.3021 -0.3795 -0.1586
  378TMC3    O1 5662   3.947   4.059  12.512  0.3894  0.5516 -0.3812
  378TMC3    O2 5663   3.499   4.047  12.366 -0.0817 -0.4720 -0.4545
  379MPD2     C 5664   4.680   2.235  15.639 -0.8310 -0.3648  0.4978
  379MPD2    C1 5665   4.611   2.132  15.691 -0.6641  0.7067  0.1976
  379MPD2    C2 5666   4.667   2.049  15.785  0.4806 -0.4058  0.2752
  379MPD2    C3 5667   0.070   2.074  15.827 -0.0278 -0.0667 -0.2786
  379MPD2    C4 5668   0.146   2.170  15.765 -0.4733  0.3409 -0.3223
  379MPD2    C5 5669   0.082   2.244  15.664 -0.7073  0.0917  0.1337
  379MPD2     H 5670   4.617   1.959  15.820  0.1625 -0.2168  0.3080
  379MPD2    H1 5671   0.247   2.189  15.800 -0.1399  0.4506 -1.3181
  379MPD2    H2 5672   4.638   2.311  15.574 -0.8792  0.4432  1.4635
  379MPD2    H3 5673   0.138   2.321  15.613 -1.3278  1.3307  1.3054
  379MPD2     N 5674   0.134   2.006  15.936  0.4723  0.0301  0.1798
  379MPD2    H5 5675   0.232   2.029  15.948  0.2872  1.3672 -0.9495
  379MPD2    N1 5676   4.480   2.119  15.650 -0.4708 -0.5619 -0.5663
  379MPD2    H7 5677   4.452   2.168  15.566 -1.5687  1.8299  1.1969
  380TMC3    C1 5678   4.291   1.985  15.593 -0.2227 -0.3080  0.4089
  380TMC3    C2 5679   4.347   1.880  15.519 -0.3852  0.0167  0.2660
  380TMC3    C3 5680   4.326   1.882  15.382 -0.2078 -1.2568 -0.6234
  380TMC3    C4 5681   4.205   2.076  15.537 -0.2134 -0.5073 -0.1624
  380TMC3    C5 5682   4.176   2.055  15.402 -0.0038  0.1803  0.0368
  380TMC3    C6 5683   4.229   1.964  15.322  0.5886  0.1269  0.3541
  380TMC3     C 5684   4.383   2.023  15.693 -0.7808  0.2361  0.6448
  380TMC3     O 5685   4.398   1.930  15.771  0.0918  0.3898 -0.2165
  380TMC3     H 5686   4.417   1.810  15.565  1.7147  2.4357  0.7712
  380TMC3    H1 5687   4.169   2.162  15.594  1.5407 -0.6846  1.1942
  380TMC3    H2 5688   4.218   1.961  15.215 -0.5933 -0.5129  0.5013
  380TMC3    C7 5689   4.109   2.156  15.335 -0.3308 -0.4943  0.2578
  380TMC3    C8 5690   4.453   1.888  15.310  0.2050  0.0955 -0.1649
  380TMC3    O1 5691   4.165   2.263  15.309  0.0229 -0.4492  0.3269
  380TMC3    O2 5692   4.448   1.935  15.197  0.3811 -0.0477 -0.1656
  381TMC3    C1 5693   4.157   3.406  16.080 -0.3102  0.7837  0.4100
  381TMC3    C2 5694   4.260   3.483  16.054 -0.3446 -0.0127 -0.4507
  381TMC3    C3 5695   4.304   3.575  16.147  0.1882  0.1704 -0.1651
  381TMC3    C4 5696   4.093   3.411  16.195  0.7449 -0.2333  0.1666
  381TMC3    C5 5697   4.134   3.503  16.295  0.7376 -0.6894 -0.0394
  381TMC3    C6 5698   4.243   3.585  16.275 -0.3004  0.7808 -0.3097
  381TMC3     C 5699   4.151   3.290  15.996 -0.1483 -0.0329  1.1770
  381TMC3     O 5700   4.145   3.178  16.051  0.2254  0.0301  0.5009
  381TMC3     H 5701   4.303   3.474  15.955  3.1707  0.8274  0.9922
  381TMC3    H1 5702   4.012   3.342  16.215  1.1435 -1.2756 -1.7862
  381TMC3    H2 5703   4.292   3.648  16.349 -0.0568 -0.0916  0.2647
  381TMC3    C7 5704   4.138   3.429  16.415  0.6958 -0.0832  0.3941
  381TMC3    C8 5705   4.440   3.606  16.143 -0.7868  0.2347 -0.0035
  381TMC3    O1 5706   4.167   3.308  16.393  0.3037 -0.6415  0.3171
  381TMC3    O2 5707   4.508   3.539  16.062 -0.1952  0.7142  0.0878
  382MPD2     C 5708   3.509   1.571  17.040  0.0909  0.2369  0.1796
  382MPD2    C1 5709   3.599   1.521  17.129  0.1990  0.3030  0.1200
  382MPD2    C2 5710   3.603   1.381  17.138 -0.5910 -0.5416  0.4659
  382MPD2    C3 5711   3.532   1.299  17.045  0.1843  0.4115 -0.8283
  382MPD2    C4 5712   3.449   1.361  16.952 -0.3434 -0.0349  0.3687
  382MPD2    C5 5713   3.440   1.492  16.953 -0.9235 -0.6374  1.2219
  382MPD2     H 5714   3.664   1.326  17.208  1.2715  1.5775  0.5275
  382MPD2    H1 5715   3.383   1.305  16.886 -0.1498  1.1660 -0.8488
  382MPD2    H2 5716   3.490   1.677  17.048  1.3294  0.3886  1.0797
  382MPD2    H3 5717   3.362   1.535  16.891  0.5129 -0.1083 -0.2253
  382MPD2     N 5718   3.543   1.162  17.038  0.1912  0.7580  0.3462
  382MPD2    H5 5719   3.479   1.117  16.974 -1.4690 -0.2023  2.6650
  382MPD2    N1 5720   3.658   1.605  17.219 -0.1597 -0.3596  0.3126
  382MPD2    H7 5721   3.647   1.705  17.210  1.4541 -0.1825  0.3073
  383TMC3    C1 5722   3.650   0.944  17.065 -0.3703 -0.4941 -0.7540
  383TMC3    C2 5723   3.535   0.895  17.016  0.3907 -0.0836  0.0582
  383TMC3    C3 5724   3.534   0.761  16.985 -0.2953  0.1543  0.2164
  383TMC3    C4 5725   3.758   0.876  17.087  0.5697  0.4070  0.0952
  383TMC3    C5 5726   3.754   0.743  17.054  0.3220  0.2100 -0.0997
  383TMC3    C6 5727   3.647   0.685  16.996  0.0902  0.1291  0.4368
  383TMC3     C 5728   3.654   1.091  17.090 -0.6194 -0.2360  0.1400
  383TMC3     O 5729   3.765   1.134  17.119  0.3512 -0.1650 -0.5929
  383TMC3     H 5730   3.444   0.952  17.001  0.0271 -0.9572 -1.1472
  383TMC3    H1 5731   3.846   0.923  17.130  0.9101  0.5965 -0.8052
  383TMC3    H2 5732   3.656   0.578  16.981 -2.2915  0.0258 -0.2362
  383TMC3    C7 5733   3.858   0.652  17.104 -0.1860  0.6446 -0.1252
  383TMC3    C8 5734   3.408   0.703  16.957  0.1703  0.6162 -0.2996
  383TMC3    O1 5735   3.826   0.540  17.129  0.1378 -0.0472 -0.5903
  383TMC3    O2 5736   3.307   0.764  16.993 -0.1839 -0.3786  0.0856
  384MPD2     C 5737   0.251   1.842  11.496  1.3542  0.3952  0.2221
  384MPD2    C1 5738   0.322   1.779  11.603 -0.0969 -0.0933 -0.1534
  384MPD2    C2 5739   0.382   1.659  11.573  0.6065 -0.3738  0.3785
  384MPD2    C3 5740   0.377   1.600  11.453  0.3282  0.3561 -0.6689
  384MPD2    C4 5741   0.307   1.660  11.343 -0.2177 -0.0145  0.1908
  384MPD2    C5 5742   0.237   1.775  11.369  0.3389  1.1397  0.0317
  384MPD2     H 5743   0.435   1.606  11.651 -0.2089  0.2031  1.3274
  384MPD2    H1 5744   0.293   1.612  11.246  1.6840 -1.2837  0.5394
  384MPD2    H2 5745   0.220   1.946  11.499  2.0548  0.4884  3.3188
  384MPD2    H3 5746   0.169   1.824  11.301  1.6031  1.6383 -0.8777
  384MPD2     N 5747   0.457   1.485  11.438  0.9929 -0.6287  0.1698
  384MPD2    H5 5748   0.495   1.451  11.526  0.4856  0.6147  0.8802
  384MPD2    N1 5749   0.319   1.831  11.735  0.2258  0.1139  0.0749
  384MPD2    H7 5750   0.360   1.772  11.806 -1.2949 -2.2862 -1.0378
  385TMC3    C1 5751   0.451   1.269  11.366 -0.0151 -0.0211  0.2681
  385TMC3    C2 5752   0.330   1.207  11.335  0.0075  0.4078  0.0047
  385TMC3    C3 5753   0.275   1.124  11.433 -0.0456  0.0948 -0.1047
  385TMC3    C4 5754   0.513   1.247  11.484 -0.2816 -0.8647  0.1304
  385TMC3    C5 5755   0.460   1.166  11.579  0.1062 -0.7702  0.0920
  385TMC3    C6 5756   0.341   1.101  11.550  0.5407  0.4047  0.4651
  385TMC3     C 5757   0.457   1.400  11.328 -0.4562  0.2802  0.1251
  385TMC3     O 5758   0.447   1.436  11.213  0.2101  0.4450 -0.4010
  385TMC3     H 5759   0.267   1.240  11.254 -1.4474  0.3373  1.1144
  385TMC3    H1 5760   0.607   1.294  11.510 -2.0059  3.3001 -1.0845
  385TMC3    H2 5761   0.292   1.051  11.633  0.2519 -1.9244 -1.1216
  385TMC3    C7 5762   0.479   1.227  11.712  0.1444  0.1449 -0.7265
  385TMC3    C8 5763   0.143   1.076  11.420 -0.2687  0.2502  0.3102
  385TMC3    O1 5764   0.526   1.341  11.715 -0.5698  0.2585 -0.5852
  385TMC3    O2 5765   0.084   1.060  11.530  0.3401  0.3775  0.0719
  386TMC3    C1 5766   4.255   4.323  11.721  0.2329 -0.3382  0.5282
  386TMC3    C2 5767   4.350   4.325  11.629 -0.2721  0.0624  0.5975
  386TMC3    C3 5768   4.323   4.376  11.502 -0.0316 -0.4278 -0.3974
  386TMC3    C4 5769   4.125   4.352  11.697 -0.0423 -0.6041 -0.7249
  386TMC3    C5 5770   4.098   4.402  11.573 -0.6929  0.1037  0.6835
  386TMC3    C6 5771   4.192   4.414  11.471  0.1653  1.1765  0.2671
  386TMC3     C 5772   4.293   4.337  11.854  0.2842  0.0140 -0.0851
  386TMC3     O 5773   4.212   4.390  11.928  0.6502 -0.1306 -0.5978
  386TMC3     H 5774   4.453   4.316  11.661 -0.3165  2.0407  1.3226
  386TMC3    H1 5775   4.043   4.332  11.765  0.0705 -2.1498 -1.0311
  386TMC3    H2 5776   4.163   4.475  11.386 -0.9986  0.4437  0.1348
  386TMC3    C7 5777   3.968   4.473  11.562  0.0892 -0.0229  0.5159
  386TMC3    C8 5778   4.416   4.359  11.393  0.1562 -0.5754 -0.6268
  386TMC3    O1 5779   3.922   4.497  11.673 -0.5676  0.2869 -0.2830
  386TMC3    O2 5780   4.400   4.428  11.296  0.7484 -0.3784  0.1108
  387MPD2     C 5781   3.153   4.096   9.780  0.3112  0.0819 -0.7061
  387MPD2    C1 5782   3.035   4.074   9.848 -0.2225 -0.5910  0.2217
  387MPD2    C2 5783   2.951   3.985   9.797 -0.2179 -0.1210  0.3469
  387MPD2    C3 5784   2.972   3.906   9.684  0.2936  0.1487  0.1895
  387MPD2    C4 5785   3.087   3.934   9.610  0.3717 -0.0101  0.0586
  387MPD2    C5 5786   3.169   4.036   9.652  0.0326 -0.4304 -0.6655
  387MPD2     H 5787   2.860   3.966   9.853 -0.8388  2.4397  0.2153
  387MPD2    H1 5788   3.123   3.898   9.515 -0.4799  1.5114 -0.8468
  387MPD2    H2 5789   3.231   4.160   9.820  1.2872 -1.5439 -0.0237
  387MPD2    H3 5790   3.254   4.064   9.591  0.4428 -1.5236 -0.5853
  387MPD2     N 5791   2.869   3.823   9.644 -0.5190  0.4094 -0.1456
  387MPD2    H5 5792   2.791   3.827   9.708 -0.6275  0.7117 -0.2936
  387MPD2    N1 5793   2.994   4.144   9.961 -0.1003 -0.2859 -0.0301
  387MPD2    H7 5794   2.913   4.109  10.012  0.2653  0.3378  0.9774
  388TMC3    C1 5795   2.934   4.334  10.066 -0.4404 -0.2422  0.0958
  388TMC3    C2 5796   2.948   4.444  10.146  0.8441  0.6441 -0.0562
  388TMC3    C3 5797   2.831   4.506  10.187 -0.0264 -0.6517 -0.0354
  388TMC3    C4 5798   2.808   4.297  10.026 -0.2142 -0.5010 -0.2131
  388TMC3    C5 5799   2.700   4.357  10.080 -0.5379  0.5516 -0.4206
  388TMC3    C6 5800   2.702   4.465  10.158 -0.0038 -0.5655  0.4641
  388TMC3     C 5801   3.045   4.261  10.003 -0.7609  0.8161 -0.2339
  388TMC3     O 5802   3.156   4.310   9.983  0.2341 -0.3557 -0.4711
  388TMC3     H 5803   3.047   4.475  10.175  1.2966 -1.1654  0.3062
  388TMC3    H1 5804   2.799   4.248   9.929  0.8448 -0.7872 -0.1615
  388TMC3    H2 5805   2.613   4.495  10.211 -0.6156 -0.8123 -0.4288
  388TMC3    C7 5806   2.570   4.331  10.026  0.2469 -0.3449 -0.5056
  388TMC3    C8 5807   2.838   4.590  10.307  0.5931  0.1736 -0.6299
  388TMC3    O1 5808   2.502   4.432  10.015  0.0942  0.7924 -0.6839
  388TMC3    O2 5809   2.738   4.645  10.341  0.4443 -0.2909 -0.2262
  389MPD2     C 5810   2.412   2.140  11.232 -0.3131 -0.0634 -0.6222
  389MPD2    C1 5811   2.317   2.113  11.138  0.3067 -0.0140  0.5251
  389MPD2    C2 5812   2.202   2.049  11.186 -0.7072  0.1862 -0.5984
  389MPD2    C3 5813   2.183   2.020  11.325 -0.3268  0.3674  0.2395
  389MPD2    C4 5814   2.277   2.063  11.417  0.3671 -0.1441  0.2023
  389MPD2    C5 5815   2.390   2.111  11.367  0.3810 -0.4471 -0.2714
  389MPD2     H 5816   2.119   2.028  11.120 -1.5355 -0.6227  0.7145
  389MPD2    H1 5817   2.267   2.030  11.520  0.9890 -5.0612 -1.3016
  389MPD2    H2 5818   2.508   2.177  11.197  0.2000  0.4644  1.3771
  389MPD2    H3 5819   2.476   2.136  11.427 -0.4640 -0.5419  0.9746
  389MPD2     N 5820   2.064   1.962  11.371  0.3500 -0.9816 -0.0931
  389MPD2    H5 5821   2.042   1.975  11.469  1.3886 -1.4083  0.2005
  389MPD2    N1 5822   2.334   2.147  11.000 -0.1216  0.1675  0.1424
  389MPD2    H7 5823   2.423   2.190  10.976 -0.4064  0.5621 -0.1946
  390TMC3    C1 5824   1.836   1.878  11.359 -0.0851 -0.1562 -0.8896
  390TMC3    C2 5825   1.827   1.898  11.496 -0.8690  0.1948  0.1175
  390TMC3    C3 5826   1.702   1.894  11.551  0.4815  0.2667 -1.1364
  390TMC3    C4 5827   1.727   1.842  11.287 -0.0703 -1.4531 -0.2805
  390TMC3    C5 5828   1.601   1.845  11.344  0.3819  0.3735  0.8183
  390TMC3    C6 5829   1.589   1.875  11.478  0.0647  0.1178  0.8644
  390TMC3     C 5830   1.963   1.897  11.296 -0.0249  0.3929  0.7252
  390TMC3     O 5831   1.958   1.868  11.173 -0.3603 -0.5520 -0.1084
  390TMC3     H 5832   1.915   1.926  11.554 -0.2735 -3.0640  0.7407
  390TMC3    H1 5833   1.740   1.819  11.182  2.4338 -0.8043 -0.1102
  390TMC3    H2 5834   1.490   1.870  11.522 -0.3871 -0.7134 -0.2233
  390TMC3    C7 5835   1.500   1.767  11.280 -0.3521  0.5199 -0.5700
  390TMC3    C8 5836   1.705   1.827  11.682 -0.2210  0.4262 -0.0541
  390TMC3    O1 5837   1.537   1.698  11.186  0.6742 -0.3787 -0.1277
  390TMC3    O2 5838   1.789   1.872  11.762 -0.2954  0.1392  0.0908
  391MPD2     C 5839   1.546   3.629  11.121  0.2141  0.3356  0.0848
  391MPD2    C1 5840   1.646   3.722  11.118 -0.1324  0.9150 -0.1308
  391MPD2    C2 5841   1.661   3.801  11.005  0.0636  0.0272 -0.0742
  391MPD2    C3 5842   1.576   3.790  10.893  1.0959  0.0370 -0.1685
  391MPD2    C4 5843   1.473   3.696  10.900  0.0696 -0.8208 -0.3634
  391MPD2    C5 5844   1.469   3.618  11.014  1.0951 -0.4055  0.2112
  391MPD2     H 5845   1.747   3.867  10.999  0.0295  0.1026  0.2761
  391MPD2    H1 5846   1.405   3.669  10.820  1.0368 -0.1151 -1.4287
  391MPD2    H2 5847   1.526   3.571  11.211 -3.2195  1.8105  0.2559
  391MPD2    H3 5848   1.396   3.539  11.018 -2.6188  3.0809  1.8464
  391MPD2     N 5849   1.605   3.857  10.771  0.0621 -0.0296  0.3979
  391MPD2    H5 5850   1.696   3.900  10.764 -0.9055  1.9700 -0.0527
  391MPD2    N1 5851   1.710   3.758  11.241  0.1068  0.6148  0.3133
  391MPD2    H7 5852   1.666   3.714  11.321  0.7797 -0.2418  0.2103
  392TMC3    C1 5853   1.547   3.968  10.574 -1.0540 -0.0917  0.2893
  392TMC3    C2 5854   1.473   3.964  10.460  0.8498 -0.9108 -0.2866
  392TMC3    C3 5855   1.481   4.065  10.373 -0.8536 -0.7026  0.3521
  392TMC3    C4 5856   1.624   4.074  10.610  1.3256 -0.1839 -0.3619
  392TMC3    C5 5857   1.627   4.176  10.528  0.7266 -0.0269  0.4260
  392TMC3    C6 5858   1.563   4.173  10.405 -0.2318  0.2416  0.4268
  392TMC3     C 5859   1.510   3.873  10.673  0.0285 -0.7634 -0.6975
  392TMC3     O 5860   1.388   3.841  10.668 -0.6264  0.7975  0.6644
  392TMC3     H 5861   1.422   3.870  10.443 -1.3768  0.2464  0.0929
  392TMC3    H1 5862   1.672   4.084  10.706  0.5356  1.1427 -0.1108
  392TMC3    H2 5863   1.570   4.260  10.339 -3.8005  0.0652 -0.1773
  392TMC3    C7 5864   1.661   4.305  10.588 -0.0248 -0.2205 -0.0939
  392TMC3    C8 5865   1.389   4.072  10.259 -0.1156 -0.4434 -0.0850
  392TMC3    O1 5866   1.718   4.296  10.696 -0.7602 -0.0280 -0.1651
  392TMC3    O2 5867   1.326   3.973  10.233 -0.2737  0.6504 -0.2678
  393TMC3    C1 5868   0.572   1.722  10.456  0.1835 -0.0176 -0.2285
  393TMC3    C2 5869   0.461   1.670  10.516 -0.3290 -0.1933 -0.2018
  393TMC3    C3 5870   0.417   1.555  10.459 -0.1060  0.5447  0.1217
  393TMC3    C4 5871   0.642   1.658  10.356  0.0552  0.3867  0.1773
  393TMC3    C5 5872   0.599   1.532  10.319  0.0238 -0.2380 -0.1992
  393TMC3    C6 5873   0.484   1.478  10.368  0.6556 -0.0308 -0.1840
  393TMC3     C 5874   0.568   1.865  10.427  0.6286  0.2198  0.6996
  393TMC3     O 5875   0.457   1.912  10.418  0.1063  0.4457 -0.3437
  393TMC3     H 5876   0.393   1.736  10.569  1.2322 -0.8206  2.5861
  393TMC3    H1 5877   0.719   1.718  10.309 -0.0047  1.6202  1.6617
  393TMC3    H2 5878   0.437   1.394  10.319 -0.3397 -0.2948  1.2332
  393TMC3    C7 5879   0.684   1.453  10.231 -0.1692  0.5733  0.4188
  393TMC3    C8 5880   0.276   1.532  10.469 -0.4090  0.9770 -0.0471
  393TMC3    O1 5881   0.630   1.355  10.186  0.3623  0.6085 -0.0983
  393TMC3    O2 5882   0.208   1.508  10.368 -0.1172  0.4505  0.4247
  394TMC3    C1 5883   2.261   2.194  10.776  0.3397 -0.3961  0.2606
  394TMC3    C2 5884   2.143   2.230  10.705  0.0665 -1.0469 -0.1633
  394TMC3    C3 5885   2.166   2.301  10.592  0.1123  0.3985 -0.1122
  394TMC3    C4 5886   2.393   2.229  10.733 -0.2906  0.4838 -0.4616
  394TMC3    C5 5887   2.397   2.296  10.619 -0.8922  0.4831 -0.7813
  394TMC3    C6 5888   2.289   2.323  10.542 -0.0699  0.1232 -0.2405
  394TMC3     C 5889   2.243   2.121  10.900 -0.3658  0.5011  0.3164
  394TMC3     O 5890   2.146   2.042  10.900  0.1894  0.5428 -0.4417
  394TMC3     H 5891   2.044   2.210  10.744  0.6037  1.0510  2.2843
  394TMC3    H1 5892   2.477   2.194  10.791 -0.0066  0.5037 -0.8610
  394TMC3    H2 5893   2.306   2.376  10.449  0.4906 -0.9936 -0.7842
  394TMC3    C7 5894   2.524   2.356  10.573 -0.7537 -0.4875  0.3684
  394TMC3    C8 5895   2.057   2.336  10.501  0.2879  0.4020  0.4706
  394TMC3    O1 5896   2.535   2.427  10.475  0.0769  0.0791 -0.0090
  394TMC3    O2 5897   1.972   2.400  10.546 -0.1389 -0.3804  0.0179
  395TMC3    C1 5898   2.231   3.963  14.654 -0.1863 -0.1340 -1.2796
  395TMC3    C2 5899   2.274   3.891  14.543  0.0657  0.3257  0.0702
  395TMC3    C3 5900   2.340   3.960  14.445  0.0702 -0.2715 -0.8405
  395TMC3    C4 5901   2.280   4.090  14.684  0.4840  0.1783 -0.0773
  395TMC3    C5 5902   2.343   4.151  14.584 -0.3518  0.0718 -0.0520
  395TMC3    C6 5903   2.376   4.090  14.468  0.4899  0.2970 -0.6560
  395TMC3     C 5904   2.108   3.931  14.729  0.0564 -0.1102  0.1894
  395TMC3     O 5905   2.094   3.982  14.840  0.6237 -0.0182 -0.0249
  395TMC3     H 5906   2.254   3.785  14.535 -0.5378  0.5099 -0.9138
  395TMC3    H1 5907   2.242   4.157  14.760 -2.7630 -0.9023 -0.7460
  395TMC3    H2 5908   2.419   4.141  14.383  1.0400  1.6077  0.4138
  395TMC3    C7 5909   2.375   4.288  14.614  0.0537 -0.3746 -0.1301
  395TMC3    C8 5910   2.325   3.918  14.304  0.8885 -0.2260  0.0461
  395TMC3    O1 5911   2.376   4.332  14.730  0.3530 -0.4761 -0.2307
  395TMC3    O2 5912   2.380   3.989  14.221  0.1640 -0.1813 -0.4477
  396MPD2     C 5913   1.522   0.842  17.258 -0.4935  0.0174 -0.2531
  396MPD2    C1 5914   1.654   0.816  17.292  0.1903 -0.1052 -0.1390
  396MPD2    C2 5915   1.745   0.924  17.304 -0.1124 -0.2452 -0.4420
  396MPD2    C3 5916   1.704   1.056  17.270  0.6550  0.0838 -0.5314
  396MPD2    C4 5917   1.567   1.080  17.248  0.1603 -0.3501 -0.0523
  396MPD2    C5 5918   1.483   0.975  17.245 -0.5263  0.4678  0.0903
  396MPD2     H 5919   1.849   0.899  17.323  0.0424  0.3118 -0.5685
  396MPD2    H1 5920   1.526   1.177  17.225 -0.9463 -1.4796 -2.8404
  396MPD2    H2 5921   1.448   0.763  17.246 -1.2147  0.7207 -0.3653
  396MPD2    H3 5922   1.380   1.001  17.225 -0.2432  1.0781 -0.6022
  396MPD2     N 5923   1.804   1.152  17.239  0.0298  0.2248 -0.5771
  396MPD2    H5 5924   1.897   1.133  17.274  0.9135 -0.0369 -3.0841
  396MPD2    N1 5925   1.685   0.680  17.326 -0.5142 -0.4531 -0.2438
  396MPD2    H7 5926   1.613   0.610  17.309 -0.2983 -0.6058 -0.5407
  397TMC3    C1 5927   1.815   0.492  17.331  0.5331  0.1818  0.4993
  397TMC3    C2 5928   1.819   0.471  17.193 -0.8950 -0.5635  0.0710
  397TMC3    C3 5929   1.932   0.412  17.145 -0.3249  0.0826  0.0226
  397TMC3    C4 5930   1.929   0.458  17.403  0.4007  0.6551 -0.1793
  397TMC3    C5 5931   2.028   0.380  17.353 -0.1363  0.8578 -0.0935
  397TMC3    C6 5932   2.034   0.359  17.218 -0.4271  0.5609  0.0239
  397TMC3     C 5933   1.812   0.636  17.355  0.6216  0.3644  0.2577
  397TMC3     O 5934   1.917   0.693  17.382 -0.8932  0.1427  0.8068
  397TMC3     H 5935   1.774   0.548  17.131  0.4546  1.1533  1.2149
  397TMC3    H1 5936   1.936   0.472  17.510  0.5726 -0.6408 -0.0182
  397TMC3    H2 5937   2.118   0.314  17.167  1.2017  0.3404  2.8741
  397TMC3    C7 5938   2.154   0.355  17.427  0.5787 -0.0915 -0.1636
  397TMC3    C8 5939   1.947   0.463  17.013 -0.2359 -0.0711 -0.7274
  397TMC3    O1 5940   2.257   0.333  17.365  0.4259 -0.9107  0.0643
  397TMC3    O2 5941   1.849   0.464  16.941 -0.5855 -0.3865  0.0690
  398MPD2     C 5942   0.562   1.791   0.177 -0.1809 -0.5431  0.7796
  398MPD2    C1 5943   0.597   1.663   0.221 -0.6020  0.6027 -0.9358
  398MPD2    C2 5944   0.680   1.646   0.335 -1.0527 -0.3382  0.1082
  398MPD2    C3 5945   0.738   1.755   0.401  0.3003  0.4042  0.0921
  398MPD2    C4 5946   0.710   1.881   0.350 -0.5332  0.4984  0.2944
  398MPD2    C5 5947   0.634   1.894   0.231 -0.1291 -0.2175 -0.8055
  398MPD2     H 5948   0.717   1.546   0.353 -2.1766 -0.8917 -0.6471
  398MPD2    H1 5949   0.754   1.970   0.395 -1.2161  2.5804 -3.1569
  398MPD2    H2 5950   0.494   1.808   0.094  0.6907  1.5048  0.4764
  398MPD2    H3 5951   0.622   1.997   0.199 -2.3951  0.5917  2.6115
  398MPD2     N 5952   0.801   1.723   0.525 -0.7673  0.1730  0.2916
  398MPD2    H5 5953   0.804   1.628   0.559  1.9466  0.8873  2.0355
  398MPD2    N1 5954   0.538   1.543   0.164  0.2995 -0.1310 -0.3635
  398MPD2    H7 5955   0.569   1.454   0.202 -0.1906 -0.5240 -0.8820
  399TMC3    C1 5956   0.441   1.387   0.028 -0.1431  0.1818 -0.4843
  399TMC3    C2 5957   0.498   1.290   0.119 -0.7729  0.2634 -0.3262
  399TMC3    C3 5958   0.455   1.161   0.129  0.1616 -0.4216  0.4376
  399TMC3    C4 5959   0.335   1.349  17.661  0.0237  0.3542 -0.3104
  399TMC3    C5 5960   0.283   1.223  17.676  0.2484 -0.1096  0.1473
  399TMC3    C6 5961   0.340   1.132   0.059  0.2545  0.4111  0.3313
  399TMC3     C 5962   0.460   1.530   0.052  0.6213  0.6312  0.4623
  399TMC3     O 5963   0.407   1.617  17.693  0.6047 -0.0247  0.4578
  399TMC3     H 5964   0.580   1.324   0.181  0.0169  0.3829 -1.4286
  399TMC3    H1 5965   0.281   1.420  17.599  2.0162  0.2268 -2.1981
  399TMC3    H2 5966   0.297   1.037   0.089  0.0993 -0.4577 -2.6011
  399TMC3    C7 5967   0.153   1.189  17.617 -0.1674 -0.4511  0.4766
  399TMC3    C8 5968   0.523   1.079   0.221  0.1153 -0.6176 -0.5726
  399TMC3    O1 5969   0.129   1.256  17.516 -0.3674  0.0305  0.1589
  399TMC3    O2 5970   0.612   1.132   0.284  0.1073  0.4335 -0.2174
  400TMC3    C1 5971   3.934   1.081  16.795 -0.2398 -0.5164 -0.0377
  400TMC3    C2 5972   3.813   1.032  16.763 -1.0174  0.2974  0.3190
  400TMC3    C3 5973   3.719   1.116  16.715 -0.1830 -0.0674  0.2266
  400TMC3    C4 5974   3.964   1.213  16.793 -0.4492 -0.0526  0.9686
  400TMC3    C5 5975   3.859   1.303  16.761  0.0521 -0.2992  0.3888
  400TMC3    C6 5976   3.737   1.252  16.721 -0.6302  0.5171  0.4383
  400TMC3     C 5977   4.040   0.983  16.796  0.1106  0.1633  0.3933
  400TMC3     O 5978   4.014   0.871  16.833 -0.7254  0.0498 -0.5827
  400TMC3     H 5979   3.791   0.928  16.786 -2.1570  0.8380  1.7072
  400TMC3    H1 5980   4.058   1.253  16.828  1.6721  0.6130 -5.4346
  400TMC3    H2 5981   3.646   1.309  16.707 -0.3871  0.9018  0.4329
  400TMC3    C7 5982   3.890   1.445  16.774  0.5773  0.4154  0.6933
  400TMC3    C8 5983   3.587   1.062  16.700  0.9153 -0.2517 -0.2979
  400TMC3    O1 5984   4.006   1.467  16.802  0.0544 -0.2114 -0.4562
  400TMC3    O2 5985   3.489   1.137  16.718 -0.2001 -0.4858 -0.3159
  401MPD2     C 5986   2.518   4.684   1.701  0.2910  0.2515 -0.8231
  401MPD2    C1 5987   2.458   4.601   1.609  0.0508 -0.3495 -0.3954
  401MPD2    C2 5988   2.319   4.591   1.613 -0.0776 -0.2233  0.5430
  401MPD2    C3 5989   2.246   4.655   1.705 -0.2161  0.3063  0.6946
  401MPD2    C4 5990   2.308   0.005   1.796  0.1818 -0.8944  0.3485
  401MPD2    C5 5991   2.437   0.026   1.792 -0.3142  0.0389 -0.0712
  401MPD2     H 5992   2.258   4.545   1.536  0.3184 -1.4973  1.0002
  401MPD2    H1 5993   2.250   0.060   1.870  0.1163 -2.8117  1.7376
  401MPD2    H2 5994   2.625   4.696   1.717  0.3854 -2.0711  0.2745
  401MPD2    H3 5995   2.493   0.086   1.863 -1.2943 -1.4703  1.9557
  401MPD2     N 5996   2.101   4.640   1.691 -0.0122  0.2945  0.0684
  401MPD2    H5 5997   2.066   4.575   1.622 -0.7085 -0.3814  1.0610
  401MPD2    N1 5998   2.518   4.519   1.514 -0.3171 -0.1507 -0.3086
  401MPD2    H7 5999   2.460   4.461   1.454 -1.2881 -0.3041  0.7774
  402TMC3    C1 6000   1.867   4.658   1.751 -0.0671 -0.3559  0.4840
  402TMC3    C2 6001   1.838   4.583   1.642  0.5728 -0.4419 -0.3337
  402TMC3    C3 6002   1.701   4.545   1.627  0.8969 -0.0305  0.8288
  402TMC3    C4 6003   1.766   4.702   1.840 -0.1141 -0.5793  0.0206
  402TMC3    C5 6004   1.634   4.671   1.813 -0.0941  0.1417 -0.7531
  402TMC3    C6 6005   1.601   4.594   1.708  0.2145  0.3692 -0.1476
  402TMC3     C 6006   2.007   4.705   1.763  0.2488 -0.3674  0.7379
  402TMC3     O 6007   2.025   0.076   1.835  0.4110 -0.4972  0.7527
  402TMC3     H 6008   1.914   4.551   1.572  0.8885 -0.9648  0.2487
  402TMC3    H1 6009   1.793   0.052   1.914  1.1378  0.5748 -1.6163
  402TMC3    H2 6010   1.496   4.568   1.696 -0.1943  1.6163  0.7003
  402TMC3    C7 6011   1.531   0.022   1.881  0.1305 -0.1525  0.1249
  402TMC3    C8 6012   1.693   4.421   1.560 -0.1628 -1.0607  0.6078
  402TMC3    O1 6013   1.570   0.070   1.989  0.4088  0.0718  0.5112
  402TMC3    O2 6014   1.801   4.376   1.525 -0.1116 -0.4060  0.3397
  403MPD2     C 6015   4.593   2.211  13.072  0.5378 -0.0671  0.3474
  403MPD2    C1 6016   4.591   2.091  13.140  0.4973  0.5852  0.4297
  403MPD2    C2 6017   4.682   2.080  13.241 -0.4729 -0.0159 -0.6086
  403MPD2    C3 6018   0.032   2.188  13.290  0.2430  0.2791  0.1746
  403MPD2    C4 6019   0.017   2.316  13.228  0.2737  0.0315  0.3411
  403MPD2    C5 6020   4.667   2.319  13.116 -0.1389 -0.9180  0.1321
  403MPD2     H 6021   4.705   1.981  13.279  2.0431  0.0763 -1.8654
  403MPD2    H1 6022   0.077   2.401  13.256  0.7367 -0.4287  0.7541
  403MPD2    H2 6023   4.539   2.218  12.978  0.6193 -4.8404 -0.0694
  403MPD2    H3 6024   4.662   2.416  13.069  0.3635 -0.8662  0.1860
  403MPD2     N 6025   0.127   2.164  13.397 -0.3521  0.3761  0.5744
  403MPD2    H5 6026   0.124   2.070  13.434 -0.2214  0.4445  0.7588
  403MPD2    N1 6027   4.518   1.990  13.082  0.0303 -0.2461 -0.5389
  403MPD2    H7 6028   4.509   1.994  12.981  2.8553  4.1994 -0.6187
  404TMC3    C1 6029   4.460   1.760  13.072  0.4548  0.6618  0.6671
  404TMC3    C2 6030   4.408   1.648  13.143 -0.5432  0.2311 -0.1531
  404TMC3    C3 6031   4.373   1.538  13.071  0.1236 -0.0195 -0.4514
  404TMC3    C4 6032   4.498   1.753  12.936  0.7053 -0.2202 -0.5263
  404TMC3    C5 6033   4.457   1.636  12.874 -0.2112  0.1831 -0.4100
  404TMC3    C6 6034   4.410   1.528  12.941 -0.2014 -0.3677  0.5804
  404TMC3     C 6035   4.483   1.874  13.157 -0.2805  0.3408  0.4399
  404TMC3     O 6036   4.486   1.862  13.278  0.1923  0.6782 -0.3223
  404TMC3     H 6037   4.371   1.665  13.243 -0.2680 -2.3715  0.3695
  404TMC3    H1 6038   4.555   1.828  12.882 -1.7783  0.8636 -1.6501
  404TMC3    H2 6039   4.378   1.443  12.882 -2.4279 -0.3420  1.7438
  404TMC3    C7 6040   4.466   1.633  12.732  0.2196  0.4392 -0.0892
  404TMC3    C8 6041   4.350   1.410  13.138 -0.7523 -0.3872 -0.6581
  404TMC3    O1 6042   4.502   1.741  12.688  0.0452  0.2563  0.2114
  404TMC3    O2 6043   4.359   1.306  13.075 -0.1312 -0.1895 -0.5195
  405MPD2     C 6044   4.566   2.036  13.709  0.0518 -0.4363  0.0237
  405MPD2    C1 6045   4.523   2.133  13.628  1.0858 -0.4250 -0.1560
  405MPD2    C2 6046   4.581   2.257  13.625  1.1509  0.0537  0.0169
  405MPD2    C3 6047   4.685   2.289  13.706 -0.0026 -0.1746  0.8477
  405MPD2    C4 6048   0.018   2.185  13.779 -0.0921  0.6927 -0.1767
  405MPD2    C5 6049   4.676   2.061  13.780 -0.2634 -0.6372 -0.1813
  405MPD2     H 6050   4.544   2.334  13.558  3.8705  3.1257  2.1139
  405MPD2    H1 6051   0.105   2.196  13.843  0.0814 -3.4301  0.3136
  405MPD2    H2 6052   4.526   1.935  13.712 -1.8742  0.2671 -1.8134
  405MPD2    H3 6053   4.724   1.974  13.824 -0.7757 -1.7464 -1.8195
  405MPD2     N 6054   0.007   2.424  13.703 -0.1633  0.0047  0.0996
  405MPD2    H5 6055   4.678   2.492  13.652 -0.2736  0.0874  0.3284
  405MPD2    N1 6056   4.420   2.110  13.540  0.2708 -0.5676  0.7487
  405MPD2    H7 6057   4.395   2.184  13.476 -0.3475 -2.0937 -0.7986
  406TMC3    C1 6058   0.005   2.829  13.796 -0.4542 -0.3187 -0.3083
  406TMC3    C2 6059   4.697   2.847  13.666  0.1916  0.2795 -0.6031
  406TMC3    C3 6060   0.018   2.756  13.577  0.3107 -0.2608 -0.8820
  406TMC3    C4 6061   0.047   2.705  13.837 -0.5216  0.8714 -0.0686
  406TMC3    C5 6062   0.107   2.611  13.745  1.0812  0.0603  0.0886
  406TMC3    C6 6063   0.078   2.636  13.609  0.6299  0.2466  0.4886
  406TMC3     C 6064   4.645   2.901  13.893 -0.0324 -0.1737 -0.4829
  406TMC3     O 6065   4.692   2.998  13.946  0.0128 -0.3893  0.5283
  406TMC3     H 6066   4.642   2.936  13.638  2.6514  1.4195 -1.7243
  406TMC3    H1 6067   0.033   2.674  13.940 -0.9037  1.2344 -0.0110
  406TMC3    H2 6068   0.121   2.581  13.526  2.0682 -1.0912  2.1465
  406TMC3    C7 6069   0.106   2.473  13.776 -0.4579 -0.5067  0.6659
  406TMC3    C8 6070   4.674   2.758  13.447 -0.5086  0.0581 -0.0470
  406TMC3    O1 6071   0.170   2.424  13.867 -0.0119 -0.2984  0.7932
  406TMC3    O2 6072   4.689   2.858  13.386 -0.2781  0.2043 -0.3009
  407MPD2     C 6073   2.058   3.430   9.509 -0.0726  0.2210  0.2707
  407MPD2    C1 6074   2.090   3.560   9.495  0.1615 -0.3995 -0.0001
  407MPD2    C2 6075   2.093   3.640   9.614  0.5357  0.4385  0.6171
  407MPD2    C3 6076   2.092   3.582   9.736 -0.0930 -0.2135  0.7655
  407MPD2    C4 6077   2.078   3.449   9.745  0.2397  0.3692 -0.1860
  407MPD2    C5 6078   2.058   3.372   9.632  0.2350  0.5365 -0.3747
  407MPD2     H 6079   2.115   3.745   9.598  0.1242  0.5231  0.5975
  407MPD2    H1 6080   2.064   3.404   9.843 -1.6734  1.2346 -0.0580
  407MPD2    H2 6081   2.050   3.359   9.427 -0.0588  0.2350  0.2572
  407MPD2    H3 6082   2.013   3.274   9.639  0.2115  0.4255 -2.1529
  407MPD2     N 6083   2.118   3.648   9.858  0.2543 -0.3115 -0.2894
  407MPD2    H5 6084   2.149   3.586   9.932 -2.1839 -2.3801 -0.9807
  407MPD2    N1 6085   2.101   3.627   9.371 -0.5143 -0.0173  0.2904
  407MPD2    H7 6086   2.116   3.727   9.380 -1.1207  0.0953  0.0504
  408TMC3    C1 6087   2.181   3.635   9.146  0.5514  0.1891 -0.0842
  408TMC3    C2 6088   2.266   3.558   9.072  0.0107  0.1254 -0.5070
  408TMC3    C3 6089   2.381   3.608   9.010  0.1446 -0.0453  0.4821
  408TMC3    C4 6090   2.203   3.767   9.161 -0.5758  0.6206  0.2159
  408TMC3    C5 6091   2.332   3.814   9.115  0.0662 -0.4960 -0.2292
  408TMC3    C6 6092   2.428   3.733   9.046  0.3171  0.5436  0.3465
  408TMC3     C 6093   2.105   3.564   9.249 -0.3440 -0.0276 -0.2808
  408TMC3     O 6094   2.091   3.442   9.227 -0.5575 -0.1072 -0.1602
  408TMC3     H 6095   2.247   3.451   9.072  1.2652 -0.0890 -1.5281
  408TMC3    H1 6096   2.129   3.824   9.215  3.0509  1.0015  4.8233
  408TMC3    H2 6097   2.518   3.773   9.000  0.2263  0.1930 -0.1335
  408TMC3    C7 6098   2.397   3.911   9.198 -0.3682 -0.0371  0.2100
  408TMC3    C8 6099   2.482   3.516   8.976 -0.0121  0.1052 -0.1847
  408TMC3    O1 6100   2.515   3.903   9.222  0.1963  0.2580  0.6376
  408TMC3    O2 6101   2.449   3.410   8.922  0.4508 -0.3581  0.1125
  409MPD2     C 6102   2.169   0.033  16.999  0.5234  0.2878  0.2524
  409MPD2    C1 6103   2.270   0.095  17.082 -0.1467 -0.1730  0.1777
  409MPD2    C2 6104   2.331   0.206  17.028  0.0427  0.4510  0.4494
  409MPD2    C3 6105   2.310   0.245  16.898  0.5843 -0.1313  0.5408
  409MPD2    C4 6106   2.204   0.195  16.826 -0.1402  0.4243  0.3701
  409MPD2    C5 6107   2.144   0.083  16.874 -0.4553 -0.6263 -0.1710
  409MPD2     H 6108   2.402   0.255  17.094  1.4301 -2.2218  0.9436
  409MPD2    H1 6109   2.187   0.213  16.720 -0.6285  0.5892  0.4790
  409MPD2    H2 6110   2.112   4.674  17.035 -0.4618  1.5459  1.6435
  409MPD2    H3 6111   2.061   0.039  16.820 -1.9840  1.2285  0.6238
  409MPD2     N 6112   2.390   0.342  16.838  0.0459  1.0399  0.5607
  409MPD2    H5 6113   2.354   0.401  16.763  1.7789  1.2735 -0.0859
  409MPD2    N1 6114   2.309   0.044  17.210 -0.0449  0.1341  0.4539
  409MPD2    H7 6115   2.338   0.116  17.276  1.1856 -1.0777  1.2132
  410TMC3    C1 6116   2.583   0.454  16.791  0.5041  0.0519 -0.1917
  410TMC3    C2 6117   2.698   0.496  16.849  0.2949 -0.6628  0.8130
  410TMC3    C3 6118   2.759   0.601  16.795  0.1642  0.2232  0.4524
  410TMC3    C4 6119   2.530   0.510  16.679 -0.2724 -0.5432 -0.0543
  410TMC3    C5 6120   2.596   0.614  16.621 -0.0674  0.3948 -0.0277
  410TMC3    C6 6121   2.713   0.659  16.682 -0.2672 -0.0448 -0.4103
  410TMC3     C 6122   2.523   0.349  16.869 -0.6597  0.8500  0.2074
  410TMC3     O 6123   2.594   0.286  16.945 -0.1610  0.3824 -0.1027
  410TMC3     H 6124   2.724   0.470  16.951 -1.9644  1.8059  2.0040
  410TMC3    H1 6125   2.446   0.460  16.632 -0.1551 -1.7469  1.0236
  410TMC3    H2 6126   2.774   0.735  16.635 -1.0136  1.2719  0.7484
  410TMC3    C7 6127   2.581   0.629  16.475 -0.4498 -0.5364 -0.1425
  410TMC3    C8 6128   2.903   0.606  16.806 -0.2709  0.3127  0.7751
  410TMC3    O1 6129   2.526   0.532  16.418  0.4218 -0.3776 -0.0521
  410TMC3    O2 6130   2.955   0.714  16.836 -1.0627 -0.3751 -0.2691
  411MPD2     C 6131   2.414   0.717  14.627 -0.5907 -0.3504 -0.5158
  411MPD2    C1 6132   2.363   0.683  14.753 -0.0378  0.4070 -0.3974
  411MPD2    C2 6133   2.301   0.557  14.763 -0.2900 -0.1826  0.3214
  411MPD2    C3 6134   2.284   0.478  14.658 -0.6797 -0.0313  0.1959
  411MPD2    C4 6135   2.319   0.527  14.538 -0.3582  0.3898  0.5655
  411MPD2    C5 6136   2.396   0.635  14.524 -0.6888  0.1141  0.2525
  411MPD2     H 6137   2.266   0.534  14.862 -3.6008  2.8321 -0.1391
  411MPD2    H1 6138   2.307   0.468  14.448  1.7468  1.0161 -0.1363
  411MPD2    H2 6139   2.460   0.815  14.620 -2.7699  0.8091  1.1680
  411MPD2    H3 6140   2.427   0.639  14.420 -1.6689  1.8434  0.0409
  411MPD2     N 6141   2.210   0.359  14.660 -0.2056 -0.6505 -0.0212
  411MPD2    H5 6142   2.192   0.315  14.570  0.0368  1.4733 -1.0927
  411MPD2    N1 6143   2.386   0.778  14.853 -0.6660 -0.5017 -0.2275
  411MPD2    H7 6144   2.443   0.855  14.819 -0.8856 -0.2330  0.0182
  412TMC3    C1 6145   2.076   0.187  14.743 -0.4807  0.0652 -0.3082
  412TMC3    C2 6146   1.943   0.226  14.746 -0.4720  0.5327  0.5221
  412TMC3    C3 6147   1.869   0.190  14.639  0.2266  0.0137  0.5054
  412TMC3    C4 6148   2.127   0.108  14.642  0.3157 -0.2734  0.3298
  412TMC3    C5 6149   2.044   0.074  14.541  0.4488  0.2891  0.9188
  412TMC3    C6 6150   1.918   0.118  14.534 -0.3499  0.3146 -0.3939
  412TMC3     C 6151   2.158   0.300  14.773 -0.6339 -0.2329  0.1070
  412TMC3     O 6152   2.186   0.317  14.890  0.3411 -0.2277  0.0226
  412TMC3     H 6153   1.895   0.297  14.813 -2.9712 -0.5181 -0.1634
  412TMC3    H1 6154   2.230   0.081  14.662  0.4517  1.1930  1.5311
  412TMC3    H2 6155   1.853   0.074  14.458  2.2136 -0.2432 -2.2698
  412TMC3    C7 6156   2.110   0.111  14.420  0.1397 -0.2665 -0.3819
  412TMC3    C8 6157   1.773   0.296  14.601  0.3620 -0.0843 -0.6851
  412TMC3    O1 6158   2.148   0.226  14.417 -0.5545 -0.5824 -0.5742
  412TMC3    O2 6159   1.713   0.349  14.695 -0.5389 -0.6335 -0.0677
  413MPD2     C 6160   4.096   3.789  15.362 -0.0022 -0.1974  0.0606
  413MPD2    C1 6161   4.004   3.687  15.365  0.9438 -0.6392  0.1728
  413MPD2    C2 6162   4.041   3.557  15.352  0.3907 -0.5765  0.9441
  413MPD2    C3 6163   4.178   3.528  15.344  0.1896 -0.8063 -0.3474
  413MPD2    C4 6164   4.271   3.634  15.346  0.3031 -0.2131  0.1352
  413MPD2    C5 6165   4.229   3.762  15.352  0.2640  0.1651  0.0238
  413MPD2     H 6166   3.969   3.476  15.341 -1.4204  0.8709  1.9830
  413MPD2    H1 6167   4.377   3.614  15.329  0.0492 -3.7150  2.7477
  413MPD2    H2 6168   4.074   3.895  15.363 -0.7161 -0.3505  0.1013
  413MPD2    H3 6169   4.310   3.834  15.356 -1.0107  1.5926  0.5016
  413MPD2     N 6170   4.214   3.398  15.325  0.0391 -0.2300 -0.0357
  413MPD2    H5 6171   4.139   3.330  15.323  0.0754 -0.3653  3.2705
  413MPD2    N1 6172   3.863   3.705  15.355  0.2175  0.5210 -0.0059
  413MPD2    H7 6173   3.797   3.628  15.364  1.4050 -0.6481 -1.4575
  414TMC3    C1 6174   4.340   3.221  15.274 -0.2370  0.5282 -0.9172
  414TMC3    C2 6175   4.426   3.124  15.323 -0.1129  0.2413  0.1632
  414TMC3    C3 6176   4.406   2.997  15.291 -0.5791  0.4039 -0.1978
  414TMC3    C4 6177   4.240   3.192  15.190  0.8839 -0.0532 -0.0383
  414TMC3    C5 6178   4.225   3.060  15.157  0.5417  0.1333  0.5869
  414TMC3    C6 6179   4.289   2.961  15.215 -0.3362  0.7909 -0.5251
  414TMC3     C 6180   4.349   3.351  15.324 -0.0294  0.8006 -0.4599
  414TMC3     O 6181   4.461   3.406  15.343 -0.1195  0.1515  0.1160
  414TMC3     H 6182   4.508   3.154  15.388 -0.2492  0.0939  0.4050
  414TMC3    H1 6183   4.173   3.250  15.128  1.4003 -0.5397 -1.0479
  414TMC3    H2 6184   4.272   2.859  15.182  2.0665  0.4211 -0.6089
  414TMC3    C7 6185   4.106   3.018  15.085 -0.5290  0.7382  0.4824
  414TMC3    C8 6186   4.511   2.896  15.299 -0.1761  0.4633  0.6790
  414TMC3    O1 6187   4.001   2.998  15.153  0.5463  0.2137  0.1878
  414TMC3    O2 6188   4.476   2.790  15.250 -0.0214 -0.1869  0.2911
  415TMC3    C1 6189   4.419   1.448   9.976 -0.7098 -1.0689 -0.4965
  415TMC3    C2 6190   4.531   1.505   9.910  0.1454  0.8208 -0.2541
  415TMC3    C3 6191   4.507   1.566   9.789  0.2040 -0.6484 -0.3552
  415TMC3    C4 6192   4.298   1.440   9.911 -0.7833  0.3191 -0.3010
  415TMC3    C5 6193   4.281   1.505   9.793  0.2381  0.0454 -0.4994
  415TMC3    C6 6194   4.389   1.557   9.728  0.3876  0.6175  0.0530
  415TMC3     C 6195   4.426   1.378  10.099  0.2260  0.0102  0.1791
  415TMC3     O 6196   4.319   1.331  10.136 -0.3941  0.5395 -0.1863
  415TMC3     H 6197   4.631   1.512   9.950 -0.6315  3.1219  1.3127
  415TMC3    H1 6198   4.213   1.386   9.950  0.0897 -0.4408  0.5518
  415TMC3    H2 6199   4.385   1.597   9.627  2.1538  1.5254  0.3425
  415TMC3    C7 6200   4.153   1.489   9.713 -0.2504 -0.6297 -0.3202
  415TMC3    C8 6201   4.617   1.564   9.695  0.0226  1.0182  0.3992
  415TMC3    O1 6202   4.149   1.522   9.597  0.0113  0.2366  0.3098
  415TMC3    O2 6203   4.600   1.519   9.586 -0.2532  0.1031 -0.2521
  416MPD2     C 6204   1.431   0.725  11.332  0.3543  0.0638 -0.2016
  416MPD2    C1 6205   1.338   0.649  11.408  0.1068 -0.1821  0.2273
  416MPD2    C2 6206   1.312   0.518  11.373 -0.2831  0.7903  0.4169
  416MPD2    C3 6207   1.380   0.457  11.265 -0.2963  0.1604 -0.7938
  416MPD2    C4 6208   1.473   0.534  11.196 -0.2892 -0.3185  0.2195
  416MPD2    C5 6209   1.498   0.665  11.230 -0.7572  0.3831  0.5891
  416MPD2     H 6210   1.234   0.459  11.421  0.0445 -0.4863 -0.6278
  416MPD2    H1 6211   1.522   0.497  11.106 -0.3856  1.9384 -0.7812
  416MPD2    H2 6212   1.463   0.822  11.368  1.2006  0.8321 -2.9884
  416MPD2    H3 6213   1.578   0.718  11.181  0.2730 -1.2859  0.4778
  416MPD2     N 6214   1.351   0.331  11.209  0.2504  0.0447  0.0343
  416MPD2    H5 6215   1.406   0.290  11.135 -0.2306 -0.7520  0.1158
  416MPD2    N1 6216   1.272   0.710  11.522 -0.0973 -0.1282  0.5963
  416MPD2    H7 6217   1.281   0.810  11.535 -0.2902  0.0048 -0.2820
  417TMC3    C1 6218   1.118   0.731  11.703  0.7180  0.2774  0.9099
  417TMC3    C2 6219   1.069   0.669  11.814  1.0995  0.6703  0.0860
  417TMC3    C3 6220   0.932   0.671  11.832 -0.4560 -0.0156  0.6468
  417TMC3    C4 6221   1.033   0.794  11.618  0.7310 -0.6173  0.1013
  417TMC3    C5 6222   0.900   0.790  11.633  0.4784  0.5445  0.5449
  417TMC3    C6 6223   0.848   0.738  11.753  0.2252  0.0029 -0.4138
  417TMC3     C 6224   1.196   0.640  11.619  0.0826 -0.2438 -0.3539
  417TMC3     O 6225   1.198   0.519  11.653 -0.2087 -0.2999  0.1042
  417TMC3     H 6226   1.138   0.642  11.894 -1.5665  0.3444  2.2721
  417TMC3    H1 6227   1.073   0.856  11.538  1.8577 -0.6187  0.6679
  417TMC3    H2 6228   0.741   0.727  11.771  0.2667  1.3628  0.6593
  417TMC3    C7 6229   0.817   0.863  11.539 -0.8793  1.1620 -0.8231
  417TMC3    C8 6230   0.884   0.645  11.966  0.1137  0.6640  0.5273
  417TMC3    O1 6231   0.863   0.970  11.505 -0.1191  0.1974  0.0701
  417TMC3    O2 6232   0.792   0.708  12.012 -0.6640  0.2324 -0.4168
  418TMC3    C1 6233   1.042   1.759   0.918  0.7561 -0.1522  0.0889
  418TMC3    C2 6234   1.013   1.817   0.791  0.0743 -0.1219 -0.8957
  418TMC3    C3 6235   0.908   1.768   0.723 -0.1186  0.7409 -0.3087
  418TMC3    C4 6236   0.969   1.650   0.970  0.4431  0.4618 -0.5878
  418TMC3    C5 6237   0.853   1.622   0.904  0.1623 -0.0414 -0.3274
  418TMC3    C6 6238   0.828   1.675   0.782 -0.7355 -0.8632  0.0114
  418TMC3     C 6239   1.182   1.757   0.937 -0.1599  0.2343  0.0342
  418TMC3     O 6240   1.248   1.860   0.951  0.0381 -0.1951 -0.2841
  418TMC3     H 6241   1.084   1.881   0.738 -0.6744  0.5797 -1.0511
  418TMC3    H1 6242   0.999   1.598   1.060 -1.7195  0.7934  0.3284
  418TMC3    H2 6243   0.736   1.643   0.735 -0.2292 -1.8679 -0.2959
  418TMC3    C7 6244   0.780   1.505   0.936 -0.5578 -0.0019 -0.2740
  418TMC3    C8 6245   0.881   1.813   0.593 -0.1179 -0.0532 -0.1296
  418TMC3    O1 6246   0.707   1.458   0.847  0.4347  0.2792 -0.4843
  418TMC3    O2 6247   0.918   1.920   0.540  0.3434  0.2024 -0.3061
  419MPD2     C 6248   3.030   0.006  12.319 -0.2939  0.5713 -0.3222
  419MPD2    C1 6249   3.109   0.121  12.308 -0.1523  0.2270  0.2780
  419MPD2    C2 6250   3.168   0.166  12.419  0.0559  0.5903 -0.0113
  419MPD2    C3 6251   3.172   0.096  12.538 -0.5463 -0.0895 -0.5613
  419MPD2    C4 6252   3.115   4.696  12.539  0.6105  0.4078  0.4567
  419MPD2    C5 6253   3.034   4.658  12.434  0.0757  0.1222 -0.2381
  419MPD2     H 6254   3.222   0.259  12.406 -0.4401  0.8866  0.0269
  419MPD2    H1 6255   3.130   4.632  12.626  0.0763 -0.5291 -0.1391
  419MPD2    H2 6256   2.957   4.703  12.244 -0.9703  1.4330  0.0058
  419MPD2    H3 6257   2.974   4.568  12.439  0.2519 -0.0727 -1.7456
  419MPD2     N 6258   3.237   0.163  12.653 -0.2864  0.9128  0.3216
  419MPD2    H5 6259   3.276   0.256  12.637  0.5518  0.5853  0.4751
  419MPD2    N1 6260   3.117   0.204  12.197  0.5686  0.4121 -0.6172
  419MPD2    H7 6261   3.175   0.286  12.212 -2.1295  2.2091 -0.0299
  420TMC3    C1 6262   3.281   0.213  12.875  0.7519 -0.4191  0.4542
  420TMC3    C2 6263   3.266   0.346  12.846 -0.2586 -0.1146  0.1164
  420TMC3    C3 6264   3.326   0.440  12.930 -0.6796  1.0094  0.9463
  420TMC3    C4 6265   3.355   0.172  12.983 -0.1827  0.6324  0.0002
  420TMC3    C5 6266   3.433   0.266  13.051  0.0624  0.7799  0.7765
  420TMC3    C6 6267   3.411   0.402  13.037 -0.5849  0.1266 -0.0766
  420TMC3     C 6268   3.238   0.113  12.778 -0.3583  0.3688  0.3494
  420TMC3     O 6269   3.200   0.004  12.815  0.2429 -0.4754 -0.0051
  420TMC3     H 6270   3.197   0.376  12.768 -0.2920  0.1039  0.2311
  420TMC3    H1 6271   3.373   0.066  12.999 -1.3654  0.3668 -0.4560
  420TMC3    H2 6272   3.474   0.474  13.087  0.0567  0.7788 -1.7983
  420TMC3    C7 6273   3.504   0.225  13.170 -0.1268  0.2328  0.6825
  420TMC3    C8 6274   3.316   0.576  12.880 -0.0406  0.1670  0.2574
  420TMC3    O1 6275   3.470   0.115  13.217 -0.1188  0.2433 -0.2513
  420TMC3    O2 6276   3.210   0.608  12.824 -0.0411  0.3628  0.0922
  421TMC3    C1 6277   0.298   2.194  13.564  0.0668  0.2362 -0.4642
  421TMC3    C2 6278   0.364   2.283  13.650 -0.1939  0.3040 -0.6938
  421TMC3    C3 6279   0.436   2.224  13.746  0.0014  0.2607 -0.4052
  421TMC3    C4 6280   0.304   2.057  13.584 -0.5085 -0.8757  0.5918
  421TMC3    C5 6281   0.384   2.007  13.683  0.8118  0.2409  0.1474
  421TMC3    C6 6282   0.447   2.090  13.768 -0.0817 -0.4508  0.3466
  421TMC3     C 6283   0.213   2.250  13.461  0.7024 -0.4350 -0.0732
  421TMC3     O 6284   0.219   2.372  13.435  0.2964  0.0275 -0.0727
  421TMC3     H 6285   0.378   2.388  13.626 -1.6490  0.3760 -1.2284
  421TMC3    H1 6286   0.246   1.981  13.532 -1.8701  0.0172  0.8056
  421TMC3    H2 6287   0.512   2.056  13.848  0.0940 -1.6303 -0.2988
  421TMC3    C7 6288   0.360   1.868  13.720 -0.4950  0.3366  0.1962
  421TMC3    C8 6289   0.522   2.313  13.824  0.2191 -0.1629 -0.6475
  421TMC3    O1 6290   0.258   1.815  13.680  0.2419  0.3512  0.3544
  421TMC3    O2 6291   0.635   2.274  13.852  0.0229 -0.1669  0.0718
  422TMC3    C1 6292   2.438   3.045  12.598  0.3555 -0.2151 -0.5707
  422TMC3    C2 6293   2.395   3.177  12.614 -0.1185  0.0063  0.5565
  422TMC3    C3 6294   2.271   3.209  12.656 -0.2839  0.4531 -0.6484
  422TMC3    C4 6295   2.347   2.950  12.606 -0.5322  0.4226 -0.0162
  422TMC3    C5 6296   2.216   2.983  12.646 -0.8982 -0.0559  0.7349
  422TMC3    C6 6297   2.177   3.114  12.667 -0.3191  0.9698  0.3438
  422TMC3     C 6298   2.563   3.028  12.509  0.0934  0.1724 -0.1681
  422TMC3     O 6299   2.608   3.126  12.453  0.3051 -0.2327  1.0564
  422TMC3     H 6300   2.473   3.252  12.612 -0.3729  0.1840 -2.6635
  422TMC3    H1 6301   2.365   2.846  12.579 -2.8762 -0.8894  3.3968
  422TMC3    H2 6302   2.080   3.142  12.706 -1.2547  0.0705 -1.3281
  422TMC3    C7 6303   2.115   2.877  12.645 -0.0756  0.5879  0.2288
  422TMC3    C8 6304   2.239   3.350  12.668 -0.9728  0.6603  0.2974
  422TMC3    O1 6305   2.156   2.764  12.648 -0.6850  0.2539  0.6624
  422TMC3    O2 6306   2.336   3.425  12.682  0.0922 -0.6298  0.4513
  423MPD2     C 6307   4.703   4.438   0.686  0.7594  0.4493  0.2028
  423MPD2    C1 6308   4.612   4.334   0.704 -0.4694  0.1755 -0.5241
  423MPD2    C2 6309   4.609   4.230   0.613 -0.4232 -0.0939 -0.0806
  423MPD2    C3 6310   4.699   4.214   0.510 -0.5844  0.3385 -0.1819
  423MPD2    C4 6311   0.067   4.306   0.500 -0.0061 -0.2451  0.1926
  423MPD2    C5 6312   0.068   4.416   0.584 -0.7713  0.1217  0.4462
  423MPD2     H 6313   4.525   4.163   0.626  0.0387 -0.5121  0.7214
  423MPD2    H1 6314   0.141   4.303   0.422  0.0980  1.1801  0.2236
  423MPD2    H2 6315   4.709   4.531   0.741  0.6327  1.4366 -1.4604
  423MPD2    H3 6316   0.129   4.504   0.566 -2.5388  0.8346 -1.9280
  423MPD2     N 6317   4.687   4.122   0.403 -0.2178  0.1394 -0.0455
  423MPD2    H5 6318   0.013   4.134   0.317  1.9220  1.2637  1.3756
  423MPD2    N1 6319   4.504   4.341   0.797  0.0931 -0.0590 -0.4181
  423MPD2    H7 6320   4.454   4.255   0.819  0.8196 -0.0592  1.2343
  424TMC3    C1 6321   4.357   4.413   0.963 -0.0505  0.0256  0.3470
  424TMC3    C2 6322   4.323   4.285   0.974 -0.6458  0.8940 -0.0225
  424TMC3    C3 6323   4.197   4.255   1.017 -0.3272  0.1218  0.1259
  424TMC3    C4 6324   4.283   4.522   1.001  0.5168 -0.2327 -0.2953
  424TMC3    C5 6325   4.149   4.489   1.028  0.1772  0.2343 -0.8712
  424TMC3    C6 6326   4.108   4.359   1.049 -0.0094  0.3150 -1.2552
  424TMC3     C 6327   4.465   4.445   0.880  0.2319 -0.0904 -0.1926
  424TMC3     O 6328   4.499   4.562   0.873 -0.0932  0.2143  0.1261
  424TMC3     H 6329   4.392   4.201   0.972 -0.5700  0.9492  0.3742
  424TMC3    H1 6330   4.318   4.624   1.001  1.7479 -0.6675  0.7743
  424TMC3    H2 6331   4.003   4.338   1.063  0.3036 -2.4439 -3.2428
  424TMC3    C7 6332   4.045   4.584   0.989  0.1581  0.8280  0.0186
  424TMC3    C8 6333   4.159   4.114   1.031  0.1719 -0.2866  0.3102
  424TMC3    O1 6334   4.080   4.676   0.913 -0.3048 -0.0660  0.0165
  424TMC3    O2 6335   4.237   4.022   0.999  0.2321  0.2839  0.1034
  425MPD2     C 6336   3.302   3.595  17.174 -0.2264  0.0617  0.6077
  425MPD2    C1 6337   3.217   3.571  17.065 -0.2087 -0.1947 -0.0559
  425MPD2    C2 6338   3.083   3.596  17.066  0.6563 -0.5449 -0.1005
  425MPD2    C3 6339   3.023   3.645  17.178  0.2732 -0.7272 -0.3016
  425MPD2    C4 6340   3.110   3.671  17.283 -0.1008 -0.1185 -0.1634
  425MPD2    C5 6341   3.247   3.646  17.286  0.3476 -0.2231  0.4843
  425MPD2     H 6342   3.017   3.580  16.981 -0.0279 -1.5877  0.6201
  425MPD2    H1 6343   3.074   3.694  17.383  1.7684 -1.0617  0.7512
  425MPD2    H2 6344   3.410   3.586  17.170 -0.4643 -0.5531 -4.4114
  425MPD2    H3 6345   3.314   3.661  17.370 -0.9577 -2.3509  1.8910
  425MPD2     N 6346   2.879   3.643  17.193 -0.9649  0.0705  0.2616
  425MPD2    H5 6347   2.826   3.613  17.112 -0.9842 -2.0157  1.0635
  425MPD2    N1 6348   3.281   3.522  16.952  0.4761  0.4230 -0.8971
  425MPD2    H7 6349   3.380   3.502  16.967  0.8838  3.7297  0.6290
  426TMC3    C1 6350   3.316   3.408  16.749  0.5121 -0.0828  1.0021
  426TMC3    C2 6351   3.277   3.384  16.617 -0.4644 -0.7840 -0.8440
  426TMC3    C3 6352   3.350   3.305  16.540 -0.5960 -0.1880  0.7749
  426TMC3    C4 6353   3.427   3.344  16.798 -0.0668  0.7710  0.1106
  426TMC3    C5 6354   3.494   3.253  16.720  0.2808  0.3943  0.2519
  426TMC3    C6 6355   3.464   3.247  16.590  0.0467  0.0080  0.0343
  426TMC3     C 6356   3.224   3.473  16.842  0.2007 -0.1238  0.0453
  426TMC3     O 6357   3.118   3.501  16.793  0.2158 -0.2263  0.0879
  426TMC3     H 6358   3.192   3.436  16.576 -1.4977  0.7026  3.1508
  426TMC3    H1 6359   3.457   3.371  16.899 -0.9439 -1.6241  1.0088
  426TMC3    H2 6360   3.531   3.189  16.528  2.3752 -0.4465  2.9898
  426TMC3    C7 6361   3.579   3.153  16.784  0.0926 -0.1397  0.0166
  426TMC3    C8 6362   3.284   3.213  16.448 -0.3869 -1.0095  0.2318
  426TMC3    O1 6363   3.625   3.066  16.712 -0.4353 -0.1621  0.1722
  426TMC3    O2 6364   3.349   3.174  16.351  0.1689 -0.4625  0.3554
  427MPD2     C 6365   1.453   0.844  15.042 -0.8284  0.7551 -0.1708
  427MPD2    C1 6366   1.391   0.749  15.122 -0.3072  0.3883 -0.0065
  427MPD2    C2 6367   1.258   0.755  15.137 -0.5674  0.9028  0.1922
  427MPD2    C3 6368   1.175   0.849  15.076  0.2219 -0.1479 -0.5308
  427MPD2    C4 6369   1.234   0.953  15.004  0.0019  0.4689  0.0666
  427MPD2    C5 6370   1.372   0.948  15.001  0.0159 -0.5223  0.5192
  427MPD2     H 6371   1.211   0.684  15.203  0.8812  0.1861  0.4642
  427MPD2    H1 6372   1.178   1.034  14.957  0.5252  1.7710  1.6918
  427MPD2    H2 6373   1.560   0.844  15.031 -0.7563 -1.1801  0.5430
  427MPD2    H3 6374   1.419   1.028  14.944  0.6786  1.1801  3.4897
  427MPD2     N 6375   1.040   0.845  15.078  0.1935 -0.3417  0.4905
  427MPD2    H5 6376   0.999   0.916  15.019  0.6313 -0.7311 -0.2850
  427MPD2    N1 6377   1.454   0.644  15.184 -0.0488  0.3226 -0.0022
  427MPD2    H7 6378   1.392   0.570  15.215 -0.1340 -0.5758 -2.2807
  428TMC3    C1 6379   1.622   0.508  15.268 -0.4026  0.1512  0.4389
  428TMC3    C2 6380   1.553   0.391  15.236 -0.4499  0.2038 -0.0999
  428TMC3    C3 6381   1.603   0.277  15.296 -0.2067  0.2080 -0.6702
  428TMC3    C4 6382   1.735   0.504  15.347  0.7578  0.0164 -0.0434
  428TMC3    C5 6383   1.777   0.390  15.411  0.6832 -0.0592  0.2313
  428TMC3    C6 6384   1.708   0.276  15.389  0.7088 -0.4253 -0.4722
  428TMC3     C 6385   1.584   0.634  15.207  0.2011 -0.3584  0.2971
  428TMC3     O 6386   1.669   0.721  15.191 -0.0522 -0.2889  0.2301
  428TMC3     H 6387   1.468   0.394  15.170  0.4768  2.6030 -1.1864
  428TMC3    H1 6388   1.790   0.596  15.360 -2.1054  1.4371  2.0252
  428TMC3    H2 6389   1.743   0.185  15.436  1.6100  0.0246 -0.2712
  428TMC3    C7 6390   1.900   0.393  15.483 -0.1413  0.6413 -0.4679
  428TMC3    C8 6391   1.545   0.145  15.261  0.2594 -0.7459  0.4414
  428TMC3    O1 6392   1.909   0.330  15.587 -0.0183  0.0280 -0.6397
  428TMC3    O2 6393   1.581   0.057  15.337 -0.6678 -0.9740  0.0173
  429MPD2     C 6394   3.051   1.316  17.370 -0.3324  0.5258 -0.0673
  429MPD2    C1 6395   2.986   1.305  17.244  0.2342 -0.1130  0.6184
  429MPD2    C2 6396   3.005   1.408  17.151  0.5343 -0.5527 -0.1370
  429MPD2    C3 6397   3.081   1.523  17.188  0.0777  0.3548  0.3860
  429MPD2    C4 6398   3.150   1.527  17.314 -0.1343  0.5352  0.5002
  429MPD2    C5 6399   3.140   1.418  17.401  0.0308  0.4317  0.0606
  429MPD2     H 6400   2.935   1.414  17.069 -0.3427 -0.1224  0.6409
  429MPD2    H1 6401   3.201   1.608  17.365  0.5048 -0.0868  0.8492
  429MPD2    H2 6402   3.019   1.250  17.449 -0.9960  0.2623 -0.5551
  429MPD2    H3 6403   3.179   1.422  17.502  0.3907  1.2620 -0.1121
  429MPD2     N 6404   3.068   1.643  17.112  0.3015  0.2683 -0.2918
  429MPD2    H5 6405   3.014   1.646  17.026  2.7515 -2.9482 -1.9330
  429MPD2    N1 6406   2.893   1.206  17.214 -0.1224 -0.1760  0.5800
  429MPD2    H7 6407   2.837   1.219  17.130  2.3123  1.4409 -0.7947
  430TMC3    C1 6408   3.129   1.846  17.015  0.0014 -0.2019  0.5493
  430TMC3    C2 6409   3.026   1.849  16.932 -0.4251 -0.1567 -0.3097
  430TMC3    C3 6410   3.049   1.856  16.793  0.6255  0.8712  0.0583
  430TMC3    C4 6411   3.257   1.887  16.972  0.2136  0.3193 -0.1363
  430TMC3    C5 6412   3.274   1.901  16.838  0.6620  0.4212 -0.3405
  430TMC3    C6 6413   3.174   1.891  16.750  0.2404  0.5214  0.4920
  430TMC3     C 6414   3.142   1.759  17.126  0.4478  0.5355 -0.0238
  430TMC3     O 6415   3.228   1.787  17.213  0.2573 -0.0933  0.0211
  430TMC3     H 6416   2.926   1.834  16.972 -0.7018 -0.5462 -1.1434
  430TMC3    H1 6417   3.338   1.898  17.043  2.3678 -0.0721 -2.5507
  430TMC3    H2 6418   3.195   1.899  16.643  0.2224 -0.7535  0.3953
  430TMC3    C7 6419   3.398   1.847  16.787 -0.0725 -0.5024  0.2386
  430TMC3    C8 6420   2.942   1.831  16.693 -0.0492 -0.2408 -1.1014
  430TMC3    O1 6421   3.379   1.763  16.698  0.1934 -0.2475  0.0147
  430TMC3    O2 6422   2.988   1.801  16.583 -0.3461  0.7422  0.0488
  431MPD2     C 6423   3.457   0.836  12.451 -0.0659  0.0256 -0.7996
  431MPD2    C1 6424   3.518   0.808  12.327 -0.5843  0.1088  0.4098
  431MPD2    C2 6425   3.446   0.740  12.233 -0.6062 -0.0335  0.2992
  431MPD2    C3 6426   3.319   0.699  12.254  0.2867 -0.9225 -0.4671
  431MPD2    C4 6427   3.266   0.707  12.380  0.1335 -0.5068  0.6251
  431MPD2    C5 6428   3.338   0.773  12.479 -0.1442 -0.8265  0.1535
  431MPD2     H 6429   3.500   0.711  12.143  2.7054 -0.4487  2.4388
  431MPD2    H1 6430   3.167   0.679  12.412  0.2129 -0.1924  1.1515
  431MPD2    H2 6431   3.500   0.888  12.535  1.1178 -0.5296 -1.0649
  431MPD2    H3 6432   3.286   0.783  12.573  3.0594 -1.1668  1.9553
  431MPD2     N 6433   3.241   0.624  12.166 -0.8807  0.1935  0.5308
  431MPD2    H5 6434   3.159   0.571  12.195  0.4539 -1.8583  0.5610
  431MPD2    N1 6435   3.643   0.871  12.286  0.5355  0.2268 -0.3622
  431MPD2    H7 6436   3.671   0.857  12.190  1.2097  0.2897 -0.1735
  432TMC3    C1 6437   3.200   0.513  11.959 -0.0423 -0.5228 -0.0598
  432TMC3    C2 6438   3.248   0.490  11.836 -0.7180 -0.4285 -0.2344
  432TMC3    C3 6439   3.226   0.367  11.784  0.5169  0.6135 -0.2891
  432TMC3    C4 6440   3.130   0.420  12.033 -1.2379  0.3728  0.1441
  432TMC3    C5 6441   3.111   0.293  11.985  0.3334  0.1898  0.0980
  432TMC3    C6 6442   3.157   0.264  11.857 -0.6074  0.1591 -0.4091
  432TMC3     C 6443   3.261   0.626  12.029 -0.2075 -0.0833 -0.0036
  432TMC3     O 6444   3.342   0.698  11.967 -0.4990 -0.3223  0.3820
  432TMC3     H 6445   3.309   0.563  11.784 -2.1892  0.0746 -1.2410
  432TMC3    H1 6446   3.096   0.440  12.134  1.7149 -0.1307  1.2260
  432TMC3    H2 6447   3.139   0.162  11.825 -0.4904 -0.6491  2.0621
  432TMC3    C7 6448   3.068   0.189  12.072  0.5094 -0.6320 -0.4716
  432TMC3    C8 6449   3.306   0.318  11.675  0.2220 -0.3257 -0.2468
  432TMC3    O1 6450   3.015   0.100  12.011  0.0743 -0.0131 -0.2302
  432TMC3    O2 6451   3.255   0.224  11.615  0.0470  0.4811  0.2118
  433MPD2     C 6452   2.308   4.438  10.722 -0.3790  0.5560  0.2942
  433MPD2    C1 6453   2.362   4.335  10.796 -0.7384  0.4940 -1.0226
  433MPD2    C2 6454   2.419   4.375  10.912  0.5370 -0.8858  1.1894
  433MPD2    C3 6455   2.428   4.508  10.953  0.3955 -0.2093  0.4513
  433MPD2    C4 6456   2.384   4.608  10.867  0.7509 -0.1979 -0.2551
  433MPD2    C5 6457   2.314   4.570  10.759 -0.2861 -0.2467  0.2203
  433MPD2     H 6458   2.470   4.302  10.974 -0.1287 -2.4699 -0.1087
  433MPD2    H1 6459   2.401   4.712  10.895  2.9633  0.3450 -3.7029
  433MPD2    H2 6460   2.248   4.428  10.632  1.0981  1.6692 -0.8105
  433MPD2    H3 6461   2.253   4.640  10.703 -0.6208  0.2104  1.1627
  433MPD2     N 6462   2.488   4.531  11.082 -0.0277 -0.1310 -0.0085
  433MPD2    H5 6463   2.502   4.442  11.130  0.9959 -0.0985 -0.2381
  433MPD2    N1 6464   2.346   4.194  10.773 -0.3510  0.0831  0.6067
  433MPD2    H7 6465   2.368   4.134  10.851  1.1348 -2.0988 -1.4838
  434TMC3    C1 6466   2.272   4.002  10.664 -0.3460 -0.2825  0.2908
  434TMC3    C2 6467   2.328   3.926  10.759 -0.2139 -0.6349 -0.1547
  434TMC3    C3 6468   2.313   3.786  10.748 -0.5546 -0.2645  0.4133
  434TMC3    C4 6469   2.216   3.947  10.547  0.1169  0.0096 -0.6356
  434TMC3    C5 6470   2.197   3.812  10.542 -0.0072 -0.6880 -0.5674
  434TMC3    C6 6471   2.244   3.728  10.649  0.2236 -0.4576 -0.1490
  434TMC3     C 6472   2.294   4.145  10.653 -0.1043 -0.1965  0.5729
  434TMC3     O 6473   2.261   4.203  10.551  0.1124 -0.4640  0.3549
  434TMC3     H 6474   2.380   3.971  10.843  0.1157 -0.6370 -0.3579
  434TMC3    H1 6475   2.179   4.002  10.462  0.3410  2.8340  1.0768
  434TMC3    H2 6476   2.251   3.620  10.642 -1.0152 -0.5548  0.1503
  434TMC3    C7 6477   2.117   3.745  10.447  0.8962  1.0531 -0.0315
  434TMC3    C8 6478   2.398   3.710  10.837 -0.0246 -1.1178  0.3791
  434TMC3    O1 6479   2.048   3.822  10.381 -0.2202 -0.0081 -0.2932
  434TMC3    O2 6480   2.490   3.779  10.882 -0.1921 -0.0567 -0.0234
  435MPD2     C 6481   4.509   4.027  15.327  0.9223  0.5934 -0.4973
  435MPD2    C1 6482   4.490   4.023  15.465 -0.8172  0.1255 -0.5080
  435MPD2    C2 6483   4.606   3.984  15.538  0.6207 -0.7807 -0.8264
  435MPD2    C3 6484   0.005   3.952  15.480 -0.3426  0.2273  0.3660
  435MPD2    C4 6485   0.016   3.958  15.343  0.2087 -0.2729 -1.0504
  435MPD2    C5 6486   4.633   3.993  15.263 -1.0347  0.5685  0.1224
  435MPD2     H 6487   4.586   3.982  15.645  0.3775  0.7968 -0.8478
  435MPD2    H1 6488   0.112   3.934  15.299  1.6189  3.3025  0.1084
  435MPD2    H2 6489   4.428   4.062  15.263  1.7301  1.5919 -0.9824
  435MPD2    H3 6490   4.657   3.994  15.157  1.9644 -0.7893  0.7909
  435MPD2     N 6491   0.108   3.918  15.575 -0.2822  0.4115 -0.3074
  435MPD2    H5 6492   0.083   3.905  15.672  0.2008  0.1992 -0.2104
  435MPD2    N1 6493   4.368   4.054  15.527 -0.4415  0.5801  0.4857
  435MPD2    H7 6494   4.381   4.067  15.626  3.0610 -3.1007  0.5057
  436TMC3    C1 6495   4.036   4.104  15.764 -0.4568  0.4921  0.3120
  436TMC3    C2 6496   4.144   4.082  15.684 -0.1995  0.9989  0.3046
  436TMC3    C3 6497   4.136   4.121  15.553 -0.0799 -0.6014  0.2188
  436TMC3    C4 6498   3.922   4.176  15.722  0.7093 -0.1023  0.4315
  436TMC3    C5 6499   3.915   4.202  15.582  0.0490 -0.0865 -0.3834
  436TMC3    C6 6500   4.022   4.173  15.497  0.2427  0.1823 -1.2120
  436TMC3     C 6501   4.055   4.085  15.908 -0.4364 -0.2019 -0.1315
  436TMC3     O 6502   4.121   3.991  15.940 -0.5938  0.3613 -0.8534
  436TMC3     H 6503   4.237   4.057  15.733 -0.3111  3.4398  1.7307
  436TMC3    H1 6504   3.838   4.187  15.790  0.7287  3.7977 -0.1290
  436TMC3    H2 6505   4.012   4.184  15.390 -2.2024  1.0622 -0.8862
  436TMC3    C7 6506   3.786   4.243  15.528  0.2782  0.3982 -0.5623
  436TMC3    C8 6507   4.252   4.101  15.470  0.2617  0.8395  0.1929
  436TMC3    O1 6508   3.707   4.287  15.606  0.1982 -0.8579  0.3208
  436TMC3    O2 6509   4.239   4.128  15.350  0.3522  0.4528 -0.1889
  437TMC3    C1 6510   3.201   1.696  12.272  0.3831  1.0936  0.5724
  437TMC3    C2 6511   3.132   1.800  12.216 -0.2459  0.4846 -0.4119
  437TMC3    C3 6512   3.148   1.818  12.080  1.4782  0.2846 -0.8048
  437TMC3    C4 6513   3.286   1.619  12.197  0.1711  0.0236  0.6747
  437TMC3    C5 6514   3.294   1.643  12.063 -0.8050  0.0349  0.1986
  437TMC3    C6 6515   3.230   1.746  12.007  0.1731 -0.2593 -0.0750
  437TMC3     C 6516   3.147   1.640  12.396  0.0023 -0.0416 -0.9593
  437TMC3     O 6517   3.222   1.563  12.457 -0.1107  0.1347  0.4148
  437TMC3     H 6518   3.073   1.871  12.273 -1.3555  0.3079 -1.3397
  437TMC3    H1 6519   3.336   1.538  12.249  4.3230  1.2578 -1.4467
  437TMC3    H2 6520   3.239   1.755  11.900  1.1606  2.2158  0.2251
  437TMC3    C7 6521   3.411   1.609  11.988 -0.1151  0.1294 -0.5499
  437TMC3    C8 6522   3.127   1.955  12.030  0.2272 -0.4648  0.4970
  437TMC3    O1 6523   3.426   1.628  11.868 -0.4960  0.4445  0.1796
  437TMC3    O2 6524   3.050   2.031  12.094 -0.0025  0.3233  0.2756
  438MPD2     C 6525   0.620   2.330  17.167 -0.3958  0.4108  0.2616
  438MPD2    C1 6526   0.728   2.240  17.154  0.1080 -0.6961  0.2178
  438MPD2    C2 6527   0.766   2.160  17.259 -0.1663 -0.1107  0.3182
  438MPD2    C3 6528   0.701   2.166  17.381 -0.2581 -0.4389 -0.3584
  438MPD2    C4 6529   0.600   2.262  17.387  0.1706  0.9813  0.4837
  438MPD2    C5 6530   0.564   2.341  17.286  0.1714 -0.2888 -0.2929
  438MPD2     H 6531   0.853   2.096  17.249  0.7845  1.4297 -1.1445
  438MPD2    H1 6532   0.550   2.289  17.479 -0.9094 -0.5262  0.3454
  438MPD2    H2 6533   0.580   2.393  17.089  0.3118  2.3737  1.4818
  438MPD2    H3 6534   0.481   2.411  17.293  1.0472  0.6480  0.8017
  438MPD2     N 6535   0.756   2.104  17.500 -0.4685  0.5364  0.4066
  438MPD2    H5 6536   0.716   2.135  17.588 -0.5484 -0.7374  0.8152
  438MPD2    N1 6537   0.802   2.226  17.037 -0.4906 -0.2144 -0.2459
  438MPD2    H7 6538   0.865   2.147  17.041 -2.8420 -2.0486  0.5576
  439TMC3    C1 6539   0.888   2.232  16.825 -0.6374 -0.0205  1.0051
  439TMC3    C2 6540   0.845   2.178  16.703 -0.0726  0.5759  0.1727
  439TMC3    C3 6541   0.907   2.071  16.648 -0.0193  0.6721 -0.0941
  439TMC3    C4 6542   0.999   2.175  16.885  0.2458  0.1152 -0.4079
  439TMC3    C5 6543   1.072   2.074  16.822  0.3561 -0.0138 -0.4968
  439TMC3    C6 6544   1.019   2.023  16.705 -0.4916 -0.3886  0.1381
  439TMC3     C 6545   0.786   2.288  16.917  0.5782 -0.6307  0.5337
  439TMC3     O 6546   0.687   2.342  16.871  0.1810 -0.4151  0.3866
  439TMC3     H 6547   0.750   2.216  16.666 -0.7462  0.7489  2.0410
  439TMC3    H1 6548   1.035   2.213  16.980 -0.7300 -1.7575  0.6910
  439TMC3    H2 6549   1.071   1.943  16.653 -0.1202  0.2425 -0.4676
  439TMC3    C7 6550   1.199   2.029  16.876 -0.4061  0.5469 -0.0793
  439TMC3    C8 6551   0.885   2.012  16.512  0.5881 -0.0969 -0.3913
  439TMC3    O1 6552   1.228   2.084  16.979 -0.0931 -0.6759 -0.6260
  439TMC3    O2 6553   0.906   1.895  16.496  0.7295 -0.2001  0.1977
  440MPD2     C 6554   4.442   2.621  14.428 -0.2313  0.0984  0.5629
  440MPD2    C1 6555   4.413   2.550  14.544  0.9278  0.2768  0.3588
  440MPD2    C2 6556   4.514   2.484  14.610  0.6161 -0.2543  0.0387
  440MPD2    C3 6557   4.645   2.487  14.566  0.3092 -0.7748 -0.4551
  440MPD2    C4 6558   4.675   2.563  14.450  0.3741  0.0039  0.4822
  440MPD2    C5 6559   4.571   2.626  14.388  1.1269  0.1406  0.7314
  440MPD2     H 6560   4.497   2.437  14.706 -0.9585 -2.4484 -1.3166
  440MPD2    H1 6561   0.045   2.571  14.400 -0.0844  0.8191 -0.2577
  440MPD2    H2 6562   4.362   2.666  14.370  0.7980  2.4818  0.9852
  440MPD2    H3 6563   4.598   2.665  14.291  0.2969  1.7758  1.1550
  440MPD2     N 6564   0.021   2.427  14.651 -0.3202 -0.7834  0.5386
  440MPD2    H5 6565   4.715   2.376  14.733  1.1118 -0.4442  1.3046
  440MPD2    N1 6566   4.283   2.538  14.599  0.3096  0.4437 -0.2227
  440MPD2    H7 6567   4.280   2.488  14.687  2.0051 -0.7430 -0.8204
  441TMC3    C1 6568   0.215   2.394  14.768  0.2548 -0.2739 -0.0170
  441TMC3    C2 6569   0.296   2.479  14.834  0.1720 -1.1089 -0.5462
  441TMC3    C3 6570   0.306   2.472  14.970 -0.3010  0.2571  0.6378
  441TMC3    C4 6571   0.143   2.295  14.836 -0.0123  0.2326 -0.1995
  441TMC3    C5 6572   0.186   2.268  14.964 -0.1853  0.2946  0.2257
  441TMC3    C6 6573   0.263   2.359  15.039 -0.2263 -0.0674  0.6606
  441TMC3     C 6574   0.152   2.454  14.653  0.2647  0.5832  0.2726
  441TMC3     O 6575   0.212   2.538  14.586  0.0448 -0.2233 -0.7635
  441TMC3     H 6576   0.338   2.562  14.778 -0.3762 -0.7978 -0.4935
  441TMC3    H1 6577   0.091   2.230  14.768 -0.3554  1.9676 -1.5998
  441TMC3    H2 6578   0.293   2.351  15.143  1.0744  1.3489  0.4074
  441TMC3    C7 6579   0.108   2.173  15.043 -0.5016  0.9184  0.6713
  441TMC3    C8 6580   0.310   2.595  15.040  0.1896 -0.7572 -0.8905
  441TMC3    O1 6581   4.723   2.146  14.996 -0.2390 -0.1451  0.3068
  441TMC3    O2 6582   0.424   2.641  15.051 -0.0610 -0.2449 -0.3511
  442MPD2     C 6583   2.762   3.509  16.341  0.0605  0.0220 -0.3740
  442MPD2    C1 6584   2.635   3.450  16.341  0.3183  0.0089  0.0140
  442MPD2    C2 6585   2.630   3.320  16.299  0.5781  1.0739  0.7035
  442MPD2    C3 6586   2.745   3.243  16.267  0.0027  0.1780  0.3350
  442MPD2    C4 6587   2.866   3.304  16.291  0.1338 -0.5563  0.3926
  442MPD2    C5 6588   2.875   3.438  16.320  0.0133 -0.3004 -0.7596
  442MPD2     H 6589   2.530   3.280  16.283  1.7129 -0.9788 -1.2335
  442MPD2    H1 6590   2.956   3.252  16.260  2.4819  3.3452  0.6593
  442MPD2    H2 6591   2.773   3.616  16.356 -0.9780  0.1802 -0.7271
  442MPD2    H3 6592   2.971   3.488  16.321 -0.6960  1.0409  0.8180
  442MPD2     N 6593   2.745   3.112  16.215  0.6817  0.1225  0.4008
  442MPD2    H5 6594   2.836   3.075  16.189  0.0431 -0.3629 -1.1227
  442MPD2    N1 6595   2.517   3.524  16.356  0.5522  0.3076 -0.1370
  442MPD2    H7 6596   2.437   3.473  16.319 -1.5453  2.7540  1.0068
  443TMC3    C1 6597   2.392   3.710  16.413 -0.1103  0.0877 -0.5238
  443TMC3    C2 6598   2.336   3.707  16.288  0.9641 -0.6462  0.2659
  443TMC3    C3 6599   2.204   3.742  16.274 -0.8308  0.0519  0.1448
  443TMC3    C4 6600   2.320   3.729  16.524  0.4225  1.3073  0.6177
  443TMC3    C5 6601   2.182   3.747  16.509 -0.5025 -0.2135  0.1839
  443TMC3    C6 6602   2.128   3.763  16.385 -0.0697 -0.3032  0.5355
  443TMC3     C 6603   2.513   3.642  16.429  1.1982  0.1969  0.2209
  443TMC3     O 6604   2.582   3.676  16.524 -0.0344  0.1226 -0.0534
  443TMC3     H 6605   2.393   3.676  16.201 -1.2578 -2.7925 -0.4019
  443TMC3    H1 6606   2.361   3.704  16.620  1.7788 -0.0453 -0.3218
  443TMC3    H2 6607   2.026   3.793  16.366  0.2326  0.4691  0.1521
  443TMC3    C7 6608   2.107   3.665  16.601 -0.6207 -0.0938  0.0396
  443TMC3    C8 6609   2.145   3.645  16.181 -0.0588 -0.2845 -0.1989
  443TMC3    O1 6610   2.171   3.615  16.691  0.2512  0.5725  0.0063
  443TMC3    O2 6611   2.121   3.540  16.237  0.3129  0.0640 -0.2802
  444MPD2     C 6612   3.124   2.661  16.652 -0.2990  0.3519 -0.0461
  444MPD2    C1 6613   3.037   2.563  16.682 -0.8519  0.2107 -0.1044
  444MPD2    C2 6614   3.061   2.431  16.641 -0.0746 -0.4882 -0.0319
  444MPD2    C3 6615   3.180   2.396  16.584 -0.5146 -0.4398  0.2909
  444MPD2    C4 6616   3.270   2.502  16.548 -0.2979 -0.3387  0.1547
  444MPD2    C5 6617   3.235   2.632  16.575  0.0303  0.4687  0.1124
  444MPD2     H 6618   2.986   2.354  16.657 -0.3057 -0.6361 -1.8505
  444MPD2    H1 6619   3.358   2.483  16.488  0.4565  2.8617  0.2426
  444MPD2    H2 6620   3.116   2.765  16.680  0.7280  0.5494 -0.5019
  444MPD2    H3 6621   3.306   2.710  16.551 -1.1890  1.0737 -1.4968
  444MPD2     N 6622   3.199   2.259  16.538 -0.6539 -0.2670  0.3006
  444MPD2    H5 6623   3.120   2.196  16.542  0.2072 -1.2585  1.5640
  444MPD2    N1 6624   2.920   2.598  16.754 -0.3683  0.0196 -0.4071
  444MPD2    H7 6625   2.904   2.695  16.782 -0.8498 -0.2505  0.2590
  445TMC3    C1 6626   3.308   2.067  16.437  0.1230  0.5056  0.1219
  445TMC3    C2 6627   3.186   2.027  16.389  0.0810 -0.2058 -0.6065
  445TMC3    C3 6628   3.171   1.897  16.352 -0.6353  0.2557 -0.1182
  445TMC3    C4 6629   3.412   1.985  16.447  0.4487 -0.4624  1.2160
  445TMC3    C5 6630   3.402   1.850  16.410 -0.1318 -0.4594 -0.1454
  445TMC3    C6 6631   3.279   1.811  16.360  0.5682 -0.0121 -0.0767
  445TMC3     C 6632   3.317   2.209  16.489 -0.2962 -0.6619 -0.0516
  445TMC3     O 6633   3.428   2.237  16.526  1.1111 -0.6015  0.4142
  445TMC3     H 6634   3.112   2.107  16.383 -0.7165 -1.0972 -2.7388
  445TMC3    H1 6635   3.504   2.025  16.489  1.1023  0.4611 -1.1172
  445TMC3    H2 6636   3.272   1.707  16.329 -0.8305 -0.3393  1.3253
  445TMC3    C7 6637   3.516   1.776  16.372  0.3895 -0.8395 -0.3291
  445TMC3    C8 6638   3.054   1.851  16.276  0.8244 -0.0500  1.1563
  445TMC3    O1 6639   3.510   1.668  16.312  0.0725  0.6117  0.3073
  445TMC3    O2 6640   3.069   1.750  16.206  0.3198  0.2409 -0.0769
  446MPD2     C 6641   2.234   3.707  11.428  0.0190  0.0189 -0.0585
  446MPD2    C1 6642   2.219   3.699  11.292 -0.3114  0.2031 -0.0500
  446MPD2    C2 6643   2.320   3.758  11.217 -0.1332 -0.2437 -0.8229
  446MPD2    C3 6644   2.424   3.820  11.269 -0.0541  0.2741 -0.0007
  446MPD2    C4 6645   2.437   3.813  11.407  0.0377 -0.0252  0.8635
  446MPD2    C5 6646   2.346   3.755  11.487  0.3015  0.0719  0.2018
  446MPD2     H 6647   2.316   3.765  11.109  2.3038 -0.1723 -0.9115
  446MPD2    H1 6648   2.514   3.856  11.469  0.5267 -1.5883  1.3499
  446MPD2    H2 6649   2.156   3.664  11.489  0.2606 -0.4085 -0.0478
  446MPD2    H3 6650   2.377   3.753  11.591  2.6530 -0.5593 -0.4947
  446MPD2     N 6651   2.518   3.888  11.188 -0.1197 -0.0033 -0.1278
  446MPD2    H5 6652   2.491   3.918  11.094  0.0544 -0.0190 -0.1822
  446MPD2    N1 6653   2.121   3.630  11.218  0.1541 -0.4042 -0.3799
  446MPD2    H7 6654   2.135   3.637  11.118  3.0268 -0.0834  0.0502
  447TMC3    C1 6655   2.719   3.972  11.122  0.3676  0.0988  0.3998
  447TMC3    C2 6656   2.676   4.013  10.998  0.2128 -0.2161 -0.6041
  447TMC3    C3 6657   2.762   4.040  10.897  0.2182  0.0850 -0.4531
  447TMC3    C4 6658   2.850   3.977  11.152 -0.1455 -0.1972  0.0222
  447TMC3    C5 6659   2.936   4.016  11.053 -0.2537 -0.3377  0.4706
  447TMC3    C6 6660   2.897   4.036  10.919  1.2125 -0.3321 -0.2812
  447TMC3     C 6661   2.637   3.932  11.230  0.0928 -0.4018 -0.0701
  447TMC3     O 6662   2.698   3.910  11.332 -0.4010 -0.1009 -0.5766
  447TMC3     H 6663   2.572   3.994  10.973 -0.4601  1.0583  1.2091
  447TMC3    H1 6664   2.889   3.952  11.250  0.8920  1.8047  0.1187
  447TMC3    H2 6665   2.974   4.041  10.843  0.9203  3.0707 -0.3264
  447TMC3    C7 6666   3.078   3.989  11.079  0.5308 -0.5297  0.4703
  447TMC3    C8 6667   2.709   4.000  10.769  0.3369 -0.5871 -0.1936
  447TMC3    O1 6668   3.147   3.959  10.982 -0.2784  0.4401  0.7379
  447TMC3    O2 6669   2.603   4.039  10.733 -0.1716 -0.4306 -0.2376
  448TMC3    C1 6670   1.128   3.779  16.660 -0.4686 -0.4811 -0.2284
  448TMC3    C2 6671   1.076   3.656  16.613  0.4452  1.4089  0.3934
  448TMC3    C3 6672   1.148   3.547  16.639  0.3490 -0.7186  0.1286
  448TMC3    C4 6673   1.251   3.797  16.715  1.0317  0.7394 -0.4175
  448TMC3    C5 6674   1.318   3.681  16.728  0.2289  0.1660 -0.7170
  448TMC3    C6 6675   1.270   3.559  16.697  0.1194 -0.0176  0.0327
  448TMC3     C 6676   1.052   3.893  16.632 -0.2898 -0.0166  0.6360
  448TMC3     O 6677   0.945   3.864  16.584 -0.0505  0.3991  0.5997
  448TMC3     H 6678   0.970   3.648  16.588  0.1321  0.9051  1.8683
  448TMC3    H1 6679   1.287   3.886  16.766  1.8818 -0.8960  1.8728
  448TMC3    H2 6680   1.336   3.475  16.714  0.6783  0.5494  0.6842
  448TMC3    C7 6681   1.421   3.665  16.832 -0.0652 -0.0215 -0.8022
  448TMC3    C8 6682   1.093   3.412  16.633 -0.4201  0.5200  0.0670
  448TMC3    O1 6683   1.523   3.732  16.820 -0.0680 -0.1603  0.1690
  448TMC3    O2 6684   1.149   3.328  16.703 -0.2324  0.2575  0.1591
  449MPD2     C 6685   2.222   2.062  13.894  0.5364 -0.4672 -0.2737
  449MPD2    C1 6686   2.123   2.027  13.803  0.0204 -0.3757  0.6541
  449MPD2    C2 6687   2.028   1.941  13.855  0.3464  0.0465  0.3563
  449MPD2    C3 6688   2.014   1.899  13.986 -0.2362 -0.4605 -0.0289
  449MPD2    C4 6689   2.124   1.932  14.068 -0.2403 -0.5472 -0.2069
  449MPD2    C5 6690   2.229   2.013  14.023  0.0408  0.0693  0.5673
  449MPD2     H 6691   1.943   1.918  13.791  0.3228  0.5915  0.1964
  449MPD2    H1 6692   2.122   1.895  14.170  0.3679 -0.8153 -0.2873
  449MPD2    H2 6693   2.311   2.120  13.875 -1.1058  1.1016 -3.1660
  449MPD2    H3 6694   2.311   2.033  14.090 -0.0178  3.1580 -0.2821
  449MPD2     N 6695   1.900   1.821  14.009  0.6503 -0.0917 -0.0708
  449MPD2    H5 6696   1.848   1.801  13.924  0.8522 -4.5504  0.8621
  449MPD2    N1 6697   2.124   2.060  13.663 -0.1687 -0.2339 -0.0808
  449MPD2    H7 6698   2.070   1.995  13.607 -2.7140  1.4377  0.4114
  450TMC3    C1 6699   2.183   2.136  13.450 -0.2614  0.0835 -0.1333
  450TMC3    C2 6700   2.294   2.096  13.375  0.8474 -0.1610  0.2829
  450TMC3    C3 6701   2.292   1.982  13.302  0.8404  0.6541  0.2415
  450TMC3    C4 6702   2.066   2.077  13.416 -0.2624  0.0863 -0.1090
  450TMC3    C5 6703   2.067   1.962  13.339  0.3647 -0.2519  0.4322
  450TMC3    C6 6704   2.177   1.918  13.266 -0.6656 -0.0049 -0.5787
  450TMC3     C 6705   2.212   2.140  13.596  0.3909 -0.9425 -0.2349
  450TMC3     O 6706   2.321   2.179  13.633 -0.4109  0.1766  0.1084
  450TMC3     H 6707   2.391   2.135  13.401  0.1635  0.8155  1.3930
  450TMC3    H1 6708   1.975   2.101  13.469  0.1863 -2.6991  1.9661
  450TMC3    H2 6709   2.180   1.814  13.233  0.5067  0.2529 -1.2859
  450TMC3    C7 6710   1.983   1.854  13.398  0.3841 -0.4574 -0.0236
  450TMC3    C8 6711   2.408   1.962  13.221  0.2566 -0.3870  0.0971
  450TMC3    O1 6712   1.965   1.881  13.517  0.3035 -0.1952 -0.3909
  450TMC3    O2 6713   2.433   1.847  13.186 -0.6742  0.0761 -0.2969
  451MPD2     C 6714   4.206   1.124   1.885 -0.5116  0.5958  0.4221
  451MPD2    C1 6715   4.172   1.138   1.753 -0.2539  0.0210 -0.1391
  451MPD2    C2 6716   4.209   1.032   1.671 -0.7423  0.1197  0.1043
  451MPD2    C3 6717   4.271   0.922   1.718  0.1336  0.4026  0.3614
  451MPD2    C4 6718   4.303   0.913   1.854  0.3258  0.2842  0.6835
  451MPD2    C5 6719   4.272   1.012   1.939 -0.0641  0.8443 -0.5406
  451MPD2     H 6720   4.187   1.039   1.565  1.0558 -0.0923 -0.2828
  451MPD2    H1 6721   4.352   0.827   1.899  0.6567 -0.7422 -1.6177
  451MPD2    H2 6722   4.189   1.199   1.962 -0.0164  0.8132  0.3198
  451MPD2    H3 6723   4.315   1.015   2.039 -0.3099  0.0300 -0.4057
  451MPD2     N 6724   4.303   0.806   1.640  0.3788 -0.7168 -0.0729
  451MPD2    H5 6725   4.325   0.721   1.690  1.2576 -0.6242 -0.3006
  451MPD2    N1 6726   4.109   1.256   1.722  0.0551  0.0825  0.0119
  451MPD2    H7 6727   4.085   1.322   1.795  0.4258 -1.7294  1.7834
  452TMC3    C1 6728   4.328   0.674   1.454 -0.3790  0.1011  0.6778
  452TMC3    C2 6729   4.324   0.568   1.545  0.3033  0.0778 -0.8490
  452TMC3    C3 6730   4.350   0.445   1.495  1.2914  0.7689 -0.2899
  452TMC3    C4 6731   4.389   0.661   1.329  0.4968  0.6693  0.0628
  452TMC3    C5 6732   4.429   0.532   1.294  0.2724  0.2302 -0.8265
  452TMC3    C6 6733   4.404   0.422   1.371  0.8762  0.5629  0.0281
  452TMC3     C 6734   4.296   0.806   1.501 -1.3655 -0.8176 -1.0857
  452TMC3     O 6735   4.270   0.895   1.419  0.4205  0.1907 -1.1189
  452TMC3     H 6736   4.258   0.568   1.631  2.2357  0.4120  0.6439
  452TMC3    H1 6737   4.399   0.747   1.263 -1.2253  1.5046  0.8931
  452TMC3    H2 6738   4.434   0.324   1.339  1.9636  1.0120 -0.3129
  452TMC3    C7 6739   4.455   0.523   1.151  0.7252 -0.4393  0.3020
  452TMC3    C8 6740   4.316   0.333   1.581 -0.6564  0.5877  0.1004
  452TMC3    O1 6741   4.397   0.604   1.080  0.3684  0.6063 -0.3375
  452TMC3    O2 6742   4.318   0.347   1.699 -0.4275 -0.6473  0.4124
  453TMC3    C1 6743   4.549   3.006  11.744  0.1109 -0.5812 -0.3400
  453TMC3    C2 6744   4.499   2.910  11.825  0.0105  1.1561  0.0344
  453TMC3    C3 6745   4.419   2.824  11.768  0.0084 -1.2437  0.0308
  453TMC3    C4 6746   4.514   3.037  11.611 -0.4558 -0.3677 -0.2037
  453TMC3    C5 6747   4.440   2.936  11.558  0.5089  0.1820  0.0563
  453TMC3    C6 6748   4.391   2.832  11.633 -0.1480  0.0077 -0.9983
  453TMC3     C 6749   4.671   3.069  11.782  0.0415 -0.6750 -0.0763
  453TMC3     O 6750   0.028   3.073  11.690  0.2046 -0.3455 -0.1793
  453TMC3     H 6751   4.540   2.902  11.925 -1.0005 -1.0588  0.2570
  453TMC3    H1 6752   4.566   3.115  11.557 -0.4493 -0.4302 -0.2882
  453TMC3    H2 6753   4.338   2.754  11.580 -1.2584  0.4270 -0.4998
  453TMC3    C7 6754   4.442   2.923  11.412 -0.8465  0.3196 -0.2662
  453TMC3    C8 6755   4.394   2.703  11.846 -0.2993  0.1009  0.0667
  453TMC3    O1 6756   4.397   2.816  11.367 -0.3320  0.2458 -0.0919
  453TMC3    O2 6757   4.383   2.720  11.969 -0.1910  0.2467 -0.3069
  454MPD2     C 6758   3.810   2.098  16.070  0.3077  0.1565  0.5452
  454MPD2    C1 6759   3.749   2.213  16.029 -0.3552 -0.0323  0.5577
  454MPD2    C2 6760   3.735   2.319  16.116 -0.7785 -0.0504 -0.0793
  454MPD2    C3 6761   3.786   2.307  16.250 -0.1780 -1.2871  0.3170
  454MPD2    C4 6762   3.859   2.193  16.283  0.8373  0.7231 -0.7739
  454MPD2    C5 6763   3.876   2.093  16.192 -0.1825 -0.0640 -0.0679
  454MPD2     H 6764   3.691   2.412  16.081  0.0080 -0.3976 -2.0080
  454MPD2    H1 6765   3.906   2.186  16.380 -0.3835  2.7505 -0.0271
  454MPD2    H2 6766   3.831   2.020  15.997 -2.0632 -1.2302  1.3412
  454MPD2    H3 6767   3.942   2.010  16.214 -1.0989 -0.7105  0.2619
  454MPD2     N 6768   3.758   2.398  16.353  0.1864 -0.4669  0.0388
  454MPD2    H5 6769   3.806   2.394  16.442 -2.3355  0.6393  1.4460
  454MPD2    N1 6770   3.673   2.220  15.909  0.6929 -0.3539 -0.0465
  454MPD2    H7 6771   3.634   2.310  15.883  1.9010  0.2287  0.1919
  455TMC3    C1 6772   3.551   2.487  16.262 -0.3494  0.1490 -0.1727
  455TMC3    C2 6773   3.505   2.609  16.232  0.0548  0.2829 -0.3088
  455TMC3    C3 6774   3.378   2.624  16.183  0.5594 -0.0849  1.1347
  455TMC3    C4 6775   3.475   2.376  16.246  0.6086  0.4275 -0.4514
  455TMC3    C5 6776   3.348   2.401  16.203  0.8763  0.1006 -0.8152
  455TMC3    C6 6777   3.301   2.515  16.163  0.1943  0.1880  0.0098
  455TMC3     C 6778   3.659   2.499  16.355  0.0748 -0.0202 -0.0988
  455TMC3     O 6779   3.640   2.591  16.434 -0.2699 -0.5746 -0.3341
  455TMC3     H 6780   3.566   2.697  16.251  0.3378 -0.0122  0.1400
  455TMC3    H1 6781   3.504   2.292  16.307  0.6740 -0.2149 -1.3562
  455TMC3    H2 6782   3.196   2.520  16.137  0.1120  0.6797  0.4383
  455TMC3    C7 6783   3.296   2.293  16.121  0.2820  0.6696  0.1429
  455TMC3    C8 6784   3.316   2.749  16.216 -0.5014 -0.4620  0.3375
  455TMC3    O1 6785   3.180   2.309  16.080  0.0262 -0.2859 -0.1057
  455TMC3    O2 6786   3.394   2.844  16.205 -0.3607  0.3531  0.3734
  456MPD2     C 6787   1.381   2.144  16.508 -0.5513  0.7211 -0.3318
  456MPD2    C1 6788   1.448   2.192  16.615 -0.9140  1.1054 -0.2011
  456MPD2    C2 6789   1.394   2.279  16.707 -0.0752  0.2861 -0.5199
  456MPD2    C3 6790   1.276   2.339  16.684 -0.3365 -0.3348 -0.5075
  456MPD2    C4 6791   1.200   2.288  16.581  0.3444 -0.0818  0.4130
  456MPD2    C5 6792   1.252   2.188  16.497  0.0905 -0.1125  0.2454
  456MPD2     H 6793   1.454   2.328  16.783 -0.5751 -1.5321  1.0302
  456MPD2    H1 6794   1.102   2.323  16.550  0.4131 -0.0553  0.2233
  456MPD2    H2 6795   1.413   2.060  16.448 -0.5673  0.2429  0.3308
  456MPD2    H3 6796   1.195   2.149  16.414  0.0935 -1.7102  0.9895
  456MPD2     N 6797   1.239   2.446  16.766  0.3994 -0.0919 -0.2330
  456MPD2    H5 6798   1.316   2.480  16.822  0.2480  1.5268 -1.0174
  456MPD2    N1 6799   1.578   2.137  16.626  0.4920  0.3871  0.4722
  456MPD2    H7 6800   1.608   2.079  16.548 -1.9196 -1.5500  0.9487
  457TMC3    C1 6801   1.107   2.620  16.861 -0.0948  0.1508 -0.2474
  457TMC3    C2 6802   1.032   2.725  16.831 -0.4822  0.0176  1.0362
  457TMC3    C3 6803   1.032   2.829  16.914  0.0094 -0.4067 -0.1821
  457TMC3    C4 6804   1.192   2.614  16.972 -0.4107 -0.0796  0.0682
  457TMC3    C5 6805   1.191   2.722  17.051  0.1972 -0.3310 -0.0427
  457TMC3    C6 6806   1.120   2.834  17.012  0.7868 -0.2522  0.7962
  457TMC3     C 6807   1.115   2.513  16.757 -0.1193  0.3911 -0.2527
  457TMC3     O 6808   1.020   2.493  16.681  0.3405 -0.5087  0.3356
  457TMC3     H 6809   0.979   2.729  16.737 -0.3663 -1.0244  0.9228
  457TMC3    H1 6810   1.258   2.531  16.989 -0.0246  0.4859  1.2982
  457TMC3    H2 6811   1.102   2.910  17.087 -3.2136 -0.5709  0.1141
  457TMC3    C7 6812   1.278   2.722  17.170 -0.6269 -0.1555  0.2085
  457TMC3    C8 6813   1.001   2.956  16.856 -0.0515 -1.1098 -0.2476
  457TMC3    O1 6814   1.302   2.612  17.224  0.6754  0.2693 -0.3351
  457TMC3    O2 6815   1.085   3.044  16.872  0.4669  0.4948  0.1113
  458MPD2     C 6816   3.918   1.532  12.043 -0.0336  0.1045  0.3936
  458MPD2    C1 6817   3.861   1.530  12.167 -0.1408  0.6364 -0.2391
  458MPD2    C2 6818   3.720   1.535  12.174  0.2910  0.5088 -0.0422
  458MPD2    C3 6819   3.643   1.551  12.062  0.4752 -0.1451  0.0170
  458MPD2    C4 6820   3.704   1.560  11.941 -0.0792 -0.3905  0.4702
  458MPD2    C5 6821   3.841   1.543  11.936  0.2843 -0.1542  0.1940
  458MPD2     H 6822   3.673   1.521  12.270  0.8124  0.1925  0.1653
  458MPD2    H1 6823   3.662   1.574  11.842  2.3658 -1.1737 -0.6817
  458MPD2    H2 6824   4.024   1.542  12.026  0.2524  0.6617  2.4244
  458MPD2    H3 6825   3.887   1.550  11.838  0.4827 -0.4322  0.2687
  458MPD2     N 6826   3.507   1.577  12.085  0.4544 -0.4077  0.0108
  458MPD2    H5 6827   3.474   1.578  12.181 -1.6179 -1.6145 -0.6919
  458MPD2    N1 6828   3.953   1.537  12.275  0.2318  0.0956  0.1526
  458MPD2    H7 6829   4.048   1.564  12.250 -0.7745  0.1690 -3.5472
  459TMC3    C1 6830   4.027   1.537  12.505 -0.3054 -0.2591 -0.1345
  459TMC3    C2 6831   4.099   1.658  12.486 -1.2899 -0.5016 -0.2643
  459TMC3    C3 6832   4.151   1.714  12.597  0.1335  0.1034  0.1689
  459TMC3    C4 6833   4.010   1.492  12.634 -0.2759  0.0483 -0.5013
  459TMC3    C5 6834   4.059   1.563  12.742  0.5246 -1.1921  0.1430
  459TMC3    C6 6835   4.132   1.677  12.724  0.0356  0.1250 -0.5086
  459TMC3     C 6836   3.924   1.514  12.407 -0.4263 -0.8829 -0.2638
  459TMC3     O 6837   3.821   1.470  12.455 -0.9816 -0.4876 -0.3093
  459TMC3     H 6838   4.101   1.713  12.393 -0.0030 -0.7659 -0.3856
  459TMC3    H1 6839   3.959   1.397  12.638 -1.1376  0.4577 -1.6826
  459TMC3    H2 6840   4.179   1.737  12.802  0.0976 -1.2476  0.4987
  459TMC3    C7 6841   4.022   1.516  12.873  0.6954  0.2089 -0.2918
  459TMC3    C8 6842   4.232   1.830  12.580  0.1657 -0.0635 -0.8310
  459TMC3    O1 6843   4.000   1.399  12.872  1.0461  0.0642  0.2911
  459TMC3    O2 6844   4.232   1.913  12.671 -0.1511  0.5807  0.0995
  460MPD2     C 6845   2.833   3.729  10.556 -0.1207  0.4721  0.0533
  460MPD2    C1 6846   2.749   3.827  10.593  0.1026 -0.1674 -0.4333
  460MPD2    C2 6847   2.645   3.861  10.510 -0.2745  0.9223 -0.7215
  460MPD2    C3 6848   2.623   3.793  10.392 -0.2055 -0.1841  0.1330
  460MPD2    C4 6849   2.715   3.689  10.354 -0.2796  0.8413 -0.0567
  460MPD2    C5 6850   2.814   3.655  10.442  1.4785  0.3234  0.7012
  460MPD2     H 6851   2.587   3.951  10.527  0.3039  1.7298 -2.9997
  460MPD2    H1 6852   2.699   3.632  10.263  1.6481  2.5382 -1.4450
  460MPD2    H2 6853   2.916   3.706  10.621 -0.3702  1.5670  0.7598
  460MPD2    H3 6854   2.879   3.571  10.420 -2.0625 -1.5499 -2.6847
  460MPD2     N 6855   2.511   3.834  10.315  0.5685  0.3191  0.3786
  460MPD2    H5 6856   2.462   3.914  10.353  0.4009 -0.1256  1.1049
  460MPD2    N1 6857   2.777   3.888  10.718  0.4102 -0.3313 -0.3861
  460MPD2    H7 6858   2.864   3.868  10.765  1.4497  0.5871 -1.9085
  461TMC3    C1 6859   2.358   3.842  10.133 -0.8430  0.8324 -0.3382
  461TMC3    C2 6860   2.289   3.784  10.032 -0.2272 -0.1293  0.0091
  461TMC3    C3 6861   2.163   3.830   9.996 -0.4541  0.3819  0.6085
  461TMC3    C4 6862   2.302   3.961  10.188  0.7536  0.2124  0.5117
  461TMC3    C5 6863   2.184   4.013  10.146 -0.1074 -1.1390  0.0790
  461TMC3    C6 6864   2.112   3.944  10.049  0.4491  0.2503 -0.9673
  461TMC3     C 6865   2.476   3.775  10.193  0.5763 -0.2600  0.3878
  461TMC3     O 6866   2.506   3.670  10.136 -0.2031  0.3056 -0.1481
  461TMC3     H 6867   2.334   3.696   9.988  0.0775  1.0796 -2.0961
  461TMC3    H1 6868   2.346   4.019  10.268 -0.2688  3.6466 -1.4028
  461TMC3    H2 6869   2.023   3.992  10.010  0.8096  0.2089 -1.8515
  461TMC3    C7 6870   2.165   4.161  10.137  0.5615  0.0757 -0.0040
  461TMC3    C8 6871   2.102   3.781   9.870  0.2170 -0.8859 -0.8122
  461TMC3    O1 6872   2.061   4.199  10.081 -0.3061 -0.2743  0.2682
  461TMC3    O2 6873   2.042   3.858   9.796  0.7912 -0.0942 -0.2670
  462TMC3    C1 6874   3.385   0.415  17.280 -0.1796  1.0107 -0.0159
  462TMC3    C2 6875   3.473   0.330  17.233 -0.9832  0.5856  0.1316
  462TMC3    C3 6876   3.446   0.196  17.256 -0.6563 -0.3531 -0.9544
  462TMC3    C4 6877   3.274   0.381  17.359  0.2929 -0.2323  0.7309
  462TMC3    C5 6878   3.254   0.243  17.379 -0.1165 -0.2550  0.4390
  462TMC3    C6 6879   3.340   0.154  17.333  0.3715  0.7403 -0.6438
  462TMC3     C 6880   3.432   0.552  17.296  0.2085 -0.3505 -0.1015
  462TMC3     O 6881   3.554   0.564  17.283 -0.1475 -0.4819 -0.1351
  462TMC3     H 6882   3.552   0.363  17.167  0.2987 -1.3918  0.6572
  462TMC3    H1 6883   3.215   0.456  17.411 -0.2050  1.4186 -2.1906
  462TMC3    H2 6884   3.298   0.054  17.333  0.1570  0.8299  0.7233
  462TMC3    C7 6885   3.154   0.202  17.477  0.0907  0.1683  0.4523
  462TMC3    C8 6886   3.561   0.098  17.242 -0.1097 -0.6120 -0.2769
  462TMC3    O1 6887   3.186   0.106  17.549  0.0148  0.1341 -0.2556
  462TMC3    O2 6888   3.540   4.720  17.306  0.3467  0.3045 -0.4150
  463MPD2     C 6889   4.118   4.335   2.140 -0.4987  0.8119 -0.3968
  463MPD2    C1 6890   4.065   4.323   2.012  0.3047  0.5064  0.5380
  463MPD2    C2 6891   4.146   4.348   1.900 -0.0059 -0.5706 -0.5292
  463MPD2    C3 6892   4.277   4.378   1.923  0.3158  0.1378  0.0349
  463MPD2    C4 6893   4.331   4.398   2.052 -0.1383 -0.2289  0.2541
  463MPD2    C5 6894   4.252   4.367   2.158 -0.1765  0.0375 -0.7819
  463MPD2     H 6895   4.104   4.340   1.800 -1.0038  1.4761 -0.2774
  463MPD2    H1 6896   4.432   4.425   2.080  0.4238  0.6493 -2.6930
  463MPD2    H2 6897   4.061   4.323   2.232  1.8985 -1.2968  0.8031
  463MPD2    H3 6898   4.302   4.362   2.254  0.8018  1.1079 -1.2450
  463MPD2     N 6899   4.356   4.414   1.818 -0.7889  0.0880 -0.3406
  463MPD2    H5 6900   4.445   4.457   1.845 -0.4154 -0.6217 -0.4485
  463MPD2    N1 6901   3.931   4.291   1.980  0.3289  0.3737 -0.3742
  463MPD2    H7 6902   3.898   4.293   1.884 -1.6634 -1.0289  0.2845
  464TMC3    C1 6903   3.713   4.220   2.021  0.3798  0.2142  0.7123
  464TMC3    C2 6904   3.684   4.281   1.901 -0.0837 -0.7801 -0.5429
  464TMC3    C3 6905   3.557   4.253   1.850 -0.0724  0.2914 -0.7357
  464TMC3    C4 6906   3.633   4.125   2.079  0.0308 -0.3340  0.2127
  464TMC3    C5 6907   3.513   4.100   2.017 -0.1298  0.4733  0.8600
  464TMC3    C6 6908   3.474   4.155   1.901 -0.2168  0.0709 -0.5017
  464TMC3     C 6909   3.846   4.248   2.074 -0.1188  0.1156  0.5316
  464TMC3     O 6910   3.863   4.204   2.188  0.4123 -0.5123  0.1796
  464TMC3     H 6911   3.729   4.376   1.876  0.0397  0.1276  3.1231
  464TMC3    H1 6912   3.662   4.071   2.169  0.0064  0.1223  0.4977
  464TMC3    H2 6913   3.375   4.134   1.861 -0.8232  0.4857  0.7815
  464TMC3    C7 6914   3.436   3.993   2.073 -0.3345 -0.6714  0.3867
  464TMC3    C8 6915   3.505   4.340   1.742  0.4169  0.7718 -0.6037
  464TMC3    O1 6916   3.456   3.963   2.191  0.3348  0.1701 -0.5042
  464TMC3    O2 6917   3.585   4.408   1.676  0.0106 -0.2272 -0.6221
  465MPD2     C 6918   0.512   2.072  16.274 -0.0372 -0.0558 -0.5959
  465MPD2    C1 6919   0.405   2.075  16.357 -0.1196  0.3478  0.0095
  465MPD2    C2 6920   0.293   2.145  16.325  0.2902 -0.1780 -0.0218
  465MPD2    C3 6921   0.285   2.207  16.199  0.1260  0.5817 -0.2724
  465MPD2    C4 6922   0.399   2.214  16.123 -0.2930 -0.1113  0.0009
  465MPD2    C5 6923   0.515   2.153  16.162 -0.6246  0.2477  0.0081
  465MPD2     H 6924   0.214   2.156  16.398  1.6741  0.1898  1.4306
  465MPD2    H1 6925   0.400   2.269  16.029  2.1116 -0.7431 -0.3340
  465MPD2    H2 6926   0.605   2.025  16.303 -1.1222 -1.9425 -0.1431
  465MPD2    H3 6927   0.599   2.155  16.093  0.5119 -1.3953  1.3395
  465MPD2     N 6928   0.161   2.262  16.161  0.3833  0.4729 -0.2641
  465MPD2    H5 6929   0.074   2.249  16.210  0.4813  0.6456 -0.0446
  465MPD2    N1 6930   0.411   2.029  16.494  0.0324  0.7775 -0.4411
  465MPD2    H7 6931   0.341   2.058  16.562 -1.1425 -2.2854 -0.3732
  466TMC3    C1 6932   4.511   2.307  16.000  0.1126 -0.7549 -0.2120
  466TMC3    C2 6933   4.483   2.437  15.957  0.6973  0.1743  0.2300
  466TMC3    C3 6934   4.576   2.534  15.961  0.2881  0.4504  0.9140
  466TMC3    C4 6935   4.645   2.275  16.025 -0.3296  0.0753  0.6278
  466TMC3    C5 6936   0.012   2.374  16.020  0.1363 -0.0932  0.0721
  466TMC3    C6 6937   4.705   2.505  15.993 -0.4646  0.1518  0.5628
  466TMC3     C 6938   4.406   2.241  16.076  0.5486 -0.4636  0.5329
  466TMC3     O 6939   4.311   2.310  16.117 -0.5582  0.2283 -0.4038
  466TMC3     H 6940   4.384   2.474  15.931  0.7495 -1.4322 -2.2263
  466TMC3    H1 6941   4.670   2.171  16.042  1.6308  0.4247 -0.2019
  466TMC3    H2 6942   0.053   2.585  15.991  0.6204 -0.8265  1.2055
  466TMC3    C7 6943   0.149   2.349  16.051  0.3888 -0.0468  0.1952
  466TMC3    C8 6944   4.534   2.671  15.944  0.1709  0.4299 -0.1454
  466TMC3    O1 6945   0.233   2.419  15.996  0.1446 -0.2168 -0.8522
  466TMC3    O2 6946   4.441   2.686  15.868  0.2615 -0.4257 -0.3121
  467TMC3    C1 6947   0.960   0.676  13.550 -0.1950  0.1811 -0.2282
  467TMC3    C2 6948   0.884   0.781  13.503  0.2158 -0.8210  0.1053
  467TMC3    C3 6949   0.789   0.840  13.579 -0.2179 -0.2837 -0.3079
  467TMC3    C4 6950   0.944   0.641  13.681  0.8746 -0.6448  0.1571
  467TMC3    C5 6951   0.847   0.703  13.752 -0.1325  0.3498  1.0611
  467TMC3    C6 6952   0.760   0.793  13.708  0.4917 -0.1342  0.3452
  467TMC3     C 6953   1.100   0.682  13.511  0.5030 -0.9033  0.1279
  467TMC3     O 6954   1.152   0.792  13.485 -0.5236  0.2171  0.4263
  467TMC3     H 6955   0.897   0.821  13.403 -1.8730 -2.7567 -0.9483
  467TMC3    H1 6956   1.018   0.577  13.728  1.2490 -0.3026  0.0290
  467TMC3    H2 6957   0.690   0.846  13.771 -1.0248  0.7689 -2.0955
  467TMC3    C7 6958   0.832   0.673  13.894 -0.0925  1.1019 -0.2270
  467TMC3    C8 6959   0.778   0.980  13.561  0.5231  0.5288  0.2729
  467TMC3    O1 6960   0.923   0.621  13.956  0.2285  0.5131 -0.6936
  467TMC3    O2 6961   0.849   1.025  13.472  0.0064 -0.2584 -0.4951
  468MPD2     C 6962   0.512   3.942  10.472  0.5142 -0.5121 -0.1510
  468MPD2    C1 6963   0.374   3.960  10.463 -0.0753  0.6142 -0.1887
  468MPD2    C2 6964   0.291   3.877  10.392 -0.3801  0.1686  0.0111
  468MPD2    C3 6965   0.353   3.766  10.320 -0.3825  0.0248 -0.2754
  468MPD2    C4 6966   0.491   3.753  10.326 -1.0062 -0.0774  0.3038
  468MPD2    C5 6967   0.571   3.841  10.398  0.1696 -0.1816  1.0446
  468MPD2     H 6968   0.184   3.894  10.396 -0.3747 -0.2026  1.6758
  468MPD2    H1 6969   0.537   3.667  10.278 -2.8731 -1.7788  1.6096
  468MPD2    H2 6970   0.585   4.007  10.518  0.9106 -2.0115  1.3610
  468MPD2    H3 6971   0.679   3.827  10.398  0.3736  1.3197  3.9721
  468MPD2     N 6972   0.288   3.662  10.241  0.0331  0.7291 -0.9328
  468MPD2    H5 6973   0.352   3.590  10.213 -1.9873 -1.7211  0.7121
  468MPD2    N1 6974   0.316   4.078  10.521  0.8762  1.1129  0.3884
  468MPD2    H7 6975   0.218   4.100  10.502  0.8900  1.4947  0.7411
  469TMC3    C1 6976   0.297   4.282  10.628 -0.8641 -0.0717 -0.0272
  469TMC3    C2 6977   0.292   4.317  10.757  0.0563  0.2145  0.1867
  469TMC3    C3 6978   0.172   4.352  10.807  0.1736 -0.2871  0.0333
  469TMC3    C4 6979   0.191   4.299  10.540  0.2989 -0.1533  0.1825
  469TMC3    C5 6980   0.084   4.346  10.596 -0.0371  0.0895 -0.0137
  469TMC3    C6 6981   0.065   4.360  10.729  0.9927 -0.5291  0.4928
  469TMC3     C 6982   0.384   4.171  10.598  0.4500 -0.0125  0.2136
  469TMC3     O 6983   0.489   4.155  10.666 -0.4536 -0.2702  0.2590
  469TMC3     H 6984   0.382   4.298  10.815  0.4336  0.4251 -0.3219
  469TMC3    H1 6985   0.201   4.291  10.432  0.6601  2.1118  0.0377
  469TMC3    H2 6986   4.703   4.416  10.758  0.7128 -0.5378 -0.3388
  469TMC3    C7 6987   4.708   4.396  10.501 -0.6881  0.1650 -0.0477
  469TMC3    C8 6988   0.164   4.327  10.951 -0.3816  0.6837 -0.3763
  469TMC3    O1 6989   0.028   4.451  10.397 -0.5149 -0.7147  0.7826
  469TMC3    O2 6990   0.269   4.328  11.006  0.4001  0.4521  0.2761
  470TMC3    C1 6991   2.540   0.425   1.078 -0.4784  0.0645  0.4974
  470TMC3    C2 6992   2.643   0.510   1.127  0.2743 -0.7545  0.6466
  470TMC3    C3 6993   2.607   0.589   1.234  0.3957  0.7501 -0.2601
  470TMC3    C4 6994   2.407   0.447   1.111  0.0309 -0.0702 -0.7579
  470TMC3    C5 6995   2.380   0.525   1.218  0.7780  0.0732  0.4993
  470TMC3    C6 6996   2.474   0.597   1.277 -0.1821 -0.1436 -0.1206
  470TMC3     C 6997   2.567   0.371   0.950 -0.3718  0.1787  0.0132
  470TMC3     O 6998   2.667   0.402   0.886 -0.2423 -0.1020 -0.4699
  470TMC3     H 6999   2.741   0.516   1.081  0.4701 -4.1584  0.5563
  470TMC3    H1 7000   2.327   0.393   1.062  2.1137 -0.9934 -3.1413
  470TMC3    H2 7001   2.447   0.676   1.347 -0.9842  2.3697 -3.2899
  470TMC3    C7 7002   2.236   0.540   1.246 -0.1619 -0.7353  0.0020
  470TMC3    C8 7003   2.694   0.700   1.267 -0.1451 -0.8944  0.3609
  470TMC3    O1 7004   2.159   0.499   1.160  0.0191  0.5068 -0.0729
  470TMC3    O2 7005   2.642   0.785   1.340  0.5538  0.3135 -0.1915
  471MPD2     C 7006   2.446   1.828  16.523 -0.6235 -0.5190 -0.2281
  471MPD2    C1 7007   2.564   1.774  16.469  0.1238  0.1576 -0.3938
  471MPD2    C2 7008   2.684   1.776  16.540 -0.1164  0.0477  1.0190
  471MPD2    C3 7009   2.695   1.847  16.657 -0.4746  0.2667  0.2940
  471MPD2    C4 7010   2.578   1.896  16.710  0.3880  0.3822 -0.1125
  471MPD2    C5 7011   2.464   1.898  16.641 -0.2823  0.1589  0.0005
  471MPD2     H 7012   2.773   1.730  16.499  0.3565  0.9196  1.0635
  471MPD2    H1 7013   2.577   1.955  16.800 -0.1744  0.0837  0.0738
  471MPD2    H2 7014   2.348   1.816  16.477 -0.4005  1.1132 -1.1114
  471MPD2    H3 7015   2.375   1.947  16.679  0.1266 -0.3037  1.5279
  471MPD2     N 7016   2.814   1.855  16.735 -0.0188  0.5820  0.6584
  471MPD2    H5 7017   2.815   1.903  16.825 -0.9275  1.1119  0.3730
  471MPD2    N1 7018   2.557   1.700  16.349 -0.7383  0.3095  0.0120
  471MPD2    H7 7019   2.642   1.655  16.315 -1.2112  1.3046 -2.5167
  472TMC3    C1 7020   2.470   1.594  16.164 -0.1690 -2.1182 -0.1135
  472TMC3    C2 7021   2.370   1.585  16.069 -0.1821 -0.0272 -0.3047
  472TMC3    C3 7022   2.343   1.467  16.011  0.4479  0.0057  0.1428
  472TMC3    C4 7023   2.560   1.489  16.188 -0.3021 -0.1152 -0.0478
  472TMC3    C5 7024   2.520   1.366  16.132 -0.2565 -0.1843 -0.3152
  472TMC3    C6 7025   2.422   1.355  16.037 -0.3542  0.3700 -0.2470
  472TMC3     C 7026   2.446   1.691  16.263  0.1815  0.6067 -0.3007
  472TMC3     O 7027   2.339   1.758  16.264 -0.0957 -0.1239  0.4915
  472TMC3     H 7028   2.299   1.666  16.052 -1.0775 -0.5820  0.8765
  472TMC3    H1 7029   2.619   1.487  16.279  1.1301 -0.8427 -0.9847
  472TMC3    H2 7030   2.401   1.257  15.994  2.0665  1.2051 -3.2554
  472TMC3    C7 7031   2.561   1.242  16.195 -0.2627 -0.0834 -0.3497
  472TMC3    C8 7032   2.215   1.453  15.948 -0.1850 -0.2817  0.2775
  472TMC3    O1 7033   2.606   1.255  16.310  0.6790  0.3703 -0.2534
  472TMC3    O2 7034   2.142   1.551  15.935  0.4885  0.1252  0.4155
  473MPD2     C 7035   2.323   3.097  13.680 -0.1927 -0.2384  0.2053
  473MPD2    C1 7036   2.377   3.180  13.581  0.1583  0.4658  0.7307
  473MPD2    C2 7037   2.464   3.276  13.620 -0.6679 -0.6762 -0.0042
  473MPD2    C3 7038   2.517   3.275  13.747 -0.1851 -0.0574  0.0930
  473MPD2    C4 7039   2.477   3.184  13.840 -0.2309 -0.2137 -0.2738
  473MPD2    C5 7040   2.374   3.100  13.808 -0.4560 -0.2664 -0.3895
  473MPD2     H 7041   2.503   3.338  13.539  0.4380  0.7252  1.6119
  473MPD2    H1 7042   2.513   3.185  13.942  0.3525  0.7344 -0.4960
  473MPD2    H2 7043   2.245   3.023  13.669 -0.3437 -0.4603  2.8400
  473MPD2    H3 7044   2.338   3.032  13.886 -1.3673  2.1584  1.2955
  473MPD2     N 7045   2.622   3.367  13.792 -0.1842 -0.6574 -0.0495
  473MPD2    H5 7046   2.647   3.366  13.891  0.6355  2.1274 -0.2466
  473MPD2    N1 7047   2.339   3.162  13.447 -1.0750  0.1053 -0.6457
  473MPD2    H7 7048   2.356   3.242  13.387  0.1832  0.8263  0.6774
  474TMC3    C1 7049   2.761   3.549  13.794 -0.0095  0.7887  0.6323
  474TMC3    C2 7050   2.721   3.680  13.794  0.3821 -0.8358 -0.1248
  474TMC3    C3 7051   2.747   3.756  13.909 -0.1086 -0.1913 -0.4306
  474TMC3    C4 7052   2.834   3.490  13.895  0.1567 -0.0609 -0.2974
  474TMC3    C5 7053   2.852   3.577  13.999  0.9831 -0.7060 -0.1719
  474TMC3    C6 7054   2.810   3.705  14.012 -0.4689 -0.2250  0.1732
  474TMC3     C 7055   2.685   3.464  13.717 -0.3082  0.5005  0.2825
  474TMC3     O 7056   2.661   3.508  13.607  0.4516  0.4175  0.8769
  474TMC3     H 7057   2.671   3.724  13.708  0.2894 -1.0757 -0.1955
  474TMC3    H1 7058   2.878   3.391  13.890 -1.0240 -0.6053  0.1671
  474TMC3    H2 7059   2.822   3.756  14.107  0.1268  2.4815 -1.3612
  474TMC3    C7 7060   2.967   3.553  14.090 -0.1702 -0.0582 -0.2733
  474TMC3    C8 7061   2.682   3.880  13.933  0.2383  0.1703 -0.3699
  474TMC3    O1 7062   3.084   3.555  14.053 -0.2493 -0.5386 -0.0914
  474TMC3    O2 7063   2.709   3.939  14.038 -0.5202 -0.3379 -0.2764
  475MPD2     C 7064   1.052   1.370   9.893  0.2756  0.2779 -0.0240
  475MPD2    C1 7065   1.102   1.461   9.977  0.1083  0.7935 -0.1550
  475MPD2    C2 7066   1.015   1.496  10.085 -0.0042 -0.3561  0.1943
  475MPD2    C3 7067   0.887   1.449  10.096 -0.2996 -0.7815  0.6641
  475MPD2    C4 7068   0.845   1.360  10.000 -0.2593  0.2681  0.4193
  475MPD2    C5 7069   0.929   1.320   9.905 -0.1528  0.2959 -0.0815
  475MPD2     H 7070   1.047   1.557  10.168  0.9400  0.9522 -1.1266
  475MPD2    H1 7071   0.748   1.311   9.996  0.6971 -1.7038  1.5004
  475MPD2    H2 7072   1.111   1.325   9.813 -0.4932 -0.4954 -0.1563
  475MPD2    H3 7073   0.900   1.232   9.849  2.8546 -0.1342 -0.9497
  475MPD2     N 7074   0.797   1.507  10.192  0.6626 -0.4610  0.8100
  475MPD2    H5 7075   0.827   1.578  10.258  1.6792  0.7015 -0.8913
  475MPD2    N1 7076   1.230   1.513   9.952  0.4841  0.5361  0.7243
  475MPD2    H7 7077   1.273   1.510   9.860  0.4170  0.4770  0.6955
  476TMC3    C1 7078   1.351   1.697   9.969 -0.4895 -0.4454 -0.6409
  476TMC3    C2 7079   1.245   1.777   9.935  0.1168  0.0445 -0.7685
  476TMC3    C3 7080   1.231   1.896  10.001 -0.2145 -0.4806  0.2242
  476TMC3    C4 7081   1.452   1.752  10.040 -0.3451 -0.0591  0.4269
  476TMC3    C5 7082   1.435   1.878  10.098  0.9234 -0.3472  0.0734
  476TMC3    C6 7083   1.328   1.953  10.077  0.1375 -0.3281  0.2092
  476TMC3     C 7084   1.296   1.587  10.043  0.0015  0.2913  0.2193
  476TMC3     O 7085   1.281   1.604  10.164  0.3147 -0.3915  0.3949
  476TMC3     H 7086   1.162   1.746   9.873 -1.2935 -2.5269  2.3928
  476TMC3    H1 7087   1.534   1.687  10.069 -0.2721 -1.0709 -2.0030
  476TMC3    H2 7088   1.307   2.052  10.115 -0.0638  0.1770 -1.2026
  476TMC3    C7 7089   1.538   1.925  10.192  0.0429  0.1338 -0.0830
  476TMC3    C8 7090   1.100   1.946  10.021 -0.5167 -0.4604 -0.3368
  476TMC3    O1 7091   1.641   1.861  10.186 -0.5898 -0.5705  0.3871
  476TMC3    O2 7092   1.088   2.067  10.038  0.6432 -0.0532  0.3334
  477MPD2     C 7093   3.343   3.531  11.864  0.0680  0.7936  1.1926
  477MPD2    C1 7094   3.271   3.436  11.792 -1.1304 -0.0236 -0.0049
  477MPD2    C2 7095   3.301   3.303  11.814 -0.1735 -0.3104 -0.1568
  477MPD2    C3 7096   3.418   3.270  11.880  0.4304 -0.1522 -0.0386
  477MPD2    C4 7097   3.490   3.361  11.953  0.4377 -0.6060 -0.8516
  477MPD2    C5 7098   3.443   3.496  11.948 -0.5553 -0.4993  0.1383
  477MPD2     H 7099   3.250   3.218  11.770  1.1749  0.1030 -2.5296
  477MPD2    H1 7100   3.582   3.336  12.004  0.6890 -0.2292 -1.1179
  477MPD2    H2 7101   3.323   3.637  11.854  1.5440  0.8319 -1.3643
  477MPD2    H3 7102   3.491   3.581  11.996  0.1864 -1.6072  1.3500
  477MPD2     N 7103   3.447   3.134  11.882  0.5351  0.2487 -0.2479
  477MPD2    H5 7104   3.378   3.074  11.839  2.5774 -1.8279 -0.5823
  477MPD2    N1 7105   3.174   3.485  11.708 -0.0405 -0.3183  0.2913
  477MPD2    H7 7106   3.159   3.585  11.711  0.2353 -0.3193  1.6603
  478TMC3    C1 7107   2.996   3.492  11.564  0.1610 -0.6638 -0.4075
  478TMC3    C2 7108   2.955   3.615  11.621  0.2345 -0.0207  0.1508
  478TMC3    C3 7109   2.848   3.681  11.578  0.3316 -0.5517  0.3231
  478TMC3    C4 7110   2.915   3.438  11.470 -0.5547  0.2351  0.4205
  478TMC3    C5 7111   2.799   3.504  11.435 -0.2405 -1.1080  0.1457
  478TMC3    C6 7112   2.764   3.628  11.485 -0.7122 -0.8983  0.1885
  478TMC3     C 7113   3.084   3.410  11.641 -0.6875 -0.1644 -0.3412
  478TMC3     O 7114   3.084   3.287  11.626 -0.0810  0.5251 -0.3557
  478TMC3     H 7115   2.994   3.648  11.717  0.9042 -0.8206  0.1443
  478TMC3    H1 7116   2.932   3.342  11.423 -0.3872  0.9332 -0.9386
  478TMC3    H2 7117   2.666   3.671  11.467  0.8750  2.0923 -1.3205
  478TMC3    C7 7118   2.698   3.433  11.359 -0.1676  0.3149  0.3625
  478TMC3    C8 7119   2.774   3.759  11.668 -0.7474 -0.3578 -0.4127
  478TMC3    O1 7120   2.685   3.309  11.372  0.0733  0.3675  0.4259
  478TMC3    O2 7121   2.759   3.717  11.781 -0.5109  0.0494 -0.8339
  479MPD2     C 7122   2.192   0.549  15.329  0.1161 -0.3697  0.3448
  479MPD2    C1 7123   2.130   0.479  15.427 -0.5328  0.2602  0.8692
  479MPD2    C2 7124   2.199   0.426  15.538 -0.4951 -0.8046  0.1776
  479MPD2    C3 7125   2.335   0.448  15.541  0.1658 -0.8541 -0.3417
  479MPD2    C4 7126   2.393   0.528  15.445 -0.2141 -0.3426  0.1520
  479MPD2    C5 7127   2.324   0.573  15.333 -0.4344  0.5018  0.6102
  479MPD2     H 7128   2.145   0.376  15.618  0.5642 -0.3628  1.1591
  479MPD2    H1 7129   2.497   0.558  15.456 -1.1146  2.5400  0.6555
  479MPD2    H2 7130   2.139   0.576  15.239  0.0385  2.3979  1.2432
  479MPD2    H3 7131   2.378   0.625  15.255 -1.4500  0.4338 -0.1355
  479MPD2     N 7132   2.426   0.395  15.642  0.0961 -0.2267 -0.1796
  479MPD2    H5 7133   2.521   0.393  15.609  0.3323 -0.7448  0.5324
  479MPD2    N1 7134   1.995   0.458  15.402  0.1290 -0.2588  0.0549
  479MPD2    H7 7135   1.948   0.490  15.318 -2.1461 -1.6699  0.7688
  480TMC3    C1 7136   2.180   0.328  16.057 -0.2666  0.7728 -0.2108
  480TMC3    C2 7137   2.105   0.445  16.048 -0.0718 -0.4853  0.7235
  480TMC3    C3 7138   2.153   0.529  15.948  0.0020 -0.1311 -0.9004
  480TMC3    C4 7139   2.256   0.278  15.956  0.4317 -0.0236 -0.5025
  480TMC3    C5 7140   2.280   0.362  15.843  0.2951  0.4484 -0.0981
  480TMC3    C6 7141   2.242   0.490  15.847 -0.3749 -0.6913  0.7089
  480TMC3     C 7142   2.168   0.246  16.168  0.4544  0.7005  0.3421
  480TMC3     O 7143   2.246   0.153  16.178 -0.7667 -0.0830 -0.6506
  480TMC3     H 7144   2.036   0.484  16.121 -0.7975  0.3291 -0.3951
  480TMC3    H1 7145   2.319   0.190  15.967 -0.0502 -0.3301 -0.2134
  480TMC3    H2 7146   2.279   0.553  15.767 -1.4495  0.4477  1.1030
  480TMC3    C7 7147   2.398   0.327  15.761 -0.0441 -1.1951  0.3569
  480TMC3    C8 7148   2.054   0.637  15.913 -0.2662  0.1876 -0.7657
  480TMC3    O1 7149   2.468   0.240  15.806  0.4819 -0.7285 -0.1041
  480TMC3    O2 7150   1.942   0.616  15.959  0.0567  0.5090 -0.1458
  481MPD2     C 7151   3.697   0.375  14.466 -0.1102 -0.2872 -0.0632
  481MPD2    C1 7152   3.606   0.279  14.448 -1.2711  0.0150 -0.2313
  481MPD2    C2 7153   3.553   0.205  14.556  0.3979 -0.1847  0.4313
  481MPD2    C3 7154   3.594   0.237  14.689  0.3487  0.2952 -0.2636
  481MPD2    C4 7155   3.694   0.328  14.698  0.2128 -0.6905  0.7836
  481MPD2    C5 7156   3.749   0.394  14.587  0.4573  0.3212 -0.2143
  481MPD2     H 7157   3.471   0.137  14.534 -0.2503 -0.0412  2.4783
  481MPD2    H1 7158   3.733   0.365  14.792  1.8233 -2.3721  0.7830
  481MPD2    H2 7159   3.742   0.433  14.386 -1.4847 -0.1324 -0.7256
  481MPD2    H3 7160   3.838   0.453  14.606  0.6108 -0.0516  0.2252
  481MPD2     N 7161   3.548   0.173  14.806 -0.4292 -0.3811  0.2959
  481MPD2    H5 7162   3.610   0.168  14.887  0.8407 -1.6237 -0.7553
  481MPD2    N1 7163   3.560   0.266  14.317  0.2306  0.2422 -0.0398
  481MPD2    H7 7164   3.593   0.333  14.248  0.0033 -1.8475 -2.2122
  482TMC3    C1 7165   3.450   0.176  14.136 -0.0491 -0.4186 -0.5540
  482TMC3    C2 7166   3.322   0.151  14.104  0.4837  0.3838 -0.0668
  482TMC3    C3 7167   3.266   0.185  13.976  0.6179 -0.4302  0.2513
  482TMC3    C4 7168   3.539   0.215  14.045  0.0928  0.6780 -0.0844
  482TMC3    C5 7169   3.486   0.244  13.921  0.2717  0.6443 -0.2092
  482TMC3    C6 7170   3.354   0.234  13.883  0.1987  0.5909 -0.0112
  482TMC3     C 7171   3.484   0.158  14.274 -0.4519  0.1543  0.2849
  482TMC3     O 7172   3.429   0.062  14.327  0.2158 -0.4360 -0.4093
  482TMC3     H 7173   3.254   0.110  14.178 -0.2087  3.3727  0.9286
  482TMC3    H1 7174   3.639   0.242  14.076  0.9296  0.9025 -2.9862
  482TMC3    H2 7175   3.325   0.273  13.786  0.8202  1.3010  0.0810
  482TMC3    C7 7176   3.578   0.316  13.827  0.1258  0.1389  0.3449
  482TMC3    C8 7177   3.168   0.080  13.944  0.4572  0.8549  0.0397
  482TMC3    O1 7178   3.677   0.375  13.871  0.2406 -0.3787 -0.0610
  482TMC3    O2 7179   3.123   0.022  14.040 -0.3856 -0.3326 -0.8200
  483TMC3    C1 7180   2.688   4.426   1.385 -0.2005 -0.1956 -0.1061
  483TMC3    C2 7181   2.607   4.425   1.280 -0.3050  0.1513  0.0580
  483TMC3    C3 7182   2.630   4.326   1.193  0.0844 -0.4726 -0.6561
  483TMC3    C4 7183   2.787   4.328   1.407  0.1193  0.4857  0.0461
  483TMC3    C5 7184   2.825   4.248   1.304  0.7349 -0.0507 -0.4343
  483TMC3    C6 7185   2.742   4.249   1.197 -0.0643  0.0623 -0.2809
  483TMC3     C 7186   2.656   4.513   1.498 -0.1378  0.3190 -0.3677
  483TMC3     O 7187   2.740   4.535   1.583  0.2723  0.0943 -0.2889
  483TMC3     H 7188   2.532   4.499   1.255  0.4303  1.3616  1.4310
  483TMC3    H1 7189   2.845   4.324   1.498 -0.4298 -1.4484  0.3251
  483TMC3    H2 7190   2.776   4.188   1.114  0.4315  1.8507 -1.3872
  483TMC3    C7 7191   2.924   4.150   1.334  0.1149  0.1888  0.5379
  483TMC3    C8 7192   2.580   4.338   1.057 -0.1136  0.0530  0.3729
  483TMC3    O1 7193   2.994   4.156   1.434  0.3370  0.3597 -0.2807
  483TMC3    O2 7194   2.650   4.298   0.968  0.2871  0.5319  0.0585
  484MPD2     C 7195   4.363   2.066  12.450 -0.4262  0.2748 -0.3101
  484MPD2    C1 7196   4.380   1.933  12.412  0.8399  1.1125  0.3199
  484MPD2    C2 7197   4.479   1.902  12.322 -0.1061  0.1162 -0.2353
  484MPD2    C3 7198   4.565   2.000  12.275 -0.5746 -0.0240  0.4898
  484MPD2    C4 7199   4.539   2.132  12.301  0.2268  0.2823 -0.1555
  484MPD2    C5 7200   4.436   2.162  12.388  0.5485 -0.1612  0.5267
  484MPD2     H 7201   4.481   1.798  12.294 -2.2500 -0.5513  2.0422
  484MPD2    H1 7202   4.586   2.223  12.266  0.9667 -0.7549 -1.8340
  484MPD2    H2 7203   4.276   2.098  12.505  0.7754  0.5667  1.4157
  484MPD2    H3 7204   4.414   2.266  12.406  0.2287 -0.6630  3.0388
  484MPD2     N 7205   4.678   1.975  12.201 -0.2443  0.3334 -0.3839
  484MPD2    H5 7206   0.014   2.048  12.167 -0.0167  1.0321  1.5492
  484MPD2    N1 7207   4.302   1.825  12.462  0.0410  0.1548  0.1617
  484MPD2    H7 7208   4.308   1.735  12.418  1.3066  0.1626  0.3208
  485TMC3    C1 7209   0.132   1.857  12.117 -0.1231  0.0827  0.1309
  485TMC3    C2 7210   0.213   1.752  12.145 -0.1365 -0.3453 -0.4121
  485TMC3    C3 7211   0.337   1.760  12.083  0.1124  0.4057  0.9620
  485TMC3    C4 7212   0.151   1.943  12.012 -0.1445 -0.6442 -0.3594
  485TMC3    C5 7213   0.266   1.933  11.936 -0.9047  0.0037  0.4490
  485TMC3    C6 7214   0.366   1.852  11.983  0.4860  0.2045 -0.0278
  485TMC3     C 7215   0.006   1.852  12.189  0.1945  0.1062  0.1177
  485TMC3     O 7216   4.692   1.742  12.221  0.4906 -0.1534  0.1894
  485TMC3     H 7217   0.191   1.674  12.217  0.6843  0.7662  1.0338
  485TMC3    H1 7218   0.084   2.024  11.989  0.1042 -0.9288 -2.0892
  485TMC3    H2 7219   0.467   1.851  11.944 -0.0528  2.0482 -1.4701
  485TMC3    C7 7220   0.247   1.935  11.787  0.6425 -0.3186  0.0138
  485TMC3    C8 7221   0.377   1.628  12.042  0.3205  0.2135  0.3026
  485TMC3    O1 7222   0.165   2.016  11.743 -0.5445  0.0823 -0.3223
  485TMC3    O2 7223   0.416   1.632  11.932 -0.2477  0.3274  0.0005
  486MPD2     C 7224   1.787   0.939  12.781  0.2791  0.0479  0.6344
  486MPD2    C1 7225   1.664   0.888  12.748 -0.6800 -0.3224  1.0286
  486MPD2    C2 7226   1.563   0.975  12.721  0.6025 -0.9056 -0.4719
  486MPD2    C3 7227   1.580   1.112  12.732 -0.7349  0.3348  0.2118
  486MPD2    C4 7228   1.703   1.159  12.765 -0.5266 -0.6312 -0.7541
  486MPD2    C5 7229   1.805   1.072  12.787 -0.0803  0.3143  0.0174
  486MPD2     H 7230   1.470   0.929  12.690  1.0630 -1.2716 -1.3249
  486MPD2    H1 7231   1.731   1.264  12.762  3.8693 -1.7876 -0.3548
  486MPD2    H2 7232   1.873   0.877  12.807 -0.8123 -1.2867  1.0750
  486MPD2    H3 7233   1.904   1.104  12.819 -0.6892  0.1896  2.0018
  486MPD2     N 7234   1.476   1.197  12.684  0.0296 -0.0236 -0.7148
  486MPD2    H5 7235   1.394   1.142  12.658 -0.6420 -0.3521  2.1058
  486MPD2    N1 7236   1.661   0.751  12.766 -0.1098 -1.0011  0.3152
  486MPD2    H7 7237   1.743   0.700  12.796 -0.3710 -1.0697  0.8993
  487TMC3    C1 7238   1.578   0.529  12.777 -0.5187 -0.2440  0.6883
  487TMC3    C2 7239   1.469   0.445  12.770  0.4307 -0.2438  0.5977
  487TMC3    C3 7240   1.486   0.318  12.812  0.3047  0.0596 -0.3959
  487TMC3    C4 7241   1.694   0.492  12.830  0.1955  0.3156  0.3735
  487TMC3    C5 7242   1.702   0.368  12.881  0.0927  0.5811 -0.8748
  487TMC3    C6 7243   1.603   0.278  12.865 -0.9230 -0.7467 -0.9471
  487TMC3     C 7244   1.552   0.669  12.741 -0.2933 -0.7583  0.2556
  487TMC3     O 7245   1.448   0.698  12.689  0.4555  0.6765 -0.4559
  487TMC3     H 7246   1.373   0.478  12.732  1.3574  0.3089 -1.2769
  487TMC3    H1 7247   1.773   0.565  12.818  2.0617 -2.0605 -1.6513
  487TMC3    H2 7248   1.613   0.190  12.927 -0.9217  0.6479  1.0705
  487TMC3    C7 7249   1.754   0.369  13.018 -0.1532  0.3196  0.0482
  487TMC3    C8 7250   1.374   0.260  12.880 -1.1800  0.7844 -0.4856
  487TMC3    O1 7251   1.776   0.486  13.059  0.3625  0.6555  0.1080
  487TMC3    O2 7252   1.387   0.214  12.994 -0.1998  0.3861  0.8533
  488MPD2     C 7253   2.107   2.638  16.565  0.2844 -0.6717  0.5674
  488MPD2    C1 7254   2.091   2.769  16.530  0.4361  0.3177  0.4541
  488MPD2    C2 7255   2.068   2.861  16.634  0.4780 -0.3730 -0.6045
  488MPD2    C3 7256   2.059   2.816  16.767  0.1807  0.6818 -0.2361
  488MPD2    C4 7257   2.074   2.681  16.800  0.1413 -0.0658  0.3871
  488MPD2    C5 7258   2.092   2.595  16.693  0.0625  0.0397  0.8845
  488MPD2     H 7259   2.065   2.963  16.597 -2.3099 -0.2453  0.0207
  488MPD2    H1 7260   2.063   2.646  16.902 -0.7719 -1.7234 -0.2733
  488MPD2    H2 7261   2.114   2.565  16.485 -2.0481 -0.1315 -0.1258
  488MPD2    H3 7262   2.091   2.487  16.708  2.5410 -0.1947 -0.5795
  488MPD2     N 7263   2.038   2.920  16.859 -0.5885 -0.6096  0.1748
  488MPD2    H5 7264   2.023   3.013  16.822 -2.8194 -0.5589  1.2163
  488MPD2    N1 7265   2.118   2.820  16.397 -0.0152  0.1414  0.1830
  488MPD2    H7 7266   2.120   2.921  16.384 -0.9733 -0.0569 -1.5628
  489TMC3    C1 7267   2.023   3.028  17.056  0.3462 -0.1226  0.5310
  489TMC3    C2 7268   1.964   3.141  17.008 -0.2303 -0.3563  0.0961
  489TMC3    C3 7269   1.979   3.254  17.081  0.0887 -1.1917  0.3888
  489TMC3    C4 7270   2.104   3.030  17.162  0.1786 -0.4360 -0.2942
  489TMC3    C5 7271   2.126   3.145  17.228  0.3461  0.5998  0.5299
  489TMC3    C6 7272   2.054   3.259  17.195  0.0413  0.5878  0.2875
  489TMC3     C 7273   2.018   2.904  16.988  0.2000  0.0190 -0.5224
  489TMC3     O 7274   2.038   2.813  17.067 -0.3761  0.4077 -0.2596
  489TMC3     H 7275   1.904   3.142  16.918  0.2806 -0.4374 -0.2472
  489TMC3    H1 7276   2.152   2.941  17.202 -2.0526 -1.2010  0.6904
  489TMC3    H2 7277   2.079   3.358  17.233 -1.0747  0.1210  2.2662
  489TMC3    C7 7278   2.242   3.157  17.319 -0.5548 -0.2828  0.2488
  489TMC3    C8 7279   1.938   3.376  17.018  0.2743  0.4203  0.3499
  489TMC3    O1 7280   2.315   3.058  17.320 -0.3531  0.0593 -0.0546
  489TMC3    O2 7281   2.012   3.474  17.032 -0.4491  0.4708 -0.5241
  490MPD2     C 7282   2.977   2.197  17.179 -0.0236 -0.3407 -0.1343
  490MPD2    C1 7283   2.959   2.191  17.313 -0.5432 -0.4474  0.4610
  490MPD2    C2 7284   2.978   2.306  17.390 -0.4468  0.2977 -0.1944
  490MPD2    C3 7285   3.024   2.425  17.333 -0.6425 -0.2468 -0.3021
  490MPD2    C4 7286   3.040   2.429  17.195 -0.0623 -0.0673  0.0287
  490MPD2    C5 7287   3.022   2.313  17.119  0.2469  0.3834  0.7387
  490MPD2     H 7288   2.952   2.299  17.495 -0.2852 -0.9901 -0.2375
  490MPD2    H1 7289   3.093   2.514  17.153 -1.0093  0.7463  0.4646
  490MPD2    H2 7290   2.972   2.105  17.121  0.9181 -0.1120 -0.5805
  490MPD2    H3 7291   3.048   2.313  17.014 -1.1730 -1.3615  0.3790
  490MPD2     N 7292   3.076   2.541  17.399  0.0856 -0.0931  0.3482
  490MPD2    H5 7293   3.104   2.616  17.338  0.6083  0.5632  1.3931
  490MPD2    N1 7294   2.923   2.069  17.378  0.2216  0.3448 -0.2778
  490MPD2    H7 7295   2.910   2.069  17.479  1.1287  2.9483 -0.1507
  491TMC3    C1 7296   2.859   1.842  17.417 -0.4544  0.6863  0.1549
  491TMC3    C2 7297   2.907   1.843  17.549 -0.6202 -0.6574 -0.2347
  491TMC3    C3 7298   2.899   1.731  17.630  0.6389  0.1309 -0.5516
  491TMC3    C4 7299   2.806   1.725  17.362 -0.1596 -0.2199 -0.7614
  491TMC3    C5 7300   2.797   1.619  17.447  0.4359  0.3795 -0.0674
  491TMC3    C6 7301   2.840   1.618  17.579  0.3378 -0.1264 -1.3753
  491TMC3     C 7302   2.898   1.946  17.323  0.8605  0.0362 -0.1794
  491TMC3     O 7303   2.892   1.912  17.204 -0.4087 -0.4338 -0.5342
  491TMC3     H 7304   2.954   1.933  17.585 -0.3244 -0.9424  0.0923
  491TMC3    H1 7305   2.762   1.729  17.263 -0.0521 -3.4514 -0.9437
  491TMC3    H2 7306   2.804   1.536  17.640 -1.0074  1.1732 -0.4184
  491TMC3    C7 7307   2.686   1.537  17.410  0.5172 -0.0822  0.1045
  491TMC3    C8 7308   2.913   1.741   0.072 -0.4121  0.1521 -0.1717
  491TMC3    O1 7309   2.628   1.580  17.314  0.3518 -0.4372 -0.5792
  491TMC3    O2 7310   2.886   1.641   0.138  0.3171  0.0180  0.1463
  492MPD2     C 7311   3.132   2.127  10.719 -0.2534  0.1027  0.0590
  492MPD2    C1 7312   3.014   2.073  10.682  0.6841  0.1920  0.6786
  492MPD2    C2 7313   2.964   1.962  10.750  0.3277  0.1344 -0.2109
  492MPD2    C3 7314   3.023   1.912  10.856 -0.8840  0.3713  0.2635
  492MPD2    C4 7315   3.148   1.964  10.888  0.2668  0.2563 -0.3700
  492MPD2    C5 7316   3.201   2.067  10.820  0.1371  0.1151 -0.0061
  492MPD2     H 7317   2.882   1.902  10.713 -1.2295  0.1189  3.3081
  492MPD2    H1 7318   3.194   1.927  10.979  0.9327  2.4734  0.1949
  492MPD2    H2 7319   3.178   2.212  10.669 -0.8310  1.4882  1.9126
  492MPD2    H3 7320   3.286   2.116  10.867  0.5469  1.4939 -2.2005
  492MPD2     N 7321   2.988   1.796  10.927  0.1595  0.2422  0.1179
  492MPD2    H5 7322   3.059   1.740  10.974 -1.1569 -1.0017  0.6363
  492MPD2    N1 7323   2.961   2.110  10.557 -0.5413  0.0418  0.4538
  492MPD2    H7 7324   3.031   2.160  10.503 -0.1957  0.0571  0.9174
  493TMC3    C1 7325   2.844   2.140  10.361  0.1615  0.0434 -0.0368
  493TMC3    C2 7326   2.966   2.178  10.306  0.0309 -0.0288 -0.2536
  493TMC3    C3 7327   2.956   2.240  10.183  0.2773  0.2154 -0.0104
  493TMC3    C4 7328   2.723   2.145  10.297  0.2618  0.0796 -0.1360
  493TMC3    C5 7329   2.728   2.188  10.166 -0.4166 -0.0546 -0.0575
  493TMC3    C6 7330   2.842   2.250  10.112  0.0004 -0.2582  0.5672
  493TMC3     C 7331   2.847   2.078  10.493 -0.0402 -0.3998 -0.1035
  493TMC3     O 7332   2.752   2.025  10.551  0.0271  0.4497 -0.2081
  493TMC3     H 7333   3.063   2.170  10.353  0.1335  2.3591 -0.0500
  493TMC3    H1 7334   2.641   2.112  10.360  0.1284 -2.2611 -1.5191
  493TMC3    H2 7335   2.827   2.308  10.022  0.4235 -1.8576 -0.5293
  493TMC3    C7 7336   2.622   2.139  10.085  0.0504 -0.3915  0.4054
  493TMC3    C8 7337   3.053   2.344  10.167  0.7703  0.2950  0.7600
  493TMC3    O1 7338   2.526   2.101  10.145 -0.0998 -0.0571 -0.4635
  493TMC3    O2 7339   3.111   2.382  10.268 -0.6716 -0.0583  0.0049
  494TMC3    C1 7340   3.953   3.763   0.652 -0.8512 -0.4054  0.2390
  494TMC3    C2 7341   3.968   3.631   0.671  0.4809 -0.1375 -0.0693
  494TMC3    C3 7342   4.062   3.559   0.606  0.5535 -0.3168 -0.6868
  494TMC3    C4 7343   4.028   3.828   0.551 -0.5026  0.9228  0.3061
  494TMC3    C5 7344   4.108   3.752   0.473 -0.3058 -0.2565  0.0371
  494TMC3    C6 7345   4.137   3.618   0.501 -0.3443  0.3525 -0.7582
  494TMC3     C 7346   3.849   3.836   0.716 -0.1216  0.5467 -0.4937
  494TMC3     O 7347   3.841   3.958   0.695 -0.5594 -0.6907  0.1884
  494TMC3     H 7348   3.898   3.585   0.740 -1.3652 -0.4519 -2.1662
  494TMC3    H1 7349   3.998   3.929   0.527  1.5339  1.1253 -1.4545
  494TMC3    H2 7350   4.197   3.558   0.433  0.5154  0.1528  0.1700
  494TMC3    C7 7351   4.146   3.799   0.337 -0.1641  0.1164  0.3518
  494TMC3    C8 7352   4.052   3.412   0.626  0.0862 -0.7048  0.3018
  494TMC3    O1 7353   4.153   3.721   0.239 -0.5849 -0.6534  0.1928
  494TMC3    O2 7354   3.957   3.375   0.688  0.4478 -1.1726 -0.2071
  495TMC3    C1 7355   2.334   0.907  15.036 -0.2491 -0.0640  0.1824
  495TMC3    C2 7356   2.237   0.971  14.954  0.0926 -0.0425 -0.2863
  495TMC3    C3 7357   2.126   1.036  14.999  0.0118 -0.3483  0.2322
  495TMC3    C4 7358   2.305   0.913  15.173  0.7834 -0.0269 -0.0859
  495TMC3    C5 7359   2.192   0.973  15.211  0.1418 -0.4587  0.0871
  495TMC3    C6 7360   2.101   1.042  15.133  0.1377  0.6899  0.6398
  495TMC3     C 7361   2.358   0.771  14.988 -0.4945  0.7087 -0.2908
  495TMC3     O 7362   2.288   0.684  15.039 -0.4472  0.1616  0.1364
  495TMC3     H 7363   2.251   0.971  14.846 -0.5146 -1.1127 -0.3611
  495TMC3    H1 7364   2.355   0.846  15.242 -0.9671 -2.6050 -1.3385
  495TMC3    H2 7365   2.011   1.088  15.174 -1.0306 -1.8687  0.9102
  495TMC3    C7 7366   2.158   0.941  15.349 -0.2175 -1.0656 -0.1667
  495TMC3    C8 7367   2.012   0.965  14.942  0.1069  0.6809 -0.0971
  495TMC3    O1 7368   2.247   0.936  15.432 -0.1220 -0.0856  0.0413
  495TMC3    O2 7369   1.895   1.002  14.951  0.0070 -0.1612  0.0267
  496MPD2     C 7370   3.834   1.249  15.336 -0.4114 -0.1309 -0.4142
  496MPD2    C1 7371   3.908   1.172  15.421  0.8912 -0.2773 -0.4154
  496MPD2    C2 7372   3.921   1.215  15.553  0.2715  0.1077 -0.4289
  496MPD2    C3 7373   3.850   1.322  15.603  0.5041  0.6697 -0.2373
  496MPD2    C4 7374   3.775   1.403  15.518 -0.2508  0.3933 -0.2676
  496MPD2    C5 7375   3.766   1.361  15.391  0.3360 -0.1201 -0.4476
  496MPD2     H 7376   3.982   1.160  15.625  1.4853 -1.0781 -2.3776
  496MPD2    H1 7377   3.714   1.487  15.546 -1.9254 -0.5790 -1.0169
  496MPD2    H2 7378   3.802   1.220  15.236  0.2616  0.4423 -0.7918
  496MPD2    H3 7379   3.697   1.408  15.321 -0.6138 -1.8270 -0.6553
  496MPD2     N 7380   3.847   1.364  15.739  0.0605 -0.0794 -0.0108
  496MPD2    H5 7381   3.822   1.461  15.757  0.0787  0.5324 -3.2873
  496MPD2    N1 7382   3.956   1.059  15.357  0.1132  0.3560 -0.0278
  496MPD2    H7 7383   3.959   1.048  15.256  0.4312  0.6943 -0.0538
  497TMC3    C1 7384   3.879   1.154  15.867 -0.4606  0.4599 -0.1925
  497TMC3    C2 7385   3.793   1.083  15.782 -0.4956 -0.0937  0.0350
  497TMC3    C3 7386   3.798   0.952  15.788 -0.4975  0.2056  0.3504
  497TMC3    C4 7387   3.957   1.097  15.966 -0.1921  0.5400  0.1635
  497TMC3    C5 7388   3.942   0.962  15.973  0.5418  0.5207  0.1050
  497TMC3    C6 7389   3.863   0.884  15.888  0.4232 -0.1618  0.3369
  497TMC3     C 7390   3.890   1.301  15.856  0.0013  1.0356 -0.8404
  497TMC3     O 7391   3.928   1.353  15.961  0.1545  0.0379  0.4551
  497TMC3     H 7392   3.730   1.129  15.707 -1.8168 -0.7989  0.7002
  497TMC3    H1 7393   4.019   1.159  16.029 -2.0723  3.4941 -0.9015
  497TMC3    H2 7394   3.835   0.782  15.916  2.2070 -0.0676  2.4714
  497TMC3    C7 7395   3.991   0.905  16.096  0.2529 -0.0661 -0.3909
  497TMC3    C8 7396   3.715   0.873  15.699  0.3617 -0.5741  0.3497
  497TMC3    O1 7397   3.922   0.815  16.144  0.0528 -0.4598 -0.0629
  497TMC3    O2 7398   3.628   0.930  15.638 -0.7461  0.2116 -0.0892
  498MPD2     C 7399   0.378   1.627   9.576  0.2085 -0.6585  0.3421
  498MPD2    C1 7400   0.345   1.728   9.665  0.1016 -0.1264 -0.5872
  498MPD2    C2 7401   0.219   1.734   9.715  0.1390  0.2962 -0.1316
  498MPD2    C3 7402   0.126   1.638   9.683  0.5391 -0.0191  0.2157
  498MPD2    C4 7403   0.165   1.530   9.609  0.3960 -0.2743  0.5381
  498MPD2    C5 7404   0.297   1.518   9.565  0.4639  0.0141  0.0698
  498MPD2     H 7405   0.193   1.824   9.769 -0.6500  0.4295 -0.7243
  498MPD2    H1 7406   0.104   1.443   9.588  0.3214  0.2212 -1.2884
  498MPD2    H2 7407   0.479   1.629   9.536  0.5200  0.6126  1.1669
  498MPD2    H3 7408   0.333   1.432   9.510  1.4898  0.2211  0.4176
  498MPD2     N 7409   0.002   1.627   9.749 -0.4616  0.2992  0.2800
  498MPD2    H5 7410   4.718   1.682   9.835  1.2242  0.8286  0.1263
  498MPD2    N1 7411   0.431   1.837   9.698  0.4059 -0.2585  0.1413
  498MPD2    H7 7412   0.391   1.915   9.748  0.4048 -0.0252 -0.2278
  499TMC3    C1 7413   0.621   1.968   9.672  0.4730  0.2106 -0.4155
  499TMC3    C2 7414   0.758   1.975   9.673  0.2892 -0.0366  0.0483
  499TMC3    C3 7415   0.816   2.088   9.723 -0.0132 -0.5402 -0.3494
  499TMC3    C4 7416   0.547   2.075   9.715  0.6750  0.5029  0.7065
  499TMC3    C5 7417   0.604   2.187   9.763 -0.3774 -0.5623  0.2626
  499TMC3    C6 7418   0.739   2.192   9.773 -0.1456 -0.0124  0.0104
  499TMC3     C 7419   0.565   1.846   9.665 -0.1091  0.2260  0.4892
  499TMC3     O 7420   0.636   1.755   9.620 -0.1257 -0.5790 -0.0160
  499TMC3     H 7421   0.814   1.884   9.656  1.0850  0.4183  0.2388
  499TMC3    H1 7422   0.445   2.075   9.679  0.7973 -0.8877  0.3789
  499TMC3    H2 7423   0.779   2.290   9.798  0.2879  0.1492 -1.2999
  499TMC3    C7 7424   0.538   2.307   9.737  0.1577  0.1112  0.4385
  499TMC3    C8 7425   0.961   2.120   9.698 -0.0492  0.3627 -0.5061
  499TMC3    O1 7426   0.606   2.398   9.692 -0.3098  0.4956 -0.7075
  499TMC3    O2 7427   0.999   2.234   9.712  0.1524  0.7337  0.5156
  500MPD2     C 7428   2.008   2.529  10.028  0.0123 -0.3447  0.1272
  500MPD2    C1 7429   1.937   2.616  10.098 -0.0444  0.4347  0.3168
  500MPD2    C2 7430   1.796   2.631  10.082  0.3526 -0.2721 -0.8064
  500MPD2    C3 7431   1.732   2.563   9.973  0.0227 -0.7412 -0.3835
  500MPD2    C4 7432   1.816   2.480   9.899 -0.2864 -0.9101 -0.6598
  500MPD2    C5 7433   1.947   2.466   9.925 -0.1777 -0.0182  0.0463
  500MPD2     H 7434   1.737   2.694  10.148  1.2363 -0.7925  0.4715
  500MPD2    H1 7435   1.775   2.428   9.812 -0.8781  0.8496 -1.4211
  500MPD2    H2 7436   2.113   2.517  10.051  0.4561  3.7686  0.2541
  500MPD2    H3 7437   2.015   2.415   9.858  0.3580  1.3296 -0.4328
  500MPD2     N 7438   1.588   2.569   9.942 -0.6811  0.0589 -0.4247
  500MPD2    H5 7439   1.541   2.517   9.868  2.1781 -0.3925 -1.9167
  500MPD2    N1 7440   1.998   2.697  10.196  0.4181  0.3359  0.3488
  500MPD2    H7 7441   1.937   2.772  10.228  0.2945  0.5899 -0.4941
  501TMC3    C1 7442   2.162   2.790  10.336 -0.1409  0.0514 -0.4421
  501TMC3    C2 7443   2.184   2.913  10.275 -0.5801  0.0621 -0.0348
  501TMC3    C3 7444   2.291   2.985  10.301  0.1896 -0.2970  0.2932
  501TMC3    C4 7445   2.250   2.743  10.428 -0.2215 -0.4681 -0.0266
  501TMC3    C5 7446   2.356   2.822  10.455 -0.2869  0.0859  0.7988
  501TMC3    C6 7447   2.383   2.941  10.385 -0.2533 -0.9363 -0.0923
  501TMC3     C 7448   2.127   2.682  10.246 -0.0623  0.4147  0.7531
  501TMC3     O 7449   2.205   2.587  10.244 -0.1653  0.4156 -0.1791
  501TMC3     H 7450   2.105   2.942  10.206 -0.6158  0.1330  0.0353
  501TMC3    H1 7451   2.241   2.642  10.467 -0.0374 -0.8219 -0.9032
  501TMC3    H2 7452   2.464   3.005  10.420 -1.2588  0.1666  0.2246
  501TMC3    C7 7453   2.425   2.802  10.583 -0.7726 -0.3747  0.0340
  501TMC3    C8 7454   2.267   3.131  10.302  0.3407  0.5809  0.6205
  501TMC3    O1 7455   2.538   2.851  10.598 -0.1174 -0.5612 -0.0869
  501TMC3    O2 7456   2.322   3.188  10.396  0.3197  0.3424 -0.5894
  502TMC3    C1 7457   1.561   1.601  15.184  0.7149  0.2833  0.2297
  502TMC3    C2 7458   1.543   1.710  15.098 -0.5300 -0.5109  0.2164
  502TMC3    C3 7459   1.413   1.761  15.092 -0.5168 -0.5574 -0.3788
  502TMC3    C4 7460   1.454   1.548  15.244 -0.1720  0.2804 -0.1169
  502TMC3    C5 7461   1.332   1.590  15.212  0.4947  0.1069  0.1773
  502TMC3    C6 7462   1.305   1.701  15.139 -0.8895  0.0164  0.2325
  502TMC3     C 7463   1.684   1.608  15.256  0.9212  0.3360 -0.2186
  502TMC3     O 7464   1.777   1.654  15.193 -0.2020 -0.0263 -0.0117
  502TMC3     H 7465   1.625   1.760  15.047  0.7835 -0.6490  2.2080
  502TMC3    H1 7466   1.471   1.459  15.304 -0.6459 -1.8225 -3.1196
  502TMC3    H2 7467   1.203   1.730  15.116 -0.7244  1.2274  1.0404
  502TMC3    C7 7468   1.221   1.524  15.284 -0.2087 -0.0980 -0.3266
  502TMC3    C8 7469   1.397   1.898  15.050 -0.2130  0.1697  0.2625
  502TMC3    O1 7470   1.247   1.424  15.349 -0.3860 -0.4005  0.1927
  502TMC3    O2 7471   1.489   1.940  14.985  0.4240 -0.4535 -0.3610
  503MPD2     C 7472   3.939   2.689  16.855  0.7575  0.3722  0.0379
  503MPD2    C1 7473   4.027   2.700  16.967 -0.0439  0.0849 -0.4951
  503MPD2    C2 7474   4.069   2.584  17.026 -0.1858  0.7203  0.1187
  503MPD2    C3 7475   4.046   2.462  16.978 -0.5242 -0.1498 -0.2086
  503MPD2    C4 7476   3.962   2.452  16.871 -0.0478 -0.1847  0.2721
  503MPD2    C5 7477   3.906   2.563  16.819  0.0655  0.3539  0.1237
  503MPD2     H 7478   4.139   2.591  17.109  1.3015 -1.2700 -0.9614
  503MPD2    H1 7479   3.931   2.360  16.822 -1.0384  1.7387 -2.7019
  503MPD2    H2 7480   3.885   2.773  16.812 -1.0499 -0.1777  1.2297
  503MPD2    H3 7481   3.832   2.551  16.741  3.3231 -4.1674 -2.2220
  503MPD2     N 7482   4.095   2.344  17.043  0.1359 -0.0077 -0.3806
  503MPD2    H5 7483   4.144   2.377  17.126  1.7650 -1.1122 -0.9108
  503MPD2    N1 7484   4.045   2.824  17.033  0.2085  0.2479  0.1308
  503MPD2    H7 7485   4.075   2.819  17.130 -0.8553 -1.5272  0.3711
  504TMC3    C1 7486   4.197   2.123  17.062 -0.2248 -0.1718 -0.2299
  504TMC3    C2 7487   4.237   2.140  17.196 -0.5754 -0.0436 -0.4226
  504TMC3    C3 7488   4.357   2.083  17.247  0.3477  0.1109  0.8652
  504TMC3    C4 7489   4.252   2.026  16.987  0.1491 -0.8432 -0.2275
  504TMC3    C5 7490   4.374   1.980  17.037  0.3177  0.0490 -0.2053
  504TMC3    C6 7491   4.424   1.999  17.166  0.3261 -0.3039  0.0314
  504TMC3     C 7492   4.098   2.210  16.999 -0.2522  0.1277  0.0158
  504TMC3     O 7493   4.046   2.164  16.894  0.2879 -0.5060 -0.3884
  504TMC3     H 7494   4.184   2.210  17.261  1.5114  1.3326 -0.2020
  504TMC3    H1 7495   4.231   2.029  16.881 -0.3770 -0.5557 -0.1140
  504TMC3    H2 7496   4.521   1.960  17.196  1.1816 -0.9787 -3.6387
  504TMC3    C7 7497   4.463   1.946  16.926 -0.1989  0.2459 -0.3659
  504TMC3    C8 7498   4.423   2.145  17.355 -0.2957  0.4673  0.1098
  504TMC3    O1 7499   4.414   1.934  16.817 -0.0786 -0.0083  0.2922
  504TMC3    O2 7500   4.385   2.260  17.383 -0.5301 -0.3411 -0.4287
  505MPD2     C 7501   3.600   1.628  10.452  0.2233  0.3568 -0.3443
  505MPD2    C1 7502   3.593   1.492  10.453  0.3477  0.2535 -0.1595
  505MPD2    C2 7503   3.676   1.423  10.535 -0.1299 -0.5133  0.4740
  505MPD2    C3 7504   3.762   1.491  10.615 -0.0572  0.1485  0.1552
  505MPD2    C4 7505   3.770   1.626  10.613  0.4501  0.5290 -0.7231
  505MPD2    C5 7506   3.691   1.693  10.523 -0.5746 -0.0721  0.0914
  505MPD2     H 7507   3.662   1.317  10.553  0.2751 -0.6571 -0.0493
  505MPD2    H1 7508   3.847   1.680  10.666  0.8046 -3.2678  2.6203
  505MPD2    H2 7509   3.534   1.691  10.394 -0.7692  1.3844  1.9141
  505MPD2    H3 7510   3.700   1.801  10.516  2.8680 -0.4211 -0.8287
  505MPD2     N 7511   3.845   1.408  10.694  0.5471  0.3460  0.3620
  505MPD2    H5 7512   3.846   1.307  10.679 -4.2758  0.5921 -1.4125
  505MPD2    N1 7513   3.508   1.432  10.359  0.1121  0.1407 -0.3239
  505MPD2    H7 7514   3.473   1.490  10.284 -1.1489 -1.0756 -0.6787
  506TMC3    C1 7515   3.408   1.240  10.243 -0.4717  1.0438 -0.5253
  506TMC3    C2 7516   3.443   1.295  10.122 -0.0537 -0.0911 -0.1144
  506TMC3    C3 7517   3.438   1.201  10.019 -0.3995 -0.2104 -1.3366
  506TMC3    C4 7518   3.354   1.115  10.267  0.7715  0.0354 -0.8034
  506TMC3    C5 7519   3.352   1.028  10.167 -0.3102  0.1498 -0.2942
  506TMC3    C6 7520   3.399   1.069  10.044 -0.5636  0.0958 -0.6847
  506TMC3     C 7521   3.476   1.296  10.364  0.0447 -1.0629  0.0591
  506TMC3     O 7522   3.496   1.214  10.451 -0.1482 -0.6618 -0.8914
  506TMC3     H 7523   3.457   1.400  10.102 -1.2463 -0.2278 -1.7047
  506TMC3    H1 7524   3.334   1.083  10.369 -2.2391 -0.4578 -1.5519
  506TMC3    H2 7525   3.405   0.995   9.964 -1.6536 -0.0971 -0.5784
  506TMC3    C7 7526   3.429   0.914  10.216 -0.2623 -0.2799  0.2000
  506TMC3    C8 7527   3.505   1.218   9.891 -0.2399 -0.4651 -1.2861
  506TMC3    O1 7528   3.439   0.821  10.142 -0.3491 -0.3120 -0.0498
  506TMC3    O2 7529   3.467   1.140   9.804 -0.0839  0.1463 -0.7572
  507TMC3    C1 7530   4.010   2.047  13.398 -0.3895  0.5758  0.1882
  507TMC3    C2 7531   4.032   2.123  13.284  0.0243 -0.2618  1.0018
  507TMC3    C3 7532   4.161   2.145  13.249  0.0140 -0.1063 -0.5000
  507TMC3    C4 7533   4.113   1.988  13.472  0.1204 -1.1867  0.3239
  507TMC3    C5 7534   4.239   2.013  13.427 -0.5807  0.2668  0.6976
  507TMC3    C6 7535   4.264   2.095  13.316 -0.9937  0.4454  0.2122
  507TMC3     C 7536   3.873   2.027  13.454  0.4337  0.6677  0.4629
  507TMC3     O 7537   3.861   1.937  13.539 -0.1021 -0.5904  0.5032
  507TMC3     H 7538   3.949   2.164  13.229 -2.2502 -0.1588  4.5425
  507TMC3    H1 7539   4.096   1.924  13.557 -1.5192 -0.1708  0.7449
  507TMC3    H2 7540   4.365   2.098  13.277 -0.6394 -0.0548  1.0768
  507TMC3    C7 7541   4.344   1.996  13.530  0.2703  0.6538 -0.7038
  507TMC3    C8 7542   4.189   2.271  13.188  0.4193  0.0288 -0.0912
  507TMC3    O1 7543   4.341   1.895  13.599 -0.4187 -0.0631 -0.1122
  507TMC3    O2 7544   4.158   2.294  13.074  0.3837 -0.0069 -0.4584
  508MPD2     C 7545   1.312   3.968  15.615  0.3788  0.7448  0.2069
  508MPD2    C1 7546   1.256   4.070  15.691 -0.6517  0.2795  0.7142
  508MPD2    C2 7547   1.155   4.146  15.635 -0.0081 -0.6518  0.2008
  508MPD2    C3 7548   1.118   4.131  15.502 -0.0010 -0.4480  0.6927
  508MPD2    C4 7549   1.163   4.019  15.433 -0.5467 -0.3323  0.4637
  508MPD2    C5 7550   1.255   3.941  15.496 -0.5512 -0.2017  0.7653
  508MPD2     H 7551   1.126   4.236  15.689 -1.2956 -0.4679 -0.7847
  508MPD2    H1 7552   1.137   3.987  15.332  0.6426  0.2088 -0.0085
  508MPD2    H2 7553   1.400   3.914  15.647 -0.9182 -2.5288 -1.7371
  508MPD2    H3 7554   1.295   3.862  15.435 -0.4500  0.0970  0.4451
  508MPD2     N 7555   1.037   4.228  15.447 -0.1344 -0.4078 -0.0407
  508MPD2    H5 7556   1.019   4.316  15.494 -1.6137 -1.2209  0.9243
  508MPD2    N1 7557   1.325   4.113  15.808 -0.4078 -0.1048 -0.5700
  508MPD2    H7 7558   1.419   4.080  15.827 -0.0903  1.2066  0.1077
  509TMC3    C1 7559   0.805   4.532  15.272 -0.0511 -0.0162  0.1332
  509TMC3    C2 7560   0.894   4.627  15.313 -0.0121  0.4068 -0.1491
  509TMC3    C3 7561   1.014   4.590  15.357  0.0231 -0.1438 -0.6070
  509TMC3    C4 7562   0.850   4.402  15.240 -0.7367  0.2313  0.5286
  509TMC3    C5 7563   0.980   4.368  15.271  1.1473  0.2798  0.0998
  509TMC3    C6 7564   1.051   4.458  15.347 -0.0094  0.1118  0.0061
  509TMC3     C 7565   0.672   4.581  15.230 -0.0532 -0.4032 -0.0113
  509TMC3     O 7566   0.614   4.499  15.156  0.5885  0.6250  0.4738
  509TMC3     H 7567   0.876   0.006  15.292  1.2489  0.8495  0.9512
  509TMC3    H1 7568   0.782   4.319  15.222 -2.0389  0.6713  3.5040
  509TMC3    H2 7569   1.153   4.434  15.375  0.9141  0.0047 -3.4353
  509TMC3    C7 7570   0.988   4.231  15.317  0.5979  0.2781  0.4025
  509TMC3    C8 7571   1.110   4.671  15.423  0.1803  0.0512 -0.0303
  509TMC3    O1 7572   0.967   4.134  15.247 -0.3126  0.1977 -0.0788
  509TMC3    O2 7573   1.222   4.626  15.449  0.3387  0.3004  0.2034
  510MPD2     C 7574   3.471   1.360  14.189  0.3386  0.4336 -0.5104
  510MPD2    C1 7575   3.531   1.263  14.272 -0.7776  0.0803  0.0312
  510MPD2    C2 7576   3.650   1.202  14.239  0.2660  0.1299 -0.3546
  510MPD2    C3 7577   3.708   1.229  14.114  0.1237  0.3944  0.1628
  510MPD2    C4 7578   3.652   1.322  14.031 -0.0262  0.3974  0.5580
  510MPD2    C5 7579   3.541   1.394  14.074 -0.1687 -0.8410  0.3326
  510MPD2     H 7580   3.687   1.117  14.295 -0.3462  0.4395  0.5194
  510MPD2    H1 7581   3.695   1.340  13.933  1.2745 -1.0393  0.8635
  510MPD2    H2 7582   3.367   1.388  14.202 -0.2112 -0.8883 -1.9899
  510MPD2    H3 7583   3.493   1.470  14.012  2.9836 -0.8717 -2.1109
  510MPD2     N 7584   3.828   1.165  14.093  0.3563 -0.0564 -0.3499
  510MPD2    H5 7585   3.865   1.110  14.170  1.0342  0.6470 -0.1714
  510MPD2    N1 7586   3.464   1.225  14.387 -0.1403 -0.2181  0.1023
  510MPD2    H7 7587   3.504   1.142  14.430  0.3857 -1.0551 -2.0439
  511TMC3    C1 7588   3.293   1.210  14.545  0.0612  0.2117 -0.1880
  511TMC3    C2 7589   3.235   1.267  14.655 -0.0352  0.0221 -0.2085
  511TMC3    C3 7590   3.164   1.185  14.738  0.1418  0.4113 -0.0509
  511TMC3    C4 7591   3.273   1.079  14.514 -0.2319  0.2769  0.4041
  511TMC3    C5 7592   3.216   1.000  14.605 -0.2444  0.1628  0.4731
  511TMC3    C6 7593   3.166   1.048  14.724 -0.2565 -0.1270  0.2874
  511TMC3     C 7594   3.361   1.293  14.453 -0.3845 -0.1366  0.6462
  511TMC3     O 7595   3.333   1.413  14.447  0.3457  0.2298  0.2585
  511TMC3     H 7596   3.238   1.375  14.669 -0.3589  0.1942 -1.4968
  511TMC3    H1 7597   3.316   1.032  14.426 -1.3423  0.9133 -0.4823
  511TMC3    H2 7598   3.084   0.997  14.774 -2.2594 -0.1796 -3.0683
  511TMC3    C7 7599   3.180   0.862  14.566 -0.9413 -0.7002  0.0144
  511TMC3    C8 7600   3.118   1.231  14.866  0.2935 -0.2511  0.0752
  511TMC3    O1 7601   3.148   0.833  14.449  0.0525  0.1663  0.1747
  511TMC3    O2 7602   3.076   1.345  14.870 -0.1930 -0.0081  0.3286
  512TMC3    C1 7603   2.131   0.573  13.182  0.0504 -0.2623  0.3504
  512TMC3    C2 7604   2.207   0.509  13.278  0.1020  0.4327 -0.4180
  512TMC3    C3 7605   2.235   0.372  13.262 -0.2021 -0.1978 -0.7186
  512TMC3    C4 7606   2.095   0.503  13.065 -0.4719 -0.9974  0.8245
  512TMC3    C5 7607   2.136   0.374  13.051 -0.7431  0.8773 -0.1402
  512TMC3    C6 7608   2.208   0.303  13.148 -0.0728  0.4440 -0.1301
  512TMC3     C 7609   2.087   0.712  13.199 -0.0749 -0.1015 -0.2508
  512TMC3     O 7610   2.165   0.791  13.250  0.0950  0.1329 -0.0047
  512TMC3     H 7611   2.214   0.553  13.377  3.4633 -0.9358 -0.0599
  512TMC3    H1 7612   2.039   0.556  12.989 -0.7243  1.9203  3.0464
  512TMC3    H2 7613   2.243   0.201  13.134 -1.8779 -0.6363  3.3406
  512TMC3    C7 7614   2.104   0.307  12.926  0.1042  0.2939  0.3984
  512TMC3    C8 7615   2.347   0.325  13.335 -0.2048  0.5186  0.0454
  512TMC3    O1 7616   2.050   0.380  12.839  0.5213  0.5011  0.1355
  512TMC3    O2 7617   2.364   0.203  13.338  0.0605 -0.3807 -0.2473
  513MPD2     C 7618   4.097   1.038  13.067 -0.1350  0.1628  0.5388
  513MPD2    C1 7619   4.063   0.909  13.043 -0.1225 -0.4955 -0.3899
  513MPD2    C2 7620   4.119   0.808  13.130 -0.2922 -0.1057  0.7092
  513MPD2    C3 7621   4.183   0.845  13.250  0.1373  0.3082 -0.6470
  513MPD2    C4 7622   4.205   0.979  13.278  0.3399  0.0845  0.1192
  513MPD2    C5 7623   4.167   1.071  13.185 -0.3286 -0.7250  0.6490
  513MPD2     H 7624   4.111   0.703  13.104  0.4414  0.2264 -0.8824
  513MPD2    H1 7625   4.240   1.017  13.373 -2.8721  0.9856  0.9104
  513MPD2    H2 7626   4.067   1.115  12.997  2.7422 -0.0802 -0.9448
  513MPD2    H3 7627   4.194   1.174  13.203 -1.5248 -0.4768  1.0082
  513MPD2     N 7628   4.219   0.739  13.330  0.2781 -0.7250 -0.1919
  513MPD2    H5 7629   4.185   0.649  13.298  1.8832 -1.2934 -0.2534
  513MPD2    N1 7630   3.986   0.877  12.927  0.2692  0.4250 -0.0798
  513MPD2    H7 7631   3.974   0.959  12.868 -0.3854  0.4920  0.1452
  514TMC3    C1 7632   3.920   0.731  12.750 -0.2365 -0.4266  0.0370
  514TMC3    C2 7633   3.995   0.796  12.656  0.0793  0.1639 -0.3304
  514TMC3    C3 7634   4.019   0.724  12.543 -0.1854 -0.4196  0.1217
  514TMC3    C4 7635   3.862   0.605  12.732 -0.7545 -0.2514  0.8846
  514TMC3    C5 7636   3.899   0.537  12.619 -0.2786 -0.2641 -0.2525
  514TMC3    C6 7637   3.980   0.595  12.522  0.4393  0.3201  0.2979
  514TMC3     C 7638   3.947   0.751  12.891 -0.0977  0.2134 -0.1890
  514TMC3     O 7639   3.940   0.646  12.955 -0.0152 -0.2808  0.2684
  514TMC3     H 7640   4.033   0.897  12.661  1.5852 -0.4349  0.3670
  514TMC3    H1 7641   3.806   0.553  12.808 -2.1274  0.0927  0.1068
  514TMC3    H2 7642   4.016   0.540  12.435  1.0910 -0.7812  1.2632
  514TMC3    C7 7643   3.957   0.412  12.655 -0.4114  0.6261 -0.8385
  514TMC3    C8 7644   4.121   0.785  12.457  0.3902  0.4549 -0.6880
  514TMC3    O1 7645   3.978   0.331  12.569  0.1647  0.6185  0.5838
  514TMC3    O2 7646   4.181   0.880  12.509  0.2999 -0.3780  0.1878
  515MPD2     C 7647   1.854   2.389  14.873  0.3677  0.2510 -0.0196
  515MPD2    C1 7648   1.905   2.309  14.770  0.1955  0.4130  0.1468
  515MPD2    C2 7649   2.043   2.323  14.738  0.0372 -0.3008  0.1085
  515MPD2    C3 7650   2.118   2.420  14.802  1.2576 -0.8223  0.1545
  515MPD2    C4 7651   2.070   2.477  14.920  0.0046  0.1281 -0.0285
  515MPD2    C5 7652   1.938   2.460  14.953 -0.4713 -0.8971 -0.1163
  515MPD2     H 7653   2.088   2.267  14.657  1.1681 -1.8485  1.8214
  515MPD2    H1 7654   2.138   2.547  14.967 -2.4931  0.7252  2.6489
  515MPD2    H2 7655   1.750   2.388  14.906  0.5606 -1.7533  0.5252
  515MPD2    H3 7656   1.900   2.497  15.047  0.0252  1.7550 -0.9671
  515MPD2     N 7657   2.246   2.450  14.763  0.1923 -0.4670  0.2234
  515MPD2    H5 7658   2.292   2.512  14.828  0.0267  0.4292 -0.5166
  515MPD2    N1 7659   1.826   2.226  14.689  0.8335  0.0323  0.1165
  515MPD2    H7 7660   1.875   2.179  14.613 -0.4212  0.5292 -0.9934
  516TMC3    C1 7661   1.627   2.121  14.623 -0.4183  0.3536 -0.7431
  516TMC3    C2 7662   1.665   2.117  14.493 -0.2222 -0.4795  0.2288
  516TMC3    C3 7663   1.630   2.006  14.422  0.9514 -0.1984 -0.6128
  516TMC3    C4 7664   1.548   2.026  14.682 -0.1641 -0.3164 -0.8889
  516TMC3    C5 7665   1.509   1.914  14.606 -0.2377 -0.5216 -0.2188
  516TMC3    C6 7666   1.552   1.908  14.475  0.0414 -0.0843  0.2996
  516TMC3     C 7667   1.690   2.207  14.708 -0.5119  0.1475  0.3332
  516TMC3     O 7668   1.609   2.256  14.788 -0.1730  0.6587 -0.1297
  516TMC3     H 7669   1.712   2.205  14.450  2.0949 -2.1494 -0.6655
  516TMC3    H1 7670   1.539   2.028  14.790  0.7030  0.5436 -0.8293
  516TMC3    H2 7671   1.535   1.816  14.420  0.1047 -0.7141  1.3420
  516TMC3    C7 7672   1.511   1.782  14.661  0.6362 -0.0504 -0.6096
  516TMC3    C8 7673   1.646   2.005  14.277 -0.7343 -0.1875 -0.2604
  516TMC3    O1 7674   1.621   1.738  14.696  0.1725 -0.0574  0.0818
  516TMC3    O2 7675   1.572   1.931  14.217 -0.3415  0.3225  0.0794
  517MPD2     C 7676   2.171   3.992  17.549 -0.3211 -0.0255 -0.0813
  517MPD2    C1 7677   2.307   3.997  17.540  0.2502 -0.1106  0.0202
  517MPD2    C2 7678   2.366   4.107  17.599 -0.2598 -0.8294  0.7573
  517MPD2    C3 7679   2.285   4.204  17.657  0.3913  0.6567  0.0979
  517MPD2    C4 7680   2.152   4.190  17.675 -0.3412 -0.0201 -0.0888
  517MPD2    C5 7681   2.093   4.087  17.612 -0.0468  0.1879  0.0163
  517MPD2     H 7682   2.472   4.122  17.589 -0.5964  0.8888 -0.1585
  517MPD2    H1 7683   2.084   4.261   0.018 -0.2884  0.9612 -1.5196
  517MPD2    H2 7684   2.124   3.913  17.491  0.8408 -0.0253 -1.0030
  517MPD2    H3 7685   1.985   4.075  17.618  0.0367 -1.1614 -1.0689
  517MPD2     N 7686   2.337   4.324   0.007  0.7836 -0.4366  0.2405
  517MPD2    H5 7687   2.281   4.384   0.068 -0.6665 -3.2219  1.6336
  517MPD2    N1 7688   2.390   3.901  17.477  0.3081 -0.3392  0.5162
  517MPD2    H7 7689   2.489   3.918  17.489  0.2531  1.2942 -1.2931
  518TMC3    C1 7690   2.447   3.709  17.341  0.3152 -0.3365 -0.0330
  518TMC3    C2 7691   2.407   3.592  17.275  0.1629  0.5195  0.5861
  518TMC3    C3 7692   2.499   3.524  17.196  0.3553 -0.3119 -0.6762
  518TMC3    C4 7693   2.577   3.752  17.342 -0.0044  0.1899  1.2334
  518TMC3    C5 7694   2.666   3.674  17.270  0.1542  0.3199 -0.6656
  518TMC3    C6 7695   2.627   3.563  17.192  0.4768 -0.0117 -0.8593
  518TMC3     C 7696   2.348   3.783  17.415 -0.7883  0.4474  0.1109
  518TMC3     O 7697   2.234   3.737  17.401 -0.4220 -0.4921 -0.3924
  518TMC3     H 7698   2.305   3.558  17.288  1.3923 -2.9624  1.0417
  518TMC3    H1 7699   2.611   3.842  17.391 -3.2658  1.3096  1.3897
  518TMC3    H2 7700   2.695   3.496  17.140  0.6280  0.3905 -1.1741
  518TMC3    C7 7701   2.807   3.694  17.292 -0.1501 -0.8989  0.1120
  518TMC3    C8 7702   2.469   3.386  17.163 -0.2983  0.2752 -0.2196
  518TMC3    O1 7703   2.845   3.765  17.385  0.0754  0.9676 -0.7495
  518TMC3    O2 7704   2.564   3.313  17.188  0.2942 -0.0644  0.6172
  519MPD2     C 7705   3.540   2.258  14.298  0.1431 -0.0307  1.3463
  519MPD2    C1 7706   3.555   2.250  14.163 -0.2157 -0.1445  0.4309
  519MPD2    C2 7707   3.595   2.126  14.113 -0.3849  0.0086  0.1045
  519MPD2    C3 7708   3.641   2.029  14.193  0.8738 -0.1990 -0.5627
  519MPD2    C4 7709   3.644   2.049  14.329 -0.5124  0.8407 -0.2123
  519MPD2    C5 7710   3.592   2.164  14.381  0.2358  0.4102  0.8017
  519MPD2     H 7711   3.619   2.122  14.007 -1.2506  0.1963 -0.0957
  519MPD2    H1 7712   3.669   1.971  14.401 -1.3924  0.9434  0.2093
  519MPD2    H2 7713   3.523   2.356  14.342  0.5518  0.5826  0.1540
  519MPD2    H3 7714   3.603   2.188  14.486  0.7213 -2.1329  1.3171
  519MPD2     N 7715   3.672   1.900  14.146 -0.3424 -0.0768 -0.1245
  519MPD2    H5 7716   3.698   1.834  14.219  0.4934  0.5177  0.1192
  519MPD2    N1 7717   3.520   2.354  14.078 -0.6434 -0.2877  0.6737
  519MPD2    H7 7718   3.456   2.429  14.102 -1.0401 -0.6233  0.6460
  520TMC3    C1 7719   3.706   1.719  13.987 -0.2799 -0.0545 -0.0074
  520TMC3    C2 7720   3.661   1.676  13.863  0.0561  0.2923  0.3544
  520TMC3    C3 7721   3.743   1.582  13.802 -0.7441 -0.3557  0.7804
  520TMC3    C4 7722   3.813   1.666  14.050 -0.3540  0.2837 -0.5825
  520TMC3    C5 7723   3.880   1.561  13.990 -0.4796  0.1849 -0.3886
  520TMC3    C6 7724   3.855   1.527  13.860  0.4410 -0.1650  0.0642
  520TMC3     C 7725   3.654   1.852  14.018 -0.0423 -0.5257  0.6038
  520TMC3     O 7726   3.605   1.909  13.920 -0.5534  0.0202 -0.1815
  520TMC3     H 7727   3.575   1.728  13.821  0.3858  0.9158  0.4523
  520TMC3    H1 7728   3.855   1.718  14.135 -1.2380  1.0241 -0.5946
  520TMC3    H2 7729   3.897   1.446  13.802  0.0771 -0.5215  0.3019
  520TMC3    C7 7730   4.018   1.540  14.034  0.6242 -0.2034 -0.0780
  520TMC3    C8 7731   3.721   1.554  13.662  0.5047  0.3093 -0.3209
  520TMC3    O1 7732   4.049   1.552  14.151 -0.2270  0.0016  0.2337
  520TMC3    O2 7733   3.761   1.452  13.612  0.1018 -0.2598 -0.3285
  521MPD2     C 7734   0.642   0.245  17.390 -0.2016  0.7540  0.5939
  521MPD2    C1 7735   0.557   0.240  17.287  0.2004 -0.0566  0.4376
  521MPD2    C2 7736   0.609   0.270  17.166 -0.8763 -0.2793 -0.3050
  521MPD2    C3 7737   0.743   0.302  17.146  0.4412  0.1536 -0.6398
  521MPD2    C4 7738   0.829   0.309  17.253  0.2224  0.7582 -1.2757
  521MPD2    C5 7739   0.773   0.282  17.376  0.0088  0.0566 -0.3991
  521MPD2     H 7740   0.544   0.271  17.079 -1.6705  0.1189  0.2922
  521MPD2    H1 7741   0.929   0.348  17.235  0.2225  0.6232 -1.5777
  521MPD2    H2 7742   0.616   0.224  17.493 -0.7067  0.2617  0.3690
  521MPD2    H3 7743   0.825   0.290  17.471  0.7784 -0.2366 -0.7903
  521MPD2     N 7744   0.788   0.305  17.010 -0.2119 -0.5199 -0.2339
  521MPD2    H5 7745   0.719   0.275  16.942  0.3836 -1.0461 -0.6102
  521MPD2    N1 7746   0.425   0.203  17.320 -0.0905 -0.4596 -0.6466
  521MPD2    H7 7747   0.400   0.194  17.418  0.8841 -0.1202 -0.3676
  522TMC3    C1 7748   0.927   0.270  16.828  0.1440 -0.0817 -0.3783
  522TMC3    C2 7749   1.046   0.302  16.767 -0.5443 -0.3577  0.1664
  522TMC3    C3 7750   1.061   0.269  16.638 -0.6173  0.2605  1.0262
  522TMC3    C4 7751   0.833   0.190  16.771 -0.3371  0.8106 -1.1225
  522TMC3    C5 7752   0.859   0.149  16.647 -0.7856  0.3207 -0.3604
  522TMC3    C6 7753   0.959   0.196  16.572  0.5445 -0.8613  0.5520
  522TMC3     C 7754   0.915   0.320  16.961  0.4547  0.2245  0.0193
  522TMC3     O 7755   1.011   0.372  17.012  0.0238 -0.3097  0.6437
  522TMC3     H 7756   1.116   0.371  16.814  0.0313 -0.1258 -1.0211
  522TMC3    H1 7757   0.752   0.150  16.831  0.8525 -0.4920 -0.3641
  522TMC3    H2 7758   0.972   0.154  16.473  1.4361  1.0487 -0.1279
  522TMC3    C7 7759   0.776   0.045  16.594 -0.1909  0.2656 -0.3279
  522TMC3    C8 7760   1.195   0.288  16.578 -0.5418 -0.3999  0.1508
  522TMC3    O1 7761   0.837   4.697  16.518 -0.6981 -0.1746  0.3513
  522TMC3    O2 7762   1.281   0.347  16.642 -0.1306  0.3583 -0.1152
  523MPD2     C 7763   2.318   4.427  10.334  0.3386 -0.5799 -0.5162
  523MPD2    C1 7764   2.264   4.370  10.222  0.0112  0.0012  1.4984
  523MPD2    C2 7765   2.202   4.451  10.125  0.5840 -0.8854 -0.6029
  523MPD2    C3 7766   2.201   4.592  10.147 -0.2214  0.7474 -0.6752
  523MPD2    C4 7767   2.245   4.644  10.267 -0.3588  0.2470 -0.3252
  523MPD2    C5 7768   2.317   4.566  10.353  0.4466 -0.2099 -0.4717
  523MPD2     H 7769   2.178   4.406  10.030  1.1436  0.1996 -1.2455
  523MPD2    H1 7770   2.224   0.023  10.289 -0.2534  0.1324  0.3259
  523MPD2    H2 7771   2.369   4.368  10.409  2.2720  0.5952 -0.9099
  523MPD2    H3 7772   2.358   4.597  10.448  2.1265  1.4888 -1.7575
  523MPD2     N 7773   2.146   4.679  10.048 -0.2831  0.9067 -0.1804
  523MPD2    H5 7774   2.145   0.051  10.073 -0.0308  0.6244  0.9327
  523MPD2    N1 7775   2.257   4.231  10.213 -0.5488 -0.3200 -0.6362
  523MPD2    H7 7776   2.323   4.174  10.265  0.4156 -1.8826 -3.6080
  524TMC3    C1 7777   2.065   0.036   9.846 -0.7108 -0.1671 -0.6461
  524TMC3    C2 7778   2.075   0.025   9.708  0.4462  0.0343 -0.2721
  524TMC3    C3 7779   2.042   0.136   9.634  0.0247 -0.2953 -0.6402
  524TMC3    C4 7780   2.022   0.152   9.908  0.5661  0.0137 -0.0962
  524TMC3    C5 7781   1.986   0.258   9.821 -0.2559 -0.7500  0.2724
  524TMC3    C6 7782   1.986   0.252   9.685  1.0812 -0.2370 -0.0589
  524TMC3     C 7783   2.100   4.638   9.923  0.0142 -0.4003  0.0333
  524TMC3     O 7784   2.132   4.540   9.864 -0.0907  0.3782  0.1757
  524TMC3     H 7785   2.125   4.663   9.667  0.3394 -0.3343  0.3883
  524TMC3    H1 7786   2.010   0.165  10.015  1.7786  1.2323 -0.1172
  524TMC3    H2 7787   1.942   0.326   9.619  0.7700 -1.0019 -0.7128
  524TMC3    C7 7788   1.938   0.377   9.882 -0.0630 -0.5348  0.7742
  524TMC3    C8 7789   2.014   0.120   9.492  0.2922  0.5672 -0.0149
  524TMC3    O1 7790   1.902   0.372  10.003  0.0671 -0.5048  0.1711
  524TMC3    O2 7791   1.992   0.216   9.418 -0.0097 -0.2321 -0.3606
  525MPD2     C 7792   0.251   1.656  14.346  1.1577  0.7221  0.5710
  525MPD2    C1 7793   0.382   1.674  14.394  0.3225 -0.5557  0.0859
  525MPD2    C2 7794   0.471   1.761  14.332  0.1587 -0.2995 -0.4005
  525MPD2    C3 7795   0.421   1.837  14.230 -0.4300 -0.5267 -0.3901
  525MPD2    C4 7796   0.292   1.818  14.179  0.2932 -0.2876 -0.2110
  525MPD2    C5 7797   0.207   1.725  14.235  0.0570  0.4322  0.4841
  525MPD2     H 7798   0.576   1.775  14.357  0.1071 -0.4147 -0.1161
  525MPD2    H1 7799   0.244   1.886  14.110  1.7718  1.3233  0.3520
  525MPD2    H2 7800   0.177   1.587  14.384  3.2136 -1.9863 -0.3433
  525MPD2    H3 7801   0.108   1.713  14.194  0.4877 -2.1942  0.2118
  525MPD2     N 7802   0.489   1.952  14.181  0.1593 -0.8019  0.5104
  525MPD2    H5 7803   0.434   2.028  14.140  1.5881  0.2820  0.6180
  525MPD2    N1 7804   0.426   1.585  14.498  0.0006  0.0402 -0.2419
  525MPD2    H7 7805   0.526   1.571  14.510 -0.9384 -2.7942  4.0599
  526TMC3    C1 7806   0.434   1.442  14.676 -0.5407 -1.0390 -0.0464
  526TMC3    C2 7807   0.380   1.410  14.792  0.3576  0.8975  0.4741
  526TMC3    C3 7808   0.458   1.372  14.891 -0.1806 -0.6029  0.0187
  526TMC3    C4 7809   0.566   1.426  14.654  0.0626  0.2259 -0.9893
  526TMC3    C5 7810   0.649   1.406  14.758 -0.0429  0.5912 -0.0565
  526TMC3    C6 7811   0.592   1.386  14.881  0.6785 -0.3820 -0.0163
  526TMC3     C 7812   0.355   1.521  14.587 -0.4998 -0.6780  0.2094
  526TMC3     O 7813   0.232   1.519  14.602 -0.4608 -0.0924  0.2882
  526TMC3     H 7814   0.273   1.415  14.809  0.2858 -2.0021  0.7703
  526TMC3    H1 7815   0.606   1.424  14.554  1.9297  3.1114 -0.2949
  526TMC3    H2 7816   0.663   1.370  14.961  2.7329  0.4007 -1.6918
  526TMC3    C7 7817   0.783   1.345  14.746 -0.3819 -0.4225  0.1458
  526TMC3    C8 7818   0.404   1.373  15.025 -0.1567 -0.3478 -0.8094
  526TMC3    O1 7819   0.830   1.273  14.837  0.1603  0.3126 -0.0180
  526TMC3    O2 7820   0.464   1.438  15.109  0.2103  0.2145  0.1489
  527MPD2     C 7821   3.591   0.085   0.958 -0.2339  0.0328  0.2296
  527MPD2    C1 7822   3.599   0.012   1.079  0.3302 -0.0296 -0.1315
  527MPD2    C2 7823   3.714   4.669   1.108  0.4305  0.3922  0.2136
  527MPD2    C3 7824   3.813   4.647   1.010 -0.0600  0.3415 -0.8069
  527MPD2    C4 7825   3.805   4.710   0.891  0.8113 -0.2807  0.0845
  527MPD2    C5 7826   3.697   0.072   0.868 -0.6617 -0.5291  0.2253
  527MPD2     H 7827   3.718   4.618   1.203 -0.3001  3.2457  1.7955
  527MPD2    H1 7828   3.869   4.682   0.808 -1.5466 -2.4902 -1.0019
  527MPD2    H2 7829   3.511   0.154   0.934  1.4300  1.2285 -1.8539
  527MPD2    H3 7830   3.691   0.127   0.775 -0.0337  0.8532  1.0023
  527MPD2     N 7831   3.928   4.567   1.043  0.4983 -0.2626 -0.2270
  527MPD2    H5 7832   3.915   4.509   1.125  1.5811 -0.7064 -0.3754
  527MPD2    N1 7833   3.502   0.027   1.185  0.3836  0.2304 -0.8216
  527MPD2    H7 7834   3.512   4.702   1.273 -0.2085  2.4995  0.5569
  528TMC3    C1 7835   3.319   0.093   1.302  0.0354 -0.0333  0.4976
  528TMC3    C2 7836   3.387   0.076   1.418  0.3316  0.4919 -0.7106
  528TMC3    C3 7837   3.315   0.070   1.539  0.2653  0.1536 -0.8696
  528TMC3    C4 7838   3.190   0.114   1.300  0.8923 -0.0161 -0.0838
  528TMC3    C5 7839   3.122   0.097   1.418 -0.3637 -0.2103  0.1801
  528TMC3    C6 7840   3.182   0.077   1.536  0.2905 -0.0366  0.2894
  528TMC3     C 7841   3.393   0.111   1.177 -0.1737 -0.3361  0.3454
  528TMC3     O 7842   3.339   0.160   1.081 -0.5339  0.3315 -0.4055
  528TMC3     H 7843   3.495   0.067   1.426  0.3432  0.5494 -0.8019
  528TMC3    H1 7844   3.135   0.133   1.208  2.5657 -0.1349 -1.1005
  528TMC3    H2 7845   3.113   0.076   1.620  1.1472  0.1883  1.0060
  528TMC3    C7 7846   2.975   0.094   1.412  0.7062  0.9489  0.0159
  528TMC3    C8 7847   3.392   0.051   1.660  0.0931 -0.0305  0.0048
  528TMC3    O1 7848   2.923   0.133   1.516  0.7459  0.2393 -0.4654
  528TMC3    O2 7849   3.515   0.066   1.649 -0.1209  0.0943  0.5312
  529MPD2     C 7850   1.632   2.671   0.457  0.1765  0.1230  0.2376
  529MPD2    C1 7851   1.497   2.668   0.424 -0.4748 -0.4731 -0.2114
  529MPD2    C2 7852   1.454   2.735   0.306 -0.3074 -0.1988 -0.4510
  529MPD2    C3 7853   1.548   2.800   0.229  0.0457 -0.2130 -0.2877
  529MPD2    C4 7854   1.677   2.804   0.268  0.8720 -0.5992  0.7781
  529MPD2    C5 7855   1.724   2.741   0.383  0.7265  0.1622 -0.0662
  529MPD2     H 7856   1.350   2.740   0.273 -0.2704  0.5740 -0.4431
  529MPD2    H1 7857   1.742   2.859   0.201  1.7302 -1.4156  0.9308
  529MPD2    H2 7858   1.682   2.620   0.538 -0.5356 -2.1049 -0.7236
  529MPD2    H3 7859   1.827   2.744   0.417  0.3595 -0.3920  1.0917
  529MPD2     N 7860   1.512   2.874   0.116  0.2572 -0.3784 -0.1555
  529MPD2    H5 7861   1.591   2.907   0.061  1.3803 -0.3832  1.4438
  529MPD2    N1 7862   1.403   2.619   0.514  0.1082  0.0748 -0.5626
  529MPD2    H7 7863   1.309   2.614   0.478  0.4873 -1.5401 -1.3451
  530TMC3    C1 7864   1.314   2.516   0.714 -0.6113 -0.9314 -0.1862
  530TMC3    C2 7865   1.315   2.523   0.849  0.1945 -0.5135  0.0730
  530TMC3    C3 7866   1.209   2.467   0.922  0.3958 -0.0100 -0.2474
  530TMC3    C4 7867   1.206   2.483   0.640  0.0804 -0.4260  0.2163
  530TMC3    C5 7868   1.099   2.432   0.711 -1.1455  0.3838  0.8793
  530TMC3    C6 7869   1.095   2.440   0.853  0.2300  0.0700  0.3072
  530TMC3     C 7870   1.424   2.568   0.644  0.1152  0.4827 -0.0462
  530TMC3     O 7871   1.529   2.574   0.708 -0.4923 -0.1649 -0.0279
  530TMC3     H 7872   1.400   2.563   0.904 -0.3906  0.5745  0.1690
  530TMC3    H1 7873   1.211   2.480   0.532 -0.5995  1.5507  0.1263
  530TMC3    H2 7874   1.003   2.443   0.910  0.0122  1.8562 -0.1227
  530TMC3    C7 7875   0.979   2.418   0.636  0.0721  0.3850 -0.0273
  530TMC3    C8 7876   1.192   2.516   1.057  0.1881  0.2356  0.9833
  530TMC3    O1 7877   0.960   2.497   0.545 -0.1361 -0.7022  0.0141
  530TMC3    O2 7878   1.076   2.549   1.094  0.0185 -0.2367 -0.3459
  531MPD2     C 7879   4.244   0.150  12.992 -0.5373 -0.5492  0.5504
  531MPD2    C1 7880   4.186   0.256  13.056  0.5688 -0.3413 -0.3737
  531MPD2    C2 7881   4.100   0.342  12.985  0.3260  0.1280  0.1495
  531MPD2    C3 7882   4.071   0.317  12.856 -0.6036 -0.0405  0.0333
  531MPD2    C4 7883   4.127   0.211  12.792  0.2426 -0.2256 -0.5645
  531MPD2    C5 7884   4.207   0.124  12.864 -0.5299 -0.0961  0.0668
  531MPD2     H 7885   4.058   0.435  13.022  0.4173 -0.1634  0.9789
  531MPD2    H1 7886   4.106   0.180  12.691  2.7852  0.7616 -1.3982
  531MPD2    H2 7887   4.317   0.097  13.053 -0.0970  0.0255  0.5232
  531MPD2    H3 7888   4.238   0.032  12.817 -0.3941  0.5499 -1.1116
  531MPD2     N 7889   3.993   0.412  12.786 -0.2124  0.6436 -0.4101
  531MPD2    H5 7890   3.964   0.488  12.846 -1.9152  1.2858 -2.0456
  531MPD2    N1 7891   4.227   0.287  13.188  0.3400 -0.0284  0.3900
  531MPD2    H7 7892   4.308   0.237  13.223  2.1437  2.7155  0.1285
  532TMC3    C1 7893   4.250   0.415  13.392 -0.5986 -0.5433 -0.4223
  532TMC3    C2 7894   4.201   0.526  13.455 -0.0004  0.3427 -0.4218
  532TMC3    C3 7895   4.290   0.613  13.518 -0.1378  0.0855  1.1827
  532TMC3    C4 7896   4.385   0.388  13.401  0.3379 -0.0134 -0.1429
  532TMC3    C5 7897   4.462   0.474  13.481  0.0556 -0.2005  0.1536
  532TMC3    C6 7898   4.413   0.581  13.545  0.1991  0.6367 -0.0204
  532TMC3     C 7899   4.175   0.385  13.271  0.1751 -0.3513 -0.4050
  532TMC3     O 7900   4.080   0.458  13.252  0.0256  0.6331  0.4363
  532TMC3     H 7901   4.098   0.560  13.459 -0.2641 -0.2571 -2.0504
  532TMC3    H1 7902   4.423   0.305  13.342  1.1637 -0.9493  1.7030
  532TMC3    H2 7903   4.473   0.647  13.606  0.3940 -0.5131  1.0569
  532TMC3    C7 7904   4.588   0.424  13.528 -0.0788 -0.0680 -0.3947
  532TMC3    C8 7905   4.278   0.742  13.450  0.3110  0.1111  0.5740
  532TMC3    O1 7906   4.634   0.463  13.634  0.3916 -0.3579 -0.3398
  532TMC3    O2 7907   4.309   0.843  13.516  0.1041 -0.4251 -0.2895
  533TMC3    C1 7908   0.658   2.120  14.197 -0.3946 -0.0178  0.0728
  533TMC3    C2 7909   0.790   2.155  14.220 -0.0821  0.7371 -0.3080
  533TMC3    C3 7910   0.815   2.268  14.288  0.3235  0.0869  0.5701
  533TMC3    C4 7911   0.562   2.192  14.259 -0.1608 -0.1614  0.2207
  533TMC3    C5 7912   0.585   2.286  14.357  0.5169  0.0254 -0.2201
  533TMC3    C6 7913   0.711   2.329  14.364  0.0017  0.2404  0.9343
  533TMC3     C 7914   0.627   1.974  14.182  0.7661 -0.0905  0.1167
  533TMC3     O 7915   0.717   1.892  14.200  0.4500 -0.1898 -0.7604
  533TMC3     H 7916   0.873   2.097  14.181 -1.1830 -0.9313 -0.1606
  533TMC3    H1 7917   0.458   2.164  14.255 -0.5282  1.4149 -1.4474
  533TMC3    H2 7918   0.742   2.407  14.433  0.0613  0.7183  0.3680
  533TMC3    C7 7919   0.535   2.243  14.486 -0.7900  0.0586 -0.2475
  533TMC3    C8 7920   0.947   2.300  14.339  0.8885 -0.2801 -0.3609
  533TMC3    O1 7921   0.516   2.124  14.496 -0.5439  0.0588 -0.4380
  533TMC3    O2 7922   0.957   2.392  14.416 -0.7623  0.1365  0.1224
  534MPD2     C 7923   3.200   3.825   2.132  0.2114 -0.3054 -0.3838
  534MPD2    C1 7924   3.264   3.824   2.013 -0.0378  0.5124  0.3174
  534MPD2    C2 7925   3.208   3.755   1.907 -0.1937 -0.8138 -0.0225
  534MPD2    C3 7926   3.094   3.677   1.914  0.2045  0.1111 -0.8766
  534MPD2    C4 7927   3.025   3.681   2.032  0.8819  0.9370 -0.1090
  534MPD2    C5 7928   3.084   3.755   2.136 -0.4316  0.2560  0.5050
  534MPD2     H 7929   3.256   3.769   1.811 -0.0794 -0.9781  0.0089
  534MPD2    H1 7930   2.930   3.629   2.038  2.1566 -1.1840  1.5090
  534MPD2    H2 7931   3.239   3.882   2.216 -0.6613  1.2588 -1.0333
  534MPD2    H3 7932   3.031   3.749   2.230 -0.2756  0.3499  0.5980
  534MPD2     N 7933   3.050   3.595   1.810 -0.7064  0.4366  0.0558
  534MPD2    H5 7934   2.961   3.553   1.834 -0.6578  0.1755 -0.2236
  534MPD2    N1 7935   3.368   3.914   1.979 -0.4702  0.8663 -0.1410
  534MPD2    H7 7936   3.383   3.922   1.879 -0.3375 -0.8593 -0.2592
  535TMC3    C1 7937   3.034   3.481   1.611 -0.1360 -0.3721  0.7395
  535TMC3    C2 7938   2.911   3.537   1.576 -0.2913 -0.1208  0.6795
  535TMC3    C3 7939   2.853   3.484   1.462 -0.7890  0.7373  0.2479
  535TMC3    C4 7940   3.106   3.395   1.527  0.1865  0.5424  0.4744
  535TMC3    C5 7941   3.045   3.352   1.410 -0.1688 -0.3585  0.0433
  535TMC3    C6 7942   2.915   3.392   1.382 -0.4372 -0.2745  0.8234
  535TMC3     C 7943   3.110   3.564   1.689 -0.3755  0.1851 -0.1768
  535TMC3     O 7944   3.224   3.582   1.648 -0.2248 -0.8116  0.8885
  535TMC3     H 7945   2.877   3.630   1.620  1.4750  0.4248  0.8968
  535TMC3    H1 7946   3.201   3.363   1.569  0.5109 -3.4672 -3.3358
  535TMC3    H2 7947   2.867   3.363   1.289 -1.6534 -1.1576  1.7374
  535TMC3    C7 7948   3.131   3.329   1.298 -0.0716 -0.4098  0.0704
  535TMC3    C8 7949   2.738   3.545   1.395 -0.8770 -0.1948 -0.4209
  535TMC3    O1 7950   3.077   3.333   1.188 -0.1785  0.1468 -0.2266
  535TMC3    O2 7951   2.663   3.466   1.342 -0.3810 -0.4744 -0.1378
  536MPD2     C 7952   2.170   1.480  16.533 -0.6449 -0.0236 -0.5434
  536MPD2    C1 7953   2.056   1.509  16.602  0.8695  0.0712 -0.1014
  536MPD2    C2 7954   1.939   1.546  16.527 -0.5213  0.0795  0.1687
  536MPD2    C3 7955   1.941   1.549  16.388  0.0057 -0.3498  0.7805
  536MPD2    C4 7956   2.058   1.513  16.329 -0.1572  1.2803 -0.1955
  536MPD2    C5 7957   2.173   1.476  16.399  1.2836  0.2339 -0.1561
  536MPD2     H 7958   1.845   1.572  16.576 -0.4135 -2.0863  1.5114
  536MPD2    H1 7959   2.058   1.510  16.220  1.2406 -2.0648 -0.1137
  536MPD2    H2 7960   2.260   1.442  16.581  0.6699  1.0596 -2.1665
  536MPD2    H3 7961   2.266   1.447  16.353  0.0438 -2.4294 -1.0047
  536MPD2     N 7962   1.834   1.592  16.309 -0.8009  0.0321 -0.4424
  536MPD2    H5 7963   1.849   1.599  16.209 -1.5561 -0.1948 -0.5678
  536MPD2    N1 7964   2.060   1.508  16.739  0.2106 -0.2026 -0.0565
  536MPD2    H7 7965   2.152   1.494  16.781 -0.2692  0.5602  1.2271
  537TMC3    C1 7966   1.977   1.490  16.972 -0.7182 -0.4892  0.2311
  537TMC3    C2 7967   2.101   1.466  17.016 -0.4664  1.0754  0.4956
  537TMC3    C3 7968   2.122   1.386  17.125  0.0357  0.0694 -0.2005
  537TMC3    C4 7969   1.870   1.450  17.047  0.6628  1.1848  0.6527
  537TMC3    C5 7970   1.888   1.360  17.151  0.4317 -0.7860 -0.3190
  537TMC3    C6 7971   2.016   1.331  17.196 -0.1770  0.9966 -0.0779
  537TMC3     C 7972   1.949   1.507  16.827  0.4620 -0.1388  0.1046
  537TMC3     O 7973   1.830   1.514  16.795  0.2330  0.4957 -0.3558
  537TMC3     H 7974   2.191   1.491  16.960  1.5619 -0.3656  3.1287
  537TMC3    H1 7975   1.772   1.479  17.011  0.8842 -0.9469 -1.6420
  537TMC3    H2 7976   2.038   1.275  17.286  1.6312  1.5709 -0.1636
  537TMC3    C7 7977   1.777   1.268  17.167  0.1316 -0.2874  0.1384
  537TMC3    C8 7978   2.255   1.372  17.175  0.5821  0.3732 -0.1500
  537TMC3    O1 7979   1.675   1.293  17.108 -0.1450 -0.5089  0.4174
  537TMC3    O2 7980   2.339   1.442  17.122 -0.6593 -0.2919 -0.0329
  538TMC3    C1 7981   2.834   4.491  10.858 -0.1455 -0.1085 -0.1656
  538TMC3    C2 7982   2.820   4.387  10.772 -0.5647 -0.2099 -0.7252
  538TMC3    C3 7983   2.756   4.408  10.654  0.4005  0.4508  0.5449
  538TMC3    C4 7984   2.763   4.610  10.836  0.4630 -0.2188  0.4157
  538TMC3    C5 7985   2.697   4.623  10.720  1.3442  0.1970 -0.0648
  538TMC3    C6 7986   2.689   4.522  10.623 -0.2003 -0.8007  0.3086
  538TMC3     C 7987   2.886   4.471  10.994  0.5302  0.1082 -0.0728
  538TMC3     O 7988   2.840   4.529  11.096  0.1129 -0.5252 -0.3064
  538TMC3     H 7989   2.870   4.292  10.789  1.0796  0.5077 -1.5478
  538TMC3    H1 7990   2.765   4.685  10.914 -0.0806  0.3593 -0.1338
  538TMC3    H2 7991   2.644   4.532  10.525  1.5464  1.2770 -0.2959
  538TMC3    C7 7992   2.627   0.025  10.700 -0.2566  0.2006 -0.5955
  538TMC3    C8 7993   2.772   4.304  10.554  1.4448  0.2502  0.2490
  538TMC3    O1 7994   2.629   0.101  10.798 -0.0045 -0.1722  0.5287
  538TMC3    O2 7995   2.700   4.308  10.458  0.8133  0.0609 -0.0586
  539MPD2     C 7996   2.612   3.980  11.794  0.0704 -1.1031 -0.0668
  539MPD2    C1 7997   2.666   3.985  11.674  0.2745  0.4072 -0.2477
  539MPD2    C2 7998   2.673   4.101  11.605 -0.4116 -0.5110 -0.0206
  539MPD2    C3 7999   2.628   4.217  11.665 -0.5077  0.6905  0.0658
  539MPD2    C4 8000   2.573   4.211  11.793  0.4314 -0.7402 -0.6857
  539MPD2    C5 8001   2.573   4.094  11.857  0.7468  0.2169 -0.0195
  539MPD2     H 8002   2.713   4.097  11.504  0.0256  1.0597  0.0822
  539MPD2    H1 8003   2.538   4.291  11.858 -0.0704 -2.4339  1.1513
  539MPD2    H2 8004   2.610   3.896  11.863 -0.7926  0.0440  1.2815
  539MPD2    H3 8005   2.522   4.086  11.952 -1.1638  2.4648 -0.8613
  539MPD2     N 8006   2.625   4.348  11.604 -0.4206  0.3620  0.2354
  539MPD2    H5 8007   2.578   4.421  11.656 -1.8967  0.2531 -0.9507
  539MPD2    N1 8008   2.731   3.875  11.606  0.0406  0.4176 -0.7117
  539MPD2    H7 8009   2.753   3.886  11.508 -2.2263  2.3157 -1.0092
  540TMC3    C1 8010   2.660   4.520  11.450 -0.0576  0.0532  0.0866
  540TMC3    C2 8011   2.611   4.535  11.323  0.6250 -0.2938 -0.5934
  540TMC3    C3 8012   2.545   4.645  11.283 -0.3560  0.1954  0.0847
  540TMC3    C4 8013   2.622   4.611  11.546  0.2338  1.1221 -0.6397
  540TMC3    C5 8014   2.544   4.721  11.509  0.0442  0.1845 -0.4942
  540TMC3    C6 8015   2.510   0.020  11.374  0.3716 -0.1180 -0.7530
  540TMC3     C 8016   2.678   4.379  11.483 -0.3737 -0.7572 -0.6257
  540TMC3     O 8017   2.730   4.300  11.406  0.0756 -0.4082  0.5253
  540TMC3     H 8018   2.654   4.471  11.246 -1.7130  0.4166 -2.4974
  540TMC3    H1 8019   2.640   4.591  11.651  2.6805 -3.9696 -2.0491
  540TMC3    H2 8020   2.449   0.106  11.349  3.5264  2.6285  1.0487
  540TMC3    C7 8021   2.463   0.054  11.609 -0.0675  0.1853  0.4098
  540TMC3    C8 8022   2.495   4.655  11.147 -0.5766 -0.6732  0.1713
  540TMC3    O1 8023   2.437   4.710  11.701  0.0640  0.2353 -0.3473
  540TMC3    O2 8024   2.475   0.044  11.108  0.2275 -1.0741 -0.3644
  541MPD2     C 8025   0.541   0.650  13.426 -0.7642  0.5020 -0.3934
  541MPD2    C1 8026   0.619   0.590  13.331 -0.6317 -0.0233  0.2702
  541MPD2    C2 8027   0.642   0.652  13.219  0.5682 -0.3885  0.4834
  541MPD2    C3 8028   0.593   0.777  13.192 -0.6915  0.1994 -0.0768
  541MPD2    C4 8029   0.512   0.839  13.283 -0.2588 -0.0651 -0.0759
  541MPD2    C5 8030   0.480   0.771  13.396  0.0829  0.4852 -0.1161
  541MPD2     H 8031   0.709   0.596  13.155 -0.0006 -1.2923  0.6703
  541MPD2    H1 8032   0.474   0.939  13.269  1.9895  0.8177  0.2874
  541MPD2    H2 8033   0.531   0.610  13.526 -1.1936 -0.3063 -0.7605
  541MPD2    H3 8034   0.424   0.820  13.475  0.2342  1.3460 -0.5478
  541MPD2     N 8035   0.628   0.840  13.063  0.3305  0.1326  0.5139
  541MPD2    H5 8036   0.594   0.934  13.048 -0.5095 -0.5302 -1.8081
  541MPD2    N1 8037   0.699   0.476  13.361  0.0229 -0.2988 -0.0473
  541MPD2    H7 8038   0.769   0.452  13.292  1.7983  1.5516  1.1123
  542TMC3    C1 8039   0.720   0.860  12.845  0.5015  0.5418 -0.4462
  542TMC3    C2 8040   0.733   0.796  12.721  0.3039 -0.9910  0.8360
  542TMC3    C3 8041   0.728   0.871  12.608 -1.2842 -0.0052 -0.2140
  542TMC3    C4 8042   0.703   0.996  12.861 -0.9583 -0.4367  0.0023
  542TMC3    C5 8043   0.708   1.066  12.742 -0.1639 -0.0144 -0.0744
  542TMC3    C6 8044   0.728   1.010  12.619 -0.6995  0.2237 -0.4405
  542TMC3     C 8045   0.691   0.777  12.959  0.3147  0.2150  0.6714
  542TMC3     O 8046   0.708   0.659  12.938  0.0393  0.2387 -0.4226
  542TMC3     H 8047   0.733   0.688  12.718  1.3381 -0.9062 -2.6991
  542TMC3    H1 8048   0.680   1.052  12.950 -1.3768 -0.6831  0.0469
  542TMC3    H2 8049   0.745   1.070  12.530  1.9162 -1.1392 -0.8715
  542TMC3    C7 8050   0.714   1.213  12.751 -0.0172  0.2182 -0.4376
  542TMC3    C8 8051   0.786   0.821  12.479  0.1948 -0.7510  0.1074
  542TMC3    O1 8052   0.726   1.258  12.869  0.0033  0.5381  0.0110
  542TMC3    O2 8053   0.762   0.874  12.371 -0.2844 -0.6446  0.1734
  543TMC3    C1 8054   0.888   1.959  17.628 -0.0890 -0.0962 -0.5915
  543TMC3    C2 8055   0.915   1.828  17.652  0.2038  0.0867  0.6289
  543TMC3    C3 8056   0.949   1.788   0.070 -0.1283 -0.1987 -0.3140
  543TMC3    C4 8057   0.895   2.050   0.030  0.5727 -0.0115 -0.2777
  543TMC3    C5 8058   0.945   2.008   0.156 -0.8280  0.5434 -0.0130
  543TMC3    C6 8059   0.983   1.878   0.174 -0.0254  1.2514  0.0339
  543TMC3     C 8060   0.848   2.000  17.494  0.5947  0.0799 -0.0823
  543TMC3     O 8061   0.886   1.926  17.402 -0.2185 -0.6173 -0.2356
  543TMC3     H 8062   0.916   1.759  17.568  1.5571  0.5794  0.2327
  543TMC3    H1 8063   0.883   2.158   0.024  0.2125 -0.0669 -0.5288
  543TMC3    H2 8064   1.024   1.851   0.270 -0.7014  0.0143 -0.0291
  543TMC3    C7 8065   1.052   2.097   0.202 -0.0461  0.9195 -0.3195
  543TMC3    C8 8066   0.977   1.644   0.081 -0.7782  0.0362  0.2474
  543TMC3    O1 8067   1.104   2.179   0.127  0.3218 -0.1256 -0.4578
  543TMC3    O2 8068   0.925   1.566   0.002 -0.2936 -0.0438 -0.0199
  544MPD2     C 8069   1.208   1.228   0.252  0.2786 -0.8815 -0.0668
  544MPD2    C1 8070   1.183   1.267   0.125  0.3939  0.8027  0.2039
  544MPD2    C2 8071   1.140   1.400   0.102  0.1780  0.1993 -0.0650
  544MPD2    C3 8072   1.117   1.493   0.208 -0.0187  0.0440  0.6180
  544MPD2    C4 8073   1.144   1.454   0.339  0.4819  0.1947 -0.0053
  544MPD2    C5 8074   1.194   1.322   0.354 -0.9108  0.1762  0.0275
  544MPD2     H 8075   1.116   1.420  17.701  2.8643 -1.6784 -1.0450
  544MPD2    H1 8076   1.113   1.515   0.423  3.0374 -0.4770  1.4197
  544MPD2    H2 8077   1.235   1.126   0.276  0.6234 -0.2674  2.1453
  544MPD2    H3 8078   1.205   1.281   0.454  2.1388  0.7608 -0.0590
  544MPD2     N 8079   1.053   1.620   0.187 -0.0755 -0.1243  0.5077
  544MPD2    H5 8080   1.051   1.698   0.252 -0.7723  0.3390 -0.0843
  544MPD2    N1 8081   1.222   1.168   0.031  0.8691 -0.4901 -0.4401
  544MPD2    H7 8082   1.240   1.070   0.052  2.6832 -0.3114 -1.1696
  545TMC3    C1 8083   1.197   1.058  17.530  0.4707  0.1675 -0.3897
  545TMC3    C2 8084   1.125   1.055  17.411  0.5821  0.5444 -0.2339
  545TMC3    C3 8085   1.115   0.939  17.349 -0.4173 -0.0711 -0.4826
  545TMC3    C4 8086   1.287   0.952  17.567  0.9786 -0.0518 -0.7636
  545TMC3    C5 8087   1.267   0.831  17.496 -0.9096 -0.1253 -0.6041
  545TMC3    C6 8088   1.183   0.827  17.387 -0.1404  0.3305 -0.0381
  545TMC3     C 8089   1.195   1.184  17.599  0.6615 -0.2544 -0.6359
  545TMC3     O 8090   1.166   1.280  17.530 -0.2767  0.6143  0.6132
  545TMC3     H 8091   1.067   1.139  17.377 -0.8212  0.3362  1.6412
  545TMC3    H1 8092   1.338   0.957  17.663 -0.4033  1.8626 -0.1415
  545TMC3    H2 8093   1.171   0.743  17.319 -2.1144 -0.4091  1.2433
  545TMC3    C7 8094   1.348   0.709  17.524 -0.7860  0.1015 -0.0796
  545TMC3    C8 8095   1.079   0.945  17.206 -0.2468  0.7021  0.3025
  545TMC3    O1 8096   1.319   0.619  17.452 -0.3062  1.3486 -0.3277
  545TMC3    O2 8097   1.105   1.051  17.151 -0.1730 -0.5494  0.4262
  546MPD2     C 8098   2.423   2.046  17.418  0.1172 -0.0070 -0.3953
  546MPD2    C1 8099   2.330   2.095  17.335 -0.4101 -0.3867  0.0250
  546MPD2    C2 8100   2.362   2.209  17.260 -1.1492  0.1201  0.2519
  546MPD2    C3 8101   2.490   2.264  17.263  0.6515  0.1428 -0.4870
  546MPD2    C4 8102   2.583   2.202  17.344  0.1092 -0.1812  1.0320
  546MPD2    C5 8103   2.549   2.097  17.430 -0.0438 -0.7448 -0.1397
  546MPD2     H 8104   2.294   2.253  17.188 -0.9273  1.6020  0.9521
  546MPD2    H1 8105   2.682   2.245  17.352 -0.9493  2.8144 -1.9486
  546MPD2    H2 8106   2.400   1.962  17.482 -1.4401  0.2767 -0.5908
  546MPD2    H3 8107   2.627   2.058  17.495  0.3181 -0.2011 -0.2390
  546MPD2     N 8108   2.532   2.376  17.186 -0.2258  0.1226  0.5310
  546MPD2    H5 8109   2.626   2.412  17.201 -0.6910  2.4782 -2.2881
  546MPD2    N1 8110   2.201   2.039  17.350 -0.0220  0.2816 -0.1991
  546MPD2    H7 8111   2.198   1.969  17.423  2.1167 -0.0436 -0.4278
  547TMC3    C1 8112   1.959   2.023  17.315  0.6429 -0.2496 -0.6717
  547TMC3    C2 8113   1.861   2.041  17.223 -0.3778  0.2602 -0.4758
  547TMC3    C3 8114   1.737   2.011  17.264  0.0974 -0.4862 -0.2066
  547TMC3    C4 8115   1.939   1.983  17.448 -0.0409 -0.2793 -0.4458
  547TMC3    C5 8116   1.812   1.944  17.478 -0.0873  0.5336  0.4922
  547TMC3    C6 8117   1.711   1.966  17.390 -0.4719  0.6704 -0.8381
  547TMC3     C 8118   2.088   2.078  17.278  0.2856 -0.0043  0.0323
  547TMC3     O 8119   2.085   2.157  17.186  0.1559  0.3620  0.2338
  547TMC3     H 8120   1.872   2.099  17.132  0.9636  0.8720  0.0736
  547TMC3    H1 8121   2.017   1.976  17.524 -0.9222 -1.7515  0.3294
  547TMC3    H2 8122   1.607   1.953  17.416 -0.7810  3.4815 -0.7127
  547TMC3    C7 8123   1.780   1.850  17.583 -1.1669  0.8524  0.8590
  547TMC3    C8 8124   1.632   2.004  17.160 -0.1261  0.2072  0.3368
  547TMC3    O1 8125   1.833   1.857  17.693  0.2235 -0.4352  0.9726
  547TMC3    O2 8126   1.518   2.031  17.188  0.0252 -0.1256  0.6930
  548MPD2     C 8127   1.833   2.687  12.153 -0.2731  0.0998 -0.1728
  548MPD2    C1 8128   1.769   2.576  12.202 -0.4083  0.7946 -0.3692
  548MPD2    C2 8129   1.843   2.457  12.214  0.3061 -0.2220  0.2098
  548MPD2    C3 8130   1.979   2.459  12.176 -0.8012  0.5778  0.0892
  548MPD2    C4 8131   2.027   2.569  12.105  0.5076 -0.8331 -0.5339
  548MPD2    C5 8132   1.958   2.686  12.102 -0.2098  0.6475  0.2936
  548MPD2     H 8133   1.799   2.369  12.259 -0.3645  0.1788  0.3436
  548MPD2    H1 8134   2.128   2.568  12.066  0.3633 -1.9921 -0.8837
  548MPD2    H2 8135   1.782   2.781  12.133  1.5925  1.2038  0.2337
  548MPD2    H3 8136   2.004   2.774  12.058 -1.0673  0.7885 -0.3314
  548MPD2     N 8137   2.063   2.349  12.190  0.1954 -0.3753 -0.2214
  548MPD2    H5 8138   2.013   2.274  12.237  1.7903 -0.1729  1.8337
  548MPD2    N1 8139   1.638   2.586  12.247  0.2984 -0.2232  0.3048
  548MPD2    H7 8140   1.596   2.678  12.255 -0.0725 -0.2815 -0.8700
  549TMC3    C1 8141   1.422   2.518  12.300  0.0445  0.0553 -0.6711
  549TMC3    C2 8142   1.379   2.638  12.256 -0.1331 -0.1698  0.2142
  549TMC3    C3 8143   1.249   2.667  12.278  0.6837  0.4447 -0.4468
  549TMC3    C4 8144   1.335   2.432  12.364  1.1108 -0.2714  0.3083
  549TMC3    C5 8145   1.210   2.467  12.382  0.0822  0.2290 -0.1813
  549TMC3    C6 8146   1.158   2.586  12.341  0.8200 -0.4615  0.5003
  549TMC3     C 8147   1.555   2.478  12.275  0.2791 -0.4599  0.0015
  549TMC3     O 8148   1.579   2.361  12.288 -0.2433  0.5492 -0.3838
  549TMC3     H 8149   1.436   2.694  12.183 -1.2348  0.5132 -0.1284
  549TMC3    H1 8150   1.382   2.347  12.412 -0.1881 -1.5831 -0.7598
  549TMC3    H2 8151   1.054   2.612  12.359  0.2569 -0.3320 -2.7969
  549TMC3    C7 8152   1.114   2.379  12.449  1.3128  0.1963  0.0648
  549TMC3    C8 8153   1.199   2.797  12.233 -0.6826 -0.2404  0.0709
  549TMC3    O1 8154   0.998   2.418  12.430  0.0096  0.6661  0.1624
  549TMC3    O2 8155   1.078   2.808  12.228 -0.4783  0.8642  0.1717
  550TMC3    C1 8156   0.344   0.247  12.220 -0.3158 -0.1830  0.2956
  550TMC3    C2 8157   0.303   0.340  12.314 -0.4387  0.1401  0.0342
  550TMC3    C3 8158   0.299   0.479  12.285 -0.3524  0.2828  0.0710
  550TMC3    C4 8159   0.391   0.308  12.100  0.2568  0.0204 -0.5219
  550TMC3    C5 8160   0.371   0.443  12.073  0.0236  0.1633 -0.1462
  550TMC3    C6 8161   0.338   0.537  12.168  1.1308  0.4667  0.4216
  550TMC3     C 8162   0.277   0.114  12.224 -0.1322  0.9771  0.1859
  550TMC3     O 8163   0.201   0.106  12.316  0.3317  0.6824  0.7604
  550TMC3     H 8164   0.270   0.298  12.408 -1.3603  0.7924 -0.0023
  550TMC3    H1 8165   0.418   0.239  12.021 -0.4374  0.8275 -1.4680
  550TMC3    H2 8166   0.332   0.637  12.128  0.5633  0.1189 -0.3633
  550TMC3    C7 8167   0.349   0.485  11.930  0.5799 -0.1258 -0.2078
  550TMC3    C8 8168   0.237   0.574  12.371 -0.0120 -0.1798 -0.7458
  550TMC3    O1 8169   0.439   0.448  11.852 -0.3603  0.0637 -0.4519
  550TMC3    O2 8170   0.223   0.686  12.324  0.0335 -0.0987  0.4518
  551TMC3    C1 8171   2.661   3.001  13.337 -0.8370 -0.5324  0.2295
  551TMC3    C2 8172   2.708   3.111  13.265 -0.1968  0.2565 -0.4127
  551TMC3    C3 8173   2.772   3.212  13.330  0.3343  0.0641  0.4803
  551TMC3    C4 8174   2.695   2.986  13.471  0.6580 -0.0264 -0.0579
  551TMC3    C5 8175   2.765   3.086  13.524  0.2212 -0.1357 -0.6484
  551TMC3    C6 8176   2.811   3.191  13.455  0.3622 -0.0902  0.3556
  551TMC3     C 8177   2.582   2.902  13.271  0.6617  0.2984  0.0922
  551TMC3     O 8178   2.554   2.922  13.155  0.2970  0.1243 -0.2727
  551TMC3     H 8179   2.690   3.127  13.159  0.3070  1.7657 -0.2684
  551TMC3    H1 8180   2.683   2.897  13.531  1.5052 -0.6238 -0.7691
  551TMC3    H2 8181   2.880   3.264  13.495 -0.6911  1.0745  0.0446
  551TMC3    C7 8182   2.810   3.077  13.665 -0.0577  0.2013 -0.3261
  551TMC3    C8 8183   2.878   3.269  13.253 -0.5273  0.4118 -0.5844
  551TMC3    O1 8184   2.906   3.150  13.685 -0.0259  0.3989  0.3049
  551TMC3    O2 8185   2.962   3.187  13.217 -0.2540  0.1299 -0.6533
  552MPD2     C 8186   0.176   0.441  14.142  0.1578 -0.0444  0.8038
  552MPD2    C1 8187   0.085   0.347  14.196 -0.5096  0.3488 -0.2203
  552MPD2    C2 8188   0.127   0.256  14.295 -0.3061 -0.0938  0.5697
  552MPD2    C3 8189   0.255   0.267  14.346  1.0006 -0.1289  0.7346
  552MPD2    C4 8190   0.340   0.365  14.289  0.0388  0.0750  0.2315
  552MPD2    C5 8191   0.302   0.444  14.187  0.3998 -0.3487 -0.0758
  552MPD2     H 8192   0.063   0.181  14.340 -0.7171 -0.3601 -0.4671
  552MPD2    H1 8193   0.439   0.386  14.327 -0.2479 -0.1924  1.1511
  552MPD2    H2 8194   0.149   0.511  14.063 -1.6806 -0.0467  1.4322
  552MPD2    H3 8195   0.366   0.518  14.142  0.5629 -0.1606  0.4721
  552MPD2     N 8196   0.310   0.185  14.451 -0.3978  0.1804 -0.4319
  552MPD2    H5 8197   0.409   0.200  14.467 -0.4212  0.2408 -0.3410
  552MPD2    N1 8198   4.674   0.339  14.157  0.5594  0.0200  0.5615
  552MPD2    H7 8199   4.618   0.262  14.192 -0.7014 -0.7230 -3.0349
  553TMC3    C1 8200   4.470   0.369  14.048 -0.3285 -0.4060  0.1051
  553TMC3    C2 8201   4.411   0.383  13.922  0.1010 -1.3075 -0.2219
  553TMC3    C3 8202   4.293   0.316  13.896 -0.1857 -0.0300 -0.2367
  553TMC3    C4 8203   4.416   0.296  14.148 -0.4502 -0.2510 -0.0617
  553TMC3    C5 8204   4.291   0.250  14.123 -0.0847  0.4347  0.1570
  553TMC3    C6 8205   4.222   0.255  14.005  0.0485  0.9689  0.2747
  553TMC3     C 8206   4.598   0.423  14.079 -0.4528  0.2438 -0.2422
  553TMC3     O 8207   4.632   0.520  14.012  0.4407 -0.1180  0.1380
  553TMC3     H 8208   4.461   0.433  13.839 -0.5042 -1.5089 -0.7040
  553TMC3    H1 8209   4.459   0.290  14.248  0.3535  1.3524 -0.3065
  553TMC3    H2 8210   4.150   0.178  13.978 -0.5603  1.4342  0.5631
  553TMC3    C7 8211   4.263   0.122  14.189 -0.6322  0.0125 -0.2888
  553TMC3    C8 8212   4.295   0.244  13.767  0.4848  0.4778 -0.1607
  553TMC3    O1 8213   4.147   0.096  14.218  0.3484  0.1601  0.4320
  553TMC3    O2 8214   4.404   0.211  13.727  0.1080  0.5071 -0.2137
  554TMC3    C1 8215   1.759   3.960  11.606  0.0045  0.3638 -0.3761
  554TMC3    C2 8216   1.734   3.887  11.490  0.3154  0.0896 -0.1786
  554TMC3    C3 8217   1.838   3.886  11.402  0.6982 -0.0932  0.1182
  554TMC3    C4 8218   1.874   4.027  11.633 -0.1473 -0.0428 -0.1070
  554TMC3    C5 8219   1.969   4.038  11.530 -0.0923 -1.1101  0.3311
  554TMC3    C6 8220   1.945   3.970  11.412  0.1679  0.1720  0.0674
  554TMC3     C 8221   1.684   3.912  11.721 -0.2282  0.3342  0.5519
  554TMC3     O 8222   1.564   3.899  11.714 -0.4926  0.4885 -0.2778
  554TMC3     H 8223   1.643   3.832  11.467 -0.9645  1.7759  0.8196
  554TMC3    H1 8224   1.887   4.086  11.723 -1.5756  2.1590 -1.3259
  554TMC3    H2 8225   2.009   3.979  11.325 -2.0228  1.3561 -1.4381
  554TMC3    C7 8226   2.023   4.164  11.490 -0.3644 -0.2125 -0.4639
  554TMC3    C8 8227   1.812   3.844  11.259 -0.1114 -0.1563 -0.0188
  554TMC3    O1 8228   2.101   4.168  11.395 -0.3169  0.3431  0.1017
  554TMC3    O2 8229   1.884   3.890  11.169  0.1403  0.6204  0.2855
  555TMC3    C1 8230   0.681   3.382  14.838 -0.1225  0.4537 -0.2086
  555TMC3    C2 8231   0.632   3.472  14.924 -1.0079  0.8251  0.9415
  555TMC3    C3 8232   0.668   3.465  15.060 -0.3505 -0.2162 -0.4134
  555TMC3    C4 8233   0.767   3.284  14.880 -0.0411  0.7723 -0.3452
  555TMC3    C5 8234   0.813   3.287  15.011  0.7955  0.5346  0.9123
  555TMC3    C6 8235   0.763   3.371  15.106 -0.1460 -0.4273 -0.1162
  555TMC3     C 8236   0.642   3.380  14.697 -0.0916  0.6218 -0.0631
  555TMC3     O 8237   0.719   3.317  14.629 -0.0207  0.1530 -0.8570
  555TMC3     H 8238   0.555   3.543  14.894 -0.0278  1.9909  1.1954
  555TMC3    H1 8239   0.795   3.212  14.804 -0.8008 -1.7191  1.7247
  555TMC3    H2 8240   0.784   3.359  15.211  1.5384 -0.7587 -0.4839
  555TMC3    C7 8241   0.890   3.180  15.063  0.2014  0.2252  0.4432
  555TMC3    C8 8242   0.630   3.574  15.151  0.4405 -0.5910  0.0699
  555TMC3    O1 8243   0.888   3.170  15.187 -0.1571  0.4612 -0.3071
  555TMC3    O2 8244   0.536   3.643  15.119 -0.3413  0.6039 -0.4510
  556MPD2     C 8245   4.024   4.689  10.609 -0.1137  0.5556 -0.5186
  556MPD2    C1 8246   3.906   0.026  10.596  1.0745 -0.1440  0.1742
  556MPD2    C2 8247   3.809   4.690  10.518  0.8540 -0.0068 -0.0270
  556MPD2    C3 8248   3.847   4.584  10.439  0.2073  0.6101  0.0683
  556MPD2    C4 8249   3.974   4.540  10.441  0.3069 -0.8950 -0.1295
  556MPD2    C5 8250   4.062   4.595  10.519 -0.3360  0.4427  0.4384
  556MPD2     H 8251   3.709   0.005  10.504 -0.2678 -1.6441  3.0621
  556MPD2    H1 8252   4.025   4.462  10.386 -0.8147 -1.3624 -0.5170
  556MPD2    H2 8253   4.095   4.716  10.686  1.3081  2.6038 -2.5372
  556MPD2    H3 8254   4.158   4.545  10.522 -1.9622 -2.7197  0.0222
  556MPD2     N 8255   3.754   4.524  10.358  0.0279 -0.1007  0.7779
  556MPD2    H5 8256   3.656   4.551  10.370  0.0624  0.9454 -1.2253
  556MPD2    N1 8257   3.877   0.136  10.673 -0.3109 -0.3518  0.1380
  556MPD2    H7 8258   3.781   0.171  10.669  0.2912  1.2787  0.1104
  557TMC3    C1 8259   3.655   4.411  10.187  0.8432 -0.1128 -0.5271
  557TMC3    C2 8260   3.672   4.381  10.054 -0.0153  0.6234 -0.5857
  557TMC3    C3 8261   3.567   4.314  10.001 -0.3634  0.0982  0.2908
  557TMC3    C4 8262   3.553   4.369  10.267 -0.2904 -0.0834 -0.3463
  557TMC3    C5 8263   3.457   4.292  10.215 -0.3567 -0.4552  0.1396
  557TMC3    C6 8264   3.459   4.266  10.076  0.3793  0.0647  0.8395
  557TMC3     C 8265   3.778   4.443  10.254 -0.1259  0.6141  0.3392
  557TMC3     O 8266   3.884   4.394  10.209  0.7068 -0.5516  0.4354
  557TMC3     H 8267   3.761   4.410   9.999 -0.3323  2.2868 -0.2278
  557TMC3    H1 8268   3.557   4.412  10.366 -0.6025  1.8106 -1.1576
  557TMC3    H2 8269   3.377   4.217  10.026  0.9429  1.6496 -1.6370
  557TMC3    C7 8270   3.336   4.279  10.292 -0.5871 -0.0278 -0.5575
  557TMC3    C8 8271   3.598   4.256   9.871  0.1740 -0.6791  0.2503
  557TMC3    O1 8272   3.341   4.345  10.395  0.7863 -0.4534 -0.6614
  557TMC3    O2 8273   3.706   4.272   9.815  0.0143 -0.1228 -0.3048
  558TMC3    C1 8274   1.360   2.624   9.968  0.2413 -0.2679 -0.0602
  558TMC3    C2 8275   1.263   2.633  10.065 -0.0428 -0.5821  0.7288
  558TMC3    C3 8276   1.142   2.673  10.018 -0.2343 -1.1167  0.1752
  558TMC3    C4 8277   1.334   2.662   9.832 -0.0194 -0.4001 -0.3807
  558TMC3    C5 8278   1.209   2.688   9.788  0.1901  0.1640 -0.3642
  558TMC3    C6 8279   1.113   2.691   9.883  0.1446 -0.7205 -1.1935
  558TMC3     C 8280   1.495   2.642  10.016  0.0162 -0.4817  0.4760
  558TMC3     O 8281   1.511   2.718  10.112  0.1454  0.5579  0.1785
  558TMC3     H 8282   1.298   2.624  10.167 -0.1245 -0.4821  0.7661
  558TMC3    H1 8283   1.416   2.661   9.761 -0.2003  1.0630 -0.6153
  558TMC3    H2 8284   1.008   2.706   9.862 -0.3974 -0.5384  1.6048
  558TMC3    C7 8285   1.194   2.785   9.681 -0.7052  0.2106 -0.7847
  558TMC3    C8 8286   1.034   2.670  10.118  0.4508  0.4084  0.8382
  558TMC3    O1 8287   1.299   2.821   9.629  0.3174 -0.0118  0.0726
  558TMC3    O2 8288   0.928   2.733  10.094 -0.3640 -0.0134 -0.3260
  559MPD2     C 8289   1.555   3.642  10.412  0.1028 -0.1786 -0.3704
  559MPD2    C1 8290   1.501   3.542  10.479  0.3497  0.1306 -0.3582
  559MPD2    C2 8291   1.563   3.498  10.596 -0.3560  0.6753  0.5760
  559MPD2    C3 8292   1.684   3.545  10.628  0.0088  0.3302  0.8375
  559MPD2    C4 8293   1.750   3.639  10.552 -0.4678 -0.1914  0.1857
  559MPD2    C5 8294   1.685   3.686  10.445 -1.1364  0.3826 -0.6021
  559MPD2     H 8295   1.525   3.420  10.660  1.6215 -0.1875  0.7019
  559MPD2    H1 8296   1.856   3.662  10.559 -0.5604  0.1789  0.3623
  559MPD2    H2 8297   1.506   3.679  10.322 -0.6292  2.5353  1.1597
  559MPD2    H3 8298   1.732   3.751  10.373  2.6844 -2.1565 -0.3809
  559MPD2     N 8299   1.740   3.500  10.749 -0.4824  0.0120  0.1150
  559MPD2    H5 8300   1.685   3.440  10.810 -0.7300  3.0870  2.9031
  559MPD2    N1 8301   1.373   3.495  10.444 -0.2782 -0.0964  0.3804
  559MPD2    H7 8302   1.310   3.558  10.395  0.0226 -0.5881 -0.6434
  560TMC3    C1 8303   1.873   3.478  10.938 -0.3448  0.0866  0.4597
  560TMC3    C2 8304   1.848   3.340  10.947 -0.3496 -0.2288  0.5326
  560TMC3    C3 8305   1.873   3.289  11.077 -0.2942  0.0026  0.0386
  560TMC3    C4 8306   1.928   3.547  11.044 -0.3868  1.3820 -0.2359
  560TMC3    C5 8307   1.941   3.492  11.171  0.0911 -0.3515 -0.5458
  560TMC3    C6 8308   1.909   3.359  11.193 -0.4309  0.7958 -0.3322
  560TMC3     C 8309   1.851   3.549  10.818  0.1594 -0.4633  0.1212
  560TMC3     O 8310   1.926   3.645  10.799  0.2893  0.0502  0.1432
  560TMC3     H 8311   1.832   3.277  10.860  2.9483  0.6351 -0.6749
  560TMC3    H1 8312   1.939   3.655  11.037 -3.1707  1.7769  1.2549
  560TMC3    H2 8313   1.931   3.317  11.290 -0.2999  0.0272 -0.6905
  560TMC3    C7 8314   2.039   3.534  11.268  0.9697 -0.4294 -0.2617
  560TMC3    C8 8315   1.820   3.147  11.089  0.2490 -0.3363  0.3027
  560TMC3    O1 8316   2.036   3.496  11.385 -0.0462  0.2456 -0.3716
  560TMC3    O2 8317   1.736   3.117  11.007  0.4577  0.5221 -0.3950
  561TMC3    C1 8318   4.154   2.802  10.848  0.6687  0.5083  0.0206
  561TMC3    C2 8319   4.119   2.774  10.976 -0.0712  0.5683 -0.0247
  561TMC3    C3 8320   4.070   2.875  11.049 -0.2886 -0.0201  1.2839
  561TMC3    C4 8321   4.138   2.922  10.787 -0.5245  0.6203 -0.1984
  561TMC3    C5 8322   4.105   3.032  10.874  0.1309  0.5208  0.0548
  561TMC3    C6 8323   4.051   3.006  11.002 -0.3937 -0.2494  0.0989
  561TMC3     C 8324   4.227   2.709  10.771 -0.3235 -0.4127 -0.4085
  561TMC3     O 8325   4.210   2.713  10.652 -1.1570 -0.0297  0.3449
  561TMC3     H 8326   4.143   2.677  11.019 -2.6471 -1.2217 -2.6638
  561TMC3    H1 8327   4.190   2.936  10.693  0.1658 -1.2693 -0.1176
  561TMC3    H2 8328   4.002   3.080  11.063 -0.9304 -0.6536  0.1646
  561TMC3    C7 8329   4.138   3.168  10.851  0.7129 -0.7190  0.0077
  561TMC3    C8 8330   4.020   2.848  11.180 -0.6995 -0.1400 -0.2470
  561TMC3    O1 8331   4.095   3.246  10.935 -0.6800 -0.1224 -0.4484
  561TMC3    O2 8332   3.933   2.916  11.228 -0.4586  0.2827 -0.0399
  562TMC3    C1 8333   1.179   4.173  16.288  0.8832 -0.0907 -0.3571
  562TMC3    C2 8334   1.093   4.278  16.280  0.1511 -0.1901 -0.2956
  562TMC3    C3 8335   0.969   4.243  16.233  0.2045 -0.7260 -0.2179
  562TMC3    C4 8336   1.143   4.045  16.256  0.0491  0.3616 -0.5103
  562TMC3    C5 8337   1.014   4.022  16.215 -0.3900  0.0595  0.3487
  562TMC3    C6 8338   0.923   4.119  16.203 -0.1155  0.8187  0.1447
  562TMC3     C 8339   1.302   4.201  16.359  0.0594  0.3793 -0.3242
  562TMC3     O 8340   1.372   4.104  16.376  0.6085  0.5738 -0.0985
  562TMC3     H 8341   1.117   4.383  16.281 -0.3042 -0.0818 -0.6554
  562TMC3    H1 8342   1.216   3.966  16.270 -1.7996 -1.5803 -1.7948
  562TMC3    H2 8343   0.828   4.103  16.153 -0.5182  2.0261  0.5146
  562TMC3    C7 8344   0.963   3.892  16.174 -0.0254 -0.0932  0.6524
  562TMC3    C8 8345   0.873   4.358  16.215  0.8378  0.4404 -0.6482
  562TMC3    O1 8346   0.853   3.887  16.125 -0.0556 -0.1565  0.1493
  562TMC3    O2 8347   0.897   4.459  16.276 -0.2205 -0.1158 -0.0996
  563MPD2     C 8348   3.077   0.079  15.519  0.3917  0.4306 -0.4926
  563MPD2    C1 8349   3.084   0.196  15.595  0.0307  0.9057 -0.3478
  563MPD2    C2 8350   3.212   0.249  15.623  0.3278 -0.0241  0.0621
  563MPD2    C3 8351   3.330   0.178  15.588  0.0365  0.3213 -0.2701
  563MPD2    C4 8352   3.322   0.069  15.516 -0.1728 -0.4321  0.0029
  563MPD2    C5 8353   3.194   0.004  15.499  0.3343 -0.4234  0.0068
  563MPD2     H 8354   3.223   0.333  15.691 -1.1203 -0.8078  1.2453
  563MPD2    H1 8355   3.412   0.024  15.477  0.0720  0.8174 -0.8817
  563MPD2    H2 8356   2.986   0.029  15.487  0.1926 -1.3518  2.8324
  563MPD2    H3 8357   3.191   4.640  15.438  0.1268 -0.2004 -0.3146
  563MPD2     N 8358   3.454   0.241  15.623 -0.2831  0.2107 -0.5177
  563MPD2    H5 8359   3.439   0.329  15.672  2.2378  0.3240  0.0157
  563MPD2    N1 8360   2.968   0.269  15.636  0.1620  0.4317 -0.2962
  563MPD2    H7 8361   2.886   0.209  15.638  1.1788 -0.9416  0.0145
  564TMC3    C1 8362   2.866   0.406  15.803  0.2802 -0.1615  0.0506
  564TMC3    C2 8363   2.785   0.295  15.828 -0.1798  0.4743 -0.4405
  564TMC3    C3 8364   2.743   0.282  15.957 -0.1719  0.3417 -1.0777
  564TMC3    C4 8365   2.909   0.486  15.910 -0.2321 -0.2373 -0.0031
  564TMC3    C5 8366   2.878   0.454  16.039  0.7766 -0.4259  0.1758
  564TMC3    C6 8367   2.787   0.351  16.065 -0.5140 -1.2570 -0.0534
  564TMC3     C 8368   2.966   0.393  15.690  0.0040 -0.3583  0.5947
  564TMC3     O 8369   3.059   0.472  15.672  0.3981  0.2261 -0.4318
  564TMC3     H 8370   2.733   0.234  15.756  0.5190 -0.5916 -0.0339
  564TMC3    H1 8371   2.998   0.544  15.887 -1.4822  0.8408 -2.1568
  564TMC3    H2 8372   2.757   0.328  16.167 -0.2927  1.7833  0.7003
  564TMC3    C7 8373   2.963   0.498  16.150 -0.8279 -0.0413 -0.2193
  564TMC3    C8 8374   2.728   0.139  16.001 -0.0777  0.3919 -0.1278
  564TMC3    O1 8375   2.924   0.600  16.197  0.0444 -0.0940 -0.0867
  564TMC3    O2 8376   2.681   0.125  16.115  0.5276  0.3521 -0.0303
  565TMC3    C1 8377   3.629   2.052   9.574 -0.3602 -0.5285  0.8922
  565TMC3    C2 8378   3.509   2.001   9.618  0.0972 -0.0986 -0.3462
  565TMC3    C3 8379   3.431   1.918   9.539  0.4010 -0.1455  0.0163
  565TMC3    C4 8380   3.666   2.016   9.442  0.0928 -1.6131  0.2132
  565TMC3    C5 8381   3.583   1.929   9.368 -0.8360 -0.7255 -0.5679
  565TMC3    C6 8382   3.458   1.896   9.414 -0.0416 -0.2832 -0.0260
  565TMC3     C 8383   3.721   2.129   9.654 -0.3450 -0.4998  0.2724
  565TMC3     O 8384   3.805   2.185   9.588 -0.4684  0.2880  0.1787
  565TMC3     H 8385   3.474   2.031   9.717 -0.4546 -1.0927 -0.2336
  565TMC3    H1 8386   3.759   2.055   9.402 -0.4367 -0.7275 -0.1723
  565TMC3    H2 8387   3.398   1.825   9.358  1.9925 -1.9252 -0.1315
  565TMC3    C7 8388   3.642   1.873   9.249 -0.0442 -0.3197  0.0738
  565TMC3    C8 8389   3.297   1.908   9.585  0.2805  0.2860 -0.4400
  565TMC3    O1 8390   3.763   1.862   9.235 -0.1546 -0.5461 -0.4689
  565TMC3    O2 8391   3.272   1.881   9.703  0.6181  0.0077  0.7598
  566MPD2     C 8392   0.679   2.642  13.750  0.1104  0.1496 -0.1260
  566MPD2    C1 8393   0.588   2.734  13.729  0.1090 -0.7308 -0.5612
  566MPD2    C2 8394   0.539   2.746  13.598 -0.0173  0.6632 -0.4212
  566MPD2    C3 8395   0.589   2.667  13.491 -0.0497 -0.1010 -0.7573
  566MPD2    C4 8396   0.672   2.560  13.522  0.0680  0.2068  0.6571
  566MPD2    C5 8397   0.715   2.556  13.651  0.0701  0.5230 -0.2119
  566MPD2     H 8398   0.473   2.830  13.579 -1.4358 -0.4102 -0.2782
  566MPD2    H1 8399   0.715   2.495  13.447 -2.8569  0.4090 -1.1833
  566MPD2    H2 8400   0.737   2.639  13.841  2.1986  2.4226 -1.3618
  566MPD2    H3 8401   0.785   2.475  13.664 -0.3721  0.3286  0.9566
  566MPD2     N 8402   0.553   2.685  13.354  0.0546  0.2184 -0.0157
  566MPD2    H5 8403   0.597   2.628  13.282 -1.7944  1.3626 -2.0464
  566MPD2    N1 8404   0.562   2.826  13.834 -0.4334  0.0638 -0.5678
  566MPD2    H7 8405   0.636   2.828  13.903 -1.1093 -0.9426  0.1882
  567TMC3    C1 8406   0.483   3.032  13.932 -0.2180 -0.6098  0.9342
  567TMC3    C2 8407   0.469   3.162  13.888 -0.7205  0.4246 -0.5821
  567TMC3    C3 8408   0.540   3.257  13.950  0.5129 -0.6062  0.3001
  567TMC3    C4 8409   0.572   3.000  14.031 -0.4519  0.4616  0.1584
  567TMC3    C5 8410   0.637   3.105  14.083  0.3075 -0.1769 -0.7298
  567TMC3    C6 8411   0.626   3.238  14.053  0.8266 -0.3042 -0.1491
  567TMC3     C 8412   0.470   2.931  13.824  0.1071  0.3988  0.4090
  567TMC3     O 8413   0.387   2.949  13.742  0.1933 -0.2538 -0.2720
  567TMC3     H 8414   0.403   3.188  13.807  1.2904  0.1760 -2.3020
  567TMC3    H1 8415   0.584   2.898  14.063 -0.9678 -0.4542 -2.5473
  567TMC3    H2 8416   0.678   3.314  14.110  0.7908 -1.5761  1.5708
  567TMC3    C7 8417   0.707   3.074  14.208 -0.2541 -0.6657  0.1156
  567TMC3    C8 8418   0.498   3.391  13.908 -0.7748 -0.5164  0.2943
  567TMC3    O1 8419   0.808   3.132  14.235  0.1988  0.4796  0.1756
  567TMC3    O2 8420   0.404   3.404  13.828  0.7721 -0.0539 -0.5205
  568MPD2     C 8421   3.710   4.423  17.012  0.7927  0.3313  0.6326
  568MPD2    C1 8422   3.575   4.404  16.987 -0.6514  1.0952 -0.8665
  568MPD2    C2 8423   3.514   4.498  16.911 -0.7187 -0.0692  0.2254
  568MPD2    C3 8424   3.573   4.614  16.875  0.4815  0.0590  0.1531
  568MPD2    C4 8425   3.699   4.644  16.925 -0.1084 -0.1474  0.6916
  568MPD2    C5 8426   3.772   4.547  16.994 -0.4856 -0.1719 -1.1246
  568MPD2     H 8427   3.416   4.483  16.868 -1.7256  0.2387  2.3732
  568MPD2    H1 8428   3.755   0.010  16.908  0.9232 -0.8991  0.0198
  568MPD2    H2 8429   3.766   4.340  17.054 -2.6437 -2.7796 -0.9088
  568MPD2    H3 8430   3.876   4.560  17.021 -0.7675  2.7632 -1.4274
  568MPD2     N 8431   3.500   4.694  16.790  0.4795 -0.3154 -0.1477
  568MPD2    H5 8432   3.405   4.670  16.763  0.0620  1.0094  0.1398
  568MPD2    N1 8433   3.513   4.283  17.034 -0.0611 -0.2748  0.0445
  568MPD2    H7 8434   3.563   4.224  17.099  0.2317  0.6287  0.6300
  569TMC3    C1 8435   3.470   0.115  16.617 -0.4171  0.5990  0.9431
  569TMC3    C2 8436   3.453   0.248  16.592  0.7544  0.1298  0.0065
  569TMC3    C3 8437   3.347   0.284  16.512 -0.0134 -0.0363 -0.8184
  569TMC3    C4 8438   3.401   0.021  16.548 -0.3975 -0.3176 -0.3982
  569TMC3    C5 8439   3.306   0.069  16.457  0.1964  0.5198 -0.3669
  569TMC3    C6 8440   3.266   0.197  16.446  0.2065  0.4421 -0.0784
  569TMC3     C 8441   3.544   0.084  16.733 -0.3452 -0.4767 -0.2724
  569TMC3     O 8442   3.645   0.151  16.753 -0.7651 -0.0400 -0.2342
  569TMC3     H 8443   3.512   0.316  16.653 -0.5492  1.9975 -0.8000
  569TMC3    H1 8444   3.414   4.639  16.554  1.5687 -0.0034  1.0245
  569TMC3    H2 8445   3.179   0.220  16.385 -0.4459 -0.3714  0.5478
  569TMC3    C7 8446   3.261   4.702  16.352  0.2663 -0.2340 -0.5659
  569TMC3    C8 8447   3.293   0.422  16.522  0.4081  0.2740  0.4265
  569TMC3    O1 8448   3.338   4.609  16.328  0.1769 -0.6020  0.1670
  569TMC3    O2 8449   3.179   0.445  16.481 -0.2109 -0.0209 -0.0296
  570TMC3    C1 8450   2.166   2.813  16.161 -0.1769 -0.7843 -0.5703
  570TMC3    C2 8451   2.232   2.747  16.066  0.4558  0.6469 -0.2305
  570TMC3    C3 8452   2.251   2.807  15.945  0.2804 -0.2618  0.4024
  570TMC3    C4 8453   2.118   2.934  16.144 -0.5379 -0.2498 -0.2640
  570TMC3    C5 8454   2.130   2.993  16.020  1.0623  0.0015  0.0997
  570TMC3    C6 8455   2.198   2.933  15.918 -0.2326  0.2855 -0.3791
  570TMC3     C 8456   2.164   2.747  16.292 -0.1875 -0.3972  0.8849
  570TMC3     O 8457   2.175   2.627  16.279 -0.1195  0.0095  0.0842
  570TMC3     H 8458   2.277   2.649  16.078 -0.5747  0.0344 -1.3793
  570TMC3    H1 8459   2.064   2.981  16.225  0.9296 -1.9538  1.7123
  570TMC3    H2 8460   2.225   2.981  15.825 -0.2102  1.4273  0.2049
  570TMC3    C7 8461   2.125   3.138  16.023 -0.3602 -0.7059 -0.4729
  570TMC3    C8 8462   2.368   2.768  15.868  0.4548  0.0498  0.9606
  570TMC3    O1 8463   2.116   3.187  16.133  0.8795 -0.0430 -0.2775
  570TMC3    O2 8464   2.410   2.841  15.778 -0.4299  0.0102  0.1316
  571MPD2     C 8465   1.119   4.679  16.826 -0.0524  0.5636  0.2586
  571MPD2    C1 8466   1.026   4.673  16.923 -0.3368  0.4898 -0.0339
  571MPD2    C2 8467   1.055   0.003  17.052 -0.2736  0.0598  0.4317
  571MPD2    C3 8468   1.169   0.077  17.064 -0.6805 -0.0565  0.4228
  571MPD2    C4 8469   1.258   0.095  16.959 -0.5772  0.1368  0.0023
  571MPD2    C5 8470   1.236   0.030  16.838 -0.1365  0.2742  0.0340
  571MPD2     H 8471   0.985   0.011  17.135 -1.0537 -3.3655  0.0870
  571MPD2    H1 8472   1.341   0.165  16.966 -0.1462 -0.2417 -1.3362
  571MPD2    H2 8473   1.098   4.635  16.729  3.2635 -0.5533  0.0477
  571MPD2    H3 8474   1.300   0.041  16.752 -0.2270  1.3854  0.1056
  571MPD2     N 8475   1.202   0.133  17.193 -0.6588  0.2977  0.2851
  571MPD2    H5 8476   1.267   0.211  17.190 -2.2428  1.7719  4.0100
  571MPD2    N1 8477   0.899   4.616  16.885 -0.3143 -0.4713  0.3530
  571MPD2    H7 8478   0.878   4.575  16.795 -2.5042  1.2013  0.1022
  572TMC3    C1 8479   1.186   0.199  17.421  0.3812 -0.2871  0.1344
  572TMC3    C2 8480   1.183   0.132  17.539 -0.3170  0.0587  0.3177
  572TMC3    C3 8481   1.142   0.206  17.644 -0.0805 -1.3596 -0.1941
  572TMC3    C4 8482   1.145   0.327  17.403 -1.5652  0.4353  0.2845
  572TMC3    C5 8483   1.094   0.398  17.506 -0.6163 -0.2184 -0.4140
  572TMC3    C6 8484   1.088   0.332  17.631  0.4711  0.4992  0.1632
  572TMC3     C 8485   1.151   0.098  17.319  0.3216  0.0991  0.0863
  572TMC3     O 8486   1.092   4.721  17.350  0.6192 -0.2252  0.4112
  572TMC3     H 8487   1.229   0.036  17.560  1.1277  1.0632  1.6983
  572TMC3    H1 8488   1.146   0.382  17.310  1.2335  0.9616  0.6326
  572TMC3    H2 8489   1.059   0.383   0.018 -0.9944  0.9338 -0.5527
  572TMC3    C7 8490   1.021   0.521  17.487  0.3733 -0.4491  0.3281
  572TMC3    C8 8491   1.143   0.133   0.066  0.1783 -0.3723 -0.2487
  572TMC3    O1 8492   0.994   0.551  17.370 -0.1909  0.3643  0.2689
  572TMC3    O2 8493   1.208   0.028   0.075  0.1663 -0.4730 -0.3640
  573MPD2     C 8494   1.206   0.622   1.081 -0.0869  0.4773 -0.7353
  573MPD2    C1 8495   1.329   0.676   1.117 -0.1900 -0.5534  0.3591
  573MPD2    C2 8496   1.433   0.670   1.022 -1.2382  0.2632  0.6095
  573MPD2    C3 8497   1.425   0.592   0.907  0.0188 -0.2107 -0.6164
  573MPD2    C4 8498   1.307   0.536   0.882  0.8191  0.3160 -0.0566
  573MPD2    C5 8499   1.198   0.554   0.963 -0.6965 -0.1023  0.5357
  573MPD2     H 8500   1.529   0.705   1.056 -0.9738 -0.0139  0.1380
  573MPD2    H1 8501   1.279   0.477   0.796  1.1819  1.3419 -0.8721
  573MPD2    H2 8502   1.120   0.614   1.146 -0.5162 -1.8046 -1.5705
  573MPD2    H3 8503   1.103   0.509   0.936  0.9639 -3.2894 -0.0182
  573MPD2     N 8504   1.532   0.567   0.819  0.6006  1.3552 -0.7571
  573MPD2    H5 8505   1.522   0.494   0.750  0.3569  2.3824 -1.8081
  573MPD2    N1 8506   1.324   0.747   1.245 -0.2011  0.2765  0.3214
  573MPD2    H7 8507   1.235   0.768   1.289 -1.1527 -1.4070 -0.8150
  574TMC3    C1 8508   1.735   0.609   0.707  0.2701 -0.2630 -0.3895
  574TMC3    C2 8509   1.698   0.517   0.611  0.1900 -0.6400  0.0933
  574TMC3    C3 8510   1.762   0.529   0.492  0.5106  0.7792 -0.4309
  574TMC3    C4 8511   1.814   0.719   0.670 -0.7025 -0.2073  0.0102
  574TMC3    C5 8512   1.877   0.718   0.552 -0.6315  0.2602  0.3340
  574TMC3    C6 8513   1.855   0.621   0.463 -0.4751 -0.1608  0.1682
  574TMC3     C 8514   1.653   0.638   0.821 -0.8731 -0.1195 -0.2637
  574TMC3     O 8515   1.681   0.740   0.880 -0.2551 -0.2311  0.5915
  574TMC3     H 8516   1.628   0.435   0.623 -1.4068  0.6071 -0.6707
  574TMC3    H1 8517   1.826   0.809   0.730 -1.3449 -1.4574  2.0094
  574TMC3    H2 8518   1.910   0.620   0.370  2.6618 -0.8694  2.0513
  574TMC3    C7 8519   2.004   0.787   0.547 -0.3564 -0.0576 -0.4173
  574TMC3    C8 8520   1.697   0.471   0.377  0.2923 -0.3305 -0.5133
  574TMC3    O1 8521   2.045   0.831   0.652  0.0354 -0.3116 -0.1234
  574TMC3    O2 8522   1.636   0.361   0.385 -0.0341  0.3191 -0.4790
  575TMC3    C1 8523   2.579   1.743  10.069  0.0841  0.3474 -0.1238
  575TMC3    C2 8524   2.490   1.652  10.019 -0.4820  0.4078 -0.7356
  575TMC3    C3 8525   2.503   1.611   9.892 -0.1976  0.2970  0.0447
  575TMC3    C4 8526   2.692   1.772  10.000  0.1919 -0.0023 -0.1736
  575TMC3    C5 8527   2.701   1.731   9.868 -0.3430 -0.3918 -0.3509
  575TMC3    C6 8528   2.599   1.665   9.805  0.3263 -0.3220 -0.3936
  575TMC3     C 8529   2.552   1.813  10.197 -0.2659  0.3264 -0.0876
  575TMC3     O 8530   2.639   1.840  10.274  0.2906  0.3973  0.0471
  575TMC3     H 8531   2.421   1.601  10.086 -0.5459  0.2106 -0.9481
  575TMC3    H1 8532   2.765   1.838  10.045 -0.7202  0.3727  0.7759
  575TMC3    H2 8533   2.614   1.620   9.707 -0.5957 -1.5928  0.0323
  575TMC3    C7 8534   2.815   1.777   9.788 -0.3772  0.1566 -0.1420
  575TMC3    C8 8535   2.398   1.515   9.852  0.7233 -0.4399 -0.1584
  575TMC3    O1 8536   2.913   1.820   9.848  0.1522  0.1212 -0.5080
  575TMC3    O2 8537   2.319   1.480   9.936  0.0487 -0.3376  0.1252
  576MPD2     C 8538   3.418   2.508  12.390  0.1064  0.7118 -0.3358
  576MPD2    C1 8539   3.353   2.619  12.343  0.5954  0.3976 -0.2622
  576MPD2    C2 8540   3.266   2.685  12.426 -0.2706 -0.1770  0.3419
  576MPD2    C3 8541   3.226   2.632  12.549  0.2789  0.8639 -0.2050
  576MPD2    C4 8542   3.286   2.512  12.588 -0.4804  0.6028  0.2600
  576MPD2    C5 8543   3.384   2.456  12.512 -0.2741  0.0562  0.2597
  576MPD2     H 8544   3.238   2.782  12.388 -1.5513 -0.6623  0.0540
  576MPD2    H1 8545   3.251   2.457  12.675 -1.1978 -2.1357 -1.7697
  576MPD2    H2 8546   3.492   2.450  12.336 -0.0543  0.1213  0.0692
  576MPD2    H3 8547   3.427   2.360  12.538 -3.2531 -1.1631  0.5726
  576MPD2     N 8548   3.141   2.709  12.634 -0.4679 -1.3687  1.0346
  576MPD2    H5 8549   3.125   2.804  12.602  0.7908 -1.0920  1.2349
  576MPD2    N1 8550   3.394   2.681  12.222 -0.1485 -0.1557 -0.1974
  576MPD2    H7 8551   3.339   2.761  12.195  2.4846  0.2714 -4.2034
  577TMC3    C1 8552   3.546   2.746  12.038  0.1290 -0.3204 -0.2040
  577TMC3    C2 8553   3.648   2.697  11.962 -0.1319  0.3192  0.3350
  577TMC3    C3 8554   3.701   2.761  11.857 -0.1345  0.2704  0.1769
  577TMC3    C4 8555   3.501   2.869  12.015 -0.3215  0.2161 -0.0913
  577TMC3    C5 8556   3.561   2.936  11.917  0.6384 -0.3820  0.7712
  577TMC3    C6 8557   3.665   2.892  11.844 -0.1323 -0.2701 -0.3996
  577TMC3     C 8558   3.520   2.664  12.159  0.4470 -0.0570 -0.2862
  577TMC3     O 8559   3.615   2.596  12.194 -0.5643  0.3900  0.4315
  577TMC3     H 8560   3.696   2.603  11.989  2.1751  1.6986  1.0258
  577TMC3    H1 8561   3.415   2.910  12.066 -0.9742 -1.5110  0.1857
  577TMC3    H2 8562   3.701   2.954  11.763 -0.4572  0.0339 -0.3081
  577TMC3    C7 8563   3.557   3.079  11.937  0.1714  0.1306 -0.4133
  577TMC3    C8 8564   3.819   2.704  11.802 -0.2917 -0.1051 -0.4302
  577TMC3    O1 8565   3.652   3.129  11.992 -0.2870  0.0742  0.0816
  577TMC3    O2 8566   3.899   2.657  11.882 -0.2118  0.7720  0.4523
  578MPD2     C 8567   1.409   4.221   1.493  0.0287  0.2961 -0.8702
  578MPD2    C1 8568   1.540   4.246   1.513  0.3055 -0.5294  0.5423
  578MPD2    C2 8569   1.632   4.146   1.504  0.4174  0.4545  0.6210
  578MPD2    C3 8570   1.594   4.021   1.459  0.5829  0.6909 -0.1308
  578MPD2    C4 8571   1.458   3.995   1.432 -0.1282 -0.2554  0.0579
  578MPD2    C5 8572   1.367   4.100   1.452 -0.2671 -0.2083 -0.1367
  578MPD2     H 8573   1.736   4.160   1.531  0.8755 -0.7078 -0.5418
  578MPD2    H1 8574   1.417   3.904   1.390  1.1778  0.7215 -3.4054
  578MPD2    H2 8575   1.337   4.299   1.514 -0.6363 -0.4039 -0.5109
  578MPD2    H3 8576   1.260   4.085   1.443 -0.3415 -0.3336  0.8673
  578MPD2     N 8577   1.692   3.920   1.440 -0.1778 -0.6612 -0.0202
  578MPD2    H5 8578   1.784   3.942   1.476  0.6583 -1.6281 -1.5769
  578MPD2    N1 8579   1.568   4.378   1.548 -0.2504  0.0713 -0.4932
  578MPD2    H7 8580   1.490   4.442   1.559 -0.1318  0.5334 -2.2322
  579TMC3    C1 8581   1.794   3.723   1.387  0.1060  0.4954 -0.1172
  579TMC3    C2 8582   1.915   3.788   1.376  0.6553 -0.6460  0.6968
  579TMC3    C3 8583   2.013   3.717   1.327  0.2802 -1.2055 -0.0202
  579TMC3    C4 8584   1.776   3.590   1.354 -0.4673  0.0668 -0.7272
  579TMC3    C5 8585   1.886   3.518   1.313  0.0671 -0.5392  0.4269
  579TMC3    C6 8586   2.007   3.580   1.292  0.0059  0.1249  0.2550
  579TMC3     C 8587   1.674   3.803   1.393 -0.4338 -0.9891  0.4416
  579TMC3     O 8588   1.566   3.749   1.364 -0.3957  0.1070 -0.3572
  579TMC3     H 8589   1.920   3.895   1.395  1.0907 -0.4863 -0.3026
  579TMC3    H1 8590   1.684   3.539   1.382  0.4542 -1.9307 -1.3306
  579TMC3    H2 8591   2.103   3.537   1.265 -0.2633  1.2683 -2.4539
  579TMC3    C7 8592   1.880   3.373   1.294  0.0182  0.5329 -0.2466
  579TMC3    C8 8593   2.136   3.788   1.305  0.1484  0.0960  0.0296
  579TMC3    O1 8594   1.980   3.321   1.251  0.4507 -0.4194 -0.2802
  579TMC3    O2 8595   2.109   3.902   1.263  0.5724  0.1810 -1.0021
  580TMC3    C1 8596   0.782   1.866  11.763 -0.3295  0.5618  0.7840
  580TMC3    C2 8597   0.777   1.806  11.643  0.8230 -0.3298  0.2831
  580TMC3    C3 8598   0.762   1.671  11.638 -0.7920 -0.0354  0.1005
  580TMC3    C4 8599   0.758   1.792  11.872  1.0819 -0.2212  0.1727
  580TMC3    C5 8600   0.739   1.657  11.870  0.4118  0.0862 -0.6858
  580TMC3    C6 8601   0.745   1.587  11.750  0.1511 -0.0100 -0.2388
  580TMC3     C 8602   0.847   1.992  11.773  0.1949 -0.9557 -0.1956
  580TMC3     O 8603   0.930   2.019  11.687 -0.7047 -0.0642  0.1481
  580TMC3     H 8604   0.797   1.868  11.556  0.2865 -2.5896 -1.4415
  580TMC3    H1 8605   0.772   1.837  11.969  1.4054 -1.5261  0.7302
  580TMC3    H2 8606   0.738   1.479  11.746 -1.7503  0.1644 -1.7742
  580TMC3    C7 8607   0.758   1.597  11.998  0.7421 -0.7122  0.0098
  580TMC3    C8 8608   0.831   1.609  11.529 -0.4618  0.1418 -0.3512
  580TMC3    O1 8609   0.808   1.659  12.089  0.4347 -0.2019 -0.1636
  580TMC3    O2 8610   0.804   1.493  11.500  0.2129 -0.9103  0.0535
  581MPD2     C 8611   3.791   1.930  14.811 -0.4364  0.1940 -0.6174
  581MPD2    C1 8612   3.729   1.830  14.739  0.7875 -0.4252 -0.4779
  581MPD2    C2 8613   3.601   1.857  14.689 -0.2053 -0.2872  0.4838
  581MPD2    C3 8614   3.557   1.985  14.680 -0.2245  0.0909 -0.9822
  581MPD2    C4 8615   3.627   2.087  14.736  0.1246  0.6343  0.6994
  581MPD2    C5 8616   3.741   2.056  14.811 -0.4906  0.6182  0.2618
  581MPD2     H 8617   3.548   1.781  14.632  0.5671  1.7133 -2.9027
  581MPD2    H1 8618   3.609   2.192  14.713 -1.3232  0.1808 -0.2301
  581MPD2    H2 8619   3.883   1.908  14.862 -1.0851  0.5857  0.7216
  581MPD2    H3 8620   3.809   2.134  14.843  1.0790 -1.7048  2.6043
  581MPD2     N 8621   3.436   2.023  14.608 -0.2341  0.0664 -0.5113
  581MPD2    H5 8622   3.425   2.124  14.600  1.3276  0.1718 -1.3461
  581MPD2    N1 8623   3.797   1.708  14.732  0.5065  0.0457 -0.1032
  581MPD2    H7 8624   3.895   1.707  14.759 -0.2424 -0.6815  2.5998
  582TMC3    C1 8625   3.836   1.477  14.682 -0.0245  0.6823  0.3407
  582TMC3    C2 8626   3.950   1.489  14.756  0.2878 -0.1128  0.4282
  582TMC3    C3 8627   4.011   1.383  14.819  0.8240  0.2327 -0.0257
  582TMC3    C4 8628   3.775   1.353  14.689 -0.4280  0.1897 -0.1310
  582TMC3    C5 8629   3.823   1.254  14.764 -0.5154  0.5235 -0.1309
  582TMC3    C6 8630   3.941   1.261  14.824 -0.2143 -0.4620  0.1603
  582TMC3     C 8631   3.746   1.590  14.683 -0.1008  0.0644 -0.6023
  582TMC3     O 8632   3.635   1.560  14.641 -0.6281  0.7221 -0.4031
  582TMC3     H 8633   4.007   1.580  14.764  0.1859  0.0181 -0.3641
  582TMC3    H1 8634   3.696   1.337  14.618 -1.4163 -0.2664  1.0783
  582TMC3    H2 8635   3.972   1.193  14.903  3.0205  1.3438  0.4317
  582TMC3    C7 8636   3.725   1.195  14.852  0.6164 -0.3568 -0.4973
  582TMC3    C8 8637   4.053   1.428  14.954 -0.1773 -0.0965  0.5837
  582TMC3    O1 8638   3.759   1.101  14.925 -0.2856 -0.1037  0.1023
  582TMC3    O2 8639   4.019   1.538  14.986  0.1925 -0.3500 -0.4043
  583MPD2     C 8640   4.178   3.340  16.700  0.3582 -0.0550 -0.4716
  583MPD2    C1 8641   4.124   3.462  16.665 -0.3747  0.5156 -0.2561
  583MPD2    C2 8642   4.120   3.563  16.757 -0.6162 -0.6634 -0.5877
  583MPD2    C3 8643   4.154   3.541  16.888  0.1662 -0.5749  0.5597
  583MPD2    C4 8644   4.194   3.423  16.928 -0.3445 -0.1392 -0.4007
  583MPD2    C5 8645   4.194   3.322  16.832 -0.5514  0.4346 -0.2492
  583MPD2     H 8646   4.083   3.659  16.722 -1.1255  0.2706  2.5259
  583MPD2    H1 8647   4.213   3.389  17.029  2.7414 -1.9569 -1.6141
  583MPD2    H2 8648   4.200   3.267  16.623 -1.9319 -0.5112 -0.6826
  583MPD2    H3 8649   4.211   3.217  16.855  0.9114  0.3914 -1.4659
  583MPD2     N 8650   4.154   3.650  16.983  0.5087 -0.3468  0.5221
  583MPD2    H5 8651   4.128   3.739  16.943 -2.0607 -0.8246  1.1106
  583MPD2    N1 8652   4.110   3.509  16.529  0.2486 -0.0402  0.0851
  583MPD2    H7 8653   4.085   3.607  16.519 -1.6386 -0.4110  1.1765
  584TMC3    C1 8654   4.209   3.782  17.169 -0.2601 -0.1791  0.0377
  584TMC3    C2 8655   4.196   3.894  17.087  0.3282  0.3314  0.6614
  584TMC3    C3 8656   4.194   4.020  17.142 -0.3197 -0.2587  0.3503
  584TMC3    C4 8657   4.231   3.793  17.303  0.2560  0.3736  0.7179
  584TMC3    C5 8658   4.202   3.918  17.355  0.5746  0.8698 -0.5143
  584TMC3    C6 8659   4.187   4.037  17.285 -0.2080  0.4245 -0.1856
  584TMC3     C 8660   4.180   3.647  17.118  0.1832 -0.4896 -0.5251
  584TMC3     O 8661   4.188   3.550  17.190  0.0351  0.5065 -0.4102
  584TMC3     H 8662   4.181   3.898  16.979  3.2464  0.6680  0.2762
  584TMC3    H1 8663   4.213   3.710  17.370 -0.0968 -0.2429 -0.1393
  584TMC3    H2 8664   4.181   4.128  17.343 -0.1051  0.6048 -0.4542
  584TMC3    C7 8665   4.221   3.915  17.505  0.0328 -0.3281  0.5541
  584TMC3    C8 8666   4.228   4.130  17.049 -0.4885  0.3253 -0.5839
  584TMC3    O1 8667   4.227   3.808  17.556  0.1153  0.2341 -0.2162
  584TMC3    O2 8668   4.185   4.113  16.935 -0.6710  0.2282 -0.5825
  585MPD2     C 8669   3.120   2.967   0.609  0.1631 -0.4459 -0.1666
  585MPD2    C1 8670   3.232   2.999   0.535  0.0371 -0.0209  0.1201
  585MPD2    C2 8671   3.266   2.920   0.429 -0.7589  0.6658  0.1159
  585MPD2    C3 8672   3.192   2.808   0.394 -0.0369 -0.3417  0.3945
  585MPD2    C4 8673   3.073   2.783   0.461  0.0886 -0.2604  0.2997
  585MPD2    C5 8674   3.032   2.869   0.564  0.2331 -0.8984 -0.0132
  585MPD2     H 8675   3.364   2.939   0.386 -1.2581 -0.7399 -1.6712
  585MPD2    H1 8676   3.008   2.698   0.444 -1.6740  1.2992 -0.7798
  585MPD2    H2 8677   3.084   3.030   0.690 -2.8378 -2.3712 -0.0079
  585MPD2    H3 8678   2.937   2.861   0.616  0.7607  0.0405  1.0953
  585MPD2     N 8679   3.208   2.728   0.281 -0.5423  0.0803  0.3302
  585MPD2    H5 8680   3.133   2.665   0.257 -1.2353  0.4933  1.4216
  585MPD2    N1 8681   3.298   3.124   0.564 -0.1147  0.3993  0.3363
  585MPD2    H7 8682   3.283   3.161   0.657  1.9398  3.1087 -0.4273
  586TMC3    C1 8683   3.309   2.642   0.087 -1.1208  0.0561  0.6856
  586TMC3    C2 8684   3.426   2.630   0.009  0.1413 -0.4800 -0.3937
  586TMC3    C3 8685   3.418   2.603  17.583  0.1186 -0.4865 -0.5266
  586TMC3    C4 8686   3.191   2.641   0.012 -0.0209  0.3776 -0.2285
  586TMC3    C5 8687   3.186   2.621  17.583 -0.4964 -0.4343 -0.0492
  586TMC3    C6 8688   3.301   2.602  17.509 -0.2261 -0.3971  0.2224
  586TMC3     C 8689   3.319   2.728   0.200  0.2151 -0.4366  0.1890
  586TMC3     O 8690   3.419   2.796   0.219 -0.3883 -0.0078  0.0741
  586TMC3     H 8691   3.515   2.647   0.069  0.0762 -0.4085 -0.3154
  586TMC3    H1 8692   3.103   2.671   0.068 -0.9087  0.4865 -1.6760
  586TMC3    H2 8693   3.305   2.577  17.403 -0.0517  0.8851 -0.0772
  586TMC3    C7 8694   3.074   2.546  17.533 -0.7708  0.5413  0.1533
  586TMC3    C8 8695   3.523   2.528  17.524  0.6544 -0.5438 -0.5134
  586TMC3    O1 8696   3.003   2.497  17.624 -0.4635  0.3541  0.3865
  586TMC3    O2 8697   3.602   2.480  17.608  0.2227  0.3799 -0.4136
  587TMC3    C1 8698   1.131   1.246  16.326  0.1908  0.7142  0.2819
  587TMC3    C2 8699   1.075   1.324  16.233  0.3270 -0.5314  0.0201
  587TMC3    C3 8700   1.161   1.405  16.168  0.1563 -0.1632  0.1745
  587TMC3    C4 8701   1.271   1.231  16.345  0.5058 -0.5317 -0.0875
  587TMC3    C5 8702   1.354   1.303  16.262  0.2691 -0.0571 -0.6230
  587TMC3    C6 8703   1.300   1.394  16.179 -0.5897 -0.2793  0.3869
  587TMC3     C 8704   1.068   1.117  16.353 -0.8016 -0.1056  0.1807
  587TMC3     O 8705   1.132   1.015  16.352 -0.8522  0.1836 -0.1735
  587TMC3     H 8706   0.969   1.310  16.214  0.1086 -0.0371  0.8849
  587TMC3    H1 8707   1.316   1.155  16.407  0.2950  0.5228  1.3598
  587TMC3    H2 8708   1.370   1.463  16.133 -0.8580 -0.3169 -0.0719
  587TMC3    C7 8709   1.496   1.272  16.254 -0.3467  0.7130 -0.1375
  587TMC3    C8 8710   1.111   1.513  16.087 -0.5647 -0.3200  0.9975
  587TMC3    O1 8711   1.553   1.301  16.149  0.8120  0.0759  0.1252
  587TMC3    O2 8712   1.196   1.563  16.015  0.5206  0.0428  0.8282
  588TMC3    C1 8713   2.745   3.700   9.483  0.0580 -0.0098  0.0728
  588TMC3    C2 8714   2.719   3.571   9.443 -0.1806 -0.0061  0.2733
  588TMC3    C3 8715   2.585   3.539   9.422  0.3590 -0.1534  0.3727
  588TMC3    C4 8716   2.645   3.796   9.500  0.4803 -0.4587 -0.6399
  588TMC3    C5 8717   2.512   3.756   9.482 -0.0330 -0.5646  0.1277
  588TMC3    C6 8718   2.482   3.631   9.438 -0.2810  0.2745  0.3270
  588TMC3     C 8719   2.871   3.741   9.532 -0.4077  0.4744  0.0167
  588TMC3     O 8720   2.970   3.700   9.470 -0.0906  0.4241  0.0608
  588TMC3     H 8721   2.809   3.511   9.447  1.4086  2.3329 -0.8848
  588TMC3    H1 8722   2.663   3.901   9.518 -1.1770 -1.0032  3.9867
  588TMC3    H2 8723   2.381   3.591   9.435  0.5214 -1.6962  0.2407
  588TMC3    C7 8724   2.401   3.832   9.540 -0.9377  0.5045  0.1548
  588TMC3    C8 8725   2.559   3.400   9.379 -0.2515 -0.3213 -0.5036
  588TMC3    O1 8726   2.302   3.861   9.474 -0.1408 -0.1910  0.1705
  588TMC3    O2 8727   2.446   3.375   9.342 -0.0308  0.6971 -0.5408
  589TMC3    C1 8728   2.675   1.532   1.479 -0.1084 -0.6901  0.4440
  589TMC3    C2 8729   2.762   1.555   1.585  1.2336  0.5366  0.1415
  589TMC3    C3 8730   2.873   1.478   1.577  0.8559 -0.0581  0.5309
  589TMC3    C4 8731   2.699   1.433   1.389  0.3719 -0.1918  0.0361
  589TMC3    C5 8732   2.814   1.362   1.389  0.7304 -0.2997 -0.0272
  589TMC3    C6 8733   2.911   1.384   1.482 -0.7085 -0.1118 -0.7802
  589TMC3     C 8734   2.558   1.608   1.456  0.1744  0.2415  0.1420
  589TMC3     O 8735   2.468   1.547   1.403  0.2855 -0.1709 -0.0436
  589TMC3     H 8736   2.756   1.640   1.652 -1.9755 -1.0100  1.7906
  589TMC3    H1 8737   2.626   1.423   1.309 -0.0637 -0.6308  0.4896
  589TMC3    H2 8738   2.990   1.317   1.511  0.1735  0.2905 -2.2685
  589TMC3    C7 8739   2.806   1.223   1.340 -0.5454  0.4438 -0.6421
  589TMC3    C8 8740   2.969   1.514   1.676  0.0212  0.6666  0.1709
  589TMC3    O1 8741   2.696   1.180   1.308 -0.1024  1.2776  0.3445
  589TMC3    O2 8742   2.931   1.589   1.767 -0.3691 -0.0948  0.5902
  590MPD2     C 8743   1.638   3.931  16.386 -0.5155 -0.0506  0.4734
  590MPD2    C1 8744   1.702   4.023  16.309 -0.2673 -0.0096  0.8200
  590MPD2    C2 8745   1.832   4.041  16.340  0.0675 -0.6186  0.3003
  590MPD2    C3 8746   1.891   4.001  16.456 -0.1793  0.1228  0.1885
  590MPD2    C4 8747   1.822   3.910  16.531 -0.3565 -0.5333 -0.1581
  590MPD2    C5 8748   1.701   3.866  16.495  0.3311  0.0105  0.1942
  590MPD2     H 8749   1.894   4.099  16.274 -1.1333  0.6060  0.2534
  590MPD2    H1 8750   1.868   3.865  16.619  1.7945  2.5028  0.2631
  590MPD2    H2 8751   1.535   3.903  16.369 -0.9236  0.5602  1.9548
  590MPD2    H3 8752   1.654   3.799  16.566  0.8930 -0.5204  0.0667
  590MPD2     N 8753   2.014   4.042  16.498 -0.1612 -0.4640 -0.4904
  590MPD2    H5 8754   2.065   4.110  16.443  1.0213  1.2116  2.6701
  590MPD2    N1 8755   1.635   4.097  16.212  0.2682  0.2798 -0.2864
  590MPD2    H7 8756   1.535   4.085  16.213  0.1318  1.3202 -3.5655
  591TMC3    C1 8757   2.164   4.151  16.633  0.5914  0.6115  0.9157
  591TMC3    C2 8758   2.249   4.140  16.529 -0.3001 -0.4514  0.3101
  591TMC3    C3 8759   2.300   4.251  16.468  0.2050  0.0540  0.4010
  591TMC3    C4 8760   2.117   4.275  16.669  0.4710  1.5599  0.7423
  591TMC3    C5 8761   2.157   4.384  16.596  0.1252 -0.0513  0.0150
  591TMC3    C6 8762   2.250   4.375  16.498 -0.4828  0.2736 -0.3417
  591TMC3     C 8763   2.059   4.053  16.628  1.2262 -0.5386  0.0261
  591TMC3     O 8764   1.980   4.042  16.723 -0.0523  0.2578 -0.7587
  591TMC3     H 8765   2.286   4.043  16.500 -0.0262  0.5383 -2.6384
  591TMC3    H1 8766   2.042   4.282  16.748  0.0296  3.4130  0.1698
  591TMC3    H2 8767   2.286   4.466  16.452 -3.0675  1.3259 -0.2748
  591TMC3    C7 8768   2.066   4.498  16.604 -0.3945  0.4894  0.0358
  591TMC3    C8 8769   2.362   4.229  16.336  0.2842 -0.2553 -0.1176
  591TMC3    O1 8770   1.985   4.501  16.700 -0.4775 -0.2041 -0.0578
  591TMC3    O2 8771   2.307   4.146  16.264  0.3425 -0.6608  0.0907
  592MPD2     C 8772   2.108   1.601  11.294 -0.1140 -0.3128 -0.4817
  592MPD2    C1 8773   2.125   1.616  11.429 -0.4616 -0.3549 -0.3699
  592MPD2    C2 8774   2.038   1.570  11.515 -0.0903  0.1445 -0.0047
  592MPD2    C3 8775   1.933   1.493  11.471 -0.1308 -0.2100  0.0616
  592MPD2    C4 8776   1.903   1.478  11.337 -0.2824 -0.4550  0.5383
  592MPD2    C5 8777   1.990   1.540  11.252 -0.1284  0.2248 -0.5917
  592MPD2     H 8778   2.060   1.572  11.621  0.0696 -1.3656  0.0018
  592MPD2    H1 8779   1.816   1.420  11.307 -0.3069  0.4359 -1.1522
  592MPD2    H2 8780   2.175   1.654  11.227  0.9216 -0.7552  0.2059
  592MPD2    H3 8781   1.981   1.545  11.144  0.9112 -0.3432 -0.7089
  592MPD2     N 8782   1.851   1.444  11.576 -0.5136  0.3784  0.0438
  592MPD2    H5 8783   1.866   1.486  11.667  0.9576 -1.5896  0.7244
  592MPD2    N1 8784   2.238   1.687  11.471 -0.4368  0.0066  0.0630
  592MPD2    H7 8785   2.307   1.722  11.405  0.1718 -0.7906  0.2640
  593TMC3    C1 8786   2.389   1.774  11.638  0.2788  0.2615  1.2219
  593TMC3    C2 8787   2.388   1.868  11.739  0.2116 -0.7939  0.3283
  593TMC3    C3 8788   2.498   1.942  11.762  0.2746 -0.1615 -0.3674
  593TMC3    C4 8789   2.491   1.771  11.550  0.5150 -0.3044  0.1022
  593TMC3    C5 8790   2.598   1.852  11.573  0.4121  0.2309 -0.6423
  593TMC3    C6 8791   2.604   1.943  11.679  0.1954 -0.5019 -0.7733
  593TMC3     C 8792   2.263   1.719  11.599  0.1110 -0.7962  0.0441
  593TMC3     O 8793   2.187   1.724  11.696  0.2351 -0.3107 -0.2671
  593TMC3     H 8794   2.305   1.870  11.808 -0.3230 -0.3291 -0.3256
  593TMC3    H1 8795   2.497   1.697  11.471 -1.3611  0.6020 -0.8749
  593TMC3    H2 8796   2.690   2.006  11.695 -0.2721  0.1437 -0.7845
  593TMC3    C7 8797   2.690   1.866  11.465  0.1234  0.2238  0.6415
  593TMC3    C8 8798   2.483   2.056  11.851 -0.1191 -0.0555 -0.1393
  593TMC3    O1 8799   2.703   1.768  11.394 -0.4219 -0.3484 -0.0881
  593TMC3    O2 8800   2.373   2.111  11.857  0.1166 -0.2051  0.3161
  594MPD2     C 8801   0.907   0.093  15.026  0.6004  0.2948  0.3009
  594MPD2    C1 8802   0.840   0.160  14.931 -0.0820 -0.0158  0.5876
  594MPD2    C2 8803   0.879   0.290  14.900 -0.2133  0.3176 -0.5940
  594MPD2    C3 8804   0.997   0.341  14.945  0.1560 -1.2280 -0.3754
  594MPD2    C4 8805   1.060   0.277  15.046  0.5735 -0.1131  0.2876
  594MPD2    C5 8806   1.022   0.148  15.075 -0.6812  0.7269 -0.0605
  594MPD2     H 8807   0.832   0.342  14.818  2.4797  0.5105 -2.0416
  594MPD2    H1 8808   1.143   0.322  15.099  0.0312  0.6595  0.4966
  594MPD2    H2 8809   0.884   4.717  15.054  0.8569 -0.0628 -0.8078
  594MPD2    H3 8810   1.075   0.095  15.153  0.5206  1.6040 -0.2839
  594MPD2     N 8811   1.052   0.457  14.878  0.4235  0.5387  0.1993
  594MPD2    H5 8812   0.987   0.510  14.821 -1.0774  0.3222  1.7196
  594MPD2    N1 8813   0.739   0.085  14.867 -0.4617 -0.2697 -0.0063
  594MPD2    H7 8814   0.715   4.715  14.894  0.9584 -0.8893 -0.9675
  595TMC3    C1 8815   1.410   0.716  14.708  0.0538 -0.9761  0.3617
  595TMC3    C2 8816   1.352   0.608  14.768  0.0572  0.3531  0.3255
  595TMC3    C3 8817   1.218   0.598  14.786 -0.1117  0.6672 -0.6089
  595TMC3    C4 8818   1.337   0.822  14.682  0.9915 -0.2638  0.6049
  595TMC3    C5 8819   1.202   0.818  14.711  0.3672 -0.2169  0.0806
  595TMC3    C6 8820   1.144   0.703  14.750  0.0231  0.0297 -0.0198
  595TMC3     C 8821   1.562   0.736  14.720  0.1716  0.3883  0.0244
  595TMC3     O 8822   1.615   0.840  14.687  0.4478  0.0280  0.0978
  595TMC3     H 8823   1.415   0.521  14.783 -0.4370 -0.1685 -0.6194
  595TMC3    H1 8824   1.391   0.909  14.645  0.3690  0.1729  0.7268
  595TMC3    H2 8825   1.041   0.702  14.784 -0.7530 -0.3779 -2.3974
  595TMC3    C7 8826   1.113   0.926  14.673  0.2696  0.0598 -0.5044
  595TMC3    C8 8827   1.176   0.503  14.893  0.1845 -0.1958 -0.0768
  595TMC3    O1 8828   0.999   0.912  14.712 -0.2341  0.3101 -0.2907
  595TMC3    O2 8829   1.274   0.445  14.941 -0.1127  0.1389 -0.1387
  596MPD2     C 8830   0.158   3.201  16.668 -0.2143 -0.5065 -0.5088
  596MPD2    C1 8831   0.161   3.317  16.598  0.0157 -0.4469  0.1601
  596MPD2    C2 8832   0.171   3.315  16.458  0.0842  0.7758 -0.7526
  596MPD2    C3 8833   0.171   3.192  16.394  0.4666  0.2570  0.0707
  596MPD2    C4 8834   0.183   3.081  16.469  0.0105  0.4895 -0.2969
  596MPD2    C5 8835   0.173   3.084  16.603  0.3124  0.3378 -0.2367
  596MPD2     H 8836   0.168   3.410  16.405 -0.2487  0.0653 -1.9933
  596MPD2    H1 8837   0.178   2.984  16.420  0.7339  0.1278  0.3317
  596MPD2    H2 8838   0.146   3.180  16.774 -2.6891  2.1868 -0.2670
  596MPD2    H3 8839   0.159   2.991  16.657 -0.8708  1.0019  0.5571
  596MPD2     N 8840   0.173   3.185  16.254  0.1244  0.1584 -0.1016
  596MPD2    H5 8841   0.182   3.094  16.209 -1.7452 -0.4246  0.7033
  596MPD2    N1 8842   0.169   3.442  16.662  0.3474 -0.0450 -0.6788
  596MPD2    H7 8843   0.181   3.526  16.607  0.7276  0.9427  0.9138
  597TMC3    C1 8844   0.179   3.595  16.840  0.8228  0.7208 -0.9282
  597TMC3    C2 8845   0.234   3.680  16.748 -0.5801  0.9591  0.0111
  597TMC3    C3 8846   0.192   3.811  16.745  0.1587  1.0754 -1.0502
  597TMC3    C4 8847   0.077   3.634  16.922  0.4357  0.2242  0.8708
  597TMC3    C5 8848   0.039   3.765  16.925 -0.2205  0.0450  0.2945
  597TMC3    C6 8849   0.092   3.853  16.829 -0.3494 -0.9512  0.2862
  597TMC3     C 8850   0.154   3.459  16.799 -0.2321  0.2426 -0.4132
  597TMC3     O 8851   0.142   3.380  16.888 -0.0907 -0.4994 -0.0141
  597TMC3     H 8852   0.321   3.649  16.691 -0.6094 -0.4186  0.6949
  597TMC3    H1 8853   0.040   3.560  16.993  0.3651  1.2662  1.9272
  597TMC3    H2 8854   0.050   3.952  16.823  0.3110 -0.5903  1.5006
  597TMC3    C7 8855   0.006   3.812  17.052  0.4863  1.6502  0.2824
  597TMC3    C8 8856   0.231   3.912  16.649 -0.2498 -0.3670  0.7484
  597TMC3    O1 8857   4.716   3.731  17.143 -0.0239  0.0886  0.0266
  597TMC3    O2 8858   0.150   4.004  16.628  0.0985 -0.2411  0.1418
  598TMC3    C1 8859   2.780   0.345  15.315  0.3291  0.4658 -0.4893
  598TMC3    C2 8860   2.767   0.216  15.352  0.0420  0.3527  0.3255
  598TMC3    C3 8861   2.831   0.126  15.277  0.5192  0.3021  0.1022
  598TMC3    C4 8862   2.846   0.388  15.206  0.4268 -0.1843  0.2921
  598TMC3    C5 8863   2.902   0.281  15.128 -0.1522  0.1127  0.2193
  598TMC3    C6 8864   2.903   0.154  15.168 -0.3605  0.1792  0.5032
  598TMC3     C 8865   2.728   0.447  15.404 -0.7022  0.2190 -0.0638
  598TMC3     O 8866   2.697   0.400  15.515 -0.3478 -0.2654  0.0342
  598TMC3     H 8867   2.725   0.179  15.445  1.6941 -1.0933  0.4948
  598TMC3    H1 8868   2.849   0.493  15.179  0.0816  0.1850  1.6673
  598TMC3    H2 8869   2.937   0.073  15.105  0.5556  0.3210  0.8234
  598TMC3    C7 8870   2.953   0.308  14.995  0.0728  0.2079  0.2273
  598TMC3    C8 8871   2.775   4.720  15.281  0.2488 -0.5884 -0.3226
  598TMC3    O1 8872   2.971   0.211  14.923 -0.0121 -0.2141  0.5257
  598TMC3    O2 8873   2.848   4.627  15.253 -0.0129  0.1459 -0.6306
  599MPD2     C 8874   3.333   2.686  15.788  0.6494  0.7336  0.4757
  599MPD2    C1 8875   3.246   2.579  15.806 -0.0402 -0.7068 -0.7542
  599MPD2    C2 8876   3.121   2.602  15.858 -0.5460  0.6356 -0.7358
  599MPD2    C3 8877   3.087   2.726  15.915  0.2177 -0.5727 -0.7816
  599MPD2    C4 8878   3.175   2.828  15.893 -0.1311  0.5264  0.4715
  599MPD2    C5 8879   3.301   2.814  15.834 -0.1322 -0.6546 -0.1274
  599MPD2     H 8880   3.062   2.512  15.874 -0.9492  1.0891  0.3345
  599MPD2    H1 8881   3.141   2.929  15.917  2.8627  1.3697  1.1396
  599MPD2    H2 8882   3.431   2.674  15.743  0.5177  1.0073  0.1204
  599MPD2    H3 8883   3.371   2.897  15.838  0.0028 -0.7913  0.3453
  599MPD2     N 8884   2.965   2.751  15.979  0.1215 -0.3026 -0.4221
  599MPD2    H5 8885   2.930   2.846  15.976 -0.2001 -0.4230 -0.4271
  599MPD2    N1 8886   3.293   2.449  15.768 -0.4566  0.3588  0.5505
  599MPD2    H7 8887   3.394   2.456  15.755 -0.6167 -0.4380 -1.1430
  600TMC3    C1 8888   2.759   2.711  16.082 -0.4807 -0.0205  0.1296
  600TMC3    C2 8889   2.682   2.628  16.157  0.0568  0.1609 -0.5851
  600TMC3    C3 8890   2.587   2.675  16.242  0.4724  0.1953  0.2815
  600TMC3    C4 8891   2.743   2.851  16.098  0.1723 -0.0810 -0.6079
  600TMC3    C5 8892   2.647   2.893  16.187 -0.3003  0.3008 -0.2768
  600TMC3    C6 8893   2.568   2.805  16.259  0.3334 -0.7812  0.4440
  600TMC3     C 8894   2.879   2.659  16.038 -0.2641  0.3106 -1.2374
  600TMC3     O 8895   2.914   2.546  16.066 -0.8860 -0.0878 -0.1545
  600TMC3     H 8896   2.710   2.526  16.180 -1.9204  0.1018  1.5858
  600TMC3    H1 8897   2.778   2.924  16.026 -1.1737  0.0477 -1.1432
  600TMC3    H2 8898   2.520   2.841  16.349 -0.9064 -1.1769 -0.0603
  600TMC3    C7 8899   2.628   3.032  16.219 -0.5516 -0.8667  0.4401
  600TMC3    C8 8900   2.599   2.593  16.362  0.0374 -0.7381  0.2851
  600TMC3    O1 8901   2.521   3.058  16.270 -0.2960 -0.0268 -0.3835
  600TMC3    O2 8902   2.702   2.579  16.423 -0.5078  0.0197  0.0507
  601MPD2     C 8903   0.836   0.957  17.681 -0.2785 -0.8604 -0.2390
  601MPD2    C1 8904   0.807   0.897  17.557 -0.5506  0.8050 -0.2259
  601MPD2    C2 8905   0.863   0.773  17.536 -1.1408  0.5488  0.0874
  601MPD2    C3 8906   0.961   0.724  17.625  0.3507 -0.5460  0.2377
  601MPD2    C4 8907   0.985   0.776   0.043  0.7092 -0.0617  0.0988
  601MPD2    C5 8908   0.919   0.895   0.069  0.3880  0.1814  0.1803
  601MPD2     H 8909   0.840   0.725  17.442 -1.2569  2.0504 -0.6370
  601MPD2    H1 8910   1.052   0.725   0.111 -0.2654 -0.0595  1.0524
  601MPD2    H2 8911   0.800   1.055   0.006  0.4228 -1.2458  1.9560
  601MPD2    H3 8912   0.945   0.946   0.161 -0.6362  2.5297 -0.8114
  601MPD2     N 8913   1.024   0.599  17.605  0.1526 -0.2505 -0.7563
  601MPD2    H5 8914   1.088   0.563  17.675  0.8978  0.4264 -1.0885
  601MPD2    N1 8915   0.728   0.961  17.457  0.0114 -0.2762 -0.4549
  601MPD2    H7 8916   0.703   0.913  17.371  0.2433 -1.7006  0.2780
  602TMC3    C1 8917   0.606   1.133  17.346  0.6205  0.1394  0.3873
  602TMC3    C2 8918   0.602   1.269  17.306  0.4391 -0.5427  0.1852
  602TMC3    C3 8919   0.503   1.311  17.226  0.0800 -0.1633  0.7596
  602TMC3    C4 8920   0.512   1.044  17.302 -0.2701  0.1675 -0.3296
  602TMC3    C5 8921   0.415   1.091  17.215  0.4575 -0.0041  0.0633
  602TMC3    C6 8922   0.408   1.225  17.182 -0.6199  0.2308  0.0268
  602TMC3     C 8923   0.678   1.091  17.467 -0.8429 -0.2260 -0.1920
  602TMC3     O 8924   0.698   1.181  17.551 -0.1723 -0.2902 -0.0301
  602TMC3     H 8925   0.669   1.341  17.350 -0.0185 -0.5312  0.8733
  602TMC3    H1 8926   0.504   0.948  17.352 -0.1034  0.4906  0.3169
  602TMC3    H2 8927   0.349   1.259  17.098  0.0478  1.6249  0.1316
  602TMC3    C7 8928   0.293   1.017  17.221 -0.1481 -0.4803  0.1401
  602TMC3    C8 8929   0.458   1.447  17.258  0.2924 -0.2785 -0.6842
  602TMC3    O1 8930   0.299   0.901  17.190  1.0418  0.2204 -0.1583
  602TMC3    O2 8931   0.523   1.507  17.344 -0.2221  0.2749  0.3324
  603TMC3    C1 8932   2.279   1.063  11.010 -0.1628 -0.2365 -1.3401
  603TMC3    C2 8933   2.394   1.092  11.077 -0.2610 -0.8130 -0.5133
  603TMC3    C3 8934   2.508   1.102  11.005 -0.1732  0.2685  0.0370
  603TMC3    C4 8935   2.270   1.068  10.876  0.0728 -0.3230  0.0555
  603TMC3    C5 8936   2.385   1.088  10.810 -0.9440  0.3165 -0.0187
  603TMC3    C6 8937   2.504   1.116  10.868  0.3781  0.5599 -0.8426
  603TMC3     C 8938   2.170   1.003  11.077 -0.2039 -0.3807 -0.2326
  603TMC3     O 8939   2.065   0.992  11.009 -0.4861  0.0511  0.1308
  603TMC3     H 8940   2.398   1.095  11.185  0.8601  0.0722 -0.5775
  603TMC3    H1 8941   2.175   1.045  10.826  0.1740 -0.8463  0.0970
  603TMC3    H2 8942   2.592   1.081  10.816 -1.2057  1.2059 -3.9806
  603TMC3    C7 8943   2.394   1.049  10.677  0.3944  0.9734  0.1795
  603TMC3    C8 8944   2.635   1.116  11.073  0.5195 -0.2734  0.3637
  603TMC3    O1 8945   2.504   1.025  10.630 -0.7396 -0.2186  0.8294
  603TMC3    O2 8946   2.633   1.068  11.186  0.3725  0.3830 -1.0134
  604MPD2     C 8947   3.947   4.244  16.395  0.1260  0.1887 -0.2658
  604MPD2    C1 8948   3.889   4.323  16.294 -0.1389  0.5478 -0.1940
  604MPD2    C2 8949   3.898   4.301  16.159 -0.5935 -0.3230  0.4536
  604MPD2    C3 8950   3.981   4.193  16.121  0.5538 -0.7397  0.0776
  604MPD2    C4 8951   4.043   4.111  16.210  1.5803  0.0333 -0.1401
  604MPD2    C5 8952   4.025   4.144  16.347 -0.3936  0.3577  0.8097
  604MPD2     H 8953   3.849   4.368  16.090  1.1985  2.9207  2.2855
  604MPD2    H1 8954   4.112   4.038  16.169  0.3894 -1.9465  1.3824
  604MPD2    H2 8955   3.945   4.270  16.501  0.1790  1.2609 -0.5209
  604MPD2    H3 8956   4.075   4.072  16.410  0.4653  0.7797  0.6036
  604MPD2     N 8957   3.992   4.181  15.982  0.3407 -0.2886  0.2829
  604MPD2    H5 8958   3.950   4.254  15.925 -0.7257  0.5755  2.1804
  604MPD2    N1 8959   3.835   4.447  16.345  0.1761 -0.0540 -0.0247
  604MPD2    H7 8960   3.852   4.473  16.441 -1.6468  0.3500  0.1993
  605TMC3    C1 8961   3.732   4.656  16.330 -0.7967 -0.3043  0.3866
  605TMC3    C2 8962   3.840   4.702  16.401 -0.4752 -0.1023  0.3743
  605TMC3    C3 8963   3.848   0.113  16.428 -0.6588 -0.4599  0.2167
  605TMC3    C4 8964   3.639   0.017  16.273  0.1570  0.2914 -0.5324
  605TMC3    C5 8965   3.661   0.147  16.290  0.1949 -0.3501 -0.9533
  605TMC3    C6 8966   3.758   0.202  16.374  0.0921 -0.6070  0.0295
  605TMC3     C 8967   3.744   4.527  16.271 -0.0653  0.3714 -0.1975
  605TMC3     O 8968   3.689   4.512  16.163  0.4690 -0.5666  0.1111
  605TMC3     H 8969   3.924   4.641  16.431 -0.1827  1.1233  2.0039
  605TMC3    H1 8970   3.543   4.707  16.236  0.6842 -2.0818  0.3634
  605TMC3    H2 8971   3.758   0.307  16.398 -1.6651 -0.6995  0.4744
  605TMC3    C7 8972   3.561   0.240  16.233  0.3178  0.1217 -0.0935
  605TMC3    C8 8973   3.944   0.150  16.522 -0.0478  0.3392 -0.1050
  605TMC3    O1 8974   3.553   0.352  16.261 -0.4704  0.1393 -0.3409
  605TMC3    O2 8975   3.997   0.257  16.504 -0.4934  0.9244 -0.0554
  606TMC3    C1 8976   0.553   3.184  16.827 -0.3534  0.4079  0.2935
  606TMC3    C2 8977   0.613   3.138  16.945 -0.2396  0.2689  0.6398
  606TMC3    C3 8978   0.590   3.008  16.981 -0.7526 -0.4781  0.5189
  606TMC3    C4 8979   0.479   3.102  16.740 -0.4871  0.1313  0.3937
  606TMC3    C5 8980   0.467   2.979  16.783 -0.1837 -0.1060  0.8352
  606TMC3    C6 8981   0.508   2.936  16.910 -0.4014 -0.0896  0.1009
  606TMC3     C 8982   0.595   3.316  16.776  0.3305 -0.1747  0.0367
  606TMC3     O 8983   0.686   3.376  16.836  0.0837  0.6099  0.0373
  606TMC3     H 8984   0.674   3.211  16.997  0.1124 -0.5710  1.4165
  606TMC3    H1 8985   0.455   3.135  16.639  4.2267  1.7840 -0.1985
  606TMC3    H2 8986   0.482   2.834  16.936 -1.0783 -0.1164 -0.7025
  606TMC3    C7 8987   0.415   2.883  16.685  0.4186 -0.1397  0.5952
  606TMC3    C8 8988   0.678   2.963  17.086  1.3281  0.1223  0.3739
  606TMC3    O1 8989   0.444   2.909  16.569  0.3769  0.2122 -0.1236
  606TMC3    O2 8990   0.713   3.048  17.165  0.3468  0.4137  0.6837
  607MPD2     C 8991   2.330   1.338  11.316  0.5267 -0.4521 -0.4210
  607MPD2    C1 8992   2.437   1.406  11.375 -0.2900  0.2222  0.6862
  607MPD2    C2 8993   2.437   1.429  11.511  0.0389 -0.2267  1.2362
  607MPD2    C3 8994   2.342   1.362  11.588 -0.4925 -0.9367  0.8215
  607MPD2    C4 8995   2.235   1.301  11.525 -0.4250  0.4963 -0.4245
  607MPD2    C5 8996   2.230   1.289  11.386  0.1266  0.2227  0.8340
  607MPD2     H 8997   2.519   1.477  11.563 -1.3131 -1.6439  4.6499
  607MPD2    H1 8998   2.155   1.261  11.586 -2.6741  1.4312 -2.7663
  607MPD2    H2 8999   2.324   1.322  11.209  1.0203 -1.5553 -0.2787
  607MPD2    H3 9000   2.143   1.260  11.329 -1.3690  0.2309  3.1303
  607MPD2     N 9001   2.349   1.387  11.721  0.2752  0.0190 -0.0240
  607MPD2    H5 9002   2.415   1.458  11.753  0.6362 -0.6223  0.6732
  607MPD2    N1 9003   2.543   1.460  11.300  0.7117 -0.1122  0.3256
  607MPD2    H7 9004   2.608   1.517  11.354  0.1008  1.1223 -0.2226
  608TMC3    C1 9005   2.703   1.500  11.148  0.7061 -0.3131  0.6586
  608TMC3    C2 9006   2.792   1.474  11.253  0.5392 -0.4895 -0.4424
  608TMC3    C3 9007   2.916   1.536  11.243  0.0612 -0.8319 -0.3460
  608TMC3    C4 9008   2.737   1.577  11.035 -0.8717  0.1121  0.0704
  608TMC3    C5 9009   2.857   1.631  11.031  0.1146  0.9665  0.1212
  608TMC3    C6 9010   2.947   1.623  11.139  0.6308  0.3367  0.6906
  608TMC3     C 9011   2.572   1.447  11.163 -0.0577 -0.2665 -0.3296
  608TMC3     O 9012   2.506   1.407  11.066 -0.6005  0.4432  0.0807
  608TMC3     H 9013   2.784   1.382  11.309  0.3883  0.8023  1.6613
  608TMC3    H1 9014   2.660   1.593  10.960 -1.5719  1.5622  1.1068
  608TMC3    H2 9015   3.045   1.670  11.139  0.2855  1.0390 -0.5068
  608TMC3    C7 9016   2.869   1.731  10.925  0.6395 -0.0551  0.1110
  608TMC3    C8 9017   2.993   1.549  11.360 -0.0121 -0.3628 -0.2228
  608TMC3    O1 9018   2.763   1.780  10.880  0.0065 -0.5368 -0.0416
  608TMC3    O2 9019   3.114   1.562  11.355 -0.3491  0.0984  0.0925
  609TMC3    C1 9020   1.224   0.936   8.798 -0.2781  0.0659  0.1591
  609TMC3    C2 9021   1.288   1.034   8.725 -0.1241  0.4646 -0.3877
  609TMC3    C3 9022   1.421   1.021   8.691  0.4743  0.1604 -0.4898
  609TMC3    C4 9023   1.297   0.835   8.844 -0.5538  0.4278 -0.6535
  609TMC3    C5 9024   1.432   0.820   8.816 -0.1832  0.3198  0.2325
  609TMC3    C6 9025   1.497   0.918   8.738 -0.4260 -0.4997  0.2352
  609TMC3     C 9026   1.097   0.955   8.854 -0.0084 -0.0210  0.0621
  609TMC3     O 9027   1.073   0.879   8.945 -0.1367 -0.1269  0.6977
  609TMC3     H 9028   1.213   1.095   8.677  0.4992  1.0706 -0.5836
  609TMC3    H1 9029   1.252   0.744   8.883 -2.5410  1.2113 -1.1283
  609TMC3    H2 9030   1.604   0.916   8.721 -0.4098  1.4011  0.1068
  609TMC3    C7 9031   1.489   0.696   8.858  0.5516  0.4257  0.6197
  609TMC3    C8 9032   1.490   1.123   8.612 -0.4731 -0.0699 -0.7054
  609TMC3    O1 9033   1.432   0.646   8.956  0.1903  0.2988 -0.2144
  609TMC3    O2 9034   1.596   1.095   8.568 -0.3630 -0.6821  0.1576
  610TMC3    C1 9035   2.835   1.209  12.536  0.3848 -0.0716  0.5228
  610TMC3    C2 9036   2.897   1.264  12.424  0.1033 -1.0925  0.0159
  610TMC3    C3 9037   3.031   1.237  12.410  0.6248  0.3655  0.2719
  610TMC3    C4 9038   2.903   1.136  12.633  0.0134  0.6735  0.1680
  610TMC3    C5 9039   3.036   1.122  12.614 -0.9342 -0.1938  0.4356
  610TMC3    C6 9040   3.099   1.162  12.505 -0.1925 -0.2596  0.3800
  610TMC3     C 9041   2.684   1.216  12.527  0.2841  0.5468 -0.1697
  610TMC3     O 9042   2.626   1.250  12.425 -0.1484  0.3661 -0.3547
  610TMC3     H 9043   2.841   1.314  12.345  0.2653  1.6798  1.6693
  610TMC3    H1 9044   2.861   1.073  12.711  0.4953 -1.0625 -0.9837
  610TMC3    H2 9045   3.201   1.134  12.485  0.3637  0.1256  2.7106
  610TMC3    C7 9046   3.106   1.047  12.718 -0.0631  0.7097  0.1060
  610TMC3    C8 9047   3.102   1.280  12.294 -0.1342  0.1800  0.1737
  610TMC3    O1 9048   3.040   0.962  12.773  0.7267  0.2090  0.3743
  610TMC3    O2 9049   3.038   1.334  12.202 -0.2722  0.0301  0.0501
  611MPD2     C 9050   1.057   1.207  10.285 -0.6199  0.3953 -0.2929
  611MPD2    C1 9051   1.120   1.116  10.197  0.0453 -0.5126  0.3790
  611MPD2    C2 9052   1.256   1.132  10.166 -0.9795 -0.5055 -0.7356
  611MPD2    C3 9053   1.334   1.231  10.225 -0.4951  0.1026 -0.1810
  611MPD2    C4 9054   1.272   1.319  10.311 -0.0824 -0.6718 -0.3336
  611MPD2    C5 9055   1.133   1.313  10.330  0.1157 -0.1007  0.1541
  611MPD2     H 9056   1.291   1.063  10.091  2.0860 -1.0060  1.1835
  611MPD2    H1 9057   1.325   1.406  10.350 -3.6732  0.2199  2.5052
  611MPD2    H2 9058   0.953   1.201  10.316  0.2332 -0.9696  2.3294
  611MPD2    H3 9059   1.083   1.383  10.395  0.8343  0.4684  0.0876
  611MPD2     N 9060   1.468   1.253  10.196  0.2661  0.0427  0.5365
  611MPD2    H5 9061   1.506   1.341  10.230  0.8025  0.5743 -1.4439
  611MPD2    N1 9062   1.037   1.006  10.154 -0.1960  0.3288 -0.1147
  611MPD2    H7 9063   0.946   1.001  10.199 -0.6216  1.8868 -0.8112
  612TMC3    C1 9064   1.672   1.245  10.092 -0.1217  0.1122  0.4327
  612TMC3    C2 9065   1.786   1.177  10.102 -0.2450  0.9830  0.0488
  612TMC3    C3 9066   1.897   1.231  10.043 -0.1432  0.4716  0.1429
  612TMC3    C4 9067   1.652   1.345  10.003  0.0751 -0.3290  0.3535
  612TMC3    C5 9068   1.760   1.378   9.928 -0.6422 -0.5158 -0.1847
  612TMC3    C6 9069   1.882   1.323   9.945 -0.2342 -0.2019  0.4617
  612TMC3     C 9070   1.554   1.173  10.131 -0.0827  0.4099  0.2159
  612TMC3     O 9071   1.552   1.053  10.095  0.2671 -0.0082  0.7664
  612TMC3     H 9072   1.801   1.099  10.176  0.6601  1.5709  0.4776
  612TMC3    H1 9073   1.555   1.383   9.974 -0.5320 -1.5095  0.8731
  612TMC3    H2 9074   1.967   1.364   9.891 -0.0244 -0.1560  0.8252
  612TMC3    C7 9075   1.731   1.481   9.825 -0.9494  0.3923 -0.1550
  612TMC3    C8 9076   2.029   1.173  10.063  0.5633  0.1479  0.0660
  612TMC3    O1 9077   1.623   1.543   9.834  0.5279 -0.0515  0.4884
  612TMC3    O2 9078   2.089   1.149   9.959  0.3922 -0.3220  0.3963
  613MPD2     C 9079   1.747   3.732  16.035  0.1509  0.1313 -0.7182
  613MPD2    C1 9080   1.616   3.724  16.088  0.2309 -0.2248  0.0176
  613MPD2    C2 9081   1.577   3.617  16.165 -0.6218  0.4079  0.1639
  613MPD2    C3 9082   1.679   3.514  16.193 -0.2713 -0.0282  0.1458
  613MPD2    C4 9083   1.803   3.530  16.136 -0.3992  0.1271  0.5850
  613MPD2    C5 9084   1.832   3.626  16.052 -0.6829  0.0904  0.4896
  613MPD2     H 9085   1.478   3.606  16.206 -1.7400  1.0004 -2.3446
  613MPD2    H1 9086   1.880   3.455  16.148  0.2504  0.2834 -2.7146
  613MPD2    H2 9087   1.783   3.815  15.975  0.0345  0.5429 -0.2182
  613MPD2    H3 9088   1.937   3.628  16.024 -0.4510 -5.0970  0.9760
  613MPD2     N 9089   1.651   3.398  16.263  0.3719  0.6235  0.5857
  613MPD2    H5 9090   1.729   3.337  16.285  0.4592  1.2100  1.8821
  613MPD2    N1 9091   1.531   3.821  16.039  0.5395 -0.1073  0.5674
  613MPD2    H7 9092   1.568   3.873  15.960  0.2799  2.2379  1.9951
  614TMC3    C1 9093   1.344   3.776  15.910 -0.5004  0.3358 -0.4512
  614TMC3    C2 9094   1.410   3.678  15.839  0.5161  0.0180  0.2911
  614TMC3    C3 9095   1.336   3.608  15.744  0.9152 -0.7112 -0.3818
  614TMC3    C4 9096   1.209   3.796  15.884 -0.1777  0.1408  0.1249
  614TMC3    C5 9097   1.143   3.732  15.781  0.2824  0.1392 -0.4805
  614TMC3    C6 9098   1.212   3.644  15.705  0.0528  0.3472  0.5144
  614TMC3     C 9099   1.397   3.803  16.043  0.1753 -0.0701 -0.2569
  614TMC3     O 9100   1.322   3.817  16.140 -0.3005  0.1159  0.3574
  614TMC3     H 9101   1.513   3.652  15.864  0.3830 -0.6221  0.1765
  614TMC3    H1 9102   1.160   3.874  15.941  2.2360  0.6801  1.4739
  614TMC3    H2 9103   1.177   3.588  15.620  1.3233  2.1178 -1.1933
  614TMC3    C7 9104   1.021   3.794  15.734 -0.1903 -0.6007 -0.8635
  614TMC3    C8 9105   1.376   3.472  15.733 -0.2295  0.1424  0.5382
  614TMC3    O1 9106   0.967   3.882  15.798 -0.9358  0.3792 -0.5967
  614TMC3    O2 9107   1.290   3.384  15.742 -0.3910 -0.9031  0.4682
  615MPD2     C 9108   0.727   4.364  15.559 -0.5088 -0.6578 -0.6361
  615MPD2    C1 9109   0.697   4.480  15.626 -0.3494 -0.3289  0.4967
  615MPD2    C2 9110   0.570   4.537  15.600 -0.2773  0.1111 -0.4611
  615MPD2    C3 9111   0.483   4.483  15.507 -0.2870  1.4627 -0.5576
  615MPD2    C4 9112   0.525   4.373  15.438  0.4066  0.0780 -0.2414
  615MPD2    C5 9113   0.642   4.312  15.469  0.1690 -0.2234  0.8846
  615MPD2     H 9114   0.539   4.624  15.656 -1.6398 -1.0856  0.6450
  615MPD2    H1 9115   0.458   4.323  15.370 -0.2951  0.6720  0.0150
  615MPD2    H2 9116   0.816   4.311  15.590 -0.1570  0.3009  0.0045
  615MPD2    H3 9117   0.664   4.214  15.429 -0.2114 -0.8182  2.1204
  615MPD2     N 9118   0.357   4.542  15.475 -0.3120  0.2258 -0.5072
  615MPD2    H5 9119   0.311   4.498  15.395 -0.3234 -1.2299  0.3084
  615MPD2    N1 9120   0.782   4.546  15.718  0.2358  0.1127 -0.6482
  615MPD2    H7 9121   0.745   4.626  15.769 -3.0387 -0.7682 -1.6393
  616TMC3    C1 9122   0.981   4.608  15.824 -0.9203 -0.1113  0.0541
  616TMC3    C2 9123   1.105   4.654  15.789 -0.2436  0.0964  0.3287
  616TMC3    C3 9124   1.176   0.004  15.875 -0.3973 -0.0998  0.6136
  616TMC3    C4 9125   0.920   4.660  15.934 -0.0565 -0.2738 -0.4548
  616TMC3    C5 9126   0.997   0.015  16.015 -0.3148 -0.0959  0.3418
  616TMC3    C6 9127   1.126   0.045  15.994  0.4271 -0.3904 -0.2385
  616TMC3     C 9128   0.919   4.527  15.724  0.2290 -0.0788 -0.4105
  616TMC3     O 9129   0.991   4.460  15.652 -0.2574  0.5161  0.1510
  616TMC3     H 9130   1.152   4.622  15.697  0.3431  1.2331  0.2364
  616TMC3    H1 9131   0.819   4.635  15.965 -1.1823  2.9306 -1.5206
  616TMC3    H2 9132   1.176   0.122  16.051  1.1812 -0.0375 -1.3853
  616TMC3    C7 9133   0.943   0.112  16.107  0.4672 -0.1439  0.5557
  616TMC3    C8 9134   1.306   0.052  15.830 -0.0230 -0.9690  0.9383
  616TMC3    O1 9135   1.019   0.159  16.191  0.4205  0.2001  0.9265
  616TMC3    O2 9136   1.364   4.696  15.759  0.6407 -0.5683  0.3638
  617MPD2     C 9137   3.602   3.403  14.051  0.0061  0.0371  0.4801
  617MPD2    C1 9138   3.642   3.311  13.955 -0.6695 -0.4880  0.0247
  617MPD2    C2 9139   3.537   3.252  13.885  0.1755 -0.4552  0.0433
  617MPD2    C3 9140   3.409   3.278  13.916 -0.6696  0.5453  0.6463
  617MPD2    C4 9141   3.376   3.360  14.020 -0.3122 -0.3996  0.5077
  617MPD2    C5 9142   3.476   3.421  14.093 -0.5002 -0.2827 -0.1319
  617MPD2     H 9143   3.562   3.191  13.799  0.4728  1.2832 -1.0859
  617MPD2    H1 9144   3.275   3.374  14.057 -0.8853 -0.1693 -1.1518
  617MPD2    H2 9145   3.682   3.455  14.102  1.0476  0.5248 -1.6319
  617MPD2    H3 9146   3.456   3.487  14.177  1.2653  2.7784 -2.0893
  617MPD2     N 9147   3.304   3.205  13.855  0.3868 -0.4585  0.0205
  617MPD2    H5 9148   3.220   3.200  13.912  2.2592  1.9199  2.9858
  617MPD2    N1 9149   3.781   3.274  13.938  0.1010  0.0568 -0.1331
  617MPD2    H7 9150   3.852   3.316  13.997  1.0638  1.0931 -2.0373
  618TMC3    C1 9151   3.966   3.120  13.885  0.2848  0.0171 -0.3247
  618TMC3    C2 9152   3.998   2.995  13.850 -0.2469 -0.3081 -0.3510
  618TMC3    C3 9153   4.131   2.968  13.845  0.7614  0.1849 -0.3792
  618TMC3    C4 9154   4.057   3.221  13.913 -0.4267 -0.0667 -0.2804
  618TMC3    C5 9155   4.190   3.187  13.900  0.6993 -0.3023 -0.0288
  618TMC3    C6 9156   4.230   3.053  13.875 -0.0754  0.5708 -0.7179
  618TMC3     C 9157   3.826   3.157  13.868  0.3888 -0.1360 -0.7112
  618TMC3     O 9158   3.767   3.091  13.785  0.1842  0.5969  0.4504
  618TMC3     H 9159   3.930   2.917  13.817  0.3530 -0.5975 -0.9003
  618TMC3    H1 9160   4.013   3.318  13.932 -0.0953  0.3238 -1.4351
  618TMC3    H2 9161   4.332   3.015  13.881  0.2505  1.1877 -2.4734
  618TMC3    C7 9162   4.282   3.255  13.987 -0.2748  0.3634 -0.9058
  618TMC3    C8 9163   4.153   2.872  13.741  0.2562  0.6064  0.4567
  618TMC3    O1 9164   4.236   3.285  14.097 -0.5869 -0.2781  0.4911
  618TMC3    O2 9165   4.092   2.766  13.749  0.4485  0.2821 -0.4732
  619MPD2     C 9166   4.656   4.031  13.416 -0.2794  0.9809 -0.0403
  619MPD2    C1 9167   4.582   4.140  13.460  1.0604 -0.1531 -0.0395
  619MPD2    C2 9168   4.491   4.121  13.569 -0.4601 -0.0115 -0.0993
  619MPD2    C3 9169   4.478   3.993  13.623  0.7061 -0.0793 -0.4748
  619MPD2    C4 9170   4.557   3.891  13.583 -0.5496  0.5273 -0.1701
  619MPD2    C5 9171   4.652   3.919  13.488  0.1147  0.0115  0.4169
  619MPD2     H 9172   4.425   4.204  13.591 -0.3102  0.2889 -0.7896
  619MPD2    H1 9173   4.547   3.791  13.625 -1.3976  1.7221  2.4756
  619MPD2    H2 9174   4.722   4.043  13.331 -1.0229  1.9962 -0.4725
  619MPD2    H3 9175   4.723   3.839  13.473  1.1200  0.6385  1.8960
  619MPD2     N 9176   4.360   3.958  13.693 -0.2627  0.1202 -0.0219
  619MPD2    H5 9177   4.324   3.864  13.685 -0.3123  0.3257 -2.0944
  619MPD2    N1 9178   4.574   4.261  13.392 -0.0301 -0.4867  0.1577
  619MPD2    H7 9179   4.502   4.324  13.428  0.3368  1.0282 -1.7503
  620TMC3    C1 9180   4.613   4.426  13.230  0.0518 -0.1743  0.6015
  620TMC3    C2 9181   4.488   4.479  13.245  0.5814  0.3300 -0.2438
  620TMC3    C3 9182   4.465   4.609  13.202  0.3853 -0.0556 -0.3857
  620TMC3    C4 9183   4.713   4.489  13.163 -0.2779  0.4795 -0.5774
  620TMC3    C5 9184   4.685   4.610  13.110  0.2501 -0.1878 -0.4595
  620TMC3    C6 9185   4.565   4.678  13.134  0.0244 -0.8647  0.1611
  620TMC3     C 9186   4.641   4.291  13.272 -0.2229  0.0197  0.3966
  620TMC3     O 9187   0.003   4.234  13.209  0.1521  0.1158 -0.3787
  620TMC3     H 9188   4.417   4.425  13.307 -0.8727  1.0402 -1.2994
  620TMC3    H1 9189   0.080   4.436  13.145 -0.0448  0.7127 -0.0969
  620TMC3    H2 9190   4.536   0.050  13.098  2.1337 -0.2934  0.0366
  620TMC3    C7 9191   0.071   4.697  13.125  0.2540 -0.3210 -0.6384
  620TMC3    C8 9192   4.395   4.695  13.291  0.1544  0.6606 -0.2809
  620TMC3    O1 9193   0.082   0.074  13.064  0.4420  0.0543 -0.2747
  620TMC3    O2 9194   4.437   0.082  13.315 -0.1858  0.1133  0.3466
  621MPD2     C 9195   0.752   3.826  10.092 -0.0154 -0.2632 -0.1636
  621MPD2    C1 9196   0.661   3.920  10.065 -1.2443  0.1540  0.2431
  621MPD2    C2 9197   0.688   4.053  10.105 -0.6747 -0.4251 -0.2035
  621MPD2    C3 9198   0.791   4.090  10.185  0.4004 -0.7296 -0.3717
  621MPD2    C4 9199   0.869   3.986  10.227 -0.6022  0.5503 -0.6727
  621MPD2    C5 9200   0.849   3.856  10.184  0.0768  0.5291  0.0402
  621MPD2     H 9201   0.609   4.123  10.080 -2.0524 -0.9047  2.7458
  621MPD2    H1 9202   0.962   4.010  10.278  0.1797 -0.5419 -1.5814
  621MPD2    H2 9203   0.733   3.725  10.057  1.6029 -0.3209 -0.9050
  621MPD2    H3 9204   0.927   3.783  10.199 -0.4880 -0.2591 -0.8313
  621MPD2     N 9205   0.813   4.220  10.233 -0.3322 -0.3758  0.2230
  621MPD2    H5 9206   0.889   4.228  10.300  0.6285 -2.3644 -0.6131
  621MPD2    N1 9207   0.543   3.896   9.996  0.5574  0.0891  0.0127
  621MPD2    H7 9208   0.497   3.978   9.958 -3.0652 -2.1527 -0.4909
  622TMC3    C1 9209   0.350   3.789   9.900  0.3745  0.0298 -0.0878
  622TMC3    C2 9210   0.264   3.886   9.958 -0.1139 -0.1247  0.6895
  622TMC3    C3 9211   0.130   3.868   9.931  0.3817  0.7100 -0.1161
  622TMC3    C4 9212   0.302   3.686   9.824 -0.5817 -0.3360  0.3736
  622TMC3    C5 9213   0.166   3.680   9.805 -0.5112 -0.4992 -0.4593
  622TMC3    C6 9214   0.075   3.775   9.851  0.1253 -0.2616  0.1879
  622TMC3     C 9215   0.493   3.775   9.959  0.3276 -0.0045 -0.4048
  622TMC3     O 9216   0.535   3.664   9.956 -0.7230 -0.3601  0.0024
  622TMC3     H 9217   0.290   3.961  10.032  1.8147 -0.3793  0.2722
  622TMC3    H1 9218   0.373   3.620   9.776  0.4913  1.0866 -0.0134
  622TMC3    H2 9219   4.702   3.789   9.808  0.2504 -0.2669 -0.0985
  622TMC3    C7 9220   0.101   3.569   9.734  0.1120  0.2589  0.3913
  622TMC3    C8 9221   0.046   3.982   9.963  0.4048 -0.9038 -0.1675
  622TMC3    O1 9222   4.717   3.529   9.765 -0.3078  0.5303  0.5001
  622TMC3    O2 9223   0.115   4.080   9.985  0.1826 -0.2898  0.4003
  623MPD2     C 9224   4.056   4.666  16.110 -0.1338  0.4223  0.2910
  623MPD2    C1 9225   4.089   0.071  16.094 -0.2168  0.1869  0.3430
  623MPD2    C2 9226   4.200   0.116  16.166 -0.0019  0.5639 -0.5915
  623MPD2    C3 9227   4.281   0.042  16.247 -0.3680 -0.2584  0.4135
  623MPD2    C4 9228   4.245   4.631  16.249 -0.0061  0.1733 -0.3865
  623MPD2    C5 9229   4.138   4.580  16.184 -0.0695 -0.2322 -0.0120
  623MPD2     H 9230   4.217   0.222  16.160 -0.8414  0.6540 -1.5052
  623MPD2    H1 9231   4.301   4.557  16.305  0.4365  0.1727 -0.8270
  623MPD2    H2 9232   3.963   4.622  16.075  1.2163 -1.5422 -0.8308
  623MPD2    H3 9233   4.120   4.473  16.184 -0.0806 -0.2419 -1.9148
  623MPD2     N 9234   4.384   0.097  16.316 -0.0830 -0.1236 -0.2388
  623MPD2    H5 9235   4.397   0.197  16.314  0.8759 -0.2452 -0.0531
  623MPD2    N1 9236   4.007   0.164  16.026  0.7547  0.0235  1.0267
  623MPD2    H7 9237   4.019   0.264  16.037  1.1944  0.1149 -0.3038
  624TMC3    C1 9238   4.697   0.067  16.659  0.1070  0.2807  0.1560
  624TMC3    C2 9239   4.643   0.179  16.719  0.1254  0.4178 -0.2862
  624TMC3    C3 9240   4.565   0.255  16.644 -0.6049  0.1284 -0.5456
  624TMC3    C4 9241   4.657   0.036  16.529 -0.6131  0.5820  0.7775
  624TMC3    C5 9242   4.563   0.113  16.460 -0.2826 -0.2149  0.1365
  624TMC3    C6 9243   4.523   0.233  16.512  1.3024  0.0001 -0.2008
  624TMC3     C 9244   0.116   0.044  16.696 -0.3256  0.2241 -0.1069
  624TMC3     O 9245   0.176   0.129  16.762 -0.4812  0.2881 -0.4159
  624TMC3     H 9246   4.690   0.206  16.813  2.7278  1.0048 -1.7373
  624TMC3    H1 9247   4.687   4.673  16.475 -0.9185  0.1173  1.3765
  624TMC3    H2 9248   4.447   0.297  16.469  1.0364  0.4375  0.9209
  624TMC3    C7 9249   4.460   0.026  16.405  0.1491 -0.6300 -0.5673
  624TMC3    C8 9250   4.441   0.274  16.703  0.8683 -0.3758 -0.2560
  624TMC3    O1 9251   4.469   4.629  16.425  0.5716  0.3606 -0.1777
  624TMC3    O2 9252   4.362   0.363  16.668 -0.4806  0.0331 -0.2035
  625MPD2     C 9253   0.128   1.045   0.351 -0.5504  0.3920  0.2729
  625MPD2    C1 9254   0.220   1.132   0.401 -0.0815  0.1257  0.2605
  625MPD2    C2 9255   0.320   1.077   0.475 -0.4356  0.4711 -0.2187
  625MPD2    C3 9256   0.327   0.939   0.504 -0.3558  0.2643 -0.2995
  625MPD2    C4 9257   0.219   0.857   0.463 -0.1057  1.4010 -1.2496
  625MPD2    C5 9258   0.120   0.913   0.388 -0.4453  0.6719  0.4095
  625MPD2     H 9259   0.394   1.143   0.518  1.7942 -2.3377  0.2574
  625MPD2    H1 9260   0.202   0.755   0.497  0.0188  1.0386 -2.2768
  625MPD2    H2 9261   0.039   1.075   0.295  1.2043 -0.5028 -3.0083
  625MPD2    H3 9262   0.038   0.849   0.360  0.3691  0.0361 -0.5034
  625MPD2     N 9263   0.418   0.889   0.595 -0.0998  0.3918 -0.2997
  625MPD2    H5 9264   0.487   0.957   0.624 -1.2248  0.7467  1.5521
  625MPD2    N1 9265   0.219   1.273   0.374  0.3350 -0.0002 -0.8102
  625MPD2    H7 9266   0.287   1.329   0.423 -0.3078 -0.5009  0.6585
  626TMC3    C1 9267   0.153   1.483   0.295 -0.6526  0.3499 -0.1752
  626TMC3    C2 9268   0.098   1.549   0.190 -0.4262  0.6352  0.1084
  626TMC3    C3 9269   0.049   1.673   0.216  0.6341  0.1291  0.6681
  626TMC3    C4 9270   0.144   1.526   0.422 -0.0013  0.2472  0.2597
  626TMC3    C5 9271   0.088   1.649   0.447  0.1821  0.5855 -0.7446
  626TMC3    C6 9272   0.037   1.722   0.345 -0.0033 -0.4284  0.0149
  626TMC3     C 9273   0.137   1.335   0.282 -0.0443  0.1799  0.0922
  626TMC3     O 9274   0.057   1.281   0.200 -0.4961 -0.2272 -0.4224
  626TMC3     H 9275   0.100   1.516   0.087  0.5351  0.2117  0.2686
  626TMC3    H1 9276   0.166   1.467   0.510  2.2066  1.5834  0.6055
  626TMC3    H2 9277   4.709   1.816   0.353 -0.9296 -0.8357 -1.5100
  626TMC3    C7 9278   0.046   1.672   0.582 -0.5497 -0.4147 -0.1903
  626TMC3    C8 9279   4.713   1.748   0.105  0.0100 -0.4978 -0.0031
  626TMC3    O1 9280   0.100   1.602   0.668  0.0205 -0.0393  0.1972
  626TMC3    O2 9281   4.673   1.685   0.013 -0.2930  0.8010  0.1756
  627MPD2     C 9282   2.945   1.782  13.979  0.4005 -0.9779 -0.0963
  627MPD2    C1 9283   2.942   1.757  14.112  0.3227  0.5849  0.1786
  627MPD2    C2 9284   2.881   1.642  14.158  0.1048  0.6171 -0.6525
  627MPD2    C3 9285   2.836   1.544  14.077 -0.3704  0.4203 -0.4056
  627MPD2    C4 9286   2.830   1.574  13.940 -0.0974 -0.5750 -0.7337
  627MPD2    C5 9287   2.883   1.691  13.894 -0.1434  0.3362  0.1470
  627MPD2     H 9288   2.873   1.631  14.265 -1.5879  0.8822 -0.7624
  627MPD2    H1 9289   2.774   1.507  13.877 -2.5530  0.5512  0.2469
  627MPD2    H2 9290   2.993   1.866  13.930  1.3428 -0.7613  1.2152
  627MPD2    H3 9291   2.892   1.707  13.787  0.0983 -1.4594 -0.0986
  627MPD2     N 9292   2.770   1.428  14.132  0.1306 -0.0391  0.9374
  627MPD2    H5 9293   2.770   1.425  14.234 -1.6822 -1.4467  0.8839
  627MPD2    N1 9294   2.996   1.838  14.205 -0.2567  0.2494 -0.3122
  627MPD2    H7 9295   3.030   1.798  14.292 -1.2171 -1.8699 -0.9157
  628TMC3    C1 9296   3.097   2.032  14.291  0.1141 -0.1763 -0.8549
  628TMC3    C2 9297   3.193   1.961  14.354 -1.0987  0.4503 -0.0861
  628TMC3    C3 9298   3.259   2.018  14.460 -0.6285  0.4951 -0.3882
  628TMC3    C4 9299   3.055   2.159  14.331 -0.7764  0.0529 -0.4191
  628TMC3    C5 9300   3.125   2.209  14.438  0.9165 -0.4637  0.1620
  628TMC3    C6 9301   3.231   2.144  14.492 -0.3639 -0.4448 -0.2335
  628TMC3     C 9302   3.018   1.972  14.188  0.1028  0.4551  0.6744
  628TMC3     O 9303   2.988   2.044  14.094  0.3731  0.3190  0.7389
  628TMC3     H 9304   3.201   1.856  14.328  0.9416  0.5012  0.2981
  628TMC3    H1 9305   2.967   2.210  14.292 -1.6328 -1.1328 -0.0411
  628TMC3    H2 9306   3.257   2.178  14.591 -0.8386  0.4895 -0.4231
  628TMC3    C7 9307   3.136   2.358  14.457  0.4561  0.0586 -0.8941
  628TMC3    C8 9308   3.351   1.935  14.539 -0.2846 -0.0140 -0.2528
  628TMC3    O1 9309   3.193   2.402  14.551  0.2193 -0.0958  0.4784
  628TMC3    O2 9310   3.360   1.814  14.514 -0.2037 -0.1602  0.0018
  629MPD2     C 9311   1.721   0.346  15.852 -0.1494  0.1804 -0.1751
  629MPD2    C1 9312   1.641   0.384  15.958 -0.3285 -0.1588 -0.4102
  629MPD2    C2 9313   1.520   0.323  15.972  0.2509  0.0774  0.1497
  629MPD2    C3 9314   1.485   0.220  15.891  0.6092 -0.3561 -0.4045
  629MPD2    C4 9315   1.571   0.175  15.791  0.2667 -0.1914 -0.1729
  629MPD2    C5 9316   1.687   0.249  15.767 -0.0268 -0.2441 -0.0873
  629MPD2     H 9317   1.442   0.354  16.040 -1.0879 -1.1144 -0.8392
  629MPD2    H1 9318   1.552   0.096  15.719  1.4685  1.4602 -2.3110
  629MPD2    H2 9319   1.815   0.398  15.836 -1.1890  1.5083 -1.9718
  629MPD2    H3 9320   1.738   0.217  15.677 -2.2649  0.9706 -1.7627
  629MPD2     N 9321   1.359   0.159  15.902  0.2134 -0.1735 -0.0526
  629MPD2    H5 9322   1.300   0.205  15.970  0.6159 -1.1465  0.9598
  629MPD2    N1 9323   1.677   0.500  16.034 -0.4326 -0.3792 -0.1781
  629MPD2    H7 9324   1.764   0.546  16.008 -0.5497 -0.5895 -0.9271
  630TMC3    C1 9325   1.677   0.651  16.205 -0.1995 -0.1276  0.1131
  630TMC3    C2 9326   1.740   0.746  16.126  0.6121 -0.0797 -0.8855
  630TMC3    C3 9327   1.841   0.816  16.187  0.0230  0.8259 -0.6663
  630TMC3    C4 9328   1.717   0.618  16.335 -0.1905  0.0115 -0.1929
  630TMC3    C5 9329   1.834   0.671  16.373  0.1982 -0.2199 -0.3573
  630TMC3    C6 9330   1.890   0.773  16.308 -0.0927 -1.1073 -0.2880
  630TMC3     C 9331   1.603   0.549  16.135 -0.8661  0.0509  0.1752
  630TMC3     O 9332   1.519   0.490  16.207  0.0200  0.0389  0.2920
  630TMC3     H 9333   1.706   0.777  16.028 -1.8968 -0.2298 -0.0761
  630TMC3    H1 9334   1.693   0.520  16.374 -2.4321  1.4271  1.9686
  630TMC3    H2 9335   1.972   0.825  16.356  0.3659 -1.2238 -0.9492
  630TMC3    C7 9336   1.883   0.634  16.505 -0.4577 -0.2696 -0.3586
  630TMC3    C8 9337   1.932   0.900  16.117 -0.5582 -0.5562  0.1393
  630TMC3    O1 9338   1.811   0.573  16.584  0.1855 -0.2479 -0.6124
  630TMC3    O2 9339   2.041   0.910  16.163 -0.6396  0.3683 -0.1423
  631MPD2     C 9340   4.184   0.366  15.735 -1.0532  0.0005 -0.0971
  631MPD2    C1 9341   4.209   0.375  15.602 -0.5269  0.5166 -0.5822
  631MPD2    C2 9342   4.289   0.280  15.546  0.1794 -0.2360  0.0504
  631MPD2    C3 9343   4.357   0.196  15.626  0.0386 -0.0618 -0.5173
  631MPD2    C4 9344   4.325   0.181  15.759  0.3366  0.5629  0.3836
  631MPD2    C5 9345   4.237   0.271  15.814 -0.4590 -0.8074 -1.1124
  631MPD2     H 9346   4.327   0.299  15.446 -2.5839 -0.8956 -1.1442
  631MPD2    H1 9347   4.377   0.111  15.823  1.6568  1.3360  0.1670
  631MPD2    H2 9348   4.115   0.426  15.792  0.8076  1.7429  0.3288
  631MPD2    H3 9349   4.210   0.263  15.919 -3.2366  1.5061 -1.6786
  631MPD2     N 9350   4.458   0.120  15.556  0.3048  0.1317 -0.1869
  631MPD2    H5 9351   4.446   0.111  15.456  0.7132 -2.2877 -0.0157
  631MPD2    N1 9352   4.149   0.487  15.535 -0.1394  0.2487 -0.1440
  631MPD2    H7 9353   4.130   0.565  15.598  0.4648 -0.4050  0.8567
  632TMC3    C1 9354   4.116   0.632  15.335 -0.8058 -0.5195  0.3678
  632TMC3    C2 9355   4.056   0.730  15.402  0.3755 -0.0618  0.8147
  632TMC3    C3 9356   4.094   0.856  15.362 -0.1654  0.3113  0.4546
  632TMC3    C4 9357   4.181   0.657  15.217  0.0281 -0.3772 -0.0617
  632TMC3    C5 9358   4.211   0.787  15.187  0.3267 -0.3719  0.2690
  632TMC3    C6 9359   4.178   0.894  15.262  0.4501  0.0599  0.1031
  632TMC3     C 9360   4.156   0.504  15.395  0.0582  0.3218 -0.1725
  632TMC3     O 9361   4.190   0.416  15.316  0.1482 -0.7855  0.3286
  632TMC3     H 9362   3.988   0.710  15.483 -0.0826  1.3651  0.7866
  632TMC3    H1 9363   4.224   0.578  15.156 -0.5426 -2.1983  1.8787
  632TMC3    H2 9364   4.201   0.997  15.239  1.0763 -1.4469 -6.1560
  632TMC3    C7 9365   4.296   0.804  15.067  0.7742  0.8634 -0.4586
  632TMC3    C8 9366   4.022   0.958  15.433  0.8557 -0.9506 -0.1245
  632TMC3    O1 9367   4.303   0.727  14.976 -0.4091  0.1166  0.2634
  632TMC3    O2 9368   4.026   0.950  15.555  0.2662 -0.3106  0.6460
  633MPD2     C 9369   4.491   2.994  17.131 -0.3348 -1.0922 -0.2649
  633MPD2    C1 9370   4.446   2.975  17.005  0.6539  0.2053  0.0749
  633MPD2    C2 9371   4.412   2.847  16.957 -0.3899  0.1540  0.1077
  633MPD2    C3 9372   4.436   2.734  17.032 -0.1414 -0.2614 -0.5076
  633MPD2    C4 9373   4.471   2.754  17.167 -0.1043  0.2262  0.4469
  633MPD2    C5 9374   4.495   2.882  17.208 -0.3989  0.2938 -0.4791
  633MPD2     H 9375   4.394   2.843  16.850  3.1947 -1.1301 -0.4394
  633MPD2    H1 9376   4.489   2.681  17.245  2.9069  0.6518  0.1232
  633MPD2    H2 9377   4.526   3.090  17.167 -0.0887 -0.4913 -2.0916
  633MPD2    H3 9378   4.527   2.881  17.312 -0.7922  0.3862 -0.3550
  633MPD2     N 9379   4.410   2.602  16.989 -0.1001  0.2280  0.1827
  633MPD2    H5 9380   4.414   2.536  17.066  0.8787 -2.6349 -2.3313
  633MPD2    N1 9381   4.458   3.076  16.913 -0.0870 -0.1817 -0.4847
  633MPD2    H7 9382   4.407   3.060  16.826 -2.2777 -0.9023  0.9451
  634TMC3    C1 9383   4.533   3.242  16.785 -0.5920  0.3349  0.4076
  634TMC3    C2 9384   4.534   3.158  16.677 -0.0502 -0.4328  0.3096
  634TMC3    C3 9385   4.531   3.207  16.548 -0.1109 -0.1124 -0.3749
  634TMC3    C4 9386   4.520   3.374  16.760 -0.1536  0.1025 -0.0733
  634TMC3    C5 9387   4.486   3.418  16.638 -0.4788  0.4268  0.5939
  634TMC3    C6 9388   4.483   3.331  16.525 -0.1797 -0.5909 -0.2333
  634TMC3     C 9389   4.529   3.193  16.918 -0.0285 -0.0587 -0.0855
  634TMC3     O 9390   4.579   3.255  17.006  0.3196 -0.9693  0.5131
  634TMC3     H 9391   4.568   3.056  16.691 -1.2178 -0.8498  0.0860
  634TMC3    H1 9392   4.549   3.443  16.839 -3.0423 -1.1800  2.1111
  634TMC3    H2 9393   4.478   3.376  16.426  0.8102 -1.6140 -0.7438
  634TMC3    C7 9394   4.478   3.565  16.618  0.1671 -0.1021 -0.5888
  634TMC3    C8 9395   4.538   3.117  16.439  0.4537 -0.6729 -0.1624
  634TMC3    O1 9396   4.479   3.592  16.497  0.4243 -0.8126  0.3909
  634TMC3    O2 9397   4.545   3.001  16.467 -0.0040  0.2284 -0.7189
  635TMC3    C1 9398   0.675   4.569  16.937  0.2263  0.1170 -0.1079
  635TMC3    C2 9399   0.679   4.467  16.842 -0.0958 -0.0269  0.3750
  635TMC3    C3 9400   0.560   4.401  16.809  0.7165 -0.2956 -1.7363
  635TMC3    C4 9401   0.556   4.608  17.000 -0.2936  0.0687  0.0094
  635TMC3    C5 9402   0.439   4.554  16.954 -0.1493  0.1980  0.0736
  635TMC3    C6 9403   0.436   4.451  16.860  0.2864 -1.0124  0.2201
  635TMC3     C 9404   0.796   4.631  16.977 -0.3262  0.0141 -0.5048
  635TMC3     O 9405   0.792   4.670  17.096  0.5716  0.5026  0.0653
  635TMC3     H 9406   0.773   4.416  16.826 -0.7109 -1.4616  1.3368
  635TMC3    H1 9407   0.572   4.689  17.070 -2.4604  0.6651 -0.2099
  635TMC3    H2 9408   0.337   4.409  16.850  0.0865 -0.2867 -0.8820
  635TMC3    C7 9409   0.340   4.537  17.061 -0.2342 -0.4270 -0.2402
  635TMC3    C8 9410   0.553   4.264  16.795 -0.6061 -0.9963 -0.7187
  635TMC3    O1 9411   0.227   4.517  17.024 -0.1646  0.6821  0.9806
  635TMC3    O2 9412   0.444   4.216  16.773 -0.0269 -0.3727 -0.0004
  636MPD2     C 9413   0.892   3.610  16.160  0.5870  0.0835 -0.2632
  636MPD2    C1 9414   1.007   3.658  16.210 -0.4355  0.4534 -0.2347
  636MPD2    C2 9415   1.109   3.565  16.239  0.3557  0.7835 -0.6859
  636MPD2    C3 9416   1.084   3.430  16.251  0.5431 -0.5680 -0.2101
  636MPD2    C4 9417   0.959   3.389  16.211  0.6392  0.5383  0.1038
  636MPD2    C5 9418   0.862   3.481  16.170 -0.4975 -0.0543 -0.3305
  636MPD2     H 9419   1.205   3.599  16.278  0.2200 -0.3933  0.6587
  636MPD2    H1 9420   0.925   3.287  16.228 -0.6115  1.0130  0.4414
  636MPD2    H2 9421   0.807   3.670  16.129  1.4643  0.6265 -1.6329
  636MPD2    H3 9422   0.768   3.445  16.131 -0.2757 -0.0691 -0.8638
  636MPD2     N 9423   1.186   3.340  16.300  0.3763 -0.0347  0.2953
  636MPD2    H5 9424   1.277   3.377  16.323  0.7671 -0.7997 -0.0079
  636MPD2    N1 9425   1.039   3.795  16.222  0.4824 -0.0950 -0.6909
  636MPD2    H7 9426   1.127   3.822  16.264 -0.7721 -0.1037  1.9103
  637TMC3    C1 9427   1.297   3.145  16.346  0.8115  0.3604 -0.3114
  637TMC3    C2 9428   1.393   3.215  16.418 -0.2001 -0.7380  0.2212
  637TMC3    C3 9429   1.515   3.231  16.360 -0.7628 -1.4289  0.8390
  637TMC3    C4 9430   1.335   3.066  16.238  0.2671  0.4099  0.6051
  637TMC3    C5 9431   1.462   3.067  16.193  0.4645 -0.0312  0.2634
  637TMC3    C6 9432   1.552   3.150  16.257 -0.6752 -0.3711  0.1950
  637TMC3     C 9433   1.172   3.201  16.304  0.1480  0.1195  0.5263
  637TMC3     O 9434   1.083   3.121  16.270 -0.1658 -0.2451  0.0490
  637TMC3     H 9435   1.365   3.283  16.497 -2.7098 -3.1691  1.4373
  637TMC3    H1 9436   1.269   3.002  16.181  0.8726  0.2141  0.1289
  637TMC3    H2 9437   1.654   3.141  16.222 -0.3745 -2.7271  1.6901
  637TMC3    C7 9438   1.463   3.072  16.052  0.3443  0.1922 -0.1191
  637TMC3    C8 9439   1.532   3.367  16.324  0.4425  0.0300 -0.2780
  637TMC3    O1 9440   1.358   3.095  15.993 -0.2017 -0.7868  0.2317
  637TMC3    O2 9441   1.437   3.439  16.353 -0.3022 -0.3478  0.5343
  638MPD2     C 9442   0.629   2.412  14.800  0.1141  0.1780 -0.4702
  638MPD2    C1 9443   0.563   2.315  14.727 -0.1364 -0.3652 -0.0404
  638MPD2    C2 9444   0.518   2.202  14.790  0.0037 -0.5195  0.2812
  638MPD2    C3 9445   0.539   2.191  14.928 -0.6525  0.6100  0.1997
  638MPD2    C4 9446   0.598   2.291  14.996  0.6720  0.4504 -0.5899
  638MPD2    C5 9447   0.648   2.400  14.936 -0.0998 -0.0344 -0.2687
  638MPD2     H 9448   0.474   2.120  14.734 -0.5252 -0.3224  0.4017
  638MPD2    H1 9449   0.613   2.289  15.103 -0.0353 -1.2713 -0.5238
  638MPD2    H2 9450   0.659   2.497  14.740  1.7775  0.6888  1.0885
  638MPD2    H3 9451   0.698   2.474  14.997 -2.0317  1.8248 -0.9162
  638MPD2     N 9452   0.502   2.069  14.986  0.3296 -0.1701 -0.5606
  638MPD2    H5 9453   0.457   2.002  14.924 -1.0594  1.0634 -0.8975
  638MPD2    N1 9454   0.566   2.339  14.586 -0.2830  0.0896 -0.2189
  638MPD2    H7 9455   0.600   2.429  14.554  1.1749 -1.3209 -2.5906
  639TMC3    C1 9456   0.451   1.914  15.154  0.5124 -0.7081 -0.4274
  639TMC3    C2 9457   0.342   1.869  15.081 -0.3678  0.4477 -0.0281
  639TMC3    C3 9458   0.277   1.758  15.126 -0.2325  0.2364  0.1572
  639TMC3    C4 9459   0.502   1.851  15.265 -0.0119 -0.5817  0.1592
  639TMC3    C5 9460   0.426   1.736  15.313 -0.6623  0.0714  1.0276
  639TMC3    C6 9461   0.307   1.702  15.252  0.3055  0.2092 -0.2712
  639TMC3     C 9462   0.514   2.040  15.116 -0.2484 -0.0343  0.3118
  639TMC3     O 9463   0.579   2.091  15.203  0.5107  0.0191  0.9812
  639TMC3     H 9464   0.306   1.928  14.998  1.5019 -0.5472 -1.5451
  639TMC3    H1 9465   0.596   1.888  15.301  1.0120 -2.5142 -0.4841
  639TMC3    H2 9466   0.263   1.604  15.269 -1.0578  1.1060  1.3440
  639TMC3    C7 9467   0.504   1.630  15.374 -0.1145 -0.3726 -0.3827
  639TMC3    C8 9468   0.186   1.700  15.028  0.3001  0.4796  0.2380
  639TMC3    O1 9469   0.451   1.540  15.438  0.3927  0.4547  0.3703
  639TMC3    O2 9470   0.216   1.722  14.910  0.0068  0.4430  0.4011
  640MPD2     C 9471   0.861   0.773   9.777  0.1677 -0.1424  1.0947
  640MPD2    C1 9472   0.890   0.904   9.735 -0.0852 -0.2265  0.1108
  640MPD2    C2 9473   0.795   1.008   9.744 -0.0827  0.4009 -0.8706
  640MPD2    C3 9474   0.676   0.982   9.800 -0.1682 -0.6008 -0.2082
  640MPD2    C4 9475   0.653   0.859   9.860 -0.1759 -0.5126 -0.3526
  640MPD2    C5 9476   0.739   0.752   9.833  0.2508  0.3136  0.5372
  640MPD2     H 9477   0.808   1.103   9.693  1.4114 -0.0870 -1.4026
  640MPD2    H1 9478   0.561   0.837   9.912 -0.3569 -1.6838 -1.1614
  640MPD2    H2 9479   0.939   0.699   9.778 -0.9969 -1.3890 -1.3933
  640MPD2    H3 9480   0.732   0.654   9.878  0.0494  0.8321  1.6433
  640MPD2     N 9481   0.576   1.077   9.801  0.3348  0.1711 -0.5693
  640MPD2    H5 9482   0.486   1.042   9.832  0.0800  1.2958 -0.0128
  640MPD2    N1 9483   1.021   0.925   9.677  0.1551  0.5077  0.5754
  640MPD2    H7 9484   1.069   0.839   9.653 -1.6285 -0.5672  0.8475
  641TMC3    C1 9485   1.193   1.020   9.553  0.2159 -0.1494 -0.1413
  641TMC3    C2 9486   1.285   0.933   9.596 -0.0608  0.2903  0.6968
  641TMC3    C3 9487   1.398   0.928   9.526 -1.4208 -0.3463 -0.5555
  641TMC3    C4 9488   1.202   1.092   9.439 -0.8905 -0.1406  0.6074
  641TMC3    C5 9489   1.318   1.087   9.369  0.1514 -0.3928 -0.4117
  641TMC3    C6 9490   1.416   1.003   9.412  0.0451  0.2330  0.2661
  641TMC3     C 9491   1.067   1.043   9.622 -0.4710  1.2260  0.0214
  641TMC3     O 9492   1.014   1.156   9.617 -0.0817 -0.5031  0.5106
  641TMC3     H 9493   1.269   0.879   9.688  1.0429  2.7405  2.3142
  641TMC3    H1 9494   1.118   1.155   9.414 -2.3143 -2.0233  0.6590
  641TMC3    H2 9495   1.519   0.999   9.377 -0.4118 -0.3235 -0.9963
  641TMC3    C7 9496   1.311   1.152   9.239 -0.4166  0.5861  0.4902
  641TMC3    C8 9497   1.504   0.830   9.562  0.3947  0.5762  0.3478
  641TMC3    O1 9498   1.219   1.234   9.219 -0.2543  0.2162  0.4539
  641TMC3    O2 9499   1.587   0.799   9.480 -0.3980  0.0757  0.0041
  642TMC3    C1 9500   2.242   2.208  12.211  0.4953  0.0263  0.2277
  642TMC3    C2 9501   2.373   2.210  12.266 -0.0087 -0.3836 -0.2136
  642TMC3    C3 9502   2.435   2.088  12.273 -0.3213 -1.1265  0.7566
  642TMC3    C4 9503   2.175   2.092  12.179  0.4725  0.5321 -0.6687
  642TMC3    C5 9504   2.243   1.975  12.191  0.0450  0.1835  0.1814
  642TMC3    C6 9505   2.371   1.969  12.238 -0.2819  0.0985 -0.3991
  642TMC3     C 9506   2.198   2.335  12.162 -0.1744 -0.6995 -0.0800
  642TMC3     O 9507   2.288   2.415  12.133 -0.0763  0.0247  0.1394
  642TMC3     H 9508   2.425   2.304  12.276  0.8581 -0.7692 -0.9923
  642TMC3    H1 9509   2.084   2.101  12.122 -1.3812 -0.7614  2.0725
  642TMC3    H2 9510   2.431   1.880  12.249  0.0662  0.2932 -0.7408
  642TMC3    C7 9511   2.175   1.854  12.147 -0.5864 -0.2661 -0.5158
  642TMC3    C8 9512   2.563   2.078  12.345 -0.3433  0.5863 -0.5328
  642TMC3    O1 9513   2.096   1.866  12.054 -0.3455 -0.1210 -0.3547
  642TMC3    O2 9514   2.613   1.964  12.354 -0.0448  0.6705  0.1618
  643TMC3    C1 9515   1.583   1.747   0.625  0.4132 -0.6609  0.3120
  643TMC3    C2 9516   1.454   1.790   0.610 -0.2120  0.2555  0.0778
  643TMC3    C3 9517   1.385   1.715   0.532  0.0350 -0.3172  0.3599
  643TMC3    C4 9518   1.643   1.642   0.555 -0.1157  0.1918 -0.8882
  643TMC3    C5 9519   1.564   1.577   0.465 -0.1993  0.4674 -0.1526
  643TMC3    C6 9520   1.427   1.597   0.469 -0.3263 -0.2706  0.4158
  643TMC3     C 9521   1.668   1.849   0.680  0.3102 -0.4127  0.5620
  643TMC3     O 9522   1.626   1.962   0.690 -0.6525  0.3404 -0.1556
  643TMC3     H 9523   1.411   1.885   0.641 -1.2887  0.5665 -2.2885
  643TMC3    H1 9524   1.750   1.634   0.541 -0.1926 -0.9810 -0.8349
  643TMC3    H2 9525   1.369   1.555   0.388 -1.9880  0.9760  0.9585
  643TMC3    C7 9526   1.628   1.583   0.332  0.5104 -0.0299  0.5468
  643TMC3    C8 9527   1.317   1.794   0.427 -1.4974 -0.0490 -0.5948
  643TMC3    O1 9528   1.709   1.675   0.315  0.2327 -0.2022  0.0453
  643TMC3    O2 9529   1.213   1.751   0.385  0.2888 -0.2401 -0.3047
  644MPD2     C 9530   1.484   1.678   9.206  0.2653 -0.5543 -0.3307
  644MPD2    C1 9531   1.440   1.566   9.275 -0.6840 -0.1986  0.0115
  644MPD2    C2 9532   1.308   1.548   9.313 -1.1814 -0.4451 -0.6470
  644MPD2    C3 9533   1.214   1.647   9.285  0.0004 -0.0309 -0.2277
  644MPD2    C4 9534   1.258   1.760   9.221 -0.5578 -0.1824 -0.0988
  644MPD2    C5 9535   1.389   1.777   9.191  0.2842 -0.2491 -0.0092
  644MPD2     H 9536   1.264   1.463   9.363  1.7738 -2.1559 -0.9359
  644MPD2    H1 9537   1.193   1.844   9.200  2.8555  2.6990  0.7765
  644MPD2    H2 9538   1.590   1.688   9.186 -0.0668  1.4679 -1.1165
  644MPD2    H3 9539   1.426   1.867   9.143 -1.4872  1.6029  2.0959
  644MPD2     N 9540   1.082   1.631   9.331 -0.3092  0.1753 -0.4249
  644MPD2    H5 9541   1.060   1.544   9.377  1.8626  0.1527  0.5727
  644MPD2    N1 9542   1.539   1.466   9.303 -0.1634 -0.4443 -0.0692
  644MPD2    H7 9543   1.624   1.470   9.248 -0.4016 -1.6249 -0.5261
  645TMC3    C1 9544   0.856   1.666   9.304 -0.0335 -1.3619 -0.2429
  645TMC3    C2 9545   0.759   1.767   9.293 -1.3087 -0.3456  0.2943
  645TMC3    C3 9546   0.633   1.726   9.300  0.2891  0.1124  0.6546
  645TMC3    C4 9547   0.840   1.531   9.315 -0.4256 -0.0313  0.0959
  645TMC3    C5 9548   0.708   1.499   9.310 -0.1214 -0.6361  0.4098
  645TMC3    C6 9549   0.606   1.594   9.304  0.1395  0.1067  0.8578
  645TMC3     C 9550   0.988   1.726   9.332  0.0269 -0.1607 -0.2289
  645TMC3     O 9551   0.995   1.847   9.311  0.5253 -0.3424  0.0047
  645TMC3     H 9552   0.785   1.872   9.305 -1.6894 -0.1354 -0.6472
  645TMC3    H1 9553   0.920   1.463   9.344 -1.5510 -1.6780 -0.6742
  645TMC3    H2 9554   0.504   1.568   9.327 -0.4212  2.2065  0.7325
  645TMC3    C7 9555   0.673   1.361   9.348 -0.0152 -0.2648  0.5458
  645TMC3    C8 9556   0.518   1.824   9.297 -0.2165 -0.3105  0.8026
  645TMC3    O1 9557   0.554   1.349   9.383 -0.2510  0.0773 -0.2829
  645TMC3    O2 9558   0.403   1.793   9.316  0.0071  0.0414 -0.7255
  646MPD2     C 9559   0.722   1.015  14.516 -0.2535  0.1642 -0.2107
  646MPD2    C1 9560   0.633   0.977  14.606 -0.0910 -0.3655 -0.1374
  646MPD2    C2 9561   0.506   1.026  14.589 -0.2294 -0.0767  0.2666
  646MPD2    C3 9562   0.482   1.120  14.486  0.2443 -0.2346 -0.1885
  646MPD2    C4 9563   0.581   1.163  14.399 -0.3723  0.3937  1.0222
  646MPD2    C5 9564   0.701   1.097  14.416  0.1984 -0.8570  0.0639
  646MPD2     H 9565   0.420   1.009  14.652  1.3535 -0.7280  2.2708
  646MPD2    H1 9566   0.567   1.234  14.318  0.9745  1.7689  2.0022
  646MPD2    H2 9567   0.825   0.983  14.530  0.1142  1.1186 -0.7520
  646MPD2    H3 9568   0.784   1.133  14.356 -0.0612 -1.5514 -0.7080
  646MPD2     N 9569   0.349   1.173  14.484 -0.2400  0.0056  0.0528
  646MPD2    H5 9570   0.284   1.144  14.557  1.1908  1.1140  1.7622
  646MPD2    N1 9571   0.673   0.893  14.709  0.3725 -0.4757 -0.1847
  646MPD2    H7 9572   0.773   0.881  14.722  0.6227 -0.1564 -1.8492
  647TMC3    C1 9573   0.669   0.764  14.910  0.3648  0.3051 -0.8385
  647TMC3    C2 9574   0.597   0.656  14.958 -0.0537  0.2199 -0.6750
  647TMC3    C3 9575   0.635   0.611  15.084 -0.0221  0.3759 -0.0973
  647TMC3    C4 9576   0.789   0.807  14.963 -0.9088 -0.7685 -1.1250
  647TMC3    C5 9577   0.826   0.759  15.085  0.3681 -0.6736  0.0731
  647TMC3    C6 9578   0.742   0.672  15.152  0.3285 -0.1733  0.1181
  647TMC3     C 9579   0.594   0.838  14.807  0.3003 -0.6552 -0.1778
  647TMC3     O 9580   0.472   0.815  14.801  0.3084  0.7417  0.2380
  647TMC3     H 9581   0.503   0.629  14.912  1.3380 -1.8902 -2.3093
  647TMC3    H1 9582   0.840   0.886  14.910  0.1492  0.1908  1.3161
  647TMC3    H2 9583   0.777   0.634  15.247 -0.0800 -1.1390 -0.1150
  647TMC3    C7 9584   0.963   0.754  15.131 -0.1041 -0.4434 -0.0437
  647TMC3    C8 9585   0.612   0.480  15.137 -0.3595  0.4114  0.2117
  647TMC3    O1 9586   0.995   0.674  15.219  0.2592  0.3409 -0.1993
  647TMC3    O2 9587   0.672   0.445  15.234  0.0482 -0.3296  0.1191
  648TMC3    C1 9588   0.132   3.236  16.051 -0.3699 -0.5810  0.2166
  648TMC3    C2 9589   0.149   3.110  16.014 -0.2852  0.3395 -0.3357
  648TMC3    C3 9590   0.092   3.064  15.899  0.5723  0.0109  0.4085
  648TMC3    C4 9591   0.050   3.319  15.972  0.3800  0.1148 -0.5688
  648TMC3    C5 9592   0.007   3.272  15.848  0.4831 -0.1628 -0.2880
  648TMC3    C6 9593   0.030   3.145  15.816  0.3282 -0.3011 -0.0848
  648TMC3     C 9594   0.169   3.295  16.172 -0.7603  0.3065  0.5990
  648TMC3     O 9595   0.179   3.414  16.195 -0.6941 -0.8226 -0.1484
  648TMC3     H 9596   0.216   3.052  16.077  0.7977 -0.4729 -2.2203
  648TMC3    H1 9597   0.022   3.416  16.010  1.3904  0.1243  0.1358
  648TMC3    H2 9598   4.725   3.118  15.716 -0.3397  1.1031 -0.2628
  648TMC3    C7 9599   4.640   3.345  15.762  0.0702  0.5823 -0.2247
  648TMC3    C8 9600   0.122   2.929  15.854 -0.5973 -0.0309 -0.1298
  648TMC3    O1 9601   4.590   3.284  15.669  0.0211 -0.1035  0.8862
  648TMC3    O2 9602   0.226   2.880  15.898  0.3130 -0.4333 -0.4866
  649TMC3    C1 9603   3.109   4.302  12.892 -0.7115  0.6705  0.2978
  649TMC3    C2 9604   3.202   4.402  12.865 -0.3522 -0.5919 -0.7148
  649TMC3    C3 9605   3.316   4.389  12.937  0.0358  0.5216  0.1774
  649TMC3    C4 9606   3.128   4.194  12.973  0.1824 -0.2297  0.8852
  649TMC3    C5 9607   3.239   4.198  13.044 -0.7193  0.1342  0.0735
  649TMC3    C6 9608   3.337   4.290  13.036 -0.1604 -0.3258 -0.0185
  649TMC3     C 9609   3.008   4.290  12.791 -0.7969 -0.1542 -0.6485
  649TMC3     O 9610   2.970   4.174  12.772  0.0192  0.0852  0.3180
  649TMC3     H 9611   3.177   4.484  12.799 -0.8399  0.3834  0.6811
  649TMC3    H1 9612   3.047   4.123  12.987 -3.5326  3.3688 -2.4275
  649TMC3    H2 9613   3.429   4.277  13.092 -0.4174 -2.1645  0.0045
  649TMC3    C7 9614   3.250   4.107  13.158  0.5444  0.1049 -0.7083
  649TMC3    C8 9615   3.427   4.478  12.909  0.5881  0.2842 -0.1166
  649TMC3    O1 9616   3.325   4.148  13.248 -0.3748  0.9873  0.3267
  649TMC3    O2 9617   3.511   4.486  12.996 -0.3514  0.3764  1.0870
  650TMC3    C1 9618   1.348   1.397  12.668  0.3061 -0.5205 -0.3197
  650TMC3    C2 9619   1.351   1.537  12.654 -0.4683  0.7882 -0.2440
  650TMC3    C3 9620   1.231   1.588  12.615  0.0782  0.0156 -0.3209
  650TMC3    C4 9621   1.241   1.317  12.631 -0.4191  0.3737 -0.7055
  650TMC3    C5 9622   1.127   1.379  12.590  0.5030  0.1019 -0.0454
  650TMC3    C6 9623   1.119   1.515  12.577 -0.1202  0.1680  0.0216
  650TMC3     C 9624   1.472   1.332  12.705 -0.5636 -0.0837  0.2798
  650TMC3     O 9625   1.556   1.411  12.753  0.9288  0.2457  0.0147
  650TMC3     H 9626   1.444   1.592  12.649  0.7833 -1.4957 -2.0953
  650TMC3    H1 9627   1.239   1.208  12.627  1.9061  0.1950  3.0652
  650TMC3    H2 9628   1.031   1.566  12.540  0.7325  2.2925  0.9381
  650TMC3    C7 9629   1.038   1.294  12.508 -0.3516  0.3959  0.5337
  650TMC3    C8 9630   1.225   1.729  12.574  0.0798 -0.5023  0.1420
  650TMC3    O1 9631   1.012   1.184  12.546  0.1222 -0.9783 -0.4113
  650TMC3    O2 9632   1.323   1.794  12.543  0.2149 -0.4062  0.0191
  651MPD2     C 9633   0.458   2.991  10.240 -0.1059  1.1162 -0.2804
  651MPD2    C1 9634   0.450   3.125  10.277  0.8248 -0.3630  0.3863
  651MPD2    C2 9635   0.564   3.175  10.328 -0.6513 -0.5471 -0.8325
  651MPD2    C3 9636   0.684   3.112  10.344  0.6266  0.5767  0.3403
  651MPD2    C4 9637   0.689   2.974  10.309  0.3682 -0.2129  0.0034
  651MPD2    C5 9638   0.579   2.919  10.253 -0.8177 -0.4279 -0.4442
  651MPD2     H 9639   0.557   3.281  10.351 -1.0727 -1.2261  2.0394
  651MPD2    H1 9640   0.784   2.924  10.321  0.7063  0.9050  2.0547
  651MPD2    H2 9641   0.376   2.947  10.185  0.3511 -0.9385  0.6918
  651MPD2    H3 9642   0.581   2.817  10.216  0.0007 -0.8868  0.8738
  651MPD2     N 9643   0.797   3.177  10.410 -0.3305  0.1226  0.2355
  651MPD2    H5 9644   0.775   3.260  10.465 -0.1869  1.0372 -1.0769
  651MPD2    N1 9645   0.344   3.213  10.255  0.5353 -0.1554 -0.2061
  651MPD2    H7 9646   0.359   3.313  10.267 -1.4614  0.1430 -0.1967
  652TMC3    C1 9647   1.181   3.362  10.493 -0.6215  0.2631  0.1273
  652TMC3    C2 9648   1.129   3.241  10.446 -0.0366  0.7951 -0.2475
  652TMC3    C3 9649   1.004   3.222  10.492  0.2587 -0.2387 -0.1385
  652TMC3    C4 9650   1.117   3.446  10.575 -0.1080  0.2201 -0.3918
  652TMC3    C5 9651   0.987   3.421  10.613 -0.2598 -0.2685  0.5440
  652TMC3    C6 9652   0.928   3.303  10.579  0.3220 -0.1967  0.2412
  652TMC3     C 9653   1.325   3.375  10.482  0.0688  0.3895 -0.1322
  652TMC3     O 9654   1.392   3.279  10.530 -0.1743  0.2176 -0.4992
  652TMC3     H 9655   1.175   3.180  10.370 -1.5624 -1.9154  0.9932
  652TMC3    H1 9656   1.185   3.511  10.629  0.0664 -0.1640 -0.1519
  652TMC3    H2 9657   0.830   3.280  10.619 -0.4313  1.2070 -0.7953
  652TMC3    C7 9658   0.935   3.488  10.730  0.2553 -0.3159  0.6793
  652TMC3    C8 9659   0.925   3.133  10.411  0.2478 -0.0251  0.5400
  652TMC3    O1 9660   0.840   3.446  10.795  0.2171  0.2191  1.3154
  652TMC3    O2 9661   0.994   3.059  10.344  0.5232  0.4018  0.0977
  653MPD2     C 9662   4.489   3.382   0.029 -0.5501  0.7789 -0.7714
  653MPD2    C1 9663   4.411   3.479  17.675  0.1893  0.5702  0.4892
  653MPD2    C2 9664   4.343   3.454  17.559  0.3238 -0.0450 -0.4505
  653MPD2    C3 9665   4.339   3.328  17.500  1.0047  0.0497 -0.0603
  653MPD2    C4 9666   4.432   3.237  17.553 -0.2962 -0.6679 -0.3572
  653MPD2    C5 9667   4.495   3.260  17.672 -0.0875 -0.3963 -0.0391
  653MPD2     H 9668   4.281   3.528  17.508  2.1903  0.0419 -2.5939
  653MPD2    H1 9669   4.460   3.144  17.505  1.2656  0.0219 -0.7889
  653MPD2    H2 9670   4.552   3.386   0.117  0.4817  2.4428 -1.5814
  653MPD2    H3 9671   4.558   3.184   0.014  0.3656  0.5909  1.0018
  653MPD2     N 9672   4.247   3.301  17.397 -0.0457 -0.0437  0.2631
  653MPD2    H5 9673   4.189   3.381  17.374 -2.0918 -1.7088 -0.3546
  653MPD2    N1 9674   4.421   3.612   0.018  0.4108 -0.2860  0.1936
  653MPD2    H7 9675   4.370   3.679  17.664  0.1335  0.2431  1.0568
  654TMC3    C1 9676   4.127   3.173  17.241 -0.0569  0.8019  0.3985
  654TMC3    C2 9677   4.044   3.286  17.210  0.5457  0.5666  0.3063
  654TMC3    C3 9678   3.947   3.269  17.120 -0.4794  0.0689  0.2613
  654TMC3    C4 9679   4.112   3.053  17.171  0.1346 -0.2036  0.1299
  654TMC3    C5 9680   4.024   3.052  17.072 -0.7741 -0.0535  0.1748
  654TMC3    C6 9681   3.936   3.154  17.053 -0.3497 -0.0829  0.2502
  654TMC3     C 9682   4.231   3.182  17.340  0.0037  0.4845  0.0133
  654TMC3     O 9683   4.286   3.073  17.361 -0.0499 -0.0630  0.3076
  654TMC3     H 9684   4.059   3.378  17.265  1.3532  0.7967 -0.3119
  654TMC3    H1 9685   4.183   2.974  17.190  0.2184 -0.2237 -0.2547
  654TMC3    H2 9686   3.874   3.143  16.964  0.5968 -2.7342 -0.0805
  654TMC3    C7 9687   4.016   2.945  16.978  0.2548  0.2070  0.2132
  654TMC3    C8 9688   3.886   3.394  17.082 -0.5473 -0.0783 -0.2939
  654TMC3    O1 9689   3.984   2.972  16.865  0.3019 -0.2174  0.2461
  654TMC3    O2 9690   3.818   3.458  17.159  0.3832 -0.1177 -0.0176
  655MPD2     C 9691   0.634   3.279  15.491 -0.6290 -1.0313 -0.3898
  655MPD2    C1 9692   0.533   3.354  15.438  0.3739 -0.5799 -0.5610
  655MPD2    C2 9693   0.465   3.314  15.324  0.3542 -0.3960  0.3128
  655MPD2    C3 9694   0.493   3.201  15.262 -0.1016 -0.2323  0.2362
  655MPD2    C4 9695   0.600   3.130  15.300 -0.2958  0.4534 -0.8368
  655MPD2    C5 9696   0.670   3.170  15.413 -0.4256  0.7376  0.0785
  655MPD2     H 9697   0.388   3.383  15.293  0.8362 -1.6211 -3.6478
  655MPD2    H1 9698   0.629   3.034  15.257  1.8649 -0.3647  2.3928
  655MPD2    H2 9699   0.694   3.315  15.574  0.8949  1.7745 -2.7021
  655MPD2    H3 9700   0.757   3.118  15.452 -1.6257 -0.5760  0.9958
  655MPD2     N 9701   0.425   3.158  15.147  0.2722 -0.0573  0.0558
  655MPD2    H5 9702   0.451   3.074  15.097  2.8430  0.4252  0.5566
  655MPD2    N1 9703   0.474   3.467  15.508  0.0540  0.1442 -0.2138
  655MPD2    H7 9704   0.407   3.520  15.453  0.9668 -0.2086 -1.6707
  656TMC3    C1 9705   0.422   3.619  15.677  0.3725  0.0207 -0.4927
  656TMC3    C2 9706   0.392   3.631  15.809  0.2824  0.5306 -0.3520
  656TMC3    C3 9707   0.326   3.739  15.854  1.4199  0.2084 -0.5056
  656TMC3    C4 9708   0.394   3.720  15.585  0.3594 -1.5717  0.8844
  656TMC3    C5 9709   0.318   3.826  15.636 -0.0311  0.6530  0.0378
  656TMC3    C6 9710   0.272   3.832  15.765 -0.9246  0.3319  0.2127
  656TMC3     C 9711   0.503   3.506  15.642  0.2452 -0.8349 -0.0076
  656TMC3     O 9712   0.565   3.451  15.734 -0.6586 -0.5295  0.6985
  656TMC3     H 9713   0.418   3.551  15.878 -0.0385 -0.6386 -1.5834
  656TMC3    H1 9714   0.417   3.719  15.479 -3.2258  1.5181  0.0878
  656TMC3    H2 9715   0.202   3.908  15.797 -2.3135 -1.3370  1.1888
  656TMC3    C7 9716   0.232   3.885  15.536 -0.2212 -0.0533  0.1121
  656TMC3    C8 9717   0.223   3.690  15.951 -0.9675 -0.4616 -0.1168
  656TMC3    O1 9718   0.288   3.907  15.430  0.0479  0.2573  0.0950
  656TMC3    O2 9719   0.139   3.608  15.920 -0.0088 -0.1296  0.0408
  657TMC3    C1 9720   4.068   2.633  14.644  0.1727  0.1371 -0.3874
  657TMC3    C2 9721   4.085   2.594  14.771 -0.0031 -0.2553 -0.2335
  657TMC3    C3 9722   4.009   2.662  14.866 -0.8018 -0.5313  1.1334
  657TMC3    C4 9723   3.979   2.733  14.609 -0.1755 -0.0797  0.0092
  657TMC3    C5 9724   3.905   2.790  14.710  0.1467  0.2062 -0.1376
  657TMC3    C6 9725   3.911   2.751  14.835  0.3098 -0.0462  0.1033
  657TMC3     C 9726   4.172   2.605  14.547 -0.1166 -0.1783  0.0727
  657TMC3     O 9727   4.143   2.639  14.434 -0.4852 -0.1143 -0.0919
  657TMC3     H 9728   4.149   2.515  14.808 -0.5247 -1.0856 -1.1255
  657TMC3    H1 9729   3.983   2.781  14.512 -0.9938 -2.5152 -1.2310
  657TMC3    H2 9730   3.854   2.799  14.914  0.1074  2.6495 -1.6766
  657TMC3    C7 9731   3.855   2.930  14.696 -0.3531  0.0240  0.4020
  657TMC3    C8 9732   4.070   2.645  14.999  0.0040 -0.4145  0.6313
  657TMC3    O1 9733   3.851   2.991  14.803  0.3394  0.0548 -0.0627
  657TMC3    O2 9734   4.184   2.604  15.000 -0.1403  0.1646 -0.3999
  658MPD2     C 9735   0.701   2.917  14.708  0.1278  0.0530 -0.1206
  658MPD2    C1 9736   0.574   2.916  14.660 -0.5464  0.4758  0.4495
  658MPD2    C2 9737   0.549   2.959  14.529 -0.0481  0.3006 -0.0727
  658MPD2    C3 9738   0.655   2.988  14.443  0.5534  0.2059  0.3323
  658MPD2    C4 9739   0.785   2.989  14.491  1.1182 -0.0283 -0.0356
  658MPD2    C5 9740   0.803   2.950  14.621  0.2407 -0.0307  0.2413
  658MPD2     H 9741   0.452   2.979  14.485  0.5014  1.8326 -0.6095
  658MPD2    H1 9742   0.870   2.998  14.424  0.7557 -1.6454 -0.7010
  658MPD2    H2 9743   0.724   2.887  14.810 -1.7656  0.7164  0.4884
  658MPD2    H3 9744   0.905   2.948  14.659 -0.0328  0.9351  1.0347
  658MPD2     N 9745   0.623   3.023  14.306  0.3659 -0.4204 -0.7984
  658MPD2    H5 9746   0.527   3.006  14.278 -0.2287  0.1106  0.9484
  658MPD2    N1 9747   0.471   2.900  14.749  0.2488  0.2101 -0.2076
  658MPD2    H7 9748   0.508   2.893  14.843 -2.1032  2.0369  0.8657
  659TMC3    C1 9749   0.264   2.951  14.850 -0.2373  0.4842 -0.1526
  659TMC3    C2 9750   0.326   3.048  14.929 -0.0159  0.6305 -0.2489
  659TMC3    C3 9751   0.245   3.107  15.022  0.2014 -0.5038  0.6268
  659TMC3    C4 9752   0.131   2.922  14.857 -0.2065 -0.5874  0.4792
  659TMC3    C5 9753   0.060   2.985  14.953 -0.2716 -0.4029 -0.0993
  659TMC3    C6 9754   0.112   3.079  15.039 -0.0204  0.3334 -0.3112
  659TMC3     C 9755   0.334   2.921  14.729 -0.3588  0.7281 -0.5876
  659TMC3     O 9756   0.264   2.929  14.629 -0.2538  0.1560  0.1971
  659TMC3     H 9757   0.429   3.079  14.913  0.1928 -0.0923 -0.2972
  659TMC3    H1 9758   0.097   2.835  14.802  2.3680  0.1634 -2.3326
  659TMC3    H2 9759   0.047   3.140  15.100 -0.6731  0.0259 -0.7090
  659TMC3    C7 9760   4.644   2.982  14.952 -0.4689  0.0482 -1.1351
  659TMC3    C8 9761   0.303   3.202  15.110  0.0059  0.7926 -0.2653
  659TMC3    O1 9762   4.585   3.034  15.043 -0.0452 -0.1870  0.0449
  659TMC3    O2 9763   0.232   3.286  15.165  0.5294 -0.0707  0.0278
  660MPD2     C 9764   3.615   1.847  12.350 -0.6590 -0.7950 -0.0589
  660MPD2    C1 9765   3.495   1.908  12.380  0.3939 -0.9104 -0.0177
  660MPD2    C2 9766   3.426   1.862  12.490 -0.9666  0.0561  0.1514
  660MPD2    C3 9767   3.468   1.764  12.574  0.0279 -0.0288 -0.3232
  660MPD2    C4 9768   3.593   1.713  12.547  0.0274 -0.6898 -0.0549
  660MPD2    C5 9769   3.666   1.760  12.439  0.0786 -0.9924 -0.3403
  660MPD2     H 9770   3.337   1.912  12.525 -0.7166  0.0407  0.8188
  660MPD2    H1 9771   3.631   1.630  12.606  2.3304  0.1757 -0.3439
  660MPD2    H2 9772   3.672   1.872  12.260 -1.8627 -1.1500 -0.9213
  660MPD2    H3 9773   3.758   1.708  12.414  0.0098 -0.5948 -1.4327
  660MPD2     N 9774   3.399   1.719  12.687 -0.2801  0.0876  0.3287
  660MPD2    H5 9775   3.434   1.632  12.726 -2.9828 -0.2138  2.0730
  660MPD2    N1 9776   3.461   2.019  12.312 -0.6703 -0.2741  0.0153
  660MPD2    H7 9777   3.518   2.044  12.232  1.5816 -2.0142  1.0810
  661TMC3    C1 9778   3.304   2.187  12.233 -0.0424  0.6936 -0.2172
  661TMC3    C2 9779   3.389   2.221  12.135 -0.0924  0.2978 -0.2027
  661TMC3    C3 9780   3.358   2.322  12.056  0.1542  0.2565 -0.0321
  661TMC3    C4 9781   3.189   2.258  12.255  1.1890  0.6577 -0.3136
  661TMC3    C5 9782   3.154   2.351  12.160 -0.2974 -0.0917  0.2045
  661TMC3    C6 9783   3.242   2.400  12.069  0.5816  0.0000  0.6006
  661TMC3     C 9784   3.339   2.081  12.332 -0.0371  0.1158  0.5229
  661TMC3     O 9785   3.266   2.083  12.429 -0.0955 -0.0721  0.0798
  661TMC3     H 9786   3.485   2.170  12.127 -0.2649 -0.3266  1.6116
  661TMC3    H1 9787   3.115   2.216  12.323  2.1727 -1.0092 -0.2797
  661TMC3    H2 9788   3.192   2.466  11.999  0.5062 -0.7113 -0.0156
  661TMC3    C7 9789   3.018   2.405  12.158 -0.9315 -0.5053  0.2356
  661TMC3    C8 9790   3.437   2.328  11.930  0.2431  0.4902  0.6510
  661TMC3    O1 9791   3.009   2.518  12.114 -0.1500  0.3415 -0.6666
  661TMC3    O2 9792   3.523   2.242  11.922  0.3962  0.0425  0.1492
  662MPD2     C 9793   3.776   2.283  17.140 -0.0025 -0.1251 -0.1458
  662MPD2    C1 9794   3.754   2.257  17.275  0.1172 -0.0783 -0.5376
  662MPD2    C2 9795   3.681   2.337  17.360 -0.5153 -0.1740  0.2627
  662MPD2    C3 9796   3.622   2.454  17.308  1.2475 -0.1687  0.8290
  662MPD2    C4 9797   3.636   2.481  17.174  0.0103  0.9455 -0.3530
  662MPD2    C5 9798   3.706   2.395  17.093  0.2446 -0.2027  0.3191
  662MPD2     H 9799   3.673   2.316  17.466  1.7092  0.2005  0.5007
  662MPD2    H1 9800   3.591   2.563  17.120  0.9430  1.7804  0.1262
  662MPD2    H2 9801   3.839   2.237  17.064  1.0766 -0.2791  0.8399
  662MPD2    H3 9802   3.717   2.420  16.988  3.7455 -1.2282  0.4569
  662MPD2     N 9803   3.537   2.540  17.385 -0.7250  0.0076  0.1637
  662MPD2    H5 9804   3.474   2.599  17.332 -0.2876  0.1696 -0.1789
  662MPD2    N1 9805   3.793   2.137  17.343  0.2122  0.3599 -0.5341
  662MPD2    H7 9806   3.773   2.142  17.443 -0.6406 -1.0822 -0.6392
  663TMC3    C1 9807   3.838   1.908  17.380 -0.4925  0.0806  0.4588
  663TMC3    C2 9808   3.802   1.933  17.505  0.0886  0.3534  0.6666
  663TMC3    C3 9809   3.780   1.827  17.590 -0.2029  0.0189  0.4180
  663TMC3    C4 9810   3.829   1.788  17.318 -0.0525  0.2793 -0.2025
  663TMC3    C5 9811   3.792   1.687  17.397  0.0801 -0.2190 -0.0298
  663TMC3    C6 9812   3.768   1.700  17.537  0.3548 -0.4403  0.3143
  663TMC3     C 9813   3.852   2.025  17.286  0.0192 -0.4780  0.3145
  663TMC3     O 9814   3.882   2.001  17.172 -0.4166  0.5845 -0.2025
  663TMC3     H 9815   3.847   2.019  17.553  0.9835 -0.0562  0.5629
  663TMC3    H1 9816   3.863   1.771  17.217 -1.4115 -0.3512 -0.5464
  663TMC3    H2 9817   3.730   1.625  17.606  3.2633 -1.0138  1.2978
  663TMC3    C7 9818   3.738   1.565  17.328 -0.3983 -0.2976 -0.2507
  663TMC3    C8 9819   3.681   1.854  17.686 -0.4721 -0.3679 -0.2100
  663TMC3    O1 9820   3.759   1.452  17.368  0.3335  0.0951  0.3553
  663TMC3    O2 9821   3.643   1.761   0.056  0.4512 -0.4103 -0.6342
  664MPD2     C 9822   2.361   0.416  17.610 -0.1969  1.0465 -0.3257
  664MPD2    C1 9823   2.233   0.387  17.654  0.2478  0.3927 -0.3488
  664MPD2    C2 9824   2.207   0.395   0.081 -0.0878  0.2051 -0.4728
  664MPD2    C3 9825   2.303   0.426   0.177 -1.0477  0.2249  0.1498
  664MPD2    C4 9826   2.436   0.447   0.136  0.0074  0.8792 -0.8998
  664MPD2    C5 9827   2.461   0.449  17.699 -0.3085 -0.2647  0.1297
  664MPD2     H 9828   2.104   0.368   0.101 -0.0916 -0.0830 -0.8589
  664MPD2    H1 9829   2.511   0.486   0.203  0.0683  1.0297 -1.0565
  664MPD2    H2 9830   2.393   0.423  17.507  0.2310  1.9554 -0.1363
  664MPD2    H3 9831   2.555   0.486  17.661  0.5544 -2.5596  0.0247
  664MPD2     N 9832   2.274   0.425   0.318  0.2414  0.4786 -0.0147
  664MPD2    H5 9833   2.349   0.444   0.384 -0.8563  1.2782  1.0054
  664MPD2    N1 9834   2.131   0.368  17.560 -0.1698 -0.1468 -0.2546
  664MPD2    H7 9835   2.044   0.332  17.597  0.2499  0.8842  1.7305
  665TMC3    C1 9836   2.150   0.434   0.514  0.0918 -0.0101  0.8733
  665TMC3    C2 9837   2.055   0.377   0.590  0.2311  0.3556 -0.0888
  665TMC3    C3 9838   2.054   0.397   0.722  0.1617  0.9359 -0.4115
  665TMC3    C4 9839   2.241   0.512   0.573 -0.5086  0.5620 -0.4215
  665TMC3    C5 9840   2.250   0.517   0.706  0.8045 -0.3654 -0.4787
  665TMC3    C6 9841   2.152   0.470   0.781  0.6898  0.0394  0.8396
  665TMC3     C 9842   2.153   0.395   0.373 -0.3140  0.5111  0.1404
  665TMC3     O 9843   2.052   0.341   0.327  0.4354 -0.1538  0.5434
  665TMC3     H 9844   1.990   0.307   0.538 -0.2406  1.8115 -1.4524
  665TMC3    H1 9845   2.314   0.567   0.514  0.0931  0.6165  0.3733
  665TMC3    H2 9846   2.157   0.485   0.889  1.6540 -0.1418  0.8214
  665TMC3    C7 9847   2.352   0.604   0.770  0.0159 -0.0689  0.2434
  665TMC3    C8 9848   1.955   0.333   0.814  0.1989 -0.0304 -0.1273
  665TMC3    O1 9849   2.458   0.618   0.711  0.8528 -0.0186 -0.4029
  665TMC3    O2 9850   1.960   0.384   0.924  0.0656  0.0983 -0.3478
  666TMC3    C1 9851   0.800   4.455  10.260  0.5667  0.4319  0.1156
  666TMC3    C2 9852   0.912   4.441  10.338  0.2779 -0.7084 -0.6572
  666TMC3    C3 9853   0.996   4.548  10.341 -0.7776  0.6108  0.1929
  666TMC3    C4 9854   0.764   4.574  10.207 -0.1951  1.3346  0.3054
  666TMC3    C5 9855   0.860   4.673  10.202  0.3595  0.1473 -0.1660
  666TMC3    C6 9856   0.977   4.657  10.265  0.2644  0.7367  0.4090
  666TMC3     C 9857   0.747   4.339  10.193  0.3257 -0.0306 -0.3003
  666TMC3     O 9858   0.649   4.346  10.120 -0.1665 -0.3605 -0.3898
  666TMC3     H 9859   0.935   4.362  10.408 -0.7581 -0.7186 -0.3221
  666TMC3    H1 9860   0.675   4.578  10.145  1.6205  1.1839 -2.3207
  666TMC3    H2 9861   1.045   0.016  10.270  3.0272 -1.4080 -1.0236
  666TMC3    C7 9862   0.818   0.056  10.111  0.3153  0.0360  0.0605
  666TMC3    C8 9863   1.112   4.528  10.426  0.5810  0.3089  0.3599
  666TMC3    O1 9864   0.697   0.082  10.105 -0.0690 -0.1152  0.2306
  666TMC3    O2 9865   1.155   4.412  10.430  0.1354  0.0136 -0.0865
  667MPD2     C 9866   2.475   0.039  14.448  0.5277  1.1340  0.0668
  667MPD2    C1 9867   2.461   4.717  14.579  0.3640  1.0784 -0.3118
  667MPD2    C2 9868   2.431   4.583  14.599  0.0883 -0.4600  0.3178
  667MPD2    C3 9869   2.423   4.504  14.487  0.0050  0.7350  0.1526
  667MPD2    C4 9870   2.433   4.553  14.355  0.8158  0.0607 -0.3636
  667MPD2    C5 9871   2.462   4.684  14.339 -0.6356  0.2185  1.3609
  667MPD2     H 9872   2.421   4.541  14.698 -0.0316 -0.1070  0.4546
  667MPD2    H1 9873   2.423   4.487  14.270  2.0177 -1.7696  0.9224
  667MPD2    H2 9874   2.493   0.142  14.420  1.6749  0.4358 -1.7541
  667MPD2    H3 9875   2.463   0.003  14.239 -2.0665 -1.8855  0.4153
  667MPD2     N 9876   2.396   4.361  14.498 -0.1363 -0.1433 -0.0300
  667MPD2    H5 9877   2.384   4.311  14.411 -3.1801 -0.0837  0.3587
  667MPD2    N1 9878   2.491   0.072  14.693  0.0761 -0.1225 -0.2404
  667MPD2    H7 9879   2.498   0.022  14.781 -0.6351  0.6872  0.2770
  668TMC3    C1 9880   2.539   0.267  14.818  0.0200 -0.4437 -0.9542
  668TMC3    C2 9881   2.587   0.396  14.820 -0.3900 -0.0080  0.0491
  668TMC3    C3 9882   2.595   0.451  14.944  0.7189 -0.4509  0.5498
  668TMC3    C4 9883   2.468   0.218  14.924 -0.5294 -0.1017  0.0692
  668TMC3    C5 9884   2.474   0.288  15.039 -0.0471  1.0241  0.5263
  668TMC3    C6 9885   2.545   0.392  15.054  0.0889  0.1633 -0.3931
  668TMC3     C 9886   2.522   0.207  14.688  0.6461 -1.0749  0.4124
  668TMC3     O 9887   2.518   0.286  14.593  0.0751  0.2946 -0.4108
  668TMC3     H 9888   2.630   0.433  14.728 -1.3116  0.1088 -0.3412
  668TMC3    H1 9889   2.409   0.128  14.927  0.1612 -0.4867  2.0635
  668TMC3    H2 9890   2.548   0.445  15.149 -1.0952  4.7466 -2.8990
  668TMC3    C7 9891   2.398   0.246  15.158 -0.3329 -0.4998 -0.4407
  668TMC3    C8 9892   2.658   0.584  14.970 -0.2232 -0.0016 -0.0545
  668TMC3    O1 9893   2.481   0.206  15.244 -0.0452 -0.3444 -1.0098
  668TMC3    O2 9894   2.666   0.623  15.085  0.3324  0.2097 -0.1185
  669TMC3    C1 9895   0.400   4.596  14.775 -0.5315  0.9561  0.6477
  669TMC3    C2 9896   0.301   4.642  14.689  0.0406  0.1347  0.3838
  669TMC3    C3 9897   0.333   0.046  14.639  0.0462  0.2006  0.0091
  669TMC3    C4 9898   0.523   4.652  14.799  0.2280  0.4461 -0.1615
  669TMC3    C5 9899   0.548   0.049  14.733 -0.1572 -0.5899 -0.2787
  669TMC3    C6 9900   0.451   0.109  14.656  0.9129  0.2128  0.2471
  669TMC3     C 9901   0.360   4.487  14.862  0.0371  0.3304 -0.6085
  669TMC3     O 9902   0.243   4.473  14.899  0.8495  0.3440 -0.0405
  669TMC3     H 9903   0.202   4.599  14.674  0.8846 -1.4288 -0.7405
  669TMC3    H1 9904   0.592   4.611  14.872  0.4687  2.4822  0.7297
  669TMC3    H2 9905   0.463   0.213  14.627 -4.1409  0.2811 -1.7031
  669TMC3    C7 9906   0.658   0.136  14.772 -0.2785 -0.9207 -0.0176
  669TMC3    C8 9907   0.245   0.104  14.535 -0.4646  0.1310 -0.6989
  669TMC3    O1 9908   0.644   0.246  14.723  0.1746 -0.4064  0.5594
  669TMC3    O2 9909   0.127   0.080  14.550  0.7620 -0.7500 -0.1937
  670MPD2     C 9910   3.749   2.787  13.130 -0.0493 -0.1548 -0.1864
  670MPD2    C1 9911   3.766   2.866  13.241  0.6644 -0.0732 -0.2132
  670MPD2    C2 9912   3.725   2.820  13.360 -0.0331  0.4079 -0.1908
  670MPD2    C3 9913   3.649   2.703  13.368 -0.1982 -0.8079  0.2703
  670MPD2    C4 9914   3.631   2.626  13.256 -0.3619 -0.4127  0.3891
  670MPD2    C5 9915   3.688   2.668  13.137  0.3893 -0.7987  0.1199
  670MPD2     H 9916   3.741   2.879  13.450 -1.1461 -0.9682  0.9140
  670MPD2    H1 9917   3.577   2.532  13.263 -0.6983 -0.2357  0.1705
  670MPD2    H2 9918   3.787   2.812  13.032 -2.7845 -0.6340 -1.3798
  670MPD2    H3 9919   3.679   2.606  13.049 -1.0303 -0.3031 -0.0796
  670MPD2     N 9920   3.589   2.656  13.491  0.1282 -0.1578  0.4871
  670MPD2    H5 9921   3.528   2.576  13.480  1.1090 -0.9887  1.0400
  670MPD2    N1 9922   3.850   2.980  13.232 -0.1872 -0.0902 -0.4775
  670MPD2    H7 9923   3.884   3.019  13.320 -1.1097 -2.6593  1.0390
  671TMC3    C1 9924   3.519   2.631  13.706  0.2083  0.2315  0.0612
  671TMC3    C2 9925   3.585   2.548  13.795  0.4337  0.0133  0.2096
  671TMC3    C3 9926   3.509   2.470  13.875  0.0822 -1.2575  0.4679
  671TMC3    C4 9927   3.387   2.631  13.688 -0.3837  0.8794  0.6716
  671TMC3    C5 9928   3.311   2.555  13.770  0.7729  0.0832 -0.3883
  671TMC3    C6 9929   3.369   2.475  13.870  0.4506  0.5251 -0.0150
  671TMC3     C 9930   3.602   2.710  13.615 -0.4690  0.1914 -0.6447
  671TMC3     O 9931   3.695   2.781  13.658 -0.3750  0.1360  0.1380
  671TMC3     H 9932   3.687   2.580  13.815  0.7437 -1.7797  1.4786
  671TMC3    H1 9933   3.337   2.683  13.608  0.2101 -2.1672 -1.6836
  671TMC3    H2 9934   3.313   2.416  13.942 -1.7905  2.8160  0.1503
  671TMC3    C7 9935   3.203   2.489  13.699 -0.8603 -1.2536 -0.1826
  671TMC3    C8 9936   3.576   2.376  13.956 -0.5865  0.6639 -0.3600
  671TMC3    O1 9937   3.198   2.503  13.576 -0.2099  0.4449  0.4492
  671TMC3    O2 9938   3.680   2.330  13.906 -0.2739  0.1236  0.3272
  672MPD2     C 9939   3.461   2.977   0.905 -0.2378  0.2032  0.5325
  672MPD2    C1 9940   3.552   3.000   0.805  0.5175  0.0689  0.2246
  672MPD2    C2 9941   3.665   3.080   0.828 -0.7074 -0.4912 -0.3055
  672MPD2    C3 9942   3.693   3.132   0.956 -0.2685 -0.0068  0.4782
  672MPD2    C4 9943   3.592   3.112   1.052 -0.0374  0.2705  0.0866
  672MPD2    C5 9944   3.479   3.031   1.027 -0.2913 -1.0319  0.3757
  672MPD2     H 9945   3.742   3.089   0.752 -0.6314 -1.8871 -0.3981
  672MPD2    H1 9946   3.608   3.147   1.154 -0.7808  1.0506 -0.0675
  672MPD2    H2 9947   3.375   2.912   0.890  0.5222 -0.5896 -0.3923
  672MPD2    H3 9948   3.406   3.028   1.108 -1.5812  1.9897 -0.6354
  672MPD2     N 9949   3.815   3.203   0.973 -0.6299  0.5870  0.1923
  672MPD2    H5 9950   3.815   3.264   1.054  2.7517  0.6724  0.1341
  672MPD2    N1 9951   3.545   2.919   0.685  0.1445  0.0876 -0.1507
  672MPD2    H7 9952   3.484   2.839   0.676 -0.6761  0.8836 -1.6009
  673TMC3    C1 9953   3.639   2.816   0.489  0.5365  0.1244  0.3543
  673TMC3    C2 9954   3.595   2.696   0.539  0.4957  0.0719  0.0390
  673TMC3    C3 9955   3.690   2.602   0.561 -0.0375  0.6907 -0.5700
  673TMC3    C4 9956   3.760   2.821   0.427 -0.2706  0.0156  0.5728
  673TMC3    C5 9957   3.852   2.727   0.436  0.4165 -1.0083 -0.3820
  673TMC3    C6 9958   3.820   2.615   0.512 -0.6036 -0.2864 -0.3657
  673TMC3     C 9959   3.630   2.935   0.574  0.4910  0.5237  0.0860
  673TMC3     O 9960   3.689   3.038   0.537  0.3771 -0.2416 -0.2506
  673TMC3     H 9961   3.498   2.685   0.586  0.5607 -0.5789  0.0153
  673TMC3    H1 9962   3.783   2.912   0.372 -0.4626 -0.8327 -0.9139
  673TMC3    H2 9963   3.887   2.530   0.518  0.9945  1.0574  0.7078
  673TMC3    C7 9964   3.982   2.775   0.456 -0.3123 -0.8924  0.3387
  673TMC3    C8 9965   3.665   2.507   0.664 -0.2432  0.0068  0.1964
  673TMC3    O1 9966   4.071   2.696   0.446 -0.2989 -0.3274 -0.4077
  673TMC3    O2 9967   3.549   2.494   0.696  0.4234 -0.2447  0.7380
  674MPD2     C 9968   4.149   3.249   0.134 -0.4141  0.0239 -0.5216
  674MPD2    C1 9969   4.062   3.149   0.157 -0.8885 -0.7657  0.6065
  674MPD2    C2 9970   3.949   3.181   0.233 -0.5039  0.2218  1.1555
  674MPD2    C3 9971   3.925   3.310   0.265 -0.0859  0.3680 -0.1541
  674MPD2    C4 9972   4.003   3.412   0.217  0.0366 -0.6764 -0.1921
  674MPD2    C5 9973   4.119   3.376   0.161 -0.4675 -0.2812 -0.5470
  674MPD2     H 9974   3.883   3.100   0.262 -0.9974  0.3786  0.4826
  674MPD2    H1 9975   3.985   3.516   0.243  0.9147 -0.9301  1.3959
  674MPD2    H2 9976   4.237   3.241   0.070 -0.2439 -0.4805 -0.2232
  674MPD2    H3 9977   4.189   3.452   0.128 -0.4395  0.2360  0.7012
  674MPD2     N 9978   3.810   3.335   0.341  0.1943 -0.1812 -1.1595
  674MPD2    H5 9979   3.760   3.254   0.374 -1.1167  0.8301 -0.6694
  674MPD2    N1 9980   4.097   3.011   0.141 -0.0605 -0.1128 -0.0472
  674MPD2    H7 9981   4.025   2.939   0.147  0.2874 -0.4403  0.2477
  675TMC3    C1 9982   4.244   2.830   0.111  0.3568 -0.1126  0.3722
  675TMC3    C2 9983   4.136   2.749   0.067  0.7372  0.1426  0.2667
  675TMC3    C3 9984   4.138   2.618   0.094  0.8128 -0.1514 -0.6151
  675TMC3    C4 9985   4.342   2.784   0.192  0.5059  0.1743  0.3897
  675TMC3    C5 9986   4.329   2.652   0.231 -0.1579 -0.1408  0.0935
  675TMC3    C6 9987   4.234   2.565   0.187  0.1733 -0.1353 -0.8974
  675TMC3     C 9988   4.228   2.972   0.112 -0.6677  0.7132  0.3626
  675TMC3     O 9989   4.329   3.045   0.115  0.2871 -0.0777  0.2117
  675TMC3     H 9990   4.056   2.798   0.013  0.2495 -1.2533 -0.2832
  675TMC3    H1 9991   4.404   2.857   0.243 -0.9237  2.5436 -1.2697
  675TMC3    H2 9992   4.252   2.459   0.204 -0.4596 -0.3964 -1.8327
  675TMC3    C7 9993   4.403   2.612   0.350 -0.6332 -0.3311 -0.5364
  675TMC3    C8 9994   4.012   2.554   0.089  0.8582  0.3670 -0.2332
  675TMC3    O1 9995   4.377   2.500   0.397  0.1326 -0.0521  0.3452
  675TMC3    O2 9996   3.916   2.605   0.030 -0.0921 -0.2891  0.1828
  676MPD2     C 9997   1.255   1.222  11.324  0.0667 -0.9869  0.4149
  676MPD2    C1 9998   1.143   1.163  11.366 -0.3682 -0.5642 -0.0089
  676MPD2    C2 9999   1.103   1.043  11.309 -0.5466 -1.1897 -1.0794
  676MPD2    C310000   1.190   0.980  11.216  0.2564  0.0951 -0.5656
  676MPD2    C410001   1.293   1.055  11.157 -0.6075  0.2992  0.2538
  676MPD2    C510002   1.323   1.175  11.216  0.3586  0.7569  0.1240
  676MPD2     H10003   1.018   1.004  11.363  0.5267  0.5844  1.8796
  676MPD2    H110004   1.348   1.021  11.070 -1.2753  0.8284 -0.3741
  676MPD2    H210005   1.288   1.317  11.365  0.5195  0.2177 -2.7751
  676MPD2    H310006   1.398   1.236  11.169 -0.1427  0.1584 -1.4384
  676MPD2     N10007   1.165   0.854  11.160 -0.5307  0.0776 -0.0630
  676MPD2    H510008   1.237   0.819  11.097 -0.3597  2.6468 -1.2801
  676MPD2    N110009   1.063   1.213  11.476  0.5201  0.1258  0.2203
  676MPD2    H710010   0.989   1.151  11.507 -1.1037  1.9105 -0.0596
  677TMC3    C110011   1.009   1.343  11.670 -0.1424 -0.0174  0.2060
  677TMC3    C210012   0.934   1.241  11.698 -0.0359  1.3788  0.1893
  677TMC3    C310013   0.935   1.200  11.836  0.3091  0.2454  0.2833
  677TMC3    C410014   1.059   1.424  11.767  0.9510 -0.3622  0.2571
  677TMC3    C510015   1.064   1.384  11.899  0.8515 -0.5136 -0.4190
  677TMC3    C610016   0.997   1.268  11.936 -0.3791 -0.7494 -0.5555
  677TMC3     C10017   1.101   1.317  11.561 -0.1260  0.4649  0.1684
  677TMC3     O10018   1.197   1.394  11.553  0.0591  0.1801  0.3462
  677TMC3     H10019   0.870   1.185  11.631 -1.2245  0.5182  2.0182
  677TMC3    H110020   1.090   1.525  11.743  0.6939 -0.5340 -0.7771
  677TMC3    H210021   0.997   1.233  12.039 -0.3012  1.0179  0.0422
  677TMC3    C710022   1.193   1.401  11.971  0.5020  0.2724  0.8096
  677TMC3    C810023   0.875   1.063  11.859 -0.3861 -0.2697 -0.3616
  677TMC3    O110024   1.185   1.391  12.094  0.3453 -0.3615  0.0560
  677TMC3    O210025   0.771   1.060  11.802 -0.5614  0.5660 -0.9993
  678MPD2     C10026   3.434   1.563   1.873  0.4317  0.5037  0.5153
  678MPD2    C110027   3.454   1.538   1.740 -0.3216  0.6572  0.1577
  678MPD2    C210028   3.337   1.517   1.667 -0.4687  0.3810  0.3783
  678MPD2    C310029   3.213   1.529   1.721  0.0493 -0.0166  0.1455
  678MPD2    C410030   3.198   1.557   1.856 -0.0078  0.3780 -0.0419
  678MPD2    C510031   3.309   1.568   1.930  0.1101  0.3517  0.2558
  678MPD2     H10032   3.350   1.483   1.565 -0.5059 -0.6427  0.7186
  678MPD2    H110033   3.107   1.563   1.914  1.0435 -0.9913  1.7680
  678MPD2    H210034   3.520   1.559   1.940 -1.0870 -1.5972  2.3388
  678MPD2    H310035   3.292   1.580   2.036 -2.2567 -1.5762  0.0761
  678MPD2     N10036   3.102   1.497   1.638  0.7543  0.0124  0.4107
  678MPD2    H510037   3.124   1.474   1.542 -0.5583  0.1606  0.0689
  678MPD2    N110038   3.580   1.525   1.674  0.0707 -0.0383  0.2198
  678MPD2    H710039   3.577   1.505   1.575  0.9648  0.4511  0.0890
  679TMC3    C110040   3.974   1.392   1.571  0.6240 -1.1670  0.3236
  679TMC3    C210041   3.899   1.451   1.668  0.2287 -0.1244  0.6171
  679TMC3    C310042   3.800   1.538   1.640  0.2274  0.2835 -0.1652
  679TMC3    C410043   3.951   1.431   1.436  0.3885  0.3659 -0.1576
  679TMC3    C510044   3.846   1.505   1.405 -0.6121  0.2610  0.8774
  679TMC3    C610045   3.774   1.570   1.503  0.0446  0.2890 -0.1848
  679TMC3     C10046   4.081   1.289   1.592  0.0319 -0.1926 -0.0365
  679TMC3     O10047   4.137   1.251   1.489 -0.1779  0.0486 -0.1715
  679TMC3     H10048   3.912   1.417   1.771 -1.9971 -2.9011 -0.0149
  679TMC3    H110049   4.009   1.379   1.361 -1.3694  0.5157 -1.5988
  679TMC3    H210050   3.703   1.649   1.482  0.1974  0.9255  1.6235
  679TMC3    C710051   3.814   1.546   1.267 -0.5863 -0.5667 -0.9021
  679TMC3    C810052   3.697   1.551   1.730 -0.0121  0.2327 -0.4251
  679TMC3    O110053   3.705   1.599   1.258 -0.2966 -0.1303 -0.6790
  679TMC3    O210054   3.723   1.563   1.849 -0.2790 -0.6543  0.6249
  680MPD2     C10055   2.865   4.542  13.624 -0.6807 -0.5262 -0.3162
  680MPD2    C110056   2.920   4.505  13.747 -0.8509  0.1549  0.1569
  680MPD2    C210057   2.997   4.599  13.816 -0.0224  0.0378  0.6122
  680MPD2    C310058   3.014   4.725  13.763 -0.4589 -0.1501  0.1208
  680MPD2    C410059   2.961   0.032  13.646  0.1860 -0.2396 -0.0184
  680MPD2    C510060   2.886   4.667  13.577 -0.3933 -0.2805  0.1886
  680MPD2     H10061   3.028   4.581  13.918  0.5472 -0.1321  0.4043
  680MPD2    H110062   2.987   0.123  13.593  0.1723 -0.0852  0.2442
  680MPD2    H210063   2.803   4.475  13.566 -0.2650 -0.5239 -0.7599
  680MPD2    H310064   2.843   4.695  13.482 -0.2461  0.9145  0.4629
  680MPD2     N10065   3.101   0.098  13.822  0.1314  0.1375 -0.0020
  680MPD2    H510066   3.144   0.168  13.761  2.6933 -2.3718 -1.0516
  680MPD2    N110067   2.907   4.367  13.789 -0.3240 -0.0451  0.1932
  680MPD2    H710068   2.858   4.307  13.724  1.3539  0.8458 -1.9021
  681TMC3    C110069   2.958   4.185  13.944  0.6409 -0.2274  0.1061
  681TMC3    C210070   2.962   4.151  14.076  0.5806 -0.0123  0.3665
  681TMC3    C310071   3.039   4.032  14.100 -0.1162 -0.4041  0.4738
  681TMC3    C410072   3.018   4.118  13.841  0.4222  0.5139  0.2263
  681TMC3    C510073   3.076   4.000  13.872 -0.6533 -0.3149 -0.0154
  681TMC3    C610074   3.091   3.957  13.997 -0.1745 -0.0232 -0.7382
  681TMC3     C10075   2.935   4.330  13.918  0.1156  0.7221  0.6398
  681TMC3     O10076   2.922   4.397  14.021  0.2469  0.0584 -0.3728
  681TMC3     H10077   2.949   4.216  14.161  0.6158 -0.6193  0.8298
  681TMC3    H110078   3.010   4.162  13.742  2.6408 -2.5363 -1.3065
  681TMC3    H210079   3.160   3.876  14.016  0.4496  1.1371  2.0168
  681TMC3    C710080   3.095   3.913  13.757  0.0923  0.2848 -0.9104
  681TMC3    C810081   3.092   4.005  14.237 -0.5197  0.4493  0.1483
  681TMC3    O110082   3.098   3.793  13.780  0.6846  0.3064 -0.6078
  681TMC3    O210083   3.213   3.985  14.232 -0.2922 -0.1786  0.3417
  682MPD2     C10084   0.157   0.931  10.026 -0.7752  0.5677 -0.1860
  682MPD2    C110085   0.156   0.795  10.044  0.0271  0.2422  0.4921
  682MPD2    C210086   0.101   0.737  10.159  0.8390 -0.0881 -0.0884
  682MPD2    C310087   0.034   0.810  10.256  0.4122 -0.4223 -1.1465
  682MPD2    C410088   0.023   0.942  10.228  0.9709 -1.0345 -0.7352
  682MPD2    C510089   0.091   1.001  10.122 -0.4224 -0.3123 -0.5099
  682MPD2     H10090   0.117   0.631  10.169 -1.3986 -0.3680  0.5009
  682MPD2    H110091   4.678   1.003  10.283  1.9720  1.5768 -2.3503
  682MPD2    H210092   0.204   0.986   9.945  2.7428 -3.1370 -0.6550
  682MPD2    H310093   0.092   1.108  10.107  0.1139 -0.4651 -1.5939
  682MPD2     N10094   4.710   0.764  10.380 -0.4774 -0.2699 -0.3341
  682MPD2    H510095   4.677   0.831  10.448  0.2964 -2.8522  2.5504
  682MPD2    N110096   0.216   0.706   9.951 -0.0362  0.0240  0.3889
  682MPD2    H710097   0.219   0.609   9.980  0.7488 -0.6526 -1.9351
  683TMC3    C110098   4.683   0.640  10.781  0.0474 -0.4581 -0.2578
  683TMC3    C210099   4.627   0.510  10.802  0.5163  0.0201 -0.0896
  683TMC3    C310100   4.586   0.431  10.702 -0.2513 -0.8236 -0.4232
  683TMC3    C410101   4.687   0.686  10.652 -0.2786  0.8672 -0.5689
  683TMC3    C510102   4.650   0.602  10.550 -0.0959 -0.3968  0.2633
  683TMC3    C610103   4.605   0.476  10.567  0.1090  0.4607  0.1170
  683TMC3     C10104   4.687   0.744  10.881 -1.2095  0.3931 -0.7317
  683TMC3     O10105   0.037   0.837  10.855 -0.2893  0.8832 -0.0168
  683TMC3     H10106   4.612   0.475  10.903  1.0165  0.3145  0.0887
  683TMC3    H110107   4.711   0.789  10.629 -2.3055  1.0796 -1.6977
  683TMC3    H210108   4.576   0.418  10.480 -0.4690  1.6525 -0.4777
  683TMC3    C710109   4.704   0.633  10.418 -0.4880 -0.1998 -0.0712
  683TMC3    C810110   4.522   0.306  10.726  0.0435 -0.4025  0.1371
  683TMC3    O110111   4.713   0.543  10.337  0.0972  0.5815  0.1384
  683TMC3    O210112   4.464   0.254  10.629 -0.4827  0.3960 -0.2158
  684MPD2     C10113   3.295   0.649  15.948  0.4710 -1.4409 -0.3097
  684MPD2    C110114   3.428   0.658  15.970  0.2361 -0.5138  0.3351
  684MPD2    C210115   3.484   0.776  16.021  0.2606  0.3576 -0.0423
  684MPD2    C310116   3.397   0.882  16.052 -0.1415 -0.1637  0.4042
  684MPD2    C410117   3.264   0.865  16.028  0.3837 -0.5862 -0.5551
  684MPD2    C510118   3.210   0.748  15.973  0.1594  0.5398  0.9180
  684MPD2     H10119   3.590   0.797  16.024 -0.0664  2.2267 -1.7429
  684MPD2    H110120   3.202   0.952  16.045  1.5146 -0.0926  0.9775
  684MPD2    H210121   3.241   0.561  15.915  0.6122 -1.4221 -0.5882
  684MPD2    H310122   3.104   0.732  15.957  0.1497  1.2983  0.2023
  684MPD2     N10123   3.437   1.007  16.114  0.2514 -0.6179 -0.5297
  684MPD2    H510124   3.371   1.083  16.111 -1.2718 -2.0194 -1.9136
  684MPD2    N110125   3.506   0.549  15.921  0.2353 -0.1852 -0.4648
  684MPD2    H710126   3.449   0.476  15.878 -0.8371  0.1046  0.4559
  685TMC3    C110127   3.687   0.411  15.880 -0.0195 -0.5377 -0.0523
  685TMC3    C210128   3.632   0.366  15.766 -0.3591 -0.2117 -0.2599
  685TMC3    C310129   3.678   0.253  15.699  0.0509  0.6624 -0.4006
  685TMC3    C410130   3.793   0.337  15.938 -0.3629  0.5173 -0.7216
  685TMC3    C510131   3.835   0.227  15.869 -1.0980 -0.4722  0.0791
  685TMC3    C610132   3.783   0.185  15.750  0.0463  0.0414 -0.1157
  685TMC3     C10133   3.641   0.533  15.941 -0.3114 -0.0336  0.1170
  685TMC3     O10134   3.715   0.594  16.021  0.0482 -0.0779  0.0421
  685TMC3     H10135   3.575   0.440  15.712 -0.8588  1.2901  2.2850
  685TMC3    H110136   3.826   0.361  16.039 -1.0482 -1.4816 -0.0252
  685TMC3    H210137   3.820   0.093  15.707 -0.3292 -0.3768  0.4561
  685TMC3    C710138   3.922   0.121  15.929  0.5289  0.0208  1.1440
  685TMC3    C810139   3.586   0.195  15.605  0.2629 -0.5777 -0.0656
  685TMC3    O110140   3.923   0.009  15.870 -1.1275 -0.7414 -0.1874
  685TMC3    O210141   3.621   0.093  15.552  0.0861  0.0873 -0.1865
  686MPD2     C10142   4.496   0.427  15.245 -0.3343  0.2103 -0.4722
  686MPD2    C110143   4.584   0.361  15.327  0.0298 -0.0961 -0.5976
  686MPD2    C210144   4.641   0.250  15.278 -0.5668 -0.3161 -0.6061
  686MPD2    C310145   4.610   0.199  15.157  0.1378 -0.2778 -0.4983
  686MPD2    C410146   4.522   0.264  15.071  0.6932 -0.0991 -1.0468
  686MPD2    C510147   4.470   0.385  15.121 -0.6804 -0.0036 -0.5842
  686MPD2     H10148   4.721   0.217  15.344  1.2100 -2.3023 -3.7559
  686MPD2    H110149   4.496   0.223  14.974 -0.7237 -2.0540  0.1700
  686MPD2    H210150   4.435   0.508  15.283  1.4499  0.5456  1.7207
  686MPD2    H310151   4.413   0.454  15.059 -1.2391  1.8169  1.9379
  686MPD2     N10152   4.659   0.076  15.108  0.3112  0.4964 -0.0764
  686MPD2    H510153   4.656   0.060  15.008  1.3684  0.7724 -0.1454
  686MPD2    N110154   4.609   0.423  15.458  0.0243  0.1510  0.4220
  686MPD2    H710155   4.540   0.492  15.484 -0.0750  0.0532  0.4152
  687TMC3    C110156   0.012   4.687  15.311 -0.4404  0.6152 -0.3841
  687TMC3    C210157   4.628   4.706  15.393 -0.0320  0.5424  0.8251
  687TMC3    C310158   4.643   4.697  15.530 -0.2775 -0.3406 -0.0932
  687TMC3    C410159   0.141   4.665  15.361  0.1211  0.4962  0.3408
  687TMC3    C510160   0.151   4.653  15.497  1.2554 -0.0862  0.2267
  687TMC3    C610161   0.047   4.670  15.583 -0.4652  0.2455  0.2716
  687TMC3     C10162   0.012   4.704  15.164  0.3389 -0.4072  0.0667
  687TMC3     O10163   0.064   4.613  15.100 -0.4092 -0.2496 -0.1679
  687TMC3     H10164   4.528   4.708  15.350  0.4025  0.7128 -0.1607
  687TMC3    H110165   0.228   4.665  15.296  0.3038  0.8217  0.5864
  687TMC3    H210166   0.066   4.682  15.689 -0.6457  1.0761  0.2067
  687TMC3    C710167   0.278   4.611  15.558 -0.0814 -0.1538  0.0387
  687TMC3    C810168   4.552   0.039  15.623 -0.1629  0.0397 -0.0739
  687TMC3    O110169   0.293   4.632  15.677 -0.2972 -0.0770  0.3502
  687TMC3    O210170   4.579   0.048  15.741  0.2126  0.2896 -0.2452
  688MPD2     C10171   4.616   4.200  17.369  0.3011 -0.0662  0.0162
  688MPD2    C110172   4.607   4.066  17.387  0.0078  0.1943 -0.6185
  688MPD2    C210173   4.628   3.980  17.287 -0.1022 -0.7442 -0.6373
  688MPD2    C310174   4.659   4.024  17.161 -0.0339 -0.4991 -0.0127
  688MPD2    C410175   4.655   4.159  17.138  0.2200 -0.0682 -0.9512
  688MPD2    C510176   4.641   4.244  17.241  0.4036 -0.2122  0.0870
  688MPD2     H10177   4.617   3.874  17.307  0.8247 -1.0318 -1.5993
  688MPD2    H110178   4.675   4.205  17.042 -0.0297  2.8600  0.3894
  688MPD2    H210179   4.613   4.276  17.446  0.0488  2.7970 -2.8144
  688MPD2    H310180   4.639   4.351  17.224 -0.0142  0.0851  2.0608
  688MPD2     N10181   4.708   3.945  17.049  0.4605 -0.0397  0.1098
  688MPD2    H510182   4.709   3.995  16.961 -0.5356 -1.3498 -0.6372
  688MPD2    N110183   4.598   4.007  17.515  0.3184 -0.6535  0.2585
  688MPD2    H710184   4.616   3.907  17.513  0.5965 -0.6095  0.5977
  689TMC3    C110185   4.571   3.990   0.051  0.0338 -0.0313  0.0164
  689TMC3    C210186   4.614   4.033   0.171  0.0284  0.3408  0.6253
  689TMC3    C310187   4.591   3.954   0.277  0.5034  0.2767 -0.8685
  689TMC3    C410188   4.518   3.867   0.033 -0.9664  0.6844  0.1386
  689TMC3    C510189   4.496   3.788   0.142  0.7310 -0.4230 -0.3419
  689TMC3    C610190   4.526   3.834   0.268 -0.0744  0.7041 -0.1944
  689TMC3     C10191   4.575   4.070  17.632 -0.6171 -0.0006 -0.5535
  689TMC3     O10192   4.566   4.189  17.659  0.4979  0.5493 -0.0126
  689TMC3     H10193   4.650   4.135   0.176 -0.7293  0.6683 -0.5750
  689TMC3    H110194   4.472   3.836  17.644  0.3621 -0.6983 -0.0614
  689TMC3    H210195   4.496   3.791   0.362  0.3880  0.9857  0.0824
  689TMC3    C710196   4.471   3.648   0.139 -0.1059  0.0528 -0.0753
  689TMC3    C810197   4.590   4.024   0.403  0.7895 -0.5441  0.6987
  689TMC3    O110198   4.475   3.574   0.238 -0.1415  0.0906  0.8537
  689TMC3    O210199   4.526   3.971   0.491  0.4452 -0.1546 -0.3525
  690MPD2     C10200   1.254   1.147  15.891 -0.6078 -0.1093  0.1493
  690MPD2    C110201   1.236   1.041  15.803 -0.8266  0.4560 -0.4372
  690MPD2    C210202   1.312   1.047  15.688 -0.4039 -0.6677  0.8076
  690MPD2    C310203   1.399   1.149  15.656 -0.1096 -0.0532 -0.1597
  690MPD2    C410204   1.409   1.253  15.745 -0.3492 -0.0396 -0.2883
  690MPD2    C510205   1.335   1.254  15.860 -0.2939 -0.1306 -0.4701
  690MPD2     H10206   1.316   0.968  15.613 -1.7984 -1.1096  1.1880
  690MPD2    H110207   1.478   1.337  15.743 -0.5351  0.1613  1.1957
  690MPD2    H210208   1.212   1.138  15.991  0.0469  1.2859  0.5544
  690MPD2    H310209   1.353   1.333  15.932 -1.3562  0.4745 -0.8730
  690MPD2     N10210   1.469   1.142  15.536 -0.1243  0.5425  0.4694
  690MPD2    H510211   1.458   1.057  15.483 -1.1092 -1.0744  3.2506
  690MPD2    N110212   1.149   0.929  15.828 -0.2050  0.7891 -0.2591
  690MPD2    H710213   1.160   0.859  15.756  1.0561  0.9260 -0.2100
  691TMC3    C110214   0.990   0.794  15.943  0.0417  0.1883 -0.5755
  691TMC3    C210215   0.890   0.798  16.028 -0.1994 -0.6561 -0.1985
  691TMC3    C310216   0.808   0.692  16.046 -0.6332 -0.4837  0.1317
  691TMC3    C410217   1.014   0.683  15.865  0.1940  0.7577 -0.7548
  691TMC3    C510218   0.930   0.573  15.887  0.2541  0.3894  0.2875
  691TMC3    C610219   0.819   0.578  15.980 -0.6401  0.1525 -0.0743
  691TMC3     C10220   1.056   0.923  15.925  0.2418 -0.1750  0.1054
  691TMC3     O10221   1.016   1.016  15.994  0.3145  0.3597  0.2868
  691TMC3     H10222   0.875   0.884  16.093  3.5924  0.1542 -0.4344
  691TMC3    H110223   1.102   0.687  15.801 -0.7384  0.0490 -2.0881
  691TMC3    H210224   0.765   0.486  16.001  1.7806 -0.8164  1.8380
  691TMC3    C710225   0.966   0.456  15.818 -1.2012  0.9575  0.2944
  691TMC3    C810226   0.671   0.714  16.091  0.2149 -0.1919 -0.4659
  691TMC3    O110227   0.880   0.365  15.807 -0.8573 -0.2358  0.8446
  691TMC3    O210228   0.613   0.614  16.132 -0.1396  0.3121  0.3213
  692TMC3    C110229   3.315   2.229  15.709 -0.5485 -0.1597  0.2621
  692TMC3    C210230   3.446   2.233  15.770  0.1283 -0.6575 -0.1137
  692TMC3    C310231   3.545   2.145  15.728  0.3576  0.2208  0.1053
  692TMC3    C410232   3.297   2.140  15.610 -0.3465  0.2863 -0.4510
  692TMC3    C510233   3.394   2.051  15.576 -1.2041  0.1149  0.6584
  692TMC3    C610234   3.517   2.048  15.638 -0.3466 -0.6451  0.0028
  692TMC3     C10235   3.219   2.330  15.748 -0.6392 -0.3117 -0.5247
  692TMC3     O10236   3.103   2.321  15.711 -0.6099 -0.6323 -0.2758
  692TMC3     H10237   3.450   2.294  15.859 -0.8823 -0.3576 -0.2745
  692TMC3    H110238   3.195   2.119  15.579 -0.3419  0.2177 -0.4190
  692TMC3    H210239   3.604   2.028  15.576  1.1051  2.6816  0.9414
  692TMC3    C710240   3.350   1.916  15.553 -0.2580  0.2628  0.4363
  692TMC3    C810241   3.638   2.107  15.834  0.6263 -0.1300 -1.0401
  692TMC3    O110242   3.246   1.895  15.490 -0.3487 -0.0461  0.1547
  692TMC3    O210243   3.663   1.985  15.845 -0.2926 -0.4429  0.1571
  693MPD2     C10244   2.264   0.309  10.504  0.2128 -0.3270 -0.6151
  693MPD2    C110245   2.299   0.280  10.634  0.3673 -0.4556 -0.3032
  693MPD2    C210246   2.403   0.191  10.648 -0.1890  0.4469 -0.3165
  693MPD2    C310247   2.471   0.137  10.546 -0.2925  0.1776  0.1212
  693MPD2    C410248   2.443   0.175  10.416 -0.5362 -0.5859  0.0941
  693MPD2    C510249   2.345   0.276  10.395 -0.7572 -0.1133  0.0854
  693MPD2     H10250   2.406   0.137  10.741  1.1063  0.2761 -0.4554
  693MPD2    H110251   2.486   0.130  10.327 -0.2836 -0.5697  0.2095
  693MPD2    H210252   2.179   0.373  10.480  0.9601  0.7354 -0.3948
  693MPD2    H310253   2.314   0.302  10.294  0.1877 -2.3483 -0.7645
  693MPD2     N10254   2.571   0.046  10.571 -0.4858 -0.0198  0.3443
  693MPD2    H510255   2.604   4.718  10.491 -1.7133 -0.7809  0.3446
  693MPD2    N110256   2.209   0.308  10.738 -0.5097 -0.5057 -0.2979
  693MPD2    H710257   2.117   0.333  10.701  0.9253  0.8378 -2.9861
  694TMC3    C110258   2.132   0.247  10.950  0.0938  1.0464  0.0462
  694TMC3    C210259   2.031   0.183  10.877 -0.1442  0.4344  0.1188
  694TMC3    C310260   1.990   0.065  10.929  0.1579  0.1705  0.3381
  694TMC3    C410261   2.173   0.189  11.069 -0.7279  0.3118  0.1242
  694TMC3    C510262   2.130   0.071  11.115  0.7036  0.0630 -0.4403
  694TMC3    C610263   2.042   4.723  11.039 -0.1671  0.1964  0.3569
  694TMC3     C10264   2.238   0.293  10.870 -0.8011 -0.0231 -0.4479
  694TMC3     O10265   2.349   0.278  10.921 -0.1921 -0.3644 -0.8724
  694TMC3     H10266   1.989   0.217  10.783 -1.2343 -2.9883 -0.6146
  694TMC3    H110267   2.240   0.243  11.135  0.2198 -0.0709 -0.5222
  694TMC3    H210268   1.993   4.630  11.066 -0.7882  0.8753  1.5720
  694TMC3    C710269   2.160   0.033  11.256  0.0157  0.1236  0.6215
  694TMC3    C810270   1.914   4.711  10.840 -0.2279  0.5518 -0.7640
  694TMC3    O110271   2.194   0.120  11.333 -0.4206  0.1032 -0.5618
  694TMC3    O210272   1.927   4.591  10.862 -0.2797  0.0036  0.1142
  695MPD2     C10273   3.643   1.566  13.378 -1.0620  0.0847  0.4722
  695MPD2    C110274   3.591   1.654  13.473 -0.0618 -0.1254  0.4038
  695MPD2    C210275   3.499   1.747  13.435  0.3337 -0.4675 -0.5747
  695MPD2    C310276   3.469   1.770  13.301 -0.6123  0.5212  0.2258
  695MPD2    C410277   3.529   1.688  13.199  0.1069 -0.2340  0.4459
  695MPD2    C510278   3.614   1.586  13.245 -0.4708 -0.6388  0.6890
  695MPD2     H10279   3.448   1.810  13.507  1.3680 -0.7310  0.3747
  695MPD2    H110280   3.513   1.690  13.092 -1.0621 -0.2369  0.6222
  695MPD2    H210281   3.708   1.482  13.400  1.0920  1.5383 -0.2450
  695MPD2    H310282   3.649   1.510  13.177 -0.1731  0.5711 -0.5218
  695MPD2     N10283   3.369   1.868  13.268  0.4611  0.0756 -0.2226
  695MPD2    H510284   3.314   1.908  13.343 -0.7618 -0.2645 -0.9349
  695MPD2    N110285   3.643   1.654  13.606 -0.2497  0.0859 -0.1011
  695MPD2    H710286   3.619   1.726  13.673 -0.5168 -2.2604  2.3227
  696TMC3    C110287   3.233   2.016  13.124 -0.4455 -0.0740  0.1710
  696TMC3    C210288   3.127   2.014  13.206 -0.4039 -0.1514  0.3895
  696TMC3    C310289   3.039   2.121  13.204  0.1108 -1.2252  0.2380
  696TMC3    C410290   3.249   2.112  13.024  0.0177 -0.3173 -0.0864
  696TMC3    C510291   3.146   2.206  13.022  0.2464  0.2034 -0.2958
  696TMC3    C610292   3.037   2.212  13.104 -0.2090  0.2923  0.4052
  696TMC3     C10293   3.351   1.922  13.142 -0.9140  0.0973 -0.5558
  696TMC3     O10294   3.424   1.904  13.042 -0.4455  0.3516  0.3718
  696TMC3     H10295   3.114   1.934  13.277  0.1941  0.4796  1.2104
  696TMC3    H110296   3.339   2.124  12.965 -0.6670  1.5933 -0.7666
  696TMC3    H210297   2.949   2.275  13.103 -1.8344 -1.9394  1.8697
  696TMC3    C710298   3.195   2.335  12.991 -0.3750  0.0507  0.3601
  696TMC3    C810299   3.007   2.185  13.327 -0.7935  0.7264  0.0436
  696TMC3    O110300   3.289   2.346  12.911 -0.1985  0.0818 -0.2029
  696TMC3    O210301   3.006   2.308  13.319  0.8136  0.2701  0.0988
  697MPD2     C10302   2.889   3.599  15.565  0.1468 -0.3257  0.2172
  697MPD2    C110303   2.886   3.515  15.458 -0.4341  0.4039  0.6257
  697MPD2    C210304   2.856   3.567  15.340  0.3413  0.4783 -0.7458
  697MPD2    C310305   2.861   3.702  15.320  0.4706  0.0061 -0.3041
  697MPD2    C410306   2.893   3.785  15.427  0.4489 -0.6352 -0.0136
  697MPD2    C510307   2.888   3.736  15.553 -0.5941 -1.0856 -0.4297
  697MPD2     H10308   2.846   3.499  15.256 -0.5643 -0.1170 -0.1512
  697MPD2    H110309   2.896   3.892  15.412  0.3833 -0.2794  2.5432
  697MPD2    H210310   2.871   3.559  15.665 -1.0752  1.6008  0.7857
  697MPD2    H310311   2.901   3.799  15.641 -1.3528 -1.1647 -0.2631
  697MPD2     N10312   2.840   3.739  15.184  0.0471 -0.7464 -0.0512
  697MPD2    H510313   2.790   3.669  15.130  0.2864  0.3566 -1.7126
  697MPD2    N110314   2.887   3.379  15.467  0.2743 -0.6839  0.5709
  697MPD2    H710315   2.868   3.326  15.383  0.9589 -1.8242  1.1362
  698TMC3    C110316   2.791   3.888  15.003  0.1464 -0.8026 -0.3635
  698TMC3    C210317   2.718   4.000  14.984 -0.9926  0.1482 -0.9982
  698TMC3    C310318   2.654   4.016  14.864  0.5848  0.6466  0.0085
  698TMC3    C410319   2.805   3.781  14.916 -0.0181  0.3293  0.5343
  698TMC3    C510320   2.738   3.802  14.800 -0.1707 -0.1417  0.4634
  698TMC3    C610321   2.662   3.910  14.772 -0.5897 -0.3099 -0.4487
  698TMC3     C10322   2.851   3.868  15.131  0.0770  0.3111 -1.0470
  698TMC3     O10323   2.883   3.973  15.188  0.1066 -0.1554 -0.0632
  698TMC3     H10324   2.693   4.069  15.063 -2.9854 -0.9804 -0.6324
  698TMC3    H110325   2.852   3.688  14.943 -1.8710  0.0268  2.7289
  698TMC3    H210326   2.628   3.928  14.671  0.4619  2.4068 -0.3174
  698TMC3    C710327   2.776   3.711  14.684 -0.2051  0.0721  1.0464
  698TMC3    C810328   2.669   4.147  14.800 -0.1918 -0.2466  0.6250
  698TMC3    O110329   2.703   3.715  14.589 -0.9587  0.1618  0.5930
  698TMC3    O210330   2.650   4.146  14.681  0.4637  0.5730  0.6075
  699TMC3    C110331   3.215   1.723  12.841  0.3560  0.3853 -0.1184
  699TMC3    C210332   3.235   1.599  12.882 -0.1033 -0.6945 -0.5431
  699TMC3    C310333   3.147   1.560  12.988  1.2073  0.2654 -0.2318
  699TMC3    C410334   3.103   1.800  12.882 -0.6028 -0.6862 -0.0155
  699TMC3    C510335   3.015   1.750  12.977  0.0827 -0.3279  0.1273
  699TMC3    C610336   3.043   1.632  13.032 -0.1165  0.8031 -0.2414
  699TMC3     C10337   3.298   1.794  12.750 -0.0579 -0.5883 -0.4162
  699TMC3     O10338   3.266   1.910  12.732 -0.3473  0.7573 -0.4441
  699TMC3     H10339   3.304   1.526  12.839  0.1664  0.1064 -1.4753
  699TMC3    H110340   3.082   1.899  12.844  1.7747 -0.4573 -0.7384
  699TMC3    H210341   2.999   1.600  13.126  4.2059 -1.5385  1.0007
  699TMC3    C710342   2.891   1.823  13.011  0.2643 -0.2043  0.4685
  699TMC3    C810343   3.158   1.426  13.051  0.1877  0.3192 -0.0610
  699TMC3    O110344   2.824   1.778  13.106  0.0071  0.4812 -0.0640
  699TMC3    O210345   3.058   1.384  13.107  0.0149  0.7911  0.8141
  700TMC3    C110346   2.354   4.630  17.384  0.7539  0.2261  0.2951
  700TMC3    C210347   2.413   4.505  17.371  0.1779  0.3930  0.4984
  700TMC3    C310348   2.550   4.515  17.379 -0.3911 -0.3338  0.1303
  700TMC3    C410349   2.415   0.025  17.423 -0.0687 -0.4651 -0.5180
  700TMC3    C510350   2.554   0.023  17.409  0.2135  0.1786  0.7714
  700TMC3    C610351   2.623   4.632  17.391  0.0012 -0.3167  0.0235
  700TMC3     C10352   2.287   4.649  17.255  0.7180  0.5916  0.4193
  700TMC3     O10353   2.241   4.554  17.195 -0.6059 -0.0399 -0.1620
  700TMC3     H10354   2.354   4.421  17.337 -0.0757  0.2314  1.3426
  700TMC3    H110355   2.360   0.117  17.437  0.8858  0.2298 -1.3196
  700TMC3    H210356   2.730   4.634  17.375 -0.2113 -0.1081 -1.3472
  700TMC3    C710357   2.624   0.149  17.392  0.5390  0.4017 -1.1178
  700TMC3    C810358   2.633   4.403  17.328 -0.0664  0.4571  0.6034
  700TMC3    O110359   2.566   0.244  17.436  0.3188 -0.4073  0.2584
  700TMC3    O210360   2.752   4.403  17.357 -0.5913 -0.3814  0.2379
  701TMC3    C110361   2.446   2.729  15.379 -0.9415 -0.1855  0.5227
  701TMC3    C210362   2.425   2.733  15.245  0.5739 -0.6146 -0.6120
  701TMC3    C310363   2.467   2.850  15.183 -0.1780 -0.3145 -0.9243
  701TMC3    C410364   2.489   2.832  15.459 -0.2534  0.1535  0.1893
  701TMC3    C510365   2.524   2.949  15.389 -0.2822 -0.4715  0.4543
  701TMC3    C610366   2.510   2.959  15.254  0.1668 -0.2501 -0.0171
  701TMC3     C10367   2.428   2.599  15.431  0.2188 -0.7430 -0.1893
  701TMC3     O10368   2.456   2.516  15.351 -0.7947 -0.5648  0.5667
  701TMC3     H10369   2.390   2.648  15.187  1.4341 -1.8791  0.7258
  701TMC3    H110370   2.500   2.815  15.565  0.3306  1.1506  0.2904
  701TMC3    H210371   2.533   3.048  15.197  1.9185 -1.0614 -0.5819
  701TMC3    C710372   2.535   3.069  15.459  0.1195 -0.2441  0.4768
  701TMC3    C810373   2.438   2.873  15.047  0.4706  0.4824 -0.2811
  701TMC3    O110374   2.565   3.164  15.393 -0.0621  0.1110  0.0402
  701TMC3    O210375   2.513   2.953  14.990 -0.1739  0.7266  0.2141
  702MPD2     C10376   1.413   0.401  10.616 -0.3830  0.2826  0.1294
  702MPD2    C110377   1.282   0.424  10.621  0.0901  0.9145 -0.3568
  702MPD2    C210378   1.202   0.426  10.514  0.2127 -0.6622  0.2631
  702MPD2    C310379   1.254   0.424  10.386  0.4499  0.5961  0.1010
  702MPD2    C410380   1.387   0.405  10.372  0.6408  0.7633  0.6497
  702MPD2    C510381   1.468   0.385  10.487 -0.3379  0.4445 -0.0959
  702MPD2     H10382   1.096   0.449  10.526  0.7742  1.7135  0.5859
  702MPD2    H110383   1.444   0.397  10.281  0.0075 -0.4366  0.3508
  702MPD2    H210384   1.480   0.392  10.701  0.0988  0.2975 -0.2498
  702MPD2    H310385   1.573   0.363  10.473 -0.0515  2.8309 -1.6131
  702MPD2     N10386   1.174   0.457  10.270  0.6423 -0.5460  0.0489
  702MPD2    H510387   1.220   0.464  10.180 -1.6489 -1.1709 -1.1617
  702MPD2    N110388   1.226   0.445  10.752 -0.2322  0.2670 -0.4730
  702MPD2    H710389   1.129   0.472  10.745 -1.0377 -2.6855 -0.9142
  703TMC3    C110390   0.991   0.543  10.159  0.1718  0.6299 -0.4936
  703TMC3    C210391   0.856   0.555  10.166 -0.0326 -0.5209 -0.0806
  703TMC3    C310392   0.799   0.676  10.138 -0.1864 -0.1683  0.3400
  703TMC3    C410393   1.069   0.653  10.124 -0.1655 -0.7682  0.5925
  703TMC3    C510394   0.999   0.778  10.111 -0.3176  0.3919  0.4828
  703TMC3    C610395   0.867   0.793  10.122  0.3291  0.1422 -0.9212
  703TMC3     C10396   1.038   0.463  10.268 -1.0382 -0.4025  0.6819
  703TMC3     O10397   0.952   0.427  10.344 -0.0407  0.1836  0.0624
  703TMC3     H10398   0.798   0.466  10.188 -0.6922 -0.8479 -3.1058
  703TMC3    H110399   1.177   0.643  10.116  0.1256  1.4197  1.7345
  703TMC3    H210400   0.813   0.886  10.104  0.2371  0.4936  1.1733
  703TMC3    C710401   1.085   0.891  10.093  0.6678 -0.6178 -0.7540
  703TMC3    C810402   0.659   0.672  10.178 -0.5560  0.6950 -0.1935
  703TMC3    O110403   1.203   0.858  10.068 -0.1564  0.1489  0.0881
  703TMC3    O210404   0.598   0.568  10.175 -0.0866  0.1628 -0.1688
  704TMC3    C110405   3.767   3.694  12.309 -0.2868  0.1255  0.2102
  704TMC3    C210406   3.900   3.738  12.296  0.2719 -0.2755 -0.2462
  704TMC3    C310407   3.989   3.683  12.382  0.4825  0.3747 -0.1941
  704TMC3    C410408   3.722   3.609  12.403 -0.4350 -0.2176  0.6943
  704TMC3    C510409   3.820   3.554  12.485  0.3203  0.1579 -0.3247
  704TMC3    C610410   3.952   3.590  12.470  0.1159 -0.2512 -0.0640
  704TMC3     C10411   3.679   3.725  12.210 -0.0560  0.5456  0.9694
  704TMC3     O10412   3.559   3.741  12.230 -0.2019  0.3904 -0.0766
  704TMC3     H10413   3.937   3.797  12.214  2.2266  2.1996  2.4168
  704TMC3    H110414   3.617   3.583  12.409 -0.0843 -1.8526 -0.3343
  704TMC3    H210415   4.026   3.534  12.526 -0.1162  1.2357  1.7391
  704TMC3    C710416   3.800   3.410  12.509  0.1685 -0.3131 -0.9836
  704TMC3    C810417   4.118   3.677  12.326  0.7989 -0.6225  0.5452
  704TMC3    O110418   3.892   3.342  12.548  0.2304  0.3560 -0.4970
  704TMC3    O210419   4.131   3.709  12.212  0.4057 -0.1776 -0.1091
  705MPD2     C10420   4.016   1.738  16.288  0.6259  1.1826 -0.2693
  705MPD2    C110421   3.906   1.723  16.204 -0.5161  0.3930  0.2295
  705MPD2    C210422   3.787   1.758  16.252  0.3924  0.7258 -0.3027
  705MPD2    C310423   3.764   1.798  16.381 -0.5999  0.6654 -0.7892
  705MPD2    C410424   3.871   1.814  16.466  0.3123 -0.2887  0.4329
  705MPD2    C510425   4.000   1.774  16.422 -0.3114 -0.1740  0.1933
  705MPD2     H10426   3.703   1.756  16.183 -0.6378 -0.2337  0.9591
  705MPD2    H110427   3.873   1.855  16.567 -1.6951  2.3762 -0.6307
  705MPD2    H210428   4.112   1.702  16.254 -0.3804 -1.1413 -0.7417
  705MPD2    H310429   4.089   1.796  16.479  1.1990 -1.3545 -1.7322
  705MPD2     N10430   3.634   1.827  16.427  0.2193 -0.3414  0.3266
  705MPD2    H510431   3.627   1.883  16.511  0.0183 -1.3344  0.9766
  705MPD2    N110432   3.919   1.682  16.073 -0.2030 -0.6517  0.7488
  705MPD2    H710433   3.835   1.692  16.017  0.6014 -0.3215 -0.4010
  706TMC3    C110434   4.113   1.640  15.652  0.1522  0.7592 -0.3509
  706TMC3    C210435   4.043   1.741  15.598 -0.1072 -0.1176  0.4129
  706TMC3    C310436   3.956   1.801  15.677  0.1132  0.3531  0.1542
  706TMC3    C410437   4.101   1.605  15.783  0.2877  0.1537  0.4083
  706TMC3    C510438   4.011   1.663  15.866  0.2721 -0.2546 -0.5538
  706TMC3    C610439   3.939   1.770  15.809 -0.0144  0.0288 -0.3549
  706TMC3     C10440   4.200   1.556  15.572 -0.2719  0.0277 -0.0159
  706TMC3     O10441   4.286   1.495  15.634  0.5115  0.0046  0.1036
  706TMC3     H10442   4.057   1.772  15.495  2.9434 -0.8951  0.6020
  706TMC3    H110443   4.169   1.528  15.820 -0.1817 -1.1336 -1.4270
  706TMC3    H210444   3.877   1.834  15.870 -0.9830 -0.8827 -0.3939
  706TMC3    C710445   4.036   1.656  16.005  0.0885  0.1481  0.8330
  706TMC3    C810446   3.914   1.934  15.625 -0.1105  0.0278 -0.1739
  706TMC3    O110447   4.154   1.655  16.039 -0.1731  0.4735  0.4000
  706TMC3    O210448   3.895   1.949  15.509  0.1805 -0.2008  0.1029
  707TMC3    C110449   0.514   0.816   1.401  0.3507  0.1268  0.0904
  707TMC3    C210450   0.539   0.698   1.334  0.0981  0.1197  0.3445
  707TMC3    C310451   0.473   0.675   1.216  0.6875 -0.5280 -0.3875
  707TMC3    C410452   0.445   0.915   1.340 -0.6347  0.2147 -0.3932
  707TMC3    C510453   0.393   0.894   1.219 -0.4044  0.4403 -0.4066
  707TMC3    C610454   0.399   0.772   1.159  0.0649  0.4473  0.4552
  707TMC3     C10455   0.619   0.844   1.496 -0.4418 -0.0012  0.2913
  707TMC3     O10456   0.716   0.765   1.495 -0.1425  0.4518 -0.4315
  707TMC3     H10457   0.581   0.615   1.388 -0.5519 -0.4091  0.0411
  707TMC3    H110458   0.442   1.015   1.381 -3.1339  0.4807 -1.2456
  707TMC3    H210459   0.341   0.748   1.070  1.0343 -1.4016  0.3358
  707TMC3    C710460   0.327   1.008   1.156 -0.4042  0.2372 -0.3269
  707TMC3    C810461   0.507   0.555   1.135 -0.2216 -0.0293  0.4058
  707TMC3    O110462   0.330   1.115   1.208  0.1525 -0.3608 -0.3776
  707TMC3    O210463   0.437   0.507   1.052 -0.1133 -0.4298  0.1416
  708MPD2     C10464   2.154   0.062  13.916  0.4518 -0.0499  0.6511
  708MPD2    C110465   2.159   0.167  13.997 -0.2801  0.6980  0.1956
  708MPD2    C210466   2.142   0.155  14.132  0.1010  0.4198  0.4046
  708MPD2    C310467   2.112   0.030  14.181  0.1453  0.0642 -0.1721
  708MPD2    C410468   2.091   4.646  14.100 -0.4566 -0.0668 -0.2406
  708MPD2    C510469   2.115   4.663  13.964  0.1609  0.0472 -0.0641
  708MPD2     H10470   2.149   0.245  14.192 -2.4707  1.5025 -0.9201
  708MPD2    H110471   2.078   4.547  14.142  0.1889 -0.4796 -1.0127
  708MPD2    H210472   2.155   0.079  13.809 -0.9367  1.1291  0.8132
  708MPD2    H310473   2.095   4.584  13.893 -0.7644 -0.5723  0.8807
  708MPD2     N10474   2.093   0.017  14.320  0.2167  0.2261  0.9838
  708MPD2    H510475   2.063   4.651  14.350  2.5288 -0.5203  1.0163
  708MPD2    N110476   2.190   0.288  13.937 -0.0536  0.0535 -0.3697
  708MPD2    H710477   2.190   0.292  13.835 -0.2117  0.0121 -0.3707
  709TMC3    C110478   2.154   0.514  13.895 -0.0250 -0.1049  0.1338
  709TMC3    C210479   2.160   0.466  13.771  0.4946  0.1400 -0.2118
  709TMC3    C310480   2.046   0.461  13.697 -0.4665 -0.5831 -0.6405
  709TMC3    C410481   2.045   0.582  13.938  0.0511  0.0903  0.3146
  709TMC3    C510482   1.926   0.560  13.875  0.6171  0.5334 -0.1057
  709TMC3    C610483   1.925   0.483  13.761  0.7589 -0.1973 -0.5456
  709TMC3     C10484   2.199   0.413  13.994 -0.4066  0.0183  0.1500
  709TMC3     O10485   2.209   0.449  14.109 -0.1832  0.4378  0.1158
  709TMC3     H10486   2.250   0.426  13.727  0.7188 -0.4256  0.7698
  709TMC3    H110487   2.038   0.609  14.042  0.6036 -1.9943  0.8835
  709TMC3    H210488   1.825   0.459  13.729 -0.4450  1.5408  1.8934
  709TMC3    C710489   1.858   0.497  13.983  0.4696  0.0817  0.2141
  709TMC3    C810490   2.041   0.360  13.593  0.6720  0.7750  0.0112
  709TMC3    O110491   1.875   0.376  13.986 -0.2192 -0.5468 -0.4580
  709TMC3    O210492   2.129   0.273  13.616 -0.0859 -0.1968 -0.2713
  710TMC3    C110493   3.260   1.858   0.762  0.2114  1.0630 -0.0550
  710TMC3    C210494   3.297   1.925   0.645  0.3492 -0.0399  0.4031
  710TMC3    C310495   3.398   1.869   0.568 -0.5946 -0.2795  0.6107
  710TMC3    C410496   3.309   1.737   0.799  0.1925 -0.1347 -0.4798
  710TMC3    C510497   3.420   1.688   0.731 -0.1007 -0.7084  0.2287
  710TMC3    C610498   3.456   1.747   0.612 -0.1639  0.4232 -0.7811
  710TMC3     C10499   3.136   1.892   0.823 -0.2643 -1.0065 -0.7451
  710TMC3     O10500   3.065   1.793   0.851  0.2854 -0.0888  0.7262
  710TMC3     H10501   3.254   2.023   0.623 -1.1669 -0.5620  1.0713
  710TMC3    H110502   3.269   1.694   0.890  0.5279  0.6987  0.0620
  710TMC3    H210503   3.530   1.693   0.554 -0.4664  0.4402 -1.1820
  710TMC3    C710504   3.515   1.627   0.817 -0.3405  0.1267 -0.7001
  710TMC3    C810505   3.450   1.917   0.442 -1.1343  0.4094 -0.1061
  710TMC3    O110506   3.479   1.592   0.928  0.6548  0.2379  0.4711
  710TMC3    O210507   3.555   1.858   0.410  0.1472 -0.1225 -0.6816
  711TMC3    C110508   2.456   2.449  14.654 -0.3121 -0.7775  0.7054
  711TMC3    C210509   2.476   2.570  14.720 -0.7647 -0.3870  0.2147
  711TMC3    C310510   2.606   2.613  14.731 -0.1802 -0.6528  0.0190
  711TMC3    C410511   2.556   2.368  14.599 -1.1330  0.3344  0.1364
  711TMC3    C510512   2.686   2.417  14.610  0.5883  1.0460  0.2023
  711TMC3    C610513   2.715   2.544  14.668 -0.3982  0.9823  0.2257
  711TMC3     C10514   2.315   2.402  14.653  0.0333 -0.0690  0.1618
  711TMC3     O10515   2.287   2.314  14.574 -0.1089 -0.0899 -0.6433
  711TMC3     H10516   2.396   2.631  14.762 -2.1955 -3.0452  1.3687
  711TMC3    H110517   2.525   2.277  14.549  0.5265 -0.6895  0.9343
  711TMC3    H210518   2.817   2.581  14.671 -0.1599  0.3656 -0.4252
  711TMC3    C710519   2.784   2.317  14.638  0.0105 -0.8355 -0.2015
  711TMC3    C810520   2.632   2.629  14.873 -0.7041  1.0408  0.3696
  711TMC3    O110521   2.869   2.339  14.722 -0.1359  0.3072 -0.3175
  711TMC3    O210522   2.535   2.611  14.942  0.2327 -0.1300  0.9025
  712MPD2     C10523   3.518   3.739  13.176  1.2427  0.5275 -0.2260
  712MPD2    C110524   3.617   3.666  13.244 -0.9868  0.3369 -0.3624
  712MPD2    C210525   3.693   3.714  13.350 -0.4574  0.1206  1.0221
  712MPD2    C310526   3.685   3.851  13.378  0.1838  0.4812  0.6209
  712MPD2    C410527   3.596   3.932  13.300 -0.2904 -0.3126 -0.6207
  712MPD2    C510528   3.516   3.873  13.208 -0.5996 -0.2437 -0.8159
  712MPD2     H10529   3.758   3.646  13.404 -0.0843  0.2570  0.7509
  712MPD2    H110530   3.573   4.036  13.317  1.7543  0.2439 -1.3033
  712MPD2    H210531   3.465   3.702  13.089  0.4027 -1.8213  1.2831
  712MPD2    H310532   3.455   3.947  13.158 -1.2076 -0.5763 -0.5550
  712MPD2     N10533   3.767   3.912  13.477  0.1136  0.1988  0.3033
  712MPD2    H510534   3.756   4.011  13.490 -0.1893  0.0675  1.0218
  712MPD2    N110535   3.629   3.540  13.187 -0.4833  0.0686  0.4506
  712MPD2    H710536   3.560   3.525  13.114  1.9020  0.4008 -1.8960
  713TMC3    C110537   3.943   3.961  13.615  0.1050 -0.4685  0.1945
  713TMC3    C210538   4.081   3.937  13.646 -0.3038  0.6914 -0.5224
  713TMC3    C310539   4.131   4.022  13.749 -0.2932 -0.0813  0.2026
  713TMC3    C410540   3.858   4.057  13.676 -0.1876 -0.5275 -0.5362
  713TMC3    C510541   3.921   4.134  13.763  0.5404  0.2219  0.4826
  713TMC3    C610542   4.049   4.118  13.803 -0.6198  0.1725 -0.1689
  713TMC3     C10543   3.884   3.857  13.527 -0.1199  0.2078 -0.3254
  713TMC3     O10544   3.950   3.756  13.498  0.6767 -0.1752 -0.0001
  713TMC3     H10545   4.137   3.863  13.590  0.3400  0.8699 -0.1135
  713TMC3    H110546   3.752   4.060  13.651 -0.5380  0.6920  1.1589
  713TMC3    H210547   4.098   4.188  13.870  1.2307 -1.7001  0.4057
  713TMC3    C710548   3.861   4.262  13.800 -0.6321  0.4659 -0.2072
  713TMC3    C810549   4.277   4.053  13.748 -0.8111  0.7665 -0.9956
  713TMC3    O110550   3.887   4.295  13.916 -0.0800  0.0296  0.2446
  713TMC3    O210551   4.297   4.169  13.775  0.0548 -0.2472  0.1258
  714MPD2     C10552   1.415   2.750   1.459  0.2255  0.6039  0.4826
  714MPD2    C110553   1.507   2.666   1.391  0.0558  0.7725 -0.3755
  714MPD2    C210554   1.469   2.588   1.285  0.1627  1.0096 -0.5598
  714MPD2    C310555   1.339   2.587   1.236 -0.4953  0.8942 -0.7767
  714MPD2    C410556   1.244   2.654   1.310  0.9768  0.0873  0.3200
  714MPD2    C510557   1.281   2.739   1.418  0.4781  0.2711 -0.3918
  714MPD2     H10558   1.538   2.529   1.226 -0.3387 -0.5702  0.4534
  714MPD2    H110559   1.138   2.660   1.286  0.1284 -0.9333  3.8647
  714MPD2    H210560   1.448   2.818   1.536  1.5006  0.4341  0.0924
  714MPD2    H310561   1.203   2.802   1.459 -1.7926 -1.8042 -1.4982
  714MPD2     N10562   1.317   2.515   1.121  0.7348 -0.2408 -0.4662
  714MPD2    H510563   1.396   2.477   1.071  0.9156  0.4943 -0.7454
  714MPD2    N110564   1.638   2.673   1.439 -0.5300  0.3614  0.1679
  714MPD2    H710565   1.663   2.748   1.503 -3.2679  0.9926  0.5090
  715TMC3    C110566   1.868   2.633   1.437 -0.0383  0.0844 -0.4831
  715TMC3    C210567   1.968   2.540   1.432  0.1551  0.3040  0.2882
  715TMC3    C310568   2.095   2.581   1.444  0.5331 -0.1411  0.2033
  715TMC3    C410569   1.894   2.765   1.440  0.2100  0.0710 -0.0329
  715TMC3    C510570   2.020   2.807   1.464 -0.1608 -0.8922  0.0271
  715TMC3    C610571   2.122   2.716   1.474  0.3767  0.7763  0.2639
  715TMC3     C10572   1.734   2.585   1.414  0.0560 -0.5864  0.3229
  715TMC3     O10573   1.722   2.476   1.355  0.8437  0.1974  0.4339
  715TMC3     H10574   1.941   2.439   1.404 -0.7095  0.4365  0.6715
  715TMC3    H110575   1.812   2.836   1.444  0.4643  0.3701 -0.1060
  715TMC3    H210576   2.219   2.756   1.501 -0.2854  1.4610  1.6214
  715TMC3    C710577   2.064   2.945   1.460  0.2334  0.1390  0.1044
  715TMC3    C810578   2.191   2.479   1.443 -0.8233 -0.3517  0.0333
  715TMC3    O110579   2.169   2.981   1.413 -0.5810 -0.4073 -0.0266
  715TMC3    O210580   2.153   2.375   1.484  0.6543 -0.1381  0.2806
  716MPD2     C10581   1.541   0.635   9.870 -0.6201 -0.5082 -0.2678
  716MPD2    C110582   1.547   0.660   9.735 -0.5328 -0.3311  0.4599
  716MPD2    C210583   1.580   0.560   9.650  0.1197 -0.1803  0.3791
  716MPD2    C310584   1.597   0.431   9.697 -0.0945  0.5232  0.9857
  716MPD2    C410585   1.611   0.406   9.829 -0.0418 -0.6204 -0.0351
  716MPD2    C510586   1.569   0.513   9.917  0.3771 -0.9158  0.1402
  716MPD2     H10587   1.555   0.574   9.546  1.6318  0.0350  0.0499
  716MPD2    H110588   1.643   0.311   9.870  0.8611 -1.5726 -2.9639
  716MPD2    H210589   1.527   0.716   9.941 -3.5649 -0.8344 -0.4844
  716MPD2    H310590   1.565   0.497  10.024 -0.0599 -0.0045  0.2601
  716MPD2     N10591   1.589   0.337   9.594 -0.3947 -0.8819 -0.5051
  716MPD2    H510592   1.560   0.366   9.502 -0.3424 -0.0546 -0.2657
  716MPD2    N110593   1.496   0.786   9.689 -0.6235  0.0136 -0.2453
  716MPD2    H710594   1.462   0.847   9.763  0.1011 -0.7088  0.6967
  717TMC3    C110595   1.653   0.166   9.457  0.4476 -0.0161  0.5517
  717TMC3    C210596   1.666   0.250   9.349 -0.3007 -0.6502  0.4792
  717TMC3    C310597   1.663   0.188   9.225  0.6036  0.3566 -0.4709
  717TMC3    C410598   1.627   0.031   9.448 -0.3126  0.4274 -0.3429
  717TMC3    C510599   1.618   4.703   9.319 -0.4296  0.4910 -0.3949
  717TMC3    C610600   1.646   0.051   9.210  0.1837  0.5161  0.0596
  717TMC3     C10601   1.644   0.213   9.591 -0.8150 -0.1566  0.0039
  717TMC3     O10602   1.695   0.152   9.684 -0.2941  0.0308 -0.2308
  717TMC3     H10603   1.681   0.357   9.358 -0.0626 -0.6168 -0.3157
  717TMC3    H110604   1.594   4.712   9.541 -0.2587  1.4660  0.1723
  717TMC3    H210605   1.636   0.010   9.110 -0.2305  3.0249 -0.9089
  717TMC3    C710606   1.552   4.575   9.292  0.1254 -0.1320 -0.0254
  717TMC3    C810607   1.665   0.282   9.114 -0.5493  0.5460  0.6310
  717TMC3    O110608   1.505   4.567   9.179 -0.1470 -0.4081  0.4850
  717TMC3    O210609   1.664   0.401   9.141  0.4310 -0.1571  0.2720
  718MPD2     C10610   0.855   4.123  12.962 -0.1849 -0.2695 -0.3756
  718MPD2    C110611   0.812   4.101  12.833  0.0653  0.4002  0.2553
  718MPD2    C210612   0.675   4.111  12.801 -0.1317 -0.1152 -0.0466
  718MPD2    C310613   0.587   4.157  12.903 -0.5766  0.2449 -0.5814
  718MPD2    C410614   0.640   4.206  13.025  0.7515  0.7883  0.0519
  718MPD2    C510615   0.766   4.169  13.054  0.1152 -0.0587 -0.1627
  718MPD2     H10616   0.635   4.064  12.712  1.2067 -0.9890 -0.1915
  718MPD2    H110617   0.574   4.244  13.102  3.0411  1.3593  1.7386
  718MPD2    H210618   0.957   4.111  12.995 -0.2022 -0.6454 -0.4591
  718MPD2    H310619   0.801   4.199  13.152  1.6377 -1.2312 -0.3635
  718MPD2     N10620   0.450   4.162  12.871 -0.2251 -0.2881  0.1245
  718MPD2    H510621   0.434   4.129  12.776  0.3578 -1.0955  0.3087
  718MPD2    N110622   0.901   4.076  12.735  0.4349 -0.0899 -1.0438
  718MPD2    H710623   0.852   4.064  12.647 -1.7229  0.6853  0.0649
  719TMC3    C110624   1.082   4.086  12.598 -0.4194 -0.1890  0.3011
  719TMC3    C210625   0.990   4.051  12.505  0.0713 -0.1020 -0.1766
  719TMC3    C310626   0.959   4.137  12.407  0.0348 -0.0879 -0.3444
  719TMC3    C410627   1.171   4.187  12.568 -0.2855  0.5923 -0.0136
  719TMC3    C510628   1.146   4.266  12.458 -0.2439  0.1975 -0.4478
  719TMC3    C610629   1.043   4.236  12.372  0.3644  0.0146  0.1064
  719TMC3     C10630   1.036   4.080  12.732 -0.5948  0.4427 -0.6025
  719TMC3     O10631   1.116   4.090  12.823  0.2588  0.2308  0.4236
  719TMC3     H10632   0.935   3.959  12.522 -0.6781  0.4652  0.4574
  719TMC3    H110633   1.252   4.202  12.637  0.2288  0.3766 -0.5715
  719TMC3    H210634   1.034   4.296  12.282 -2.7803  1.5170  1.4039
  719TMC3    C710635   1.243   4.373  12.419  0.2163 -0.0311 -0.2521
  719TMC3    C810636   0.815   4.165  12.409 -0.3066 -0.4657 -0.2483
  719TMC3    O110637   1.242   4.412  12.303 -0.1726  0.5758 -0.1088
  719TMC3    O210638   0.756   4.100  12.494  0.9181 -0.1841 -0.0877
  720MPD2     C10639   4.104   0.631  13.919 -1.3702  0.5952  0.0354
  720MPD2    C110640   4.180   0.729  13.861 -0.3411 -0.5384  0.5821
  720MPD2    C210641   4.302   0.776  13.911 -0.0238 -0.0284 -0.0508
  720MPD2    C310642   4.338   0.726  14.037  0.3665 -0.2654 -0.0456
  720MPD2    C410643   4.254   0.626  14.094  0.1795 -0.3948 -0.6084
  720MPD2    C510644   4.146   0.576  14.037  0.2505  0.4923  0.3208
  720MPD2     H10645   4.358   0.856  13.863  1.2827 -2.0659 -1.9246
  720MPD2    H110646   4.280   0.581  14.189  0.4283  0.4990 -0.2461
  720MPD2    H210647   4.006   0.600  13.885  0.2047 -2.5249 -1.5824
  720MPD2    H310648   4.068   0.519  14.086  0.4052 -0.2757 -0.3308
  720MPD2     N10649   4.450   0.779  14.100  0.4828 -0.3477  0.4036
  720MPD2    H510650   4.503   0.852  14.053  0.3587  0.5796  1.6920
  720MPD2    N110651   4.133   0.789  13.738 -0.0153  0.2768  0.8062
  720MPD2    H710652   4.196   0.857  13.697 -1.0598  0.2729 -0.7642
  721TMC3    C110653   4.598   0.837  14.265 -0.0119 -0.0655 -0.2308
  721TMC3    C210654   4.601   0.889  14.391  0.1123  0.4589  0.2205
  721TMC3    C310655   0.003   0.926  14.444  0.5397  0.6112 -0.2883
  721TMC3    C410656   4.714   0.802  14.195  0.2367 -0.2725 -0.4264
  721TMC3    C510657   0.104   0.839  14.265 -0.1139 -0.1628 -1.2357
  721TMC3    C610658   0.120   0.902  14.381  0.6952 -0.4654  0.1774
  721TMC3     C10659   4.478   0.757  14.232  0.0967  0.2417  0.1352
  721TMC3     O10660   4.417   0.696  14.320 -0.4396  0.0349  0.0520
  721TMC3     H10661   4.511   0.903  14.449  0.1829 -1.5747  0.8196
  721TMC3    H110662   4.725   0.755  14.098 -1.9862 -0.2177 -0.6988
  721TMC3    H210663   0.218   0.930  14.419  0.4959  0.6251 -0.1001
  721TMC3    C710664   0.223   0.815  14.180  0.6385 -0.1322  0.2317
  721TMC3    C810665   0.005   0.967  14.580 -0.6776  0.5585 -0.1647
  721TMC3    O110666   0.213   0.762  14.070  0.4052 -0.1341  0.0194
  721TMC3    O210667   0.117   1.008  14.615  0.4141 -0.0740  0.1864
  722MPD2     C10668   2.901   4.191  13.213  0.1552  0.2279  0.1984
  722MPD2    C110669   2.874   4.310  13.158  0.0505 -0.2760 -0.4854
  722MPD2    C210670   2.784   4.310  13.052 -0.3625 -0.9372 -0.2988
  722MPD2    C310671   2.728   4.191  13.004  0.3208  0.3727 -1.3986
  722MPD2    C410672   2.755   4.076  13.075 -0.3829 -0.2749  0.7321
  722MPD2    C510673   2.840   4.076  13.180 -0.4429  0.6882  0.3998
  722MPD2     H10674   2.760   4.398  12.992  1.8656 -0.1148  0.0346
  722MPD2    H110675   2.730   3.974  13.048  1.4573 -0.5214 -0.0681
  722MPD2    H210676   2.977   4.182  13.291  0.7905  0.0965 -0.4373
  722MPD2    H310677   2.867   3.981  13.224 -1.5082  0.3744  0.3738
  722MPD2     N10678   2.633   4.197  12.896 -0.5661  0.2025 -0.3570
  722MPD2    H510679   2.627   4.290  12.855  2.3826  0.7830  0.5808
  722MPD2    N110680   2.942   4.424  13.202  0.4770 -0.3156  0.8946
  722MPD2    H710681   2.912   4.516  13.171  0.7005 -0.7689 -0.6497
  723TMC3    C110682   2.447   4.126  12.760 -0.7075 -0.3423  0.2603
  723TMC3    C210683   2.382   4.028  12.689 -0.3455  0.3930  0.2679
  723TMC3    C310684   2.328   4.057  12.570  0.1255 -0.5305 -0.4506
  723TMC3    C410685   2.434   4.256  12.727  0.0916  0.7748 -0.1436
  723TMC3    C510686   2.372   4.281  12.605 -0.6349 -0.3783 -0.2688
  723TMC3    C610687   2.330   4.181  12.518 -0.0953  0.0024  0.1643
  723TMC3     C10688   2.540   4.097  12.863 -0.2486  0.1448 -0.0185
  723TMC3     O10689   2.526   3.983  12.905  0.5326 -0.3349  0.0198
  723TMC3     H10690   2.367   3.931  12.735  0.3375 -0.9233 -2.3083
  723TMC3    H110691   2.476   4.343  12.777 -0.5925  1.6367 -1.0560
  723TMC3    H210692   2.272   4.195  12.427 -2.0718  1.2002  1.5983
  723TMC3    C710693   2.326   4.413  12.578  0.3274  0.2806  0.9007
  723TMC3    C810694   2.208   3.981  12.554 -0.0067  0.0037 -0.0115
  723TMC3    O110695   2.290   4.431  12.464  0.2891 -0.1507 -0.0438
  723TMC3    O210696   2.104   4.051  12.563  0.0338 -0.6612 -0.2319
  724TMC3    C110697   3.439   2.252  10.131  0.3960  0.3507 -0.3396
  724TMC3    C210698   3.416   2.246   9.994  0.3686  0.1813 -0.5060
  724TMC3    C310699   3.460   2.354   9.921 -0.4591  0.2636  0.4625
  724TMC3    C410700   3.510   2.355  10.184 -0.1029  0.2836 -0.1904
  724TMC3    C510701   3.555   2.456  10.107  0.0658 -0.5244 -0.3643
  724TMC3    C610702   3.527   2.461   9.974  0.0713 -0.1351 -0.1953
  724TMC3     C10703   3.368   2.171  10.232  0.0346  0.6615 -0.0542
  724TMC3     O10704   3.374   2.203  10.349 -0.4318  0.0856  0.3982
  724TMC3     H10705   3.342   2.175   9.962 -0.0600  1.2786 -1.9653
  724TMC3    H110706   3.551   2.351  10.285 -2.4509 -0.1879  0.7544
  724TMC3    H210707   3.567   2.540   9.912 -1.5618  1.6717  1.0686
  724TMC3    C710708   3.606   2.573  10.167  0.0553  0.4841 -0.1209
  724TMC3    C810709   3.447   2.338   9.777 -0.3131 -0.2315 -0.7419
  724TMC3    O110710   3.684   2.639  10.100  0.7357  0.9154  0.8401
  724TMC3    O210711   3.369   2.253   9.739 -0.2616 -0.7194  0.9391
  725TMC3    C110712   0.032   1.316  12.550  0.3778  0.0290 -0.3816
  725TMC3    C210713   0.014   1.368  12.423  0.5581  0.3306  0.4378
  725TMC3    C310714   4.669   1.284  12.339 -0.7029  0.1582  0.0198
  725TMC3    C410715   4.712   1.191  12.586 -0.4427 -0.3460  0.7030
  725TMC3    C510716   4.647   1.115  12.490 -0.8710 -0.1436  0.1218
  725TMC3    C610717   4.610   1.164  12.373 -0.1225  0.0920  0.1903
  725TMC3     C10718   0.047   1.411  12.652  0.1766  0.6123 -0.3722
  725TMC3     O10719   0.072   1.523  12.609  0.0716 -0.4617  0.3385
  725TMC3     H10720   0.070   1.454  12.389 -2.2102  1.9884  0.1319
  725TMC3    H110721   0.036   1.142  12.669  1.0704 -0.7278 -0.4180
  725TMC3    H210722   4.568   1.100  12.296 -1.5430  1.2034  0.0469
  725TMC3    C710723   4.635   0.966  12.509 -0.1613 -0.6244  0.3317
  725TMC3    C810724   4.713   1.279  12.199 -0.3305 -1.1176  0.5513
  725TMC3    O110725   4.634   0.906  12.403  0.7835  0.4157 -0.3859
  725TMC3    O210726   4.724   1.168  12.152 -0.4398  0.5361  0.0956
  726MPD2     C10727   3.006   2.502  10.642  0.4107 -0.7165 -0.6403
  726MPD2    C110728   2.923   2.521  10.540 -0.5105  0.8783 -1.0664
  726MPD2    C210729   2.805   2.455  10.536  0.6121 -0.3968 -0.1741
  726MPD2    C310730   2.758   2.388  10.647 -0.3773 -0.0054  0.0812
  726MPD2    C410731   2.845   2.371  10.752 -1.5811  0.9372  0.0356
  726MPD2    C510732   2.968   2.429  10.757  0.4207 -0.7718  0.0371
  726MPD2     H10733   2.751   2.449  10.442 -2.0250  0.0576  1.3214
  726MPD2    H110734   2.809   2.320  10.840  0.0518  1.1456  0.8228
  726MPD2    H210735   3.102   2.552  10.652  0.4863 -0.9148 -0.3529
  726MPD2    H310736   3.036   2.426  10.842 -0.3344 -0.4970  0.6482
  726MPD2     N10737   2.624   2.335  10.663  1.1085  0.0767 -0.1915
  726MPD2    H510738   2.597   2.288  10.749  2.4854  0.7882  0.6269
  726MPD2    N110739   2.949   2.605  10.431 -0.5768 -0.3040 -0.3140
  726MPD2    H710740   2.875   2.611  10.361 -1.4960  0.5150  0.7259
  727TMC3    C110741   3.033   2.770  10.293 -0.5891 -0.0486 -0.3312
  727TMC3    C210742   3.085   2.892  10.294  0.0990 -0.5489  0.0852
  727TMC3    C310743   3.061   2.971  10.187  0.0796 -0.6499 -0.4213
  727TMC3    C410744   2.958   2.717  10.188  0.3394  0.0101  0.2984
  727TMC3    C510745   2.922   2.806  10.086  0.5105  0.1809 -0.5237
  727TMC3    C610746   2.983   2.931  10.081 -0.6937  0.4465 -0.3232
  727TMC3     C10747   3.045   2.698  10.418  0.7518  0.7056 -0.3477
  727TMC3     O10748   3.127   2.734  10.505 -0.1820 -0.4267 -0.9355
  727TMC3     H10749   3.157   2.925  10.368 -1.3901 -0.4553  1.4751
  727TMC3    H110750   2.941   2.611  10.178 -0.7303  0.1583  0.4676
  727TMC3    H210751   2.961   2.996   9.997 -0.7436  0.1217 -0.5636
  727TMC3    C710752   2.890   2.745   9.959 -0.2198  0.1203  0.3305
  727TMC3    C810753   3.121   3.102  10.171  0.1141 -0.2767 -0.1141
  727TMC3    O110754   2.935   2.800   9.857 -0.5540  0.6530 -0.2285
  727TMC3    O210755   3.120   3.148  10.057  0.8776 -1.0203  0.5382
  728TMC3    C110756   1.619   1.206  15.371 -0.4418 -0.3108  0.1460
  728TMC3    C210757   1.738   1.265  15.346 -0.5039  0.1254 -0.0591
  728TMC3    C310758   1.779   1.302  15.220 -0.1858  0.1809 -0.1588
  728TMC3    C410759   1.530   1.194  15.270 -0.9573 -0.0225  0.0043
  728TMC3    C510760   1.574   1.226  15.146 -0.7390  0.2112  0.1457
  728TMC3    C610761   1.698   1.267  15.115 -0.3035  0.3182  0.2485
  728TMC3     C10762   1.548   1.243  15.488  0.2069  0.0561  0.1711
  728TMC3     O10763   1.565   1.356  15.527 -0.2804  0.4171  0.2770
  728TMC3     H10764   1.779   1.305  15.438 -0.1015 -1.2110  0.3377
  728TMC3    H110765   1.440   1.134  15.280 -2.4395  1.8226 -2.1336
  728TMC3    H210766   1.720   1.303  15.015 -2.2727  0.7718 -0.0173
  728TMC3    C710767   1.471   1.276  15.065  0.3267 -0.0518 -1.0024
  728TMC3    C810768   1.911   1.347  15.207 -0.0253 -0.6024 -0.1093
  728TMC3    O110769   1.360   1.255  15.107 -0.3189 -0.0251 -0.3584
  728TMC3    O210770   1.949   1.385  15.096 -0.2010  0.4922 -0.5735
  729MPD2     C10771   4.427   1.892  16.183 -0.0769 -0.1536  0.4306
  729MPD2    C110772   4.401   2.025  16.188  0.3941  0.2816  0.7428
  729MPD2    C210773   4.365   2.080  16.311  0.3525  0.4337  0.6785
  729MPD2    C310774   4.345   1.996  16.422 -0.4307  0.2387 -0.0016
  729MPD2    C410775   4.362   1.858  16.414  0.0885  0.6888 -0.2470
  729MPD2    C510776   4.399   1.809  16.290  0.2717  0.0927 -0.7349
  729MPD2     H10777   4.334   2.184  16.318  0.5961  0.5784 -0.4403
  729MPD2    H110778   4.367   1.790  16.499 -0.8359  2.3826  1.1663
  729MPD2    H210779   4.451   1.838  16.091  0.3778 -3.7524  2.6641
  729MPD2    H310780   4.408   1.701  16.285  1.5221  0.1844 -0.3752
  729MPD2     N10781   4.338   2.052  16.550  0.2637 -0.2240  0.3228
  729MPD2    H510782   4.362   1.986  16.623  0.8801  1.0092  1.2138
  729MPD2    N110783   4.434   2.107  16.084  0.2291 -0.3387  0.0021
  729MPD2    H710784   4.511   2.064  16.033 -2.1574 -1.8833 -2.2711
  730TMC3    C110785   4.364   2.228  16.705  0.1544  1.0288 -0.8988
  730TMC3    C210786   4.495   2.192  16.731  0.8868 -0.1919  0.3377
  730TMC3    C310787   4.573   2.269  16.815  0.5720  0.4207  0.0316
  730TMC3    C410788   4.317   2.346  16.756  0.5862 -0.3411 -0.2210
  730TMC3    C510789   4.396   2.414  16.849 -0.3383 -0.0144 -0.4395
  730TMC3    C610790   4.520   2.374  16.885 -0.3058  0.4479 -0.1887
  730TMC3     C10791   4.303   2.178  16.586 -0.5577  0.1882 -0.3239
  730TMC3     O10792   4.260   2.269  16.513 -0.5676  0.4259  0.3444
  730TMC3     H10793   4.533   2.107  16.677 -0.7624 -1.6712  1.5132
  730TMC3    H110794   4.224   2.389  16.720  0.8122 -0.3572 -0.8293
  730TMC3    H210795   4.573   2.448  16.944  1.0676  1.1413 -2.2812
  730TMC3    C710796   4.372   2.559  16.862  0.5058 -0.6831 -0.2846
  730TMC3    C810797   4.690   2.309  16.727  0.0648  0.3395  0.2491
  730TMC3    O110798   4.333   2.626  16.765 -0.8630 -0.1689 -0.5845
  730TMC3    O210799   4.696   2.254  16.618 -0.5762 -0.3208  0.3796
  731MPD2     C10800   4.333   0.918  12.013  0.4762  0.4659 -0.4146
  731MPD2    C110801   4.230   0.830  11.993 -0.6880  0.3476  0.0744
  731MPD2    C210802   4.161   0.775  12.097  0.3814  0.6084  0.2985
  731MPD2    C310803   4.194   0.806  12.226 -0.1915 -0.0948 -0.3283
  731MPD2    C410804   4.305   0.892  12.256  0.2342 -0.6426  0.0205
  731MPD2    C510805   4.365   0.949  12.146 -0.0111  0.3706 -0.9315
  731MPD2     H10806   4.081   0.705  12.077  1.1065 -0.5047  1.2655
  731MPD2    H110807   4.340   0.926  12.353 -1.1881 -0.6795  0.5520
  731MPD2    H210808   4.388   0.968  11.934  1.5815 -0.7534 -0.4110
  731MPD2    H310809   4.441   1.024  12.167 -0.5681  0.6471  0.0732
  731MPD2     N10810   4.124   0.739  12.326  0.3051 -0.5209  0.6746
  731MPD2    H510811   4.054   0.666  12.315  0.6490 -1.1028  2.3701
  731MPD2    N110812   4.211   0.789  11.858  0.0144 -0.3184  0.0442
  731MPD2    H710813   4.290   0.804  11.795 -0.6952  1.7320 -0.3516
  732TMC3    C110814   4.155   0.651  11.691 -0.2775  0.6753  0.1903
  732TMC3    C210815   4.056   0.620  11.601  0.7076 -0.0515  0.1663
  732TMC3    C310816   4.096   0.539  11.494 -0.8552  0.2255  0.6723
  732TMC3    C410817   4.291   0.617  11.678  0.6136 -0.6231 -0.4124
  732TMC3    C510818   4.319   0.540  11.573 -0.4205 -0.4450 -0.2747
  732TMC3    C610819   4.228   0.502  11.484 -0.0318 -0.1686 -0.6678
  732TMC3     C10820   4.111   0.706  11.821 -0.1912  0.1673  0.2614
  732TMC3     O10821   3.997   0.693  11.860  0.1071 -0.0595 -0.0995
  732TMC3     H10822   3.955   0.654  11.614 -0.0642 -1.4173 -2.2554
  732TMC3    H110823   4.363   0.623  11.758  2.6808 -2.1220 -2.1544
  732TMC3    H210824   4.249   0.424  11.412 -1.6495 -1.0802 -0.1618
  732TMC3    C710825   4.462   0.507  11.538  0.4949  0.1241  0.0910
  732TMC3    C810826   3.986   0.457  11.431  0.1836 -0.8458 -0.0091
  732TMC3    O110827   4.490   0.472  11.424  0.3485  0.5113  1.1740
  732TMC3    O210828   4.012   0.404  11.323  0.7707  0.8285 -0.3531
  733TMC3    C110829   4.724   4.251  12.801  0.2801  0.9421  0.3044
  733TMC3    C210830   0.096   4.217  12.889  0.8702 -0.4432 -0.0058
  733TMC3    C310831   0.227   4.229  12.843 -0.1512 -0.2335 -0.2186
  733TMC3    C410832   0.026   4.290  12.668  0.0276  0.6634  0.3657
  733TMC3    C510833   0.153   4.291  12.630 -0.2027  0.1473 -0.0244
  733TMC3    C610834   0.258   4.274  12.721  0.4428  0.3394  0.5564
  733TMC3     C10835   4.584   4.243  12.836  0.2879 -0.1894  0.1584
  733TMC3     O10836   4.515   4.298  12.750  0.5486  0.1757  0.0541
  733TMC3     H10837   0.076   4.175  12.987  1.5922 -1.1118 -0.1502
  733TMC3    H110838   4.680   4.306  12.589 -1.1905 -0.9121  1.1555
  733TMC3    H210839   0.358   4.304  12.692 -0.9077  0.8085 -3.5793
  733TMC3    C710840   0.197   4.329  12.493 -0.4692 -0.3533  0.1960
  733TMC3    C810841   0.339   4.222  12.934 -0.7244 -0.1714 -0.5825
  733TMC3    O110842   0.132   4.411  12.428 -0.6027 -0.2150  0.3474
  733TMC3    O210843   0.336   4.281  13.040  0.0596 -0.4549  0.1504
  734MPD2     C10844   2.992   1.499  11.874 -0.6872  0.3693 -0.9596
  734MPD2    C110845   2.862   1.502  11.828  0.3748 -0.2792  0.7617
  734MPD2    C210846   2.845   1.505  11.691  0.3128  0.2802 -0.3820
  734MPD2    C310847   2.948   1.529  11.600 -0.0572  0.7394 -0.1286
  734MPD2    C410848   3.078   1.535  11.648 -0.4484  0.2706  0.2538
  734MPD2    C510849   3.098   1.508  11.783  0.1554 -0.0875 -0.0953
  734MPD2     H10850   2.744   1.505  11.651 -0.1976  0.0556  0.8969
  734MPD2    H110851   3.158   1.552  11.576 -0.4771 -1.3985 -0.1782
  734MPD2    H210852   3.020   1.481  11.977 -0.6935 -1.5549 -1.2843
  734MPD2    H310853   3.201   1.509  11.819 -0.0681  0.3090  0.5424
  734MPD2     N10854   2.910   1.544  11.467 -0.4586 -0.1668  0.3764
  734MPD2    H510855   2.812   1.540  11.439  0.0202 -1.0343 -1.1601
  734MPD2    N110856   2.762   1.493  11.926 -0.1168 -0.2887 -0.2239
  734MPD2    H710857   2.789   1.470  12.021 -0.4211 -3.0475 -0.8112
  735TMC3    C110858   2.539   1.471  12.001  0.3497 -0.4650  0.1123
  735TMC3    C210859   2.408   1.469  11.956 -0.7016 -0.1403 -0.1997
  735TMC3    C310860   2.345   1.351  11.950 -0.6892 -0.2936 -0.4224
  735TMC3    C410861   2.580   1.366  12.084 -0.3010  0.4981  0.2161
  735TMC3    C510862   2.500   1.252  12.098  0.0872 -0.1310  0.4731
  735TMC3    C610863   2.385   1.242  12.020  0.2178 -0.1628  0.5784
  735TMC3     C10864   2.628   1.516  11.898  0.6111  0.5218  0.4526
  735TMC3     O10865   2.578   1.541  11.789 -0.4693  0.1601  0.0572
  735TMC3     H10866   2.379   1.559  11.903 -0.9204 -0.5108 -0.7098
  735TMC3    H110867   2.681   1.366  12.123  1.1708 -0.1996 -3.5458
  735TMC3    H210868   2.323   1.154  12.017 -0.4586  0.3130  0.5306
  735TMC3    C710869   2.587   1.141  12.069  0.2214  0.3483  0.1416
  735TMC3    C810870   2.284   1.322  11.826  0.5210 -0.9470  0.1051
  735TMC3    O110871   2.611   1.137  11.950 -0.4307 -0.6682 -0.1647
  735TMC3    O210872   2.198   1.236  11.825  1.0743  0.0082  1.1154
  736MPD2     C10873   2.839   0.966  12.273  0.2787  0.1696  0.1379
  736MPD2    C110874   2.793   1.025  12.161  0.5358 -0.1455  0.1352
  736MPD2    C210875   2.867   1.021  12.039 -0.2420 -0.5610  0.2089
  736MPD2    C310876   3.001   0.971  12.039  0.1422 -0.4621  0.3573
  736MPD2    C410877   3.051   0.926  12.155 -0.3532 -0.3963  0.7395
  736MPD2    C510878   2.967   0.911  12.265  0.1992 -1.1245 -0.0256
  736MPD2     H10879   2.825   1.064  11.949  0.0740  0.2164  0.4295
  736MPD2    H110880   3.152   0.887  12.165  0.0918  1.0324  1.7744
  736MPD2    H210881   2.784   0.958  12.366 -0.9384 -0.8626 -0.6734
  736MPD2    H310882   3.004   0.869  12.358 -1.1544 -3.7863 -0.7114
  736MPD2     N10883   3.079   0.966  11.922  0.1623 -0.9062  0.2600
  736MPD2    H510884   3.168   0.919  11.925  0.0747 -1.1919 -1.5758
  736MPD2    N110885   2.667   1.087  12.174 -0.0561  0.1013 -0.2682
  736MPD2    H710886   2.622   1.109  12.262 -0.5184 -1.5387 -0.0953
  737TMC3    C110887   3.141   0.998  11.692  0.1838 -0.0482 -0.3021
  737TMC3    C210888   3.146   1.090  11.591 -0.0234 -0.2490  0.5306
  737TMC3    C310889   3.242   1.080  11.498 -0.1972 -0.2471 -0.2745
  737TMC3    C410890   3.225   0.887  11.705 -0.0997  0.7844 -0.2330
  737TMC3    C510891   3.311   0.873  11.602 -0.2867 -0.2662  0.4787
  737TMC3    C610892   3.326   0.970  11.499  0.3245 -0.6119 -0.4646
  737TMC3     C10893   3.041   1.018  11.795 -1.1235 -0.9522 -0.1706
  737TMC3     O10894   2.940   1.076  11.761  0.2588 -0.2268  0.3296
  737TMC3     H10895   3.081   1.176  11.595  0.8970  0.5148 -0.9573
  737TMC3    H110896   3.216   0.807  11.778 -0.2702 -0.7352 -1.9082
  737TMC3    H210897   3.386   0.956  11.410 -0.3291 -2.0092 -0.6777
  737TMC3    C710898   3.304   0.734  11.550  0.2878  0.3853  0.5413
  737TMC3    C810899   3.222   1.145  11.367 -0.2284 -0.2778 -0.0749
  737TMC3    O110900   3.213   0.665  11.601  0.2233 -0.3830 -0.4238
  737TMC3    O210901   3.324   1.155  11.298 -0.4045 -0.4066  0.6774
  738MPD2     C10902   2.737   4.431  14.730  1.2783  0.6029  0.4298
  738MPD2    C110903   2.797   4.363  14.839  0.7938 -0.2757 -0.6306
  738MPD2    C210904   2.895   4.421  14.917  0.1918 -0.4741 -0.5010
  738MPD2    C310905   2.944   4.547  14.875 -0.0391  0.2180 -0.1552
  738MPD2    C410906   2.875   4.613  14.779  0.6456  0.5322  0.6676
  738MPD2    C510907   2.772   4.561  14.703  0.6352 -0.3984 -0.2209
  738MPD2     H10908   2.945   4.357  14.988  0.7147  0.9563  0.4214
  738MPD2    H110909   2.892   4.720  14.772 -1.9187  0.7898 -1.5257
  738MPD2    H210910   2.656   4.384  14.675  2.4634  0.0909 -0.8704
  738MPD2    H310911   2.713   4.626  14.640  0.3780 -0.7262 -0.3243
  738MPD2     N10912   3.052   4.614  14.937 -0.3297 -0.2207  0.0903
  738MPD2    H510913   3.070   4.708  14.903 -1.9297  0.0574  0.0101
  738MPD2    N110914   2.748   4.231  14.882 -0.2493 -0.4598 -0.5585
  738MPD2    H710915   2.785   4.195  14.969  0.0658  0.7017 -0.2083
  739TMC3    C110916   3.238   4.656  15.066 -0.0443 -0.2002  0.5859
  739TMC3    C210917   3.273   0.015  14.960 -0.7662 -0.3970 -0.2053
  739TMC3    C310918   3.405   0.037  14.933 -0.1901  0.4972 -0.1513
  739TMC3    C410919   3.342   4.595  15.133 -0.0016  0.3800 -0.7975
  739TMC3    C510920   3.475   4.613  15.099 -0.0951 -0.1822 -0.6700
  739TMC3    C610921   3.505   4.692  14.994  0.0180  0.4295  0.3118
  739TMC3     C10922   3.131   4.567  15.035 -0.2936  1.4313 -0.3825
  739TMC3     O10923   3.127   4.463  15.106  0.0607  0.1990 -0.0703
  739TMC3     H10924   3.195   0.072  14.910  0.4657  1.7213  0.3064
  739TMC3    H110925   3.318   4.538  15.222  2.2460  0.8797  0.1156
  739TMC3    H210926   3.609   4.711  14.967  0.9078 -0.7950  2.8203
  739TMC3    C710927   3.566   4.581  15.202 -0.5395 -0.5621  0.1477
  739TMC3    C810928   3.428   0.101  14.812 -0.5351 -0.3583 -0.3988
  739TMC3    O110929   3.513   4.574  15.312  0.1768 -0.1691  0.3644
  739TMC3    O210930   3.341   0.105  14.730 -0.1262 -0.2613 -0.3986
  740TMC3    C110931   4.048   1.140  14.005  0.1170 -0.5233  0.1181
  740TMC3    C210932   4.094   1.124  14.134  0.5748 -0.7322  0.1281
  740TMC3    C310933   4.226   1.083  14.142  0.4902 -0.2608  0.2587
  740TMC3    C410934   4.132   1.139  13.894  0.3909  0.6444 -1.0539
  740TMC3    C510935   4.266   1.131  13.917 -0.2773  0.4378  0.0955
  740TMC3    C610936   4.318   1.092  14.036 -0.6188 -0.0417 -0.0431
  740TMC3     C10937   3.906   1.179  13.978 -0.3613  0.0079 -0.2998
  740TMC3     O10938   3.883   1.228  13.864  0.5076  0.8626  0.6317
  740TMC3     H10939   4.030   1.134  14.220 -1.5787 -3.1500 -1.1931
  740TMC3    H110940   4.094   1.162  13.795 -0.8708  0.0361 -0.7120
  740TMC3    H210941   4.425   1.087  14.052 -0.6322 -0.5349 -0.1030
  740TMC3    C710942   4.361   1.125  13.801  0.1202  0.2453 -0.0630
  740TMC3    C810943   4.269   1.070  14.277  0.4626  0.1639  0.0653
  740TMC3    O110944   4.474   1.096  13.826  0.2989  0.6634 -0.0013
  740TMC3    O210945   4.378   1.113  14.306 -0.6027  0.1215 -0.5953
  741TMC3    C110946   3.381   0.562  14.469 -0.2316 -0.0863 -0.3875
  741TMC3    C210947   3.320   0.458  14.421  0.0123 -0.5716 -0.1348
  741TMC3    C310948   3.274   0.362  14.508 -0.2037  1.0469  0.3076
  741TMC3    C410949   3.409   0.565  14.605  0.0074 -0.2814  0.0239
  741TMC3    C510950   3.357   0.474  14.693  1.4518 -0.3031 -0.1073
  741TMC3    C610951   3.284   0.371  14.642 -0.4520 -0.1300 -0.5723
  741TMC3     C10952   3.444   0.663  14.385 -0.2463 -0.2679  0.5052
  741TMC3     O10953   3.530   0.738  14.439 -0.2494 -0.2085 -0.2277
  741TMC3     H10954   3.318   0.446  14.313  0.5105  2.6107 -0.5074
  741TMC3    H110955   3.448   0.659  14.644  2.8270 -1.9756  1.2390
  741TMC3    H210956   3.227   0.312  14.713 -1.0701  0.3542 -0.6633
  741TMC3    C710957   3.363   0.515  14.835 -0.0117 -0.7305  0.4959
  741TMC3    C810958   3.188   0.266  14.445  0.6407 -0.4119  0.0929
  741TMC3    O110959   3.398   0.629  14.862  0.2675 -0.3506 -0.1374
  741TMC3    O210960   3.144   0.290  14.334  0.0400 -0.0239 -0.3380
  742TMC3    C110961   3.453   3.875  15.362 -0.0501 -0.1099 -0.1027
  742TMC3    C210962   3.399   3.777  15.284  0.1922  0.0684 -0.0293
  742TMC3    C310963   3.486   3.697  15.216  0.3721  0.3171  0.5841
  742TMC3    C410964   3.587   3.884  15.372  0.0383  0.2169  0.3555
  742TMC3    C510965   3.670   3.803  15.312 -0.1336 -0.3046 -0.2178
  742TMC3    C610966   3.625   3.705  15.234 -0.1416  1.0312  0.1479
  742TMC3     C10967   3.380   3.941  15.464  0.4263  0.5723  0.5567
  742TMC3     O10968   3.452   3.962  15.562 -0.1962 -0.2478 -0.1522
  742TMC3     H10969   3.295   3.792  15.255 -0.5839 -2.2633  1.4895
  742TMC3    H110970   3.636   3.959  15.432 -0.4364  0.4945  0.3903
  742TMC3    H210971   3.689   3.641  15.174 -0.7856  0.9450 -0.4508
  742TMC3    C710972   3.806   3.826  15.333  0.9283 -0.4569  0.6350
  742TMC3    C810973   3.437   3.601  15.115 -0.5511 -0.0807  0.2120
  742TMC3    O110974   3.852   3.940  15.347  0.3877  0.3315 -0.3411
  742TMC3    O210975   3.507   3.587  15.019 -0.4092 -0.2731  0.2480
  743MPD2     C10976   1.272   0.609   1.885 -0.3012  0.4401 -0.3092
  743MPD2    C110977   1.380   0.590   1.800  0.4075  0.4775  0.0294
  743MPD2    C210978   1.508   0.638   1.836  0.6557  0.0025  0.5360
  743MPD2    C310979   1.528   0.704   1.954 -0.1675 -0.1879 -0.2477
  743MPD2    C410980   1.427   0.717   2.045 -0.0040  0.6129  0.0667
  743MPD2    C510981   1.305   0.668   2.010 -0.3979  1.1047  0.3399
  743MPD2     H10982   1.588   0.634   1.763  0.7206  1.1324  0.5447
  743MPD2    H110983   1.429   0.776   2.135 -0.1280  0.1383  0.3794
  743MPD2    H210984   1.172   0.577   1.859 -0.2964 -0.4960  0.8618
  743MPD2    H310985   1.221   0.679   2.079 -0.0947  1.6208  0.6290
  743MPD2     N10986   1.655   0.746   1.977 -0.2208 -0.1887 -0.1580
  743MPD2    H510987   1.720   0.731   1.901  1.3323 -0.3293  1.2065
  743MPD2    N110988   1.353   0.525   1.677 -0.1082 -0.1646  0.1251
  743MPD2    H710989   1.258   0.490   1.667 -0.3866  0.1599  1.6290
  744TMC3    C110990   1.411   0.440   1.455 -0.2864  0.6291  0.2882
  744TMC3    C210991   1.277   0.394   1.447 -0.1853  0.5387 -0.6830
  744TMC3    C310992   1.236   0.347   1.325 -0.9084  0.6354 -0.9770
  744TMC3    C410993   1.494   0.439   1.352 -0.3230  0.8283  0.3359
  744TMC3    C510994   1.443   0.392   1.235 -0.5525 -0.2321  0.0205
  744TMC3    C610995   1.316   0.351   1.216  0.8320  0.1742 -0.1811
  744TMC3     C10996   1.447   0.506   1.575  0.3585 -0.1608 -0.0283
  744TMC3     O10997   1.558   0.556   1.572  0.1951  0.6869 -0.4382
  744TMC3     H10998   1.218   0.375   1.536  1.1191 -1.4922 -0.2621
  744TMC3    H110999   1.598   0.469   1.355  0.0555 -0.5157  0.4115
  744TMC3    H211000   1.281   0.320   1.118 -0.8118 -0.5581  0.6248
  744TMC3    C711001   1.546   0.355   1.138  0.4118  0.3874  0.9259
  744TMC3    C811002   1.096   0.355   1.300 -0.9306  0.2864 -0.4509
  744TMC3    O111003   1.640   0.433   1.121  0.2005 -0.4109  0.1284
  744TMC3    O211004   1.035   0.425   1.379 -0.1949  0.8109 -0.3618
  745TMC3    C111005   3.692   3.323  13.150  0.2505 -1.2872  0.2589
  745TMC3    C211006   3.646   3.220  13.219 -0.2836 -0.2420 -0.0588
  745TMC3    C311007   3.524   3.158  13.172 -0.3129 -0.0265  0.1340
  745TMC3    C411008   3.666   3.345  13.017 -0.0290 -0.0442  0.5466
  745TMC3    C511009   3.566   3.274  12.965  0.8662 -0.4491 -0.4136
  745TMC3    C611010   3.488   3.180  13.035 -0.2780  0.0121  0.5038
  745TMC3     C11011   3.712   3.439  13.235 -0.5195 -0.4558  0.5947
  745TMC3     O11012   3.779   3.432  13.340 -0.6004 -0.6553 -0.7224
  745TMC3     H11013   3.679   3.200  13.320  1.6343  0.6441 -0.5037
  745TMC3    H111014   3.730   3.413  12.961 -1.0321 -1.0508 -1.8036
  745TMC3    H211015   3.403   3.127  12.995 -2.2484  2.9023  0.8730
  745TMC3    C711016   3.491   3.341  12.863 -0.6685 -0.2604 -0.4148
  745TMC3    C811017   3.412   3.187  13.262 -0.0918  0.1618  0.5762
  745TMC3    O111018   3.405   3.278  12.805  0.1419 -0.0236  0.1225
  745TMC3    O211019   3.309   3.128  13.235 -0.0432  0.4913 -0.4147
  746TMC3    C111020   1.064   0.658  11.097 -0.8200 -0.0888  0.0867
  746TMC3    C211021   1.181   0.614  11.037  0.5389 -0.6207 -0.7329
  746TMC3    C311022   1.175   0.495  10.964 -0.5592  0.9050  0.1702
  746TMC3    C411023   0.944   0.594  11.076 -0.5188  0.1041 -0.3552
  746TMC3    C511024   0.943   0.484  11.001  0.5135 -1.3103 -0.3452
  746TMC3    C611025   1.058   0.436  10.946 -0.4008 -0.3169  0.7037
  746TMC3     C11026   1.064   0.765  11.199  0.2333  0.2409 -0.2549
  746TMC3     O11027   0.979   0.769  11.284  0.1928 -0.1550  0.1970
  746TMC3     H11028   1.271   0.675  11.035  0.1052  0.1140  1.9054
  746TMC3    H111029   0.858   0.639  11.125 -0.4411 -4.1380  3.6925
  746TMC3    H211030   1.055   0.346  10.885  1.1834 -1.4953  2.3420
  746TMC3    C711031   0.820   0.438  10.934  0.1180 -0.2784 -0.3022
  746TMC3    C811032   1.282   0.470  10.871  0.0297  0.0179  1.1281
  746TMC3    O111033   0.825   0.317  10.898 -0.7730  0.1881 -0.1645
  746TMC3    O211034   1.398   0.501  10.898  0.3808  0.4141  0.4353
  747TMC3    C111035   3.890   0.323  10.815  0.6590 -0.4256  0.9899
  747TMC3    C211036   3.757   0.324  10.836  0.1194 -0.2638 -0.5963
  747TMC3    C311037   3.706   0.446  10.873 -0.4325 -0.1079  0.0778
  747TMC3    C411038   3.966   0.443  10.813 -0.0894  0.3727  0.5561
  747TMC3    C511039   3.902   0.563  10.840 -0.9772  0.7286  0.0252
  747TMC3    C611040   3.771   0.561  10.883  0.0178 -0.1633  0.1460
  747TMC3     C11041   3.960   0.210  10.757 -0.0688  0.0804  0.1121
  747TMC3     O11042   4.083   0.203  10.763  0.6213  0.7567  0.1527
  747TMC3     H11043   3.713   0.225  10.844  3.1406 -1.6568 -0.8054
  747TMC3    H111044   4.073   0.430  10.803 -0.4941 -1.6359 -1.0020
  747TMC3    H211045   3.721   0.656  10.899  1.3845  0.4757  0.6217
  747TMC3    C711046   3.978   0.682  10.859  0.2361 -0.1321 -0.7471
  747TMC3    C811047   3.583   0.425  10.948 -0.2896 -0.2223  0.9860
  747TMC3    O111048   3.916   0.780  10.905  0.8538 -0.2751 -0.4316
  747TMC3    O211049   3.502   0.344  10.905  0.5382  0.1198 -0.1375
  748MPD2     C11050   0.546   2.181   1.060 -0.2442 -0.0013 -0.7124
  748MPD2    C111051   0.555   2.090   1.165  0.8423 -0.7619  0.4740
  748MPD2    C211052   0.681   2.059   1.210 -0.4687 -1.1122 -0.2163
  748MPD2    C311053   0.795   2.128   1.163 -0.3686 -0.0805 -0.7853
  748MPD2    C411054   0.783   2.219   1.059  0.1713 -0.1828  0.3245
  748MPD2    C511055   0.658   2.236   1.001  1.2877  0.3989  0.3645
  748MPD2     H11056   0.697   1.984   1.286 -1.8728 -0.6999  0.4899
  748MPD2    H111057   0.869   2.280   1.033  0.4070 -1.6478 -2.2834
  748MPD2    H211058   0.452   2.199   1.008 -0.6081  0.2562  0.0421
  748MPD2    H311059   0.641   2.308   0.922  0.4386  0.0428  0.2215
  748MPD2     N11060   0.923   2.089   1.219 -0.5125 -0.4485  0.6753
  748MPD2    H511061   0.929   2.023   1.297  0.2020 -1.3532 -0.1458
  748MPD2    N111062   0.437   2.026   1.210  0.5919  0.2336 -0.0611
  748MPD2    H711063   0.348   2.063   1.177  1.5700  1.8019 -0.9025
  749TMC3    C111064   1.153   2.062   1.244  0.1104 -0.1112 -0.3227
  749TMC3    C211065   1.143   1.928   1.264 -0.1468 -0.1900 -0.4192
  749TMC3    C311066   1.259   1.852   1.277 -0.6448 -0.1890  0.2452
  749TMC3    C411067   1.277   2.120   1.234  0.2636 -0.5502 -0.9206
  749TMC3    C511068   1.390   2.042   1.255  0.2396 -0.5319  0.4023
  749TMC3    C611069   1.384   1.907   1.272  0.1806 -0.4200 -0.1835
  749TMC3     C11070   1.049   2.133   1.183  0.2103 -0.2575  0.3750
  749TMC3     O11071   1.083   2.229   1.115 -0.2144 -0.0489 -0.5528
  749TMC3     H11072   1.049   1.884   1.233 -0.0047 -1.5682  1.0855
  749TMC3    H111073   1.288   2.226   1.210  1.5303 -0.2705  0.9058
  749TMC3    H211074   1.476   1.850   1.261  0.8837  0.5164  0.8031
  749TMC3    C711075   1.521   2.109   1.242  1.0199 -0.3691  0.2880
  749TMC3    C811076   1.248   1.709   1.275  0.5153  0.3776  0.1973
  749TMC3    O111077   1.510   2.232   1.225  0.4180  0.0268 -0.1241
  749TMC3    O211078   1.139   1.664   1.239  0.0137 -0.0862 -0.2939
  750MPD2     C11079   1.883   2.291  11.298 -0.3394 -0.7536 -0.1768
  750MPD2    C111080   1.771   2.236  11.347 -0.4683  0.1420  0.6873
  750MPD2    C211081   1.686   2.167  11.264 -1.2507  0.7687 -0.2911
  750MPD2    C311082   1.708   2.156  11.130  0.2058 -0.4429 -0.3152
  750MPD2    C411083   1.808   2.226  11.074 -0.1161  0.4769 -0.0231
  750MPD2    C511084   1.898   2.291  11.162  0.1382 -0.0984 -0.3651
  750MPD2     H11085   1.604   2.110  11.306  0.1267 -0.9669  0.1041
  750MPD2    H111086   1.829   2.221  10.968  0.3399 -2.3533  0.1998
  750MPD2    H211087   1.940   2.358  11.363  0.8722 -0.4744 -1.5267
  750MPD2    H311088   1.981   2.352  11.127 -0.8295  1.4747  0.0442
  750MPD2     N11089   1.620   2.091  11.043 -0.2756 -0.4349  0.2517
  750MPD2    H511090   1.642   2.104  10.945 -2.2766  0.7640 -0.0474
  750MPD2    N111091   1.736   2.264  11.476 -0.3333  0.0145  0.3655
  750MPD2    H711092   1.814   2.313  11.519 -1.0029  0.4603  1.0579
  751TMC3    C111093   1.438   1.970  10.951 -0.2611  0.0903 -0.4266
  751TMC3    C211094   1.303   1.936  10.963 -0.1904  0.7031  0.1551
  751TMC3    C311095   1.234   1.886  10.854 -0.5397 -0.9155  0.4180
  751TMC3    C411096   1.514   1.925  10.841 -0.0330  0.0620 -0.6348
  751TMC3    C511097   1.442   1.858  10.749 -0.0051 -0.5069  0.0893
  751TMC3    C611098   1.306   1.853  10.747 -0.6420  1.1181 -0.2337
  751TMC3     C11099   1.501   2.035  11.067 -0.7448 -0.3477 -0.2381
  751TMC3     O11100   1.429   2.053  11.168  0.1190 -1.0088 -0.0572
  751TMC3     H11101   1.249   1.958  11.055  0.4649 -0.0939  0.7357
  751TMC3    H111102   1.620   1.944  10.830  0.1680 -1.8729 -1.9691
  751TMC3    H211103   1.262   1.789  10.671  1.3093 -2.4467  1.6114
  751TMC3    C711104   1.512   1.794  10.635  0.4749  0.0233  0.1817
  751TMC3    C811105   1.114   1.806  10.877 -1.4408  0.0988 -1.0637
  751TMC3    O111106   1.452   1.780  10.527 -0.0174  0.1861  0.1975
  751TMC3    O211107   1.069   1.733  10.791 -0.4426 -0.0597 -0.3717
  752TMC3    C111108   0.531   1.940  16.683 -0.3595 -0.5678 -0.3960
  752TMC3    C211109   0.633   1.854  16.722  0.5891  0.0477  0.1852
  752TMC3    C311110   0.685   1.874  16.853 -0.3507  0.6767 -1.3750
  752TMC3    C411111   0.465   2.024  16.773 -0.3437  0.3092 -0.4872
  752TMC3    C511112   0.508   2.019  16.900  0.2951  0.0364  0.2189
  752TMC3    C611113   0.617   1.952  16.941  0.2463  0.6173 -0.4257
  752TMC3     C11114   0.508   1.944  16.536  0.0588 -0.2693 -0.4158
  752TMC3     O11115   0.581   1.877  16.468 -0.2742  0.0630 -0.1016
  752TMC3     H11116   0.660   1.771  16.657  0.8765  1.1986 -1.1509
  752TMC3    H111117   0.376   2.074  16.738  0.5413  2.5937  0.5371
  752TMC3    H211118   0.657   1.968  17.041 -1.2450 -2.4282  0.6435
  752TMC3    C711119   0.426   2.100  16.996 -0.3443 -0.4266  0.6211
  752TMC3    C811120   0.822   1.841  16.890  0.0647 -0.1980 -0.4104
  752TMC3    O111121   0.363   2.194  16.951  0.0622 -0.4156  0.4969
  752TMC3    O211122   0.863   1.876  16.998  0.3307 -0.8869 -0.3011
  753TMC3    C111123   2.157   3.196  13.077  0.2543 -0.1224 -1.0109
  753TMC3    C211124   2.223   3.187  13.196 -0.4788 -0.7824  0.0956
  753TMC3    C311125   2.246   3.061  13.249 -0.2433  0.5972 -0.0409
  753TMC3    C411126   2.099   3.087  13.018 -0.1638  0.6995  0.1553
  753TMC3    C511127   2.114   2.967  13.082 -0.4708 -0.6177 -0.1745
  753TMC3    C611128   2.200   2.951  13.188 -0.3514  0.4873 -0.2937
  753TMC3     C11129   2.106   3.314  13.019  0.1940  0.1478 -0.3816
  753TMC3     O11130   2.003   3.307  12.948  0.0316 -0.1395  0.2665
  753TMC3     H11131   2.256   3.273  13.253 -0.1128 -0.4833 -0.5757
  753TMC3    H111132   2.054   3.099  12.920 -3.4597 -1.8282  1.3774
  753TMC3    H211133   2.210   2.852  13.232 -1.0354  1.2316  1.4948
  753TMC3    C711134   2.019   2.859  13.040  0.1691  0.2312  0.2632
  753TMC3    C811135   2.278   3.048  13.391  0.2143 -0.1780  0.4047
  753TMC3    O111136   1.942   2.898  12.951  0.1777  0.1218  0.4980
  753TMC3    O211137   2.266   2.933  13.437  0.8249 -0.6296  0.3806
  754MPD2     C11138   0.982   2.084  13.030  0.2490 -0.2705 -0.2750
  754MPD2    C111139   0.902   2.024  13.118  0.6445 -0.4169  0.5943
  754MPD2    C211140   0.764   2.054  13.127 -0.1688 -1.2304 -0.3274
  754MPD2    C311141   0.701   2.136  13.030 -0.5540 -0.2434 -0.3848
  754MPD2    C411142   0.791   2.191  12.939  1.1624  0.1951  0.2684
  754MPD2    C511143   0.923   2.173  12.941  0.3204  0.3779 -0.1587
  754MPD2     H11144   0.708   2.007  13.206 -0.3446 -2.9600 -1.4847
  754MPD2    H111145   0.755   2.257  12.861  0.2014 -0.3644  0.2370
  754MPD2    H211146   1.089   2.072  13.025  0.4833  1.7614  0.0695
  754MPD2    H311147   0.984   2.223  12.867 -0.7498 -0.0555 -1.3267
  754MPD2     N11148   0.561   2.154  13.033 -0.7174  0.8768  0.1538
  754MPD2    H511149   0.518   2.200  12.954 -0.6910 -2.1238 -1.6389
  754MPD2    N111150   0.972   1.946  13.213 -0.0006 -0.8629  0.5882
  754MPD2    H711151   1.074   1.951  13.213 -0.0417  0.0693  2.5073
  755MPD2     C11152   4.429   2.580  12.708 -0.3511 -0.4272 -0.1052
  755MPD2    C111153   4.552   2.633  12.743 -0.1772  0.0117 -0.5243
  755MPD2    C211154   4.653   2.542  12.782  0.5408  0.1040  0.3628
  755MPD2    C311155   4.638   2.405  12.780  0.0755 -0.4146 -0.2480
  755MPD2    C411156   4.510   2.357  12.746 -0.4296  0.8217 -0.0727
  755MPD2    C511157   4.408   2.443  12.710  0.4226 -0.0091  0.4301
  755MPD2     H11158   0.019   2.581  12.825  0.1102  0.7331  0.7103
  755MPD2    H111159   4.480   2.253  12.749  1.2031  0.3295 -0.4131
  755MPD2    H211160   4.346   2.643  12.679  0.3156 -0.1638 -1.4301
  755MPD2    H311161   4.312   2.403  12.681  1.0525  0.3931 -2.2344
  755MPD2     N11162   0.008   2.309  12.810 -0.2724  0.3517  0.1259
  755MPD2    H511163   4.704   2.212  12.811  2.5845 -0.5065  1.3721
  755MPD2    N111164   4.573   2.768  12.762 -0.0586  0.2696  0.7389
  755MPD2    H711165   4.653   2.796  12.818  0.3135  0.7753 -0.0448
  756MPD2     C11166   1.073   2.970   9.464 -0.2687 -0.2773 -0.6607
  756MPD2    C111167   1.002   2.886   9.550  0.1013 -1.0678 -0.8493
  756MPD2    C211168   0.864   2.884   9.524 -0.2518 -0.2118  0.1616
  756MPD2    C311169   0.802   2.954   9.423  0.1325  0.0621  0.3346
  756MPD2    C411170   0.886   3.033   9.343  0.3533 -0.4076 -0.2732
  756MPD2    C511171   1.017   3.048   9.370  0.0026 -0.1972 -0.1422
  756MPD2     H11172   0.801   2.821   9.584 -0.5065 -0.8565 -0.7896
  756MPD2    H111173   0.841   3.083   9.259  0.5293  0.7969  0.3590
  756MPD2    H211174   1.179   2.983   9.478 -0.6404 -0.2665  2.0712
  756MPD2    H311175   1.081   3.115   9.313 -0.6463  0.8674  0.3759
  756MPD2     N11176   0.663   2.928   9.400  0.4529 -0.2067  0.7647
  756MPD2    H511177   0.611   2.871   9.466 -0.7038 -1.0896 -0.8995
  756MPD2    N111178   1.059   2.810   9.651  0.5365 -0.7735  0.6243
  756MPD2    H711179   0.998   2.751   9.707 -0.9825  0.8162  0.6463
  757MPD2     C11180   0.171   2.356   9.737  0.3913 -0.2607  0.3454
  757MPD2    C111181   0.301   2.395   9.734 -0.2955 -0.3543  0.2072
  757MPD2    C211182   0.324   2.525   9.682 -0.5535 -0.0236  0.1848
  757MPD2    C311183   0.229   2.615   9.641 -0.3346 -0.4039 -0.4238
  757MPD2    C411184   0.102   2.574   9.659  0.3554  0.1467  0.7838
  757MPD2    C511185   0.076   2.452   9.703 -0.4078 -0.2151  0.7710
  757MPD2     H11186   0.424   2.565   9.673 -0.0437 -2.0552 -2.9338
  757MPD2    H111187   0.016   2.634   9.630  0.6774  1.5834  2.8352
  757MPD2    H211188   0.134   2.262   9.775  1.3082 -0.8914 -0.3275
  757MPD2    H311189   4.699   2.419   9.698 -0.5840  0.5485 -0.8256
  757MPD2     N11190   0.267   2.733   9.573  0.1785 -0.0821  0.2481
  757MPD2    H511191   0.367   2.750   9.569  0.0302  0.3508 -1.5530
  757MPD2    N111192   0.404   2.301   9.773  1.0511 -0.1452  0.3123
  757MPD2    H711193   0.376   2.206   9.793 -2.0002  0.1839 -2.2816
  758MPD2     C11194   1.083   2.087  16.052 -0.0239 -0.0912  0.0887
  758MPD2    C111195   1.133   2.009  16.155  0.5537 -0.2516 -0.0582
  758MPD2    C211196   1.056   2.000  16.269  0.4822 -0.2938 -0.7474
  758MPD2    C311197   0.953   2.089  16.290 -0.6708 -0.1932  0.8194
  758MPD2    C411198   0.912   2.171  16.186  0.2382  0.3774  0.3993
  758MPD2    C511199   0.975   2.164  16.062 -0.1877  0.2242 -0.5812
  758MPD2     H11200   1.080   1.936  16.353 -1.5236  0.6529  0.5344
  758MPD2    H111201   0.832   2.244  16.194  1.2258  1.3018  1.7229
  758MPD2    H211202   1.128   2.088  15.954 -3.9833  0.8118 -1.6999
  758MPD2    H311203   0.945   2.226  15.978  0.0225  0.6804 -0.3166
  758MPD2     N11204   0.883   2.105  16.413  0.1516  1.0634 -0.5066
  758MPD2    H511205   0.863   2.202  16.433  1.9224  1.5354 -1.0535
  758MPD2    N111206   1.256   1.931  16.142  0.1344  0.2098  0.8037
  758MPD2    H711207   1.309   1.939  16.055 -1.5685  1.3780 -0.1397
  759MPD2     C11208   0.483   0.046   9.488  0.3896  0.0111 -0.4440
  759MPD2    C111209   0.357   0.087   9.459  0.1255  0.8110  0.4006
  759MPD2    C211210   0.347   0.209   9.389  0.3048  0.3758  0.5459
  759MPD2    C311211   0.456   0.292   9.361 -0.2842  0.0994  0.5092
  759MPD2    C411212   0.580   0.249   9.395  0.3797 -0.1738 -0.2545
  759MPD2    C511213   0.589   0.127   9.456  0.2776  0.4514  0.0026
  759MPD2     H11214   0.250   0.239   9.352 -0.5899  0.2688  2.8261
  759MPD2    H111215   0.669   0.308   9.380 -0.5265  0.8301 -1.7286
  759MPD2    H211216   0.511   4.684   9.546  0.9890 -0.5466 -1.5799
  759MPD2    H311217   0.686   0.099   9.494 -0.4581 -0.9312  0.8693
  759MPD2     N11218   0.429   0.424   9.319 -0.2955  0.4762 -0.4388
  759MPD2    H511219   0.330   0.437   9.300 -0.7235 -1.4510  0.4384
  759MPD2    N111220   0.242   0.018   9.487 -0.3684 -0.5396  0.4426
  759MPD2    H711221   0.161   0.067   9.450 -0.8417 -1.6125  0.0342
  760MPD2     C11222   4.360   2.422  11.938 -0.2898 -0.1323 -0.3431
  760MPD2    C111223   4.415   2.460  11.824 -0.2658 -0.4451 -0.0155
  760MPD2    C211224   4.471   2.356  11.749 -0.3618 -0.3849 -0.0629
  760MPD2    C311225   4.467   2.223  11.791  0.0625  0.0786  0.2260
  760MPD2    C411226   4.409   2.187  11.908  0.5925  0.1682  0.0848
  760MPD2    C511227   4.357   2.294  11.985 -0.5826 -0.2515  0.5813
  760MPD2     H11228   4.515   2.388  11.655  0.3995  1.6250  0.9863
  760MPD2    H111229   4.394   2.085  11.940 -0.4836 -0.6206 -2.9413
  760MPD2    H211230   4.311   2.495  12.002  0.5831  0.0601  0.1093
  760MPD2    H311231   4.313   2.273  12.082 -1.3730  1.5628  0.6051
  760MPD2     N11232   4.528   2.115  11.713 -0.2502 -0.6644 -0.2719
  760MPD2    H511233   4.523   2.024  11.757  0.8829  0.7858  2.8609
  760MPD2    N111234   4.416   2.589  11.775 -0.0350  0.2268 -0.3360
  760MPD2    H711235   4.450   2.601  11.680  0.4960 -0.5163 -0.2357
  761MPD2     C11236   0.685   1.712  11.141 -0.1309  0.2938 -0.2770
  761MPD2    C111237   0.738   1.651  11.031  0.0132 -0.0404  0.0159
  761MPD2    C211238   0.860   1.696  10.976 -0.6639 -0.8456  0.3047
  761MPD2    C311239   0.920   1.806  11.035 -0.5669  0.0294  0.1734
  761MPD2    C411240   0.872   1.857  11.150  0.2878  0.5714  0.1344
  761MPD2    C511241   0.750   1.811  11.202 -0.4957  1.4266  0.2215
  761MPD2     H11242   0.897   1.634  10.895  0.3319  1.0525 -0.7012
  761MPD2    H111243   0.928   1.934  11.201  0.6478  0.9849 -0.8737
  761MPD2    H211244   0.590   1.687  11.187 -0.2225  1.2423  0.0548
  761MPD2    H311245   0.698   1.848  11.289 -0.6449  0.8397  0.3840
  761MPD2     N11246   1.042   1.856  10.989 -0.1622 -0.1388 -0.5370
  761MPD2    H511247   1.074   1.944  11.029 -0.5264 -1.5165  2.7953
  761MPD2    N111248   0.666   1.536  10.985 -0.0598 -0.5603 -0.8038
  761MPD2    H711249   0.601   1.484  11.044 -0.4265  0.0561 -0.6643
  762MPD2     C11250   0.297   0.855  10.492 -0.8193  0.2247  0.0179
  762MPD2    C111251   0.389   0.949  10.472 -1.0319  0.7938 -0.0177
  762MPD2    C211252   0.487   0.934  10.385  0.5919  0.8767 -0.4714
  762MPD2    C311253   0.505   0.821  10.309 -0.1040  0.2242  0.0836
  762MPD2    C411254   0.407   0.721  10.330  0.6398  0.1990  0.1011
  762MPD2    C511255   0.306   0.739  10.425  0.1936 -0.2167 -0.6835
  762MPD2     H11256   0.566   1.009  10.380  0.2442  1.2403 -0.5202
  762MPD2    H111257   0.413   0.620  10.290  3.0377  1.3110 -2.3464
  762MPD2    H211258   0.223   0.856  10.572 -0.2781  0.3445  0.5188
  762MPD2    H311259   0.247   0.651  10.447 -0.1016 -0.2097 -1.4495
  762MPD2     N11260   0.623   0.790  10.237 -0.1362  0.6359 -0.0902
  762MPD2    H511261   0.702   0.849  10.261  1.0456 -1.1655  0.4543
  762MPD2    N111262   0.385   1.057  10.562  0.3977 -0.5490  0.0516
  762MPD2    H711263   0.317   1.043  10.636 -0.4257  0.2591 -0.5536
  763MPD2     C11264   3.319   1.799  15.961 -0.1017  0.4328  0.5388
  763MPD2    C111265   3.224   1.891  15.936  0.8816 -0.5481 -0.0069
  763MPD2    C211266   3.239   2.017  15.984 -0.1421 -0.4593  0.6083
  763MPD2    C311267   3.349   2.049  16.062 -0.6846 -1.1834  0.2983
  763MPD2    C411268   3.446   1.953  16.085 -0.4321 -0.5799  0.0682
  763MPD2    C511269   3.419   1.826  16.041  0.5925 -0.2411 -0.5432
  763MPD2     H11270   3.169   2.098  15.968  0.0637 -0.0984  1.5089
  763MPD2    H111271   3.533   1.973  16.146 -0.7210  0.8176  0.0285
  763MPD2    H211272   3.303   1.701  15.918 -1.9621  1.6071 -1.4193
  763MPD2    H311273   3.498   1.754  16.061 -0.7632 -1.5414  0.1328
  763MPD2     N11274   3.375   2.183  16.118 -0.6742 -0.1222 -1.3786
  763MPD2    H511275   3.462   2.197  16.168 -1.6117 -1.2716  0.5807
  763MPD2    N111276   3.119   1.851  15.855  0.3728 -0.6137 -0.2613
  763MPD2    H711277   3.072   1.923  15.802  0.5615  0.3369  0.8645
  764MPD2     C11278   1.582   3.578  17.077 -0.0207  0.3108 -0.3693
  764MPD2    C111279   1.457   3.536  17.049 -0.6420  0.4502 -0.4405
  764MPD2    C211280   1.401   3.454  17.146 -0.1630 -0.0035  0.5858
  764MPD2    C311281   1.471   3.397  17.253 -0.1729  0.1647  0.3835
  764MPD2    C411282   1.605   3.427  17.262  0.1418 -0.4463 -0.5918
  764MPD2    C511283   1.659   3.518  17.182 -0.0885 -0.1413 -0.0035
  764MPD2     H11284   1.295   3.433  17.134 -0.3576  1.2937  0.0921
  764MPD2    H111285   1.669   3.383  17.338 -0.4925  1.0074  0.7866
  764MPD2    H211286   1.636   3.644  17.010  0.1532  1.6906  1.1385
  764MPD2    H311287   1.764   3.541  17.199 -0.4521  0.3642  1.4960
  764MPD2     N11288   1.408   3.300  17.341 -0.0090  0.2099  0.5323
  764MPD2    H511289   1.313   3.272  17.321 -1.3462  1.6873  4.7723
  764MPD2    N111290   1.382   3.584  16.939 -0.5289  0.0709  0.2438
  764MPD2    H711291   1.289   3.542  16.934 -0.5467  0.1500 -0.0597
  765MPD2     C11292   0.268   1.021  16.133 -0.6674 -1.0334  1.1401
  765MPD2    C111293   0.373   1.103  16.099  0.4113 -0.6569 -0.4742
  765MPD2    C211294   0.490   1.031  16.074  0.5732  0.1437 -0.0883
  765MPD2    C311295   0.509   0.898  16.111 -0.4799 -0.3436  0.0228
  765MPD2    C411296   0.401   0.829  16.160 -0.5724 -0.1279  0.6114
  765MPD2    C511297   0.279   0.885  16.166  0.6613 -1.0128 -0.1014
  765MPD2     H11298   0.579   1.071  16.027  0.0597  1.0774 -0.2722
  765MPD2    H111299   0.419   0.723  16.174  0.4079  0.1465  1.5042
  765MPD2    H211300   0.170   1.061  16.158 -0.4264 -0.0721  0.5482
  765MPD2    H311301   0.190   0.827  16.188  0.4531 -1.2976 -1.7334
  765MPD2     N11302   0.637   0.846  16.083 -0.0656 -0.1618  0.1310
  765MPD2    H511303   0.713   0.905  16.050  0.1812  0.4829  1.8685
  765MPD2    N111304   0.348   1.233  16.054 -0.7288 -0.1944 -0.0918
  765MPD2    H711305   0.255   1.272  16.069  1.0554  2.9072  2.6999
  766MPD2     C11306   0.094   1.207  15.404 -0.1866 -0.5497 -1.1316
  766MPD2    C111307   0.191   1.310  15.401 -0.2346  0.3352 -0.3657
  766MPD2    C211308   0.258   1.332  15.287 -0.1564 -0.0640 -0.2936
  766MPD2    C311309   0.244   1.257  15.168 -0.1332 -0.5483 -0.5211
  766MPD2    C411310   0.152   1.154  15.173 -0.0389 -0.0011 -0.1156
  766MPD2    C511311   0.078   1.138  15.290 -0.1536  0.1483 -0.3074
  766MPD2     H11312   0.338   1.405  15.293  0.2989 -0.8025  2.7867
  766MPD2    H111313   0.149   1.090  15.085 -1.7515  0.2997 -0.2826
  766MPD2    H211314   0.032   1.185  15.490  1.1060  1.4471  0.3139
  766MPD2    H311315   4.723   1.065  15.290  1.1656 -1.3194 -0.6398
  766MPD2     N11316   0.312   1.273  15.046 -0.3082  0.0168  0.3490
  766MPD2    H511317   0.290   1.210  14.969 -3.7246  2.1666 -0.4671
  766MPD2    N111318   0.221   1.399  15.507  0.6855  0.4291  0.0974
  766MPD2    H711319   0.303   1.459  15.497  1.4603 -0.4523  1.1447
  767MPD2     C11320   4.575   1.566  15.068  0.3550  0.7325  0.4324
  767MPD2    C111321   4.699   1.587  15.007 -0.4568  0.5647 -0.1554
  767MPD2    C211322   0.001   1.532  14.883 -0.2710  0.4592 -0.3659
  767MPD2    C311323   4.631   1.465  14.814 -0.0072 -0.3644  0.0180
  767MPD2    C411324   4.504   1.461  14.868 -0.0696  0.5200  0.5033
  767MPD2    C511325   4.481   1.502  14.995  0.5249 -0.3380  0.6468
  767MPD2     H11326   0.104   1.533  14.850 -0.5778  2.2943 -1.2663
  767MPD2    H111327   4.417   1.429  14.812  0.4554 -0.1789  0.0913
  767MPD2    H211328   4.550   1.601  15.168  1.1783  1.2746  0.4482
  767MPD2    H311329   4.388   1.480  15.047  0.7111  0.8826  1.4915
  767MPD2     N11330   4.674   1.418  14.691 -0.3907 -0.3680 -0.4534
  767MPD2    H511331   0.036   1.458  14.658  0.9989 -1.3124  2.0948
  767MPD2    N111332   0.075   1.651  15.080  0.5838 -0.5963  0.1637
  767MPD2    H711333   0.059   1.655  15.180 -0.0927 -0.0026  0.0291
  768MPD2     C11334   0.771   4.349  10.610 -0.1343  0.3716 -0.3788
  768MPD2    C111335   0.748   4.480  10.653  0.1664  0.2480  0.7228
  768MPD2    C211336   0.829   4.539  10.746 -0.8495  0.1343  0.4546
  768MPD2    C311337   0.943   4.476  10.792  0.0904 -0.2304  0.2709
  768MPD2    C411338   0.970   4.346  10.749  0.2603 -0.8605 -0.7126
  768MPD2    C511339   0.871   4.284  10.670 -0.6631 -0.1478  0.0523
  768MPD2     H11340   0.823   4.644  10.772  0.1369  0.1651  0.5868
  768MPD2    H111341   1.051   4.289  10.793  0.0716  0.9196  1.9580
  768MPD2    H211342   0.712   4.295  10.537 -2.2608  2.1140  0.0578
  768MPD2    H311343   0.894   4.182  10.640 -1.2832 -0.7701  1.6706
  768MPD2     N11344   1.028   4.537  10.890 -0.0735  0.2692 -0.1837
  768MPD2    H511345   1.113   4.485  10.913  0.9282  2.4574  1.0788
  768MPD2    N111346   0.634   4.561  10.616  0.1210 -0.4879  0.1423
  768MPD2    H711347   0.639   4.658  10.646  1.4998 -0.0794 -1.4126
  769MPD2     C11348   2.150   2.835  14.632 -0.1038 -0.5589 -0.4215
  769MPD2    C111349   2.065   2.805  14.738 -0.1967 -0.0514 -0.5010
  769MPD2    C211350   2.134   2.802  14.860 -0.8172  0.3263  0.0094
  769MPD2    C311351   2.269   2.829  14.881 -0.4530 -0.3548  0.2299
  769MPD2    C411352   2.341   2.870  14.773  0.0062  0.1244 -0.2120
  769MPD2    C511353   2.284   2.864  14.648 -0.5386 -0.4244 -0.3426
  769MPD2     H11354   2.083   2.771  14.951  0.7364 -2.4563 -0.0725
  769MPD2    H111355   2.447   2.895  14.776 -0.3768  1.4758  1.9002
  769MPD2    H211356   2.121   2.842  14.528  0.3530 -0.4835 -0.5467
  769MPD2    H311357   2.344   2.899  14.564  2.0645  0.7600  2.0350
  769MPD2     N11358   2.319   2.822  15.011 -0.0716 -0.9683  0.3320
  769MPD2    H511359   2.258   2.786  15.085 -0.3052 -0.2679  0.4796
  769MPD2    N111360   1.934   2.753  14.720  0.7472  0.3760 -0.1133
  769MPD2    H711361   1.901   2.747  14.624 -0.9380  2.2146  0.3287
  770MPD2     C11362   1.213   2.162  15.226  0.1575 -0.7473  0.9407
  770MPD2    C111363   1.292   2.109  15.133 -0.6485  0.2082 -0.7556
  770MPD2    C211364   1.373   2.191  15.056 -0.5273  0.4211  0.0602
  770MPD2    C311365   1.351   2.332  15.058  0.0258 -0.2842  0.4906
  770MPD2    C411366   1.269   2.384  15.151 -0.6559  0.5914  0.3743
  770MPD2    C511367   1.208   2.297  15.241 -0.2027  0.0325  0.3600
  770MPD2     H11368   1.453   2.153  14.993  0.7144  2.6426  0.2620
  770MPD2    H111369   1.243   2.488  15.157  0.6776  0.9929 -0.7455
  770MPD2    H211370   1.144   2.100  15.281 -0.7268 -0.0664  0.5950
  770MPD2    H311371   1.148   2.341  15.320  1.8803  0.3317  1.7745
  770MPD2     N11372   1.416   2.413  14.959 -0.0454  0.8598  0.2202
  770MPD2    H511373   1.473   2.372  14.886 -0.2361  0.5089  0.2703
  770MPD2    N111374   1.308   1.966  15.129 -0.1999  0.3426 -0.2799
  770MPD2    H711375   1.241   1.922  15.191 -1.0156  0.9626 -0.7247
  771MPD2     C11376   2.819   0.384  13.542  0.2703  0.1437 -0.0960
  771MPD2    C111377   2.769   0.504  13.493  0.4367 -0.0358  0.2611
  771MPD2    C211378   2.646   0.512  13.432  0.2887  1.3782 -0.5406
  771MPD2    C311379   2.563   0.399  13.419  0.2099  0.0621 -0.0528
  771MPD2    C411380   2.614   0.282  13.458  0.6142  0.1943 -0.0736
  771MPD2    C511381   2.739   0.277  13.515  0.4550  0.8654 -0.4286
  771MPD2     H11382   2.614   0.614  13.413  0.8034  1.3462 -1.5577
  771MPD2    H111383   2.560   0.188  13.453 -1.6225  1.5205 -0.7574
  771MPD2    H211384   2.914   0.380  13.594  0.6355  0.0730 -0.7648
  771MPD2    H311385   2.770   0.183  13.560  1.3622  0.7494 -1.2797
  771MPD2     N11386   2.433   0.420  13.372 -0.0583 -0.5059 -0.0705
  771MPD2    H511387   2.410   0.516  13.346  0.2871 -0.7394 -1.2477
  771MPD2    N111388   2.831   0.630  13.519  0.7229  0.4744 -0.0150
  771MPD2    H711389   2.778   0.712  13.490 -1.6821 -1.4964 -1.1872
  772MPD2     C11390   2.583   1.291  13.660 -0.3218 -0.3253  0.4821
  772MPD2    C111391   2.577   1.156  13.617  0.4334 -0.0252  0.4876
  772MPD2    C211392   2.455   1.098  13.590  0.8430 -0.0590  0.0111
  772MPD2    C311393   2.333   1.165  13.606 -0.3522 -0.1974  0.2288
  772MPD2    C411394   2.344   1.301  13.647 -0.1185  0.5012 -0.5727
  772MPD2    C511395   2.465   1.360  13.668 -0.2030 -0.2688 -0.3218
  772MPD2     H11396   2.454   1.002  13.540  0.8891  0.0638 -0.2262
  772MPD2    H111397   2.252   1.354  13.670  0.6564  1.1790  0.9712
  772MPD2    H211398   2.673   1.339  13.697  2.2196 -4.1263 -0.8740
  772MPD2    H311399   2.468   1.460  13.710 -1.9698  0.0573 -0.9571
  772MPD2     N11400   2.200   1.115  13.587 -0.1567 -0.1342  0.0684
  772MPD2    H511401   2.124   1.183  13.587 -1.2318 -1.3381  0.6272
  772MPD2    N111402   2.690   1.076  13.618 -0.1706  0.0981  0.3063
  772MPD2    H711403   2.681   0.978  13.593  0.8338 -0.0198  0.3939
  773MPD2     C11404   2.144   2.470   0.482 -0.2910  0.0252  0.5834
  773MPD2    C111405   2.112   2.361   0.410 -0.5987 -0.0440  0.0604
  773MPD2    C211406   2.154   2.239   0.459 -0.1049  0.1504 -0.2707
  773MPD2    C311407   2.233   2.224   0.571  0.0210 -0.3408 -0.1987
  773MPD2    C411408   2.262   2.338   0.648  0.2375 -0.6075 -0.2211
  773MPD2    C511409   2.221   2.455   0.595  0.2684  0.8821 -0.1090
  773MPD2     H11410   2.125   2.144   0.416 -0.7163 -0.6628  1.9493
  773MPD2    H111411   2.318   2.340   0.741 -0.3642 -3.0567  0.1909
  773MPD2    H211412   2.107   2.570   0.459  3.1032  1.2181  0.2375
  773MPD2    H311413   2.251   2.542   0.652  1.1951  1.2578 -1.1533
  773MPD2     N11414   2.287   2.101   0.615 -0.8484  0.7950  0.0668
  773MPD2    H511415   2.254   2.015   0.572 -3.7143  1.3840  1.1361
  773MPD2    N111416   2.023   2.368   0.297  0.1275 -0.0316  0.1602
  773MPD2    H711417   1.999   2.281   0.251 -3.0780  1.3874 -0.8300
  774MPD2     C11418   0.535   1.228  13.686 -0.2592  1.1996  0.1700
  774MPD2    C111419   0.662   1.181  13.645  0.0825 -0.1977  0.1170
  774MPD2    C211420   0.757   1.270  13.606 -0.2868 -0.3397 -0.7293
  774MPD2    C311421   0.737   1.407  13.619  0.2337  0.5172 -0.0979
  774MPD2    C411422   0.616   1.447  13.669  1.0003  0.5207 -0.2037
  774MPD2    C511423   0.511   1.360  13.680 -0.0055 -0.9932  0.1696
  774MPD2     H11424   0.848   1.227  13.564  0.4853 -0.0508  0.6663
  774MPD2    H111425   0.592   1.553  13.676 -0.7452  0.1854 -1.0349
  774MPD2    H211426   0.453   1.163  13.713 -0.8592  1.5354 -0.8344
  774MPD2    H311427   0.408   1.385  13.703  0.2620 -0.1843  0.4613
  774MPD2     N11428   0.847   1.489  13.590 -0.6425 -0.1249  0.3982
  774MPD2    H511429   0.931   1.457  13.541 -0.9887  1.9409 -1.5338
  774MPD2    N111430   0.677   1.044  13.639  0.5857 -0.1865  0.3325
  774MPD2    H711431   0.613   0.992  13.698 -0.9503  2.2819  0.8474
  775MPD2     C11432   2.570   2.464  15.838 -0.1313  0.3402 -0.5300
  775MPD2    C111433   2.544   2.598  15.846  0.4744  0.5047  0.1154
  775MPD2    C211434   2.634   2.690  15.800 -0.1412  0.3131  0.8210
  775MPD2    C311435   2.738   2.644  15.715 -1.3350 -0.1968 -0.3155
  775MPD2    C411436   2.752   2.507  15.692 -0.1827  0.1015 -0.1828
  775MPD2    C511437   2.670   2.417  15.756 -0.5292  0.0011  0.4051
  775MPD2     H11438   2.620   2.788  15.844 -1.5992  0.2052  0.5870
  775MPD2    H111439   2.829   2.465  15.629 -0.5438 -0.7146 -0.0911
  775MPD2    H211440   2.498   2.392  15.874 -0.7268  1.6751  0.9469
  775MPD2    H311441   2.684   2.313  15.729  0.3437 -0.1432  1.3866
  775MPD2     N11442   2.835   2.729  15.653  0.1269  0.2023 -0.4308
  775MPD2    H511443   2.889   2.697  15.573  0.2387 -0.1433 -0.2134
  775MPD2    N111444   2.420   2.643  15.899 -0.2472  0.2351  0.0817
  775MPD2    H711445   2.365   2.565  15.932 -1.1393 -0.1779 -2.4080
  776MPD2     C11446   2.097   2.696  11.739 -0.0784  0.4169  0.2435
  776MPD2    C111447   1.972   2.733  11.764 -0.0627  0.0439  0.5182
  776MPD2    C211448   1.927   2.865  11.755  0.0685 -1.2117  0.0779
  776MPD2    C311449   2.023   2.965  11.723  0.3403 -0.0868 -0.1326
  776MPD2    C411450   2.159   2.924  11.716 -0.0111  0.1178  0.0081
  776MPD2    C511451   2.191   2.792  11.729 -0.7220 -0.3462  0.4010
  776MPD2     H11452   1.821   2.882  11.770  0.5472  1.3945  0.5149
  776MPD2    H111453   2.242   2.992  11.696 -1.0607  0.7701 -2.0777
  776MPD2    H211454   2.119   2.590  11.745 -0.0586  0.3452 -1.0029
  776MPD2    H311455   2.295   2.762  11.722  0.2248  3.3661 -1.1847
  776MPD2     N11456   1.995   3.100  11.705  0.4478  0.3170 -0.2490
  776MPD2    H511457   2.069   3.168  11.688  2.1026 -1.3292  0.2850
  776MPD2    N111458   1.882   2.626  11.791  0.0811  0.1604 -0.3601
  776MPD2    H711459   1.910   2.532  11.767 -0.3551 -0.3571  1.2127
  777MPD2     C11460   2.466   0.977   1.109 -0.0367 -0.3763 -0.0903
  777MPD2    C111461   2.330   0.953   1.128  0.6515 -0.0051  0.4928
  777MPD2    C211462   2.285   0.857   1.045  0.1284  0.2661  0.7018
  777MPD2    C311463   2.368   0.786   0.953  0.1852 -0.1941 -0.1612
  777MPD2    C411464   2.500   0.814   0.942  0.3844  0.1251 -0.1555
  777MPD2    C511465   2.547   0.908   1.025  0.2740 -0.9358 -0.3762
  777MPD2     H11466   2.182   0.825   1.054 -0.3513  1.1968 -1.4843
  777MPD2    H111467   2.571   0.759   0.881 -0.3389 -2.0929  1.0175
  777MPD2    H211468   2.512   1.047   1.178 -0.5730  0.9949 -1.1266
  777MPD2    H311469   2.653   0.930   1.028  0.3219 -1.4314  2.1068
  777MPD2     N11470   2.299   0.682   0.879 -0.2344  0.0328  0.6720
  777MPD2    H511471   2.205   0.659   0.909 -1.2942  1.3549 -1.6274
  777MPD2    N111472   2.245   1.017   1.223  0.1503 -0.0070  0.3320
  777MPD2    H711473   2.286   1.089   1.281  1.8161 -0.7709  0.1205
  778MPD2     C11474   2.718   0.885  14.940 -0.2381 -0.5417 -0.4148
  778MPD2    C111475   2.739   0.790  14.846 -0.1603 -0.6817 -0.2937
  778MPD2    C211476   2.794   0.831  14.721  0.5899 -0.0556 -0.6354
  778MPD2    C311477   2.820   0.966  14.696  0.4295  0.7214  0.1470
  778MPD2    C411478   2.808   1.054  14.798  0.3700 -0.3832  0.5886
  778MPD2    C511479   2.755   1.014  14.916 -0.1273  0.2743  0.4565
  778MPD2     H11480   2.812   0.759  14.642  2.3857 -0.7455  0.3863
  778MPD2    H111481   2.827   1.159  14.779  0.5627 -0.2486  1.5369
  778MPD2    H211482   2.684   0.859  15.040 -0.7787 -0.1742 -0.5030
  778MPD2    H311483   2.742   1.074  15.005  3.2372  0.3894  0.8541
  778MPD2     N11484   2.864   0.998  14.567  0.3447  0.1330 -0.1489
  778MPD2    H511485   2.863   0.924  14.498 -1.5309  1.9580 -2.1024
  778MPD2    N111486   2.695   0.652  14.857  0.1102 -0.0927 -0.1439
  778MPD2    H711487   2.705   0.607  14.766 -0.4903 -0.0873 -0.2123
  779MPD2     C11488   2.417   4.037  13.738  0.1346  0.7070  0.4826
  779MPD2    C111489   2.530   4.036  13.816 -0.4468  0.1276 -0.3411
  779MPD2    C211490   2.570   4.161  13.868  0.3375  0.6717 -0.8767
  779MPD2    C311491   2.506   4.282  13.820  0.3419  0.4496 -0.5314
  779MPD2    C411492   2.404   4.276  13.727 -0.4858 -0.2777 -0.4515
  779MPD2    C511493   2.359   4.152  13.695  0.6940 -0.3324 -0.1202
  779MPD2     H11494   2.648   4.171  13.942 -1.3772 -0.6601  1.1259
  779MPD2    H111495   2.366   4.351  13.658 -0.2026 -0.5405 -0.8954
  779MPD2    H211496   2.378   3.943  13.700 -2.0751  1.8206  0.0144
  779MPD2    H311497   2.293   4.142  13.609  0.4301  1.8958 -0.1676
  779MPD2     N11498   2.561   4.409  13.870 -0.3475  0.3227 -0.1007
  779MPD2    H511499   2.644   4.408  13.928 -1.4809 -1.3988  1.5261
  779MPD2    N111500   2.592   3.910  13.839  0.5867 -0.4357  0.2258
  779MPD2    H711501   2.555   3.829  13.792  0.9782  0.4092 -1.5362
  780MPD2     C11502   2.245   4.450   0.961 -0.1223  0.1903 -0.2504
  780MPD2    C111503   2.381   4.427   0.939  0.2648 -0.1264 -0.5014
  780MPD2    C211504   2.438   4.457   0.815 -0.7094  0.1030 -0.5458
  780MPD2    C311505   2.361   4.485   0.702  0.5422 -0.0858 -0.6131
  780MPD2    C411506   2.226   4.497   0.726 -0.2536 -0.3623 -0.2189
  780MPD2    C511507   2.173   4.490   0.851 -0.3356 -0.4676  0.1251
  780MPD2     H11508   2.537   4.416   0.802 -1.0416 -1.3085  1.3865
  780MPD2    H111509   2.160   4.527   0.647  0.7742  1.5836 -0.3322
  780MPD2    H211510   2.195   4.449   1.056  0.7811  1.0133  0.2347
  780MPD2    H311511   2.067   4.513   0.863 -0.3069  0.3251 -1.1401
  780MPD2     N11512   2.421   4.498   0.573 -0.1453  0.0716 -0.2914
  780MPD2    H511513   2.522   4.503   0.563 -0.0716 -0.8042 -0.0038
  780MPD2    N111514   2.452   4.391   1.055 -0.1403 -0.0055 -0.8272
  780MPD2    H711515   2.406   4.417   1.141 -0.9540 -2.4674 -0.5230
  781MPD2     C11516   3.879   1.202  11.680  0.2986 -0.0387  0.4766
  781MPD2    C111517   3.999   1.170  11.738 -0.6181  0.2213 -0.4183
  781MPD2    C211518   4.121   1.178  11.660 -0.1001 -1.0427  0.2766
  781MPD2    C311519   4.114   1.228  11.526  0.0466 -0.7039 -0.1476
  781MPD2    C411520   3.992   1.283  11.482  0.4315  0.3879  0.0590
  781MPD2    C511521   3.881   1.253  11.555  0.6512  0.8170  0.6139
  781MPD2     H11522   4.214   1.154  11.710  0.5214  0.6189 -0.0716
  781MPD2    H111523   3.986   1.323  11.382  1.0563  1.0634  0.2933
  781MPD2    H211524   3.788   1.210  11.738  1.2284  0.8031  1.8222
  781MPD2    H311525   3.789   1.300  11.523  0.4997 -0.2639 -0.5024
  781MPD2     N11526   4.224   1.238  11.440 -0.1076  0.5717  0.5787
  781MPD2    H511527   4.199   1.270  11.347 -2.3243  0.7047  1.2351
  781MPD2    N111528   4.001   1.139  11.872  0.0843 -0.3371  0.2342
  781MPD2    H711529   4.090   1.161  11.916  0.2871 -0.8206  0.0698
  782MPD2     C11530   1.756   2.175  10.109  0.2984  0.6424 -0.0580
  782MPD2    C111531   1.879   2.109  10.107  0.1737  0.3660  0.5294
  782MPD2    C211532   1.977   2.148  10.196  0.1333  0.2387  0.3905
  782MPD2    C311533   1.956   2.241  10.291 -0.0911 -0.2324 -0.6784
  782MPD2    C411534   1.838   2.308  10.298 -0.3233  0.0519  0.4579
  782MPD2    C511535   1.742   2.273  10.207 -0.5518 -0.2122  0.2065
  782MPD2     H11536   2.074   2.099  10.201 -1.0854 -2.0431  1.7192
  782MPD2    H111537   1.810   2.382  10.372  0.7164  0.2360  0.6729
  782MPD2    H211538   1.675   2.161  10.039  0.2036  0.6751  0.0439
  782MPD2    H311539   1.652   2.332  10.210 -0.2590  0.2457 -0.1833
  782MPD2     N11540   2.065   2.260  10.386  0.0443  0.6161  0.6381
  782MPD2    H511541   2.149   2.207  10.368 -1.3924 -1.8965  1.2802
  782MPD2    N111542   1.915   2.011  10.011  0.2920 -0.0397  0.0288
  782MPD2    H711543   2.007   1.969  10.009  0.0151 -0.5264 -1.9090
  783MPD2     C11544   1.842   1.630  10.647  0.0920  0.7832  0.1496
  783MPD2    C111545   1.748   1.710  10.590  0.5345 -0.1060 -0.1689
  783MPD2    C211546   1.751   1.720  10.452  0.3807 -0.0794  0.3244
  783MPD2    C311547   1.840   1.649  10.368 -0.1826 -0.2593 -0.5140
  783MPD2    C411548   1.939   1.576  10.434 -0.2062  0.1691  0.1976
  783MPD2    C511549   1.943   1.583  10.573 -0.1718  0.1378 -0.1292
  783MPD2     H11550   1.677   1.781  10.400  1.0871  0.4418 -0.0630
  783MPD2    H111551   2.029   1.536  10.389  0.2659 -1.6251  2.7146
  783MPD2    H211552   1.851   1.627  10.755  0.7599  0.7816  0.0959
  783MPD2    H311553   2.032   1.533  10.610  0.1842  0.8094 -0.0697
  783MPD2     N11554   1.835   1.677  10.228  0.1385  0.0599 -0.2912
  783MPD2    H511555   1.761   1.741  10.199 -0.7453 -0.7185  0.2413
  783MPD2    N111556   1.641   1.752  10.674  0.0874 -0.3935 -0.4565
  783MPD2    H711557   1.653   1.745  10.774  0.2787 -1.2429 -0.5327
  784MPD2     C11558   3.826   2.231   1.061 -0.0317 -0.3989  0.4102
  784MPD2    C111559   3.938   2.296   1.005 -0.3039  0.4326 -0.5345
  784MPD2    C211560   3.913   2.382   0.897  0.1743 -0.1583  0.5578
  784MPD2    C311561   3.787   2.397   0.849 -1.0322 -0.3579  0.6764
  784MPD2    C411562   3.679   2.329   0.901  0.1327  0.4782  0.4522
  784MPD2    C511563   3.704   2.258   1.012  0.4911 -0.5133  0.3023
  784MPD2     H11564   3.996   2.431   0.846  0.3677 -0.2400  0.7977
  784MPD2    H111565   3.576   2.330   0.867  0.2853  0.8296  0.0022
  784MPD2    H211566   3.836   2.150   1.133 -2.0707 -1.5172 -0.5857
  784MPD2    H311567   3.618   2.198   1.041 -0.3437  0.3805 -0.2839
  784MPD2     N11568   3.780   2.480   0.735  0.2313 -0.4373 -0.5505
  784MPD2    H511569   3.869   2.520   0.706 -0.0309  2.6339  2.8669
  784MPD2    N111570   4.068   2.281   1.058  0.0452 -0.1781 -0.6267
  784MPD2    H711571   4.135   2.336   1.005  0.6450 -1.4410 -1.1698
  785MPD2     C11572   3.854   0.735  10.464  0.3605  0.4895 -0.8203
  785MPD2    C111573   3.821   0.864  10.512  0.5185  0.4258 -0.3934
  785MPD2    C211574   3.699   0.918  10.468  0.6343 -0.0157 -0.0121
  785MPD2    C311575   3.617   0.865  10.375 -0.1379  0.1445 -0.2074
  785MPD2    C411576   3.664   0.748  10.316  0.9982 -0.6114 -0.6721
  785MPD2    C511577   3.773   0.675  10.370 -0.4866  0.1440  0.2829
  785MPD2     H11578   3.686   1.023  10.494  2.2558 -0.0990  1.2085
  785MPD2    H111579   3.613   0.702  10.232 -0.3915 -1.1294  0.4458
  785MPD2    H211580   3.937   0.676  10.501 -1.0037  0.2462  1.8581
  785MPD2    H311581   3.798   0.571  10.351 -0.0723  0.6591 -2.0689
  785MPD2     N11582   3.519   0.947  10.322  0.3843  0.0911  0.1838
  785MPD2    H511583   3.512   1.039  10.363  2.0530  0.4089 -0.2465
  785MPD2    N111584   3.918   0.925  10.594 -0.6966 -0.4603 -0.0055
  785MPD2    H711585   4.006   0.874  10.598 -0.2401  0.4120  1.2181
  786MPD2     C11586   3.027   3.368  14.891 -1.1315  0.5143 -0.4244
  786MPD2    C111587   3.154   3.399  14.836  0.4314  0.1090  0.2415
  786MPD2    C211588   3.249   3.465  14.917  0.0981  0.1134 -0.2491
  786MPD2    C311589   3.224   3.486  15.051  0.6631 -1.0228 -0.1198
  786MPD2    C411590   3.100   3.449  15.107  0.3929  0.5107 -0.2064
  786MPD2    C511591   3.002   3.395  15.023  0.2773 -0.5281 -0.0727
  786MPD2     H11592   3.350   3.477  14.880 -0.5883  1.1282 -1.8038
  786MPD2    H111593   3.082   3.458  15.213  1.2212 -2.1975  0.1771
  786MPD2    H211594   2.951   3.320  14.830 -0.2620 -0.2977 -0.8656
  786MPD2    H311595   2.906   3.382  15.071  0.4145  0.4310  0.4656
  786MPD2     N11596   3.309   3.559  15.138 -0.2823 -0.0964 -0.2794
  786MPD2    H511597   3.276   3.576  15.232 -1.3849  1.0485 -0.8744
  786MPD2    N111598   3.203   3.350  14.714  0.0985  0.3110  0.0750
  786MPD2    H711599   3.303   3.344  14.695  0.0762 -0.5103  0.2261
  787MPD2     C11600   3.501   2.825  14.666 -0.2586  0.5143 -0.0151
  787MPD2    C111601   3.498   2.861  14.539  0.7492 -0.3187  0.3583
  787MPD2    C211602   3.574   2.788  14.445 -0.0496 -0.1150 -0.0511
  787MPD2    C311603   3.642   2.673  14.488  0.1347 -0.3443 -0.5482
  787MPD2    C411604   3.630   2.632  14.623 -0.0258 -0.1920  0.2679
  787MPD2    C511605   3.568   2.716  14.715  0.0748 -0.6326 -0.2948
  787MPD2     H11606   3.570   2.810  14.339  0.6247  1.7090  0.3029
  787MPD2    H111607   3.700   2.560  14.664  0.2593  0.0392  0.1868
  787MPD2    H211608   3.446   2.887  14.737  0.2069  0.5975  0.2746
  787MPD2    H311609   3.560   2.684  14.818 -0.8984 -0.1699 -0.2211
  787MPD2     N11610   3.722   2.607  14.391 -0.0379  0.4755 -0.3844
  787MPD2    H511611   3.737   2.644  14.298 -0.6482  1.4401 -0.0989
  787MPD2    N111612   3.422   2.974  14.508 -0.8467 -0.1308 -0.3033
  787MPD2    H711613   3.378   3.030  14.580 -1.0916  1.2757 -1.5445
  788MPD2     C11614   0.747   1.083   1.218 -0.3983  0.1654 -0.6702
  788MPD2    C111615   0.735   1.098   1.082 -0.0219  0.5341 -0.4700
  788MPD2    C211616   0.758   1.221   1.023 -0.8262  0.4235 -0.2914
  788MPD2    C311617   0.791   1.327   1.101 -0.2686  0.2263 -0.6023
  788MPD2    C411618   0.811   1.309   1.233 -1.5352  0.0075  0.2121
  788MPD2    C511619   0.788   1.191   1.294 -0.1866  0.0864 -0.2377
  788MPD2     H11620   0.747   1.241   0.917 -1.3953 -2.9609 -0.8633
  788MPD2    H111621   0.842   1.384   1.305 -1.8138 -0.0229  0.3626
  788MPD2    H211622   0.725   0.989   1.268 -1.2658  1.3651  1.2046
  788MPD2    H311623   0.795   1.185   1.402 -1.6554  0.5547 -0.1196
  788MPD2     N11624   0.816   1.456   1.056  0.4654 -0.1061  0.5714
  788MPD2    H511625   0.870   1.518   1.115 -0.2841  0.0663  1.0703
  788MPD2    N111626   0.682   0.996   0.996 -0.2344  0.4288  0.6638
  788MPD2    H711627   0.651   1.016   0.902 -1.1637  0.7430  1.0304
  789MPD2     C11628   0.965   1.743  15.971 -0.5094 -0.2272 -0.1484
  789MPD2    C111629   0.910   1.653  16.061  0.3087  0.6887  0.3225
  789MPD2    C211630   0.777   1.667  16.088 -0.0494  0.7871 -0.3621
  789MPD2    C311631   0.707   1.772  16.034 -0.0142 -0.5690 -0.1105
  789MPD2    C411632   0.767   1.859  15.955 -0.5659 -0.3162 -0.0549
  789MPD2    C511633   0.894   1.848  15.924 -0.2906  0.1161 -0.1343
  789MPD2     H11634   0.733   1.591  16.152  2.2678 -1.6946 -1.7465
  789MPD2    H111635   0.709   1.931  15.898 -0.9950 -1.9704 -1.7215
  789MPD2    H211636   1.068   1.744  15.938 -0.0391  0.5411  1.3291
  789MPD2    H311637   0.930   1.925  15.857  0.1824  0.0316  0.0203
  789MPD2     N11638   0.568   1.793  16.062 -0.2454  0.1894 -0.2373
  789MPD2    H511639   0.516   1.876  16.036 -1.3103 -0.0136  1.2956
  789MPD2    N111640   0.980   1.539  16.113 -0.4473 -0.5166 -0.1732
  789MPD2    H711641   0.922   1.487  16.178 -1.4722  0.6009 -0.1986
  790MPD2     C11642   1.528   3.357  13.327  0.5704 -0.6934 -0.0526
  790MPD2    C111643   1.500   3.230  13.361  0.5642  0.3028  0.4585
  790MPD2    C211644   1.420   3.153  13.275  0.4182 -0.0117  0.4172
  790MPD2    C311645   1.376   3.204  13.156  0.5176 -0.4080 -0.2838
  790MPD2    C411646   1.399   3.336  13.128  0.4610  0.3510  0.1879
  790MPD2    C511647   1.479   3.411  13.207  0.2540  0.0375 -0.3737
  790MPD2     H11648   1.398   3.048  13.293 -0.9635 -0.2553 -2.8315
  790MPD2    H111649   1.371   3.378  13.032 -4.0333 -2.6517  0.1942
  790MPD2    H211650   1.609   3.409  13.376  0.4381  1.2001 -1.7906
  790MPD2    H311651   1.505   3.513  13.182 -0.5783  0.3584  0.0535
  790MPD2     N11652   1.319   3.122  13.052  0.2600  0.1032 -0.7082
  790MPD2    H511653   1.314   3.021  13.064  2.7922  0.2076  1.2428
  790MPD2    N111654   1.558   3.176  13.476  1.3310 -0.1827  0.0282
  790MPD2    H711655   1.619   3.237  13.529  0.8007 -1.4759  2.1288
  791MPD2     C11656   0.609   3.155  12.713 -0.0187 -0.7955 -0.2571
  791MPD2    C111657   0.695   3.063  12.652 -0.4819 -0.5537  0.4052
  791MPD2    C211658   0.643   2.984  12.554 -0.1069  0.4235 -0.4755
  791MPD2    C311659   0.509   2.998  12.514  0.0951 -0.2811  0.2723
  791MPD2    C411660   0.428   3.092  12.571 -0.1154 -0.1107  0.3793
  791MPD2    C511661   0.480   3.169  12.675 -0.4808 -0.1261 -0.9782
  791MPD2     H11662   0.704   2.904  12.515 -0.8020  0.2154 -1.1437
  791MPD2    H111663   0.326   3.103  12.536 -0.9176 -2.5241  1.9385
  791MPD2    H211664   0.636   3.215  12.799 -1.6320  0.8942 -0.9220
  791MPD2    H311665   0.419   3.244  12.725 -2.3002 -1.6069 -0.9755
  791MPD2     N11666   0.454   2.938  12.399 -0.1187 -0.5887  0.0358
  791MPD2    H511667   0.359   2.961  12.372 -0.1333 -0.3798  0.2651
  791MPD2    N111668   0.827   3.060  12.696  0.4215 -0.0440  0.2685
  791MPD2    H711669   0.854   3.124  12.771 -0.1240 -0.5065  0.8646
  792MPD2     C11670   1.867   2.909  11.369 -0.2871 -0.6358  0.6864
  792MPD2    C111671   1.809   2.956  11.251 -0.3643  0.4843 -0.4544
  792MPD2    C211672   1.708   2.886  11.191  0.1268  0.1358  0.2957
  792MPD2    C311673   1.667   2.765  11.237  0.5044  0.3718 -0.5106
  792MPD2    C411674   1.733   2.713  11.346 -0.4144  0.6249 -0.2682
  792MPD2    C511675   1.842   2.781  11.404  0.0508  0.0592  0.4865
  792MPD2     H11676   1.663   2.919  11.098 -2.3909 -0.3187  1.3428
  792MPD2    H111677   1.708   2.613  11.381  1.0314 -0.3463 -2.0129
  792MPD2    H211678   1.947   2.962  11.419  0.3432 -1.1884  0.2672
  792MPD2    H311679   1.891   2.733  11.489 -1.0205 -0.5447  0.7690
  792MPD2     N11680   1.572   2.683  11.172 -0.2300  0.3414 -0.4276
  792MPD2    H511681   1.564   2.584  11.192 -2.1925  0.7062  0.4978
  792MPD2    N111682   1.857   3.087  11.206  0.0612  0.6299  0.1668
  792MPD2    H711683   1.929   3.131  11.262 -0.2376  0.1182  0.9447
  793MPD2     C11684   0.880   2.676  10.382 -0.6486  0.6268 -0.0218
  793MPD2    C111685   1.006   2.626  10.363  0.1734 -0.4513  0.3674
  793MPD2    C211686   1.081   2.577  10.468  0.4356 -0.2339  0.3616
  793MPD2    C311687   1.039   2.593  10.597 -0.2889  0.1517 -0.4283
  793MPD2    C411688   0.919   2.660  10.619  0.0421  0.2657  0.4254
  793MPD2    C511689   0.841   2.697  10.510  0.2419  0.1980  0.3365
  793MPD2     H11690   1.175   2.524  10.462 -0.0730 -0.6434 -4.2353
  793MPD2    H111691   0.883   2.687  10.718 -1.8002 -1.8867  0.3365
  793MPD2    H211692   0.813   2.724  10.312 -0.1873  0.1642 -0.7777
  793MPD2    H311693   0.750   2.753  10.531 -0.8305 -0.6936 -1.8810
  793MPD2     N11694   1.128   2.545  10.694  0.1948 -0.6853  0.2904
  793MPD2    H511695   1.208   2.491  10.663  1.4772  2.0760 -1.1907
  793MPD2    N111696   1.069   2.614  10.240  0.1092  0.4170  0.2099
  793MPD2    H711697   1.164   2.578  10.240 -0.3401 -0.7692 -0.4369
  794MPD2     C11698   1.708   2.901  17.374  0.4263 -0.5703  0.3285
  794MPD2    C111699   1.631   2.790  17.400 -0.5246 -0.3862  0.5427
  794MPD2    C211700   1.504   2.779  17.353  0.4393 -1.0662 -0.3070
  794MPD2    C311701   1.460   2.869  17.256 -0.6627 -0.3613  0.3173
  794MPD2    C411702   1.531   2.981  17.233 -0.1630 -0.9566 -0.4789
  794MPD2    C511703   1.658   3.001  17.290  0.0714 -0.3604  0.0742
  794MPD2     H11704   1.436   2.704  17.392  0.4304 -0.8361  0.1269
  794MPD2    H111705   1.489   3.051  17.162  1.9637  1.0479  0.2238
  794MPD2    H211706   1.798   2.920  17.431 -0.7343 -0.2286  2.0536
  794MPD2    H311707   1.715   3.089  17.266 -1.2532  0.3733 -0.3731
  794MPD2     N11708   1.346   2.838  17.177 -0.0647  0.4580  0.5192
  794MPD2    H511709   1.325   2.911  17.110 -0.8009 -1.6892 -1.5721
  794MPD2    N111710   1.680   2.680  17.473 -0.0525  0.4960  0.1427
  794MPD2    H711711   1.618   2.600  17.481  1.1084 -0.2257  1.9548
  795MPD2     C11712   3.565   4.673  13.755 -0.1982  0.1961  0.2767
  795MPD2    C111713   3.539   4.589  13.644 -0.5031 -0.7429 -0.5093
  795MPD2    C211714   3.615   4.471  13.634  0.8389 -0.2713  0.5694
  795MPD2    C311715   3.708   4.432  13.726  1.0978 -0.5197 -0.4219
  795MPD2    C411716   3.727   4.525  13.832  0.2937 -0.0976 -0.0685
  795MPD2    C511717   3.666   4.647  13.838  0.3640  0.2826  0.4075
  795MPD2     H11718   3.582   4.399  13.560  0.2415  0.7255 -0.1269
  795MPD2    H111719   3.795   4.504  13.914 -1.7547  0.1497  1.6876
  795MPD2    H211720   3.495   0.025  13.782  0.5523  1.1691 -0.5652
  795MPD2    H311721   3.681   4.715  13.921  0.5398  0.6374  0.0814
  795MPD2     N11722   3.769   4.308  13.712 -0.2741  0.0328 -0.2030
  795MPD2    H511723   3.753   4.254  13.628  2.3113  0.5035 -1.0004
  795MPD2    N111724   3.426   4.601  13.555  0.5232  0.6029  0.1990
  795MPD2    H711725   3.413   4.535  13.479  1.3785 -0.1618  0.7204
  796MPD2     C11726   3.418   1.418  15.650 -0.2984 -0.1289 -0.3235
  796MPD2    C111727   3.489   1.486  15.748  0.1046  0.2169 -0.3499
  796MPD2    C211728   3.490   1.623  15.741 -0.7860  0.2375  0.0187
  796MPD2    C311729   3.409   1.697  15.650  0.5493  0.3076  0.2403
  796MPD2    C411730   3.331   1.627  15.566  0.3069 -0.2605  0.5176
  796MPD2    C511731   3.338   1.491  15.573 -0.6844 -0.4678 -0.1508
  796MPD2     H11732   3.545   1.680  15.814 -1.4792 -2.0617  2.3499
  796MPD2    H111733   3.267   1.671  15.491  0.5610 -0.5577  0.1288
  796MPD2    H211734   3.398   1.312  15.657 -0.2845  0.1039  3.0413
  796MPD2    H311735   3.278   1.435  15.503 -0.0019 -2.0822  0.5630
  796MPD2     N11736   3.423   1.838  15.634  0.4202  0.1604 -0.0822
  796MPD2    H511737   3.481   1.887  15.702 -1.2538  1.3789  0.4751
  796MPD2    N111738   3.543   1.411  15.850 -0.5518  0.1516  0.2656
  796MPD2    H711739   3.527   1.311  15.854 -0.2501  0.0709 -0.4961
  797MPD2     C11740   0.012   0.949  17.177 -0.2674  0.5628  0.3490
  797MPD2    C111741   0.055   1.076  17.203 -0.4615  0.2750 -0.5312
  797MPD2    C211742   4.694   1.182  17.193 -0.1499 -0.0088 -0.2640
  797MPD2    C311743   4.563   1.166  17.152 -0.5228 -0.0072  0.1714
  797MPD2    C411744   4.519   1.038  17.119  0.0468  0.8088  0.1328
  797MPD2    C511745   4.612   0.933  17.136 -0.1317  0.1500  0.3540
  797MPD2     H11746   0.007   1.277  17.227  0.7359 -0.4988  0.1086
  797MPD2    H111747   4.426   1.008  17.074  0.7479 -0.9271 -0.1735
  797MPD2    H211748   0.068   0.857  17.189 -0.6562  0.6770  3.1670
  797MPD2    H311749   4.590   0.829  17.113 -0.1877  0.0762  0.7417
  797MPD2     N11750   4.476   1.279  17.154  0.1473  0.5113  0.0237
  797MPD2    H511751   4.524   1.364  17.180  1.5774 -0.3911  0.3156
  797MPD2    N111752   0.188   1.106  17.232 -0.2495  0.5193 -0.7557
  797MPD2    H711753   0.209   1.200  17.264  2.7858  0.5483 -2.7896
  798MPD2     C11754   0.042   1.714  17.374  0.2060  0.3191 -0.5419
  798MPD2    C111755   0.018   1.645  17.247  0.7982  0.2854  0.0839
  798MPD2    C211756   0.127   1.586  17.185  0.1213 -0.0732  0.2278
  798MPD2    C311757   0.244   1.578  17.252 -0.3702  0.3269  0.0024
  798MPD2    C411758   0.265   1.638  17.378  0.2338  0.6608 -0.7185
  798MPD2    C511759   0.164   1.705  17.432 -0.1013  0.6275 -0.5544
  798MPD2     H11760   0.116   1.551  17.083  2.5047  0.7766 -0.3409
  798MPD2    H111761   0.357   1.629  17.434 -0.9243  0.6900  1.1807
  798MPD2    H211762   4.685   1.756  17.430 -0.2418 -2.3110  0.7662
  798MPD2    H311763   0.181   1.736  17.535  2.0315 -1.0212 -0.3922
  798MPD2     N11764   0.338   1.484  17.203 -0.5530  0.1330 -0.1660
  798MPD2    H511765   0.312   1.435  17.117  0.6696 -1.3604  0.3144
  798MPD2    N111766   4.617   1.649  17.190 -0.1393 -0.1812 -0.3124
  798MPD2    H711767   4.552   1.700  17.249 -1.2367 -0.8235 -0.9606
  799MPD2     C11768   3.136   2.641  14.427  0.2489  0.1399 -0.7277
  799MPD2    C111769   3.115   2.557  14.320 -0.1476 -0.0732 -0.3747
  799MPD2    C211770   3.091   2.608  14.190  0.0837 -0.3820 -0.5755
  799MPD2    C311771   3.104   2.746  14.170  0.5350  0.5176  0.3345
  799MPD2    C411772   3.130   2.831  14.278 -0.0753  0.2116 -0.4708
  799MPD2    C511773   3.135   2.780  14.403 -0.0065  0.3812 -0.5663
  799MPD2     H11774   3.063   2.538  14.112  1.7489 -0.5764 -1.0010
  799MPD2    H111775   3.149   2.937  14.267  1.1249  0.0191 -0.2643
  799MPD2    H211776   3.135   2.614  14.532  0.1484 -1.8338 -1.2344
  799MPD2    H311777   3.154   2.845  14.487  0.3001  0.0857 -0.4105
  799MPD2     N11778   3.091   2.810  14.043 -0.5364  0.0645 -0.0529
  799MPD2    H511779   3.107   2.910  14.041  0.9539 -0.1631  1.1436
  799MPD2    N111780   3.102   2.420  14.338  0.1839  0.3854 -0.6418
  799MPD2    H711781   3.084   2.365  14.254  1.7299 -1.0113 -0.0683
  800MPD2     C11782   3.214   3.493  13.640 -0.4296 -0.6732  0.1655
  800MPD2    C111783   3.349   3.504  13.625  0.1980 -0.2633  0.5672
  800MPD2    C211784   3.416   3.432  13.529  0.7357  0.3560  0.0064
  800MPD2    C311785   3.354   3.351  13.445 -0.9191  0.0009  0.4156
  800MPD2    C411786   3.216   3.324  13.462  0.3856  0.3408  0.1240
  800MPD2    C511787   3.150   3.401  13.564  0.0541  0.0387  0.3945
  800MPD2     H11788   3.523   3.443  13.515  0.6674 -0.8323 -1.4347
  800MPD2    H111789   3.151   3.263  13.400  0.7152 -1.4556  1.5445
  800MPD2    H211790   3.160   3.546  13.718 -1.9298 -0.3962 -1.0580
  800MPD2    H311791   3.042   3.391  13.567  0.0109 -0.1350 -1.4490
  800MPD2     N11792   3.438   3.290  13.343  0.1522 -0.5004 -0.1651
  800MPD2    H511793   3.535   3.318  13.344 -0.2988  0.9724  2.1760
  800MPD2    N111794   3.420   3.585  13.716  0.0168  0.1989 -0.3182
  800MPD2    H711795   3.366   3.630  13.789  1.8023  3.4755 -1.0030
  801MPD2     C11796   3.354   4.295  13.920  0.5533  1.2923 -0.2546
  801MPD2    C111797   3.473   4.256  13.981 -0.6053 -0.0634 -0.7233
  801MPD2    C211798   3.524   4.340  14.083 -0.1441 -0.2083  0.2865
  801MPD2    C311799   3.449   4.444  14.129 -0.3345  0.4670  0.7543
  801MPD2    C411800   3.332   4.476  14.071 -0.1089  0.3758 -0.6288
  801MPD2    C511801   3.282   4.404  13.962  0.1638 -0.9157 -0.2792
  801MPD2     H11802   3.614   4.315  14.139 -0.7132  1.1964  1.8206
  801MPD2    H111803   3.277   4.562  14.106  0.2668 -0.8684  2.9758
  801MPD2    H211804   3.314   4.248  13.831  1.9474 -0.3790  0.0003
  801MPD2    H311805   3.189   4.427  13.911 -0.7240 -0.8808  1.3787
  801MPD2     N11806   3.484   4.522  14.237 -0.2438  0.0257  0.4319
  801MPD2    H511807   3.408   4.581  14.272  0.0533  0.7956 -0.2168
  801MPD2    N111808   3.535   4.136  13.966 -0.2381  0.4640 -0.4314
  801MPD2    H711809   3.602   4.110  14.037 -0.9273 -0.5710 -0.1520
  802MPD2     C11810   3.832   4.696  17.271  0.5022  0.2853 -0.0931
  802MPD2    C111811   3.811   0.094  17.211  0.0159 -0.0347  0.3031
  802MPD2    C211812   3.916   0.176  17.180  0.9701  0.0120  0.2771
  802MPD2    C311813   4.048   0.134  17.202 -0.1178  0.4833 -0.0463
  802MPD2    C411814   4.069   0.009  17.239 -0.2959 -0.0787 -0.1744
  802MPD2    C511815   3.959   4.652  17.278  0.0712  0.8279 -0.0981
  802MPD2     H11816   3.893   0.275  17.144  2.2127  0.0387 -0.4596
  802MPD2    H111817   4.165   4.683  17.235  0.4564  1.4510 -1.6789
  802MPD2    H211818   3.760   4.617  17.291 -0.5957  1.1583 -0.6299
  802MPD2    H311819   3.970   4.548  17.306 -3.3353  0.2380 -0.9847
  802MPD2     N11820   4.158   0.213  17.166  0.0209  0.5286 -0.3964
  802MPD2    H511821   4.142   0.299  17.116  3.4516  1.9578  0.9626
  802MPD2    N111822   3.680   0.146  17.190 -0.1391  0.2777 -0.6624
  802MPD2    H711823   3.671   0.236  17.143  0.5663  1.1421  0.8685
  803MPD2     C11824   4.151   3.200  11.536  0.6881 -0.1555 -0.1204
  803MPD2    C111825   4.218   3.210  11.652  0.2432  0.3346 -0.0685
  803MPD2    C211826   4.173   3.141  11.761  0.2865  0.1134 -0.1060
  803MPD2    C311827   4.071   3.046  11.765  0.0180 -0.3732 -0.7159
  803MPD2    C411828   4.011   3.033  11.647  0.0294  0.3178 -0.3936
  803MPD2    C511829   4.049   3.111  11.537 -0.0286  0.0686 -0.5734
  803MPD2     H11830   4.224   3.161  11.855 -0.7835 -0.7521  0.6519
  803MPD2    H111831   3.930   2.961  11.636  2.1627 -2.1232 -0.3233
  803MPD2    H211832   4.174   3.259  11.448 -0.2394  0.9793  0.4092
  803MPD2    H311833   3.999   3.093  11.443 -1.4285  2.0942 -0.2324
  803MPD2     N11834   4.039   2.956  11.878  0.4437 -0.7174  0.1706
  803MPD2    H511835   3.971   2.881  11.864 -1.7589  1.0005  1.7307
  803MPD2    N111836   4.329   3.297  11.672 -0.2967 -0.0486 -0.7732
  803MPD2    H711837   4.366   3.307  11.766 -0.3092 -0.9404 -0.6813
  804MPD2     C11838   4.361   4.350  16.917  0.3494 -0.4423  0.0841
  804MPD2    C111839   4.337   4.351  17.050  0.0959  0.4163 -0.6134
  804MPD2    C211840   4.392   4.443  17.134 -0.1720  0.6598  0.3068
  804MPD2    C311841   4.478   4.537  17.090 -0.8821 -0.0046  0.8300
  804MPD2    C411842   4.502   4.537  16.954  0.0978  0.1752 -0.3428
  804MPD2    C511843   4.429   4.458  16.869 -0.0438  0.2475  0.3781
  804MPD2     H11844   4.381   4.435  17.241  0.7190  4.3652  0.6687
  804MPD2    H111845   4.573   4.602  16.905  1.9120 -1.8878 -0.4334
  804MPD2    H211846   4.321   4.274  16.852  0.7695 -0.0608 -0.6138
  804MPD2    H311847   4.454   4.466  16.764  0.5458 -2.2153  0.3246
  804MPD2     N11848   4.549   4.628  17.176 -0.1339  0.4760 -0.0080
  804MPD2    H511849   4.547   4.613  17.277  1.6351  0.0468 -0.0506
  804MPD2    N111850   4.276   4.238  17.115  0.0891  0.3337 -0.0335
  804MPD2    H711851   4.280   4.233  17.216 -1.9115  0.2567  0.0329
  805MPD2     C11852   2.725   2.547  15.144 -0.1141 -1.1166  0.0009
  805MPD2    C111853   2.810   2.582  15.036  0.2435 -0.3307 -0.1992
  805MPD2    C211854   2.947   2.582  15.052  0.4952  0.7027 -0.3609
  805MPD2    C311855   3.006   2.561  15.176  0.1470  0.2569  0.0161
  805MPD2    C411856   2.919   2.528  15.279  0.1925 -1.0669  0.1141
  805MPD2    C511857   2.785   2.516  15.267  0.2804 -0.0328  0.2204
  805MPD2     H11858   3.013   2.592  14.967  2.7535  1.4079  1.4734
  805MPD2    H111859   2.955   2.509  15.379  1.7075  3.4060  0.4026
  805MPD2    H211860   2.616   2.542  15.145 -0.2336  1.8907  3.0581
  805MPD2    H311861   2.715   2.498  15.348  1.3109  2.1256  1.5832
  805MPD2     N11862   3.146   2.561  15.182  0.3773 -0.8557  0.3952
  805MPD2    H511863   3.196   2.594  15.100 -0.1919  1.9207  1.1346
  805MPD2    N111864   2.764   2.613  14.906 -0.1259  0.2155  0.3505
  805MPD2    H711865   2.831   2.635  14.833  0.2834  0.8072  0.9098
  806MPD2     C11866   3.677   2.306   0.393 -0.0649 -0.1546  0.0067
  806MPD2    C111867   3.801   2.256   0.417 -0.6169 -0.1662 -0.7439
  806MPD2    C211868   3.908   2.284   0.332 -0.1464 -0.3671 -0.3132
  806MPD2    C311869   3.900   2.387   0.236 -0.1484  0.7338  0.3112
  806MPD2    C411870   3.769   2.431   0.210  0.3507  0.1212  0.6576
  806MPD2    C511871   3.657   2.394   0.282 -0.0395  0.0799  0.1574
  806MPD2     H11872   4.008   2.263   0.370  0.8089 -1.2758 -3.2755
  806MPD2    H111873   3.749   2.500   0.129  0.4687 -1.6299 -0.8589
  806MPD2    H211874   3.600   2.288   0.467 -0.0363 -0.0030  0.0731
  806MPD2    H311875   3.551   2.414   0.269  0.1088  0.5949 -0.2415
  806MPD2     N11876   4.010   2.456   0.186 -0.0664 -0.5227  0.9539
  806MPD2    H511877   4.097   2.438   0.236  0.7691  1.0899  0.0620
  806MPD2    N111878   3.811   2.179   0.533  0.4752  0.6744  0.3412
  806MPD2    H711879   3.720   2.156   0.571 -0.2208  1.1691 -1.0205
  807MPD2     C11880   3.397   1.933   1.070 -0.4939  0.0656 -0.3058
  807MPD2    C111881   3.527   1.913   1.120 -0.0409 -0.6816  0.5033
  807MPD2    C211882   3.534   1.905   1.257  0.0516 -0.4251  0.0691
  807MPD2    C311883   3.434   1.933   1.341 -0.1261  0.0747  0.1411
  807MPD2    C411884   3.306   1.966   1.288 -0.0298 -0.2336  0.7912
  807MPD2    C511885   3.292   1.961   1.154  0.3211  0.0645 -0.0286
  807MPD2     H11886   3.635   1.908   1.298  0.4270  0.6551 -0.9363
  807MPD2    H111887   3.214   1.996   1.337 -0.8709  1.7655 -2.0334
  807MPD2    H211888   3.376   1.936   0.964 -1.0733  1.3800 -0.1547
  807MPD2    H311889   3.192   1.959   1.112  0.3559 -1.4186 -0.0243
  807MPD2     N11890   3.468   1.931   1.483  0.5663 -0.5611 -0.2927
  807MPD2    H511891   3.564   1.909   1.507  1.1509  2.3256  0.0128
  807MPD2    N111892   3.648   1.906   1.040  0.2296  0.5128 -0.3405
  807MPD2    H711893   3.736   1.882   1.085 -1.6639 -3.9029  0.9717
  808MPD2     C11894   4.008   3.463   9.443  0.3040  0.2931 -0.0167
  808MPD2    C111895   3.994   3.425   9.312  0.1729  0.4107 -0.4547
  808MPD2    C211896   4.042   3.518   9.222  0.1124  0.4221  0.5314
  808MPD2    C311897   4.080   3.649   9.254  0.0402 -0.6109  0.1094
  808MPD2    C411898   4.082   3.685   9.386  0.0610 -1.1551  0.0554
  808MPD2    C511899   4.044   3.585   9.482  0.6114 -0.5575  0.4842
  808MPD2     H11900   4.030   3.496   9.117 -0.7489 -0.4441  0.8054
  808MPD2    H111901   4.119   3.779   9.426  1.3099 -0.8999 -1.7104
  808MPD2    H211902   3.988   3.392   9.523 -1.6090  1.5748  0.6463
  808MPD2    H311903   4.056   3.606   9.588 -0.6769 -0.3090  0.5815
  808MPD2     N11904   4.112   3.749   9.164  0.6631 -0.1685  0.7194
  808MPD2    H511905   4.166   3.823   9.207  1.2199 -0.3836  0.3945
  808MPD2    N111906   3.932   3.311   9.267  0.4015 -0.0069 -0.5012
  808MPD2    H711907   3.902   3.305   9.171 -2.0640  1.3954  0.1781
  809MPD2     C11908   4.721   3.456   8.520  0.6793 -0.9712  0.4235
  809MPD2    C111909   0.022   3.509   8.640 -0.4264 -0.3428  0.5214
  809MPD2    C211910   4.672   3.610   8.703  0.2186  0.3008  0.1276
  809MPD2    C311911   4.557   3.656   8.633 -0.2300 -0.6057  0.5310
  809MPD2    C411912   4.526   3.603   8.511 -0.5275  0.8311  0.2051
  809MPD2    C511913   4.605   3.502   8.459 -0.0138  0.0830  0.2042
  809MPD2     H11914   4.703   3.651   8.798 -0.9035 -0.6749  0.9181
  809MPD2    H111915   4.436   3.620   8.453 -0.4155  1.2385  0.1479
  809MPD2    H211916   0.045   3.369   8.478 -1.1588 -1.4184 -0.8230
  809MPD2    H311917   4.578   3.465   8.361  2.2022 -1.5735  0.2323
  809MPD2     N11918   4.470   3.759   8.680 -0.0120  0.7691  0.3261
  809MPD2    H511919   4.380   3.773   8.635  2.0210  1.5682 -3.4524
  809MPD2    N111920   0.130   3.471   8.720 -0.4547 -1.1040 -0.1140
  809MPD2    H711921   0.123   3.507   8.815  0.0001  0.0963 -0.5351
  810MPD2     C11922   3.497   3.271   9.186 -0.5152  0.3062  0.5017
  810MPD2    C111923   3.479   3.191   9.303 -0.5016 -0.8123 -0.3585
  810MPD2    C211924   3.543   3.240   9.422  0.0950 -0.1073 -0.0516
  810MPD2    C311925   3.594   3.374   9.426 -0.4559  0.0608 -0.1360
  810MPD2    C411926   3.586   3.452   9.312 -0.0416 -0.4376 -0.1530
  810MPD2    C511927   3.549   3.395   9.192 -0.5217  0.4973  0.4803
  810MPD2     H11928   3.548   3.176   9.509  1.7328 -0.1456 -0.1800
  810MPD2    H111929   3.624   3.554   9.317 -0.2262 -0.3762 -0.0050
  810MPD2    H211930   3.480   3.231   9.087  0.3303  3.7194 -1.0154
  810MPD2    H311931   3.551   3.451   9.099  2.0745 -2.6076 -1.3369
  810MPD2     N11932   3.654   3.433   9.539 -0.6970  0.4123 -0.1658
  810MPD2    H511933   3.680   3.530   9.524  0.0847  0.2264 -0.0069
  810MPD2    N111934   3.424   3.060   9.290 -0.0188 -0.0299 -0.4629
  810MPD2    H711935   3.405   3.026   9.196  2.2103 -0.1421 -0.8740
  811MPD2     C11936   2.710   2.938   9.202  0.2873  0.0676 -0.1703
  811MPD2    C111937   2.818   2.994   9.274 -0.0869 -0.4652  0.2720
  811MPD2    C211938   2.802   3.119   9.333  0.5779  0.0068 -0.2284
  811MPD2    C311939   2.682   3.190   9.320 -0.0349 -0.4218  0.0518
  811MPD2    C411940   2.584   3.137   9.238  0.1234 -0.0450 -0.4453
  811MPD2    C511941   2.597   3.011   9.185 -0.3397 -0.2301 -0.5456
  811MPD2     H11942   2.887   3.161   9.386 -0.5263  0.7924  0.8858
  811MPD2    H111943   2.485   3.181   9.230  0.1896  0.6748  3.0006
  811MPD2    H211944   2.707   2.843   9.150  1.8411  0.0373 -0.2053
  811MPD2    H311945   2.509   2.970   9.138 -1.5454  1.0517  0.5718
  811MPD2     N11946   2.676   3.325   9.374 -0.2894  0.1179  0.2381
  811MPD2    H511947   2.760   3.358   9.419  0.1821 -1.3196  0.4324
  811MPD2    N111948   2.945   2.931   9.278  0.2253 -0.4128 -0.4363
  811MPD2    H711949   3.022   2.982   9.320 -0.4106 -0.9007  1.3224
  812MPD2     C11950   2.429   2.893  12.187 -0.5638  1.1287  0.0508
  812MPD2    C111951   2.306   2.914  12.243 -0.1643  0.0604  0.1754
  812MPD2    C211952   2.237   2.815  12.316 -0.5721  0.4148  0.4078
  812MPD2    C311953   2.307   2.696  12.338 -0.2263 -0.2477  0.1217
  812MPD2    C411954   2.433   2.675  12.285  0.1489  0.1244  0.2295
  812MPD2    C511955   2.485   2.768  12.197  0.0933  0.0562  0.1671
  812MPD2     H11956   2.145   2.827  12.372 -1.2749  2.2311 -1.1251
  812MPD2    H111957   2.493   2.588  12.311  0.3210 -0.0696 -0.8485
  812MPD2    H211958   2.492   2.967  12.139 -0.7901  1.5843  0.4536
  812MPD2    H311959   2.584   2.741  12.162  0.6268  0.4000  1.4053
  812MPD2     N11960   2.247   2.607  12.433  0.1081 -0.0669  0.1311
  812MPD2    H511961   2.151   2.624  12.461 -0.3778 -0.4943 -1.2683
  812MPD2    N111962   2.258   3.045  12.236  0.3377  0.0505  0.7599
  812MPD2    H711963   2.317   3.106  12.180 -0.9928  0.9130  0.3075
  813MPD2     C11964   1.069   0.142  12.717 -0.7240 -0.5364 -0.2834
  813MPD2    C111965   1.151   0.190  12.822  0.2419  0.5604  0.0299
  813MPD2    C211966   1.096   0.188  12.946  0.5535  0.1110 -0.7372
  813MPD2    C311967   0.972   0.131  12.966 -0.0360 -0.0183 -0.1537
  813MPD2    C411968   0.897   0.080  12.870 -0.3198 -0.2236 -0.5304
  813MPD2    C511969   0.947   0.092  12.739  0.4798 -0.5107 -0.0211
  813MPD2     H11970   1.151   0.248  13.017 -0.6329 -0.1858  0.4346
  813MPD2    H111971   0.802   0.032  12.889 -0.9170  0.8264 -0.9044
  813MPD2    H211972   1.105   0.143  12.615  0.2346 -1.4697  0.0576
  813MPD2    H311973   0.884   0.055  12.659  1.9087 -1.2141 -0.8331
  813MPD2     N11974   0.927   0.135  13.096  0.2772 -0.3509 -0.5920
  813MPD2    H511975   0.973   0.201  13.158 -2.6120  0.5908  0.5495
  813MPD2    N111976   1.276   0.240  12.786 -0.0133  0.1524  0.0608
  813MPD2    H711977   1.300   0.270  12.692 -1.1503  0.2746 -0.1893
  814MPD2     C11978   2.071   1.356  12.211  0.3909 -0.3212  0.6005
  814MPD2    C111979   2.011   1.445  12.125  0.5938  0.3904 -0.6513
  814MPD2    C211980   2.057   1.579  12.121  0.1840 -0.5133  0.1893
  814MPD2    C311981   2.164   1.613  12.203 -0.0677  0.1236  0.2188
  814MPD2    C411982   2.222   1.516  12.288  0.6928 -0.4809 -0.0355
  814MPD2    C511983   2.178   1.385  12.296 -0.2002  0.7042  0.0682
  814MPD2     H11984   2.014   1.657  12.060 -1.2681  0.1890  2.1095
  814MPD2    H111985   2.302   1.532  12.359  1.2548  2.3598 -1.3049
  814MPD2    H211986   2.029   1.257  12.204 -1.5779  0.5700 -0.2485
  814MPD2    H311987   2.219   1.308  12.360 -1.2842  0.8241  0.9067
  814MPD2     N11988   2.215   1.743  12.218 -0.4906 -0.2135 -0.3522
  814MPD2    H511989   2.285   1.763  12.289 -2.1662  0.9586  0.9648
  814MPD2    N111990   1.905   1.414  12.034 -0.4030 -0.2881  0.3808
  814MPD2    H711991   1.896   1.483  11.961  0.7954 -1.0614 -0.4937
  815MPD2     C11992   2.372   0.407  11.646 -1.1192 -0.4711  0.0471
  815MPD2    C111993   2.346   0.271  11.659 -0.0790  0.5553  0.3651
  815MPD2    C211994   2.253   0.223  11.747 -0.4779 -0.2613  0.0735
  815MPD2    C311995   2.167   0.306  11.810 -0.4893 -0.4527  0.4161
  815MPD2    C411996   2.188   0.446  11.808 -0.0233  0.6815 -0.1390
  815MPD2    C511997   2.286   0.484  11.721 -0.1498 -0.0044  0.0777
  815MPD2     H11998   2.238   0.117  11.759 -1.3177 -0.3438 -1.7474
  815MPD2    H111999   2.118   0.513  11.857 -1.1719 -0.6190 -0.0241
  815MPD2    H212000   2.456   0.448  11.591 -1.1351 -0.6346 -0.0989
  815MPD2    H312001   2.308   0.590  11.724  3.2940 -0.7358  0.8757
  815MPD2     N12002   2.065   0.243  11.872 -0.3605 -0.0363  0.8822
  815MPD2    H512003   2.057   0.141  11.869 -2.5022  0.1978 -1.0949
  815MPD2    N112004   2.424   0.185  11.578 -0.0715 -0.3468 -0.6314
  815MPD2    H712005   2.497   0.223  11.518  0.6083 -0.5757  0.0578
  816MPD2     C12006   2.541   4.090  17.153  0.6913 -0.0771  0.4508
  816MPD2    C112007   2.623   4.183  17.214 -0.4877  0.2383 -0.0605
  816MPD2    C212008   2.753   4.167  17.193 -0.1395 -0.2258  0.5061
  816MPD2    C312009   2.801   4.064  17.121 -0.2209 -0.0103 -0.1125
  816MPD2    C412010   2.719   3.975  17.061  0.2454 -0.4773 -0.1566
  816MPD2    C512011   2.585   3.983  17.078  0.3914 -0.7792 -0.1644
  816MPD2     H12012   2.830   4.216  17.250 -0.1227 -3.3672  3.2264
  816MPD2    H112013   2.752   3.884  17.012 -1.2329 -1.9524  1.6120
  816MPD2    H212014   2.434   4.098  17.164  0.5444 -1.3606 -0.0931
  816MPD2    H312015   2.513   3.909  17.046 -0.9329 -0.3022  1.7393
  816MPD2     N12016   2.941   4.053  17.100  0.7621 -0.2385  0.5417
  816MPD2    H512017   3.000   4.132  17.127  1.3608 -0.1524 -1.0353
  816MPD2    N112018   2.563   4.294  17.280 -0.7614 -0.0817  0.0365
  816MPD2    H712019   2.463   4.286  17.297 -0.8019  3.3761  1.3614
  817MPD2     C12020   1.889   0.660   9.972  0.2434  0.4170 -0.9410
  817MPD2    C112021   1.903   0.621   9.837 -0.1199 -0.2713 -0.6527
  817MPD2    C212022   1.900   0.715   9.738 -1.4848  0.0481 -0.8410
  817MPD2    C312023   1.867   0.849   9.765  0.4231  0.4170  0.0049
  817MPD2    C412024   1.843   0.886   9.902 -0.3047  0.1959 -0.4449
  817MPD2    C512025   1.854   0.790   9.998 -0.2868 -0.4006  0.9639
  817MPD2     H12026   1.915   0.690   9.634  2.1329  0.2192 -0.3674
  817MPD2    H112027   1.816   0.986   9.933 -1.5636 -0.5907  1.0349
  817MPD2    H212028   1.887   0.588  10.053 -0.7379  1.2711 -0.2060
  817MPD2    H312029   1.827   0.815  10.100 -1.6638 -3.6225  1.3923
  817MPD2     N12030   1.842   0.943   9.657  0.5507 -0.0220 -0.3471
  817MPD2    H512031   1.844   0.909   9.562 -0.3398  0.1483 -0.4328
  817MPD2    N112032   1.941   0.490   9.803  0.1027  0.1113  0.2544
  817MPD2    H712033   1.973   0.474   9.708  2.0834  1.8169  0.6180
  818MPD2     C12034   0.877   0.434   9.765 -0.5431 -0.1195  0.3403
  818MPD2    C112035   0.764   0.368   9.811 -0.5725 -0.0710  0.2860
  818MPD2    C212036   0.766   0.264   9.906 -0.7304 -0.3593  0.3732
  818MPD2    C312037   0.891   0.222   9.957 -0.7224 -0.1771  0.5795
  818MPD2    C412038   0.999   0.293   9.913 -0.3757  0.2938  0.5650
  818MPD2    C512039   0.994   0.403   9.822 -0.4200 -0.6641  0.3991
  818MPD2     H12040   0.673   0.218   9.936 -0.6451 -1.3682 -0.8976
  818MPD2    H112041   1.096   0.278   9.960  0.6058 -0.0539 -1.5258
  818MPD2    H212042   0.868   0.509   9.687 -0.4883 -0.3118  0.1487
  818MPD2    H312043   1.085   0.454   9.794 -0.1299 -1.7179 -0.5825
  818MPD2     N12044   0.918   0.114  10.049 -0.1746  0.5549  0.1971
  818MPD2    H512045   1.017   0.099  10.064 -0.5773 -0.5306  1.7640
  818MPD2    N112046   0.638   0.398   9.759  0.2871  0.4754  0.1174
  818MPD2    H712047   0.560   0.344   9.793 -1.1179  2.2118 -0.3577
  819MPD2     C12048   3.685   2.296  15.071 -0.5867 -0.3576 -0.5801
  819MPD2    C112049   3.662   2.178  15.136  0.3970  0.2709  0.4126
  819MPD2    C212050   3.772   2.120  15.206 -0.6596 -0.2058  0.5430
  819MPD2    C312051   3.887   2.186  15.227 -0.2707 -0.1642  0.3866
  819MPD2    C412052   3.908   2.309  15.168  0.2935  0.3956 -0.8592
  819MPD2    C512053   3.802   2.360  15.094  0.1090  0.2113 -0.1909
  819MPD2     H12054   3.772   2.016  15.235  0.7634 -0.8239 -1.6138
  819MPD2    H112055   3.997   2.370  15.178 -0.9997  2.1856 -0.2702
  819MPD2    H212056   3.613   2.334  15.000  1.5276  0.3287 -2.3520
  819MPD2    H312057   3.819   2.456  15.047  0.2319  0.4385  0.3080
  819MPD2     N12058   3.985   2.114  15.297  0.1862  0.2801 -0.4165
  819MPD2    H512059   3.961   2.028  15.347 -0.0352  1.5416  1.6544
  819MPD2    N112060   3.541   2.118  15.107  0.2205  0.3215  0.0115
  819MPD2    H712061   3.474   2.157  15.041 -0.2113 -1.7764 -0.8157
  820MPD2     C12062   2.772   1.976  14.506 -0.1008  0.2843 -0.1130
  820MPD2    C112063   2.824   2.082  14.575 -0.4615  0.3619 -1.2862
  820MPD2    C212064   2.937   2.057  14.644  0.2741 -0.1243  0.0635
  820MPD2    C312065   2.988   1.932  14.653 -0.1760  0.1357 -0.2054
  820MPD2    C412066   2.937   1.829  14.584  0.4028  0.7049  0.4042
  820MPD2    C512067   2.827   1.852  14.512 -0.2115  1.1020  0.3060
  820MPD2     H12068   2.975   2.135  14.709 -1.0983  0.1299  0.5593
  820MPD2    H112069   2.975   1.729  14.601 -0.4143  0.3707  0.2516
  820MPD2    H212070   2.687   1.989  14.439 -0.5514  4.5526  1.3051
  820MPD2    H312071   2.777   1.773  14.457  0.8165 -0.3480  1.4535
  820MPD2     N12072   3.088   1.901  14.742 -0.6696 -0.1112  0.3213
  820MPD2    H512073   3.089   1.801  14.762  0.4038 -0.0994  0.3546
  820MPD2    N112074   2.757   2.206  14.558  0.0200  0.0724 -0.1855
  820MPD2    H712075   2.678   2.206  14.495  0.5710  0.1446 -0.8678
  821MPD2     C12076   3.376   3.550  12.691  0.7013 -0.4345  0.1409
  821MPD2    C112077   3.488   3.569  12.760  0.1939 -0.3423 -0.4637
  821MPD2    C212078   3.545   3.691  12.757 -0.1106 -0.0372 -0.7804
  821MPD2    C312079   3.498   3.796  12.686 -0.1103  0.4177 -0.9010
  821MPD2    C412080   3.401   3.767  12.596  0.1889 -0.0500  1.0751
  821MPD2    C512081   3.340   3.647  12.603 -0.0520 -0.1575  0.4516
  821MPD2     H12082   3.637   3.696  12.815  1.0748  1.3858 -2.8011
  821MPD2    H112083   3.361   3.838  12.524 -0.1609 -2.9993 -1.6576
  821MPD2    H212084   3.324   3.455  12.694  1.3805 -0.7507  1.6309
  821MPD2    H312085   3.246   3.632  12.553  0.2374 -1.1061  0.1953
  821MPD2     N12086   3.551   3.925  12.682 -0.1092 -0.8621  0.7579
  821MPD2    H512087   3.512   4.001  12.627  1.2876 -0.5156  0.2348
  821MPD2    N112088   3.535   3.467  12.845  0.7550  0.1150 -0.3722
  821MPD2    H712089   3.608   3.502  12.907 -1.0037  2.1885  0.5536
  822MPD2     C12090   4.416   3.523  15.707  0.8877  0.3389  0.0938
  822MPD2    C112091   4.533   3.571  15.764  0.4444  0.2522  0.1865
  822MPD2    C212092   4.530   3.698  15.815  0.4596 -0.0084  0.2601
  822MPD2    C312093   4.416   3.777  15.812  0.6343 -0.0275  0.3099
  822MPD2    C412094   4.302   3.723  15.760  0.1926  0.3804  0.0424
  822MPD2    C512095   4.302   3.607  15.695  0.9193 -0.5687  0.1096
  822MPD2     H12096   4.622   3.731  15.862  0.9790  0.0412 -0.7929
  822MPD2    H112097   4.206   3.772  15.769  0.4171  0.9371 -0.5607
  822MPD2    H212098   4.416   3.423  15.667  0.4116 -0.0828  1.1457
  822MPD2    H312099   4.213   3.572  15.644  1.8217  0.0047 -1.8861
  822MPD2     N12100   4.413   3.907  15.872 -0.0740 -0.4150 -0.7906
  822MPD2    H512101   4.320   3.934  15.903 -0.4181  0.6998 -2.8206
  822MPD2    N112102   4.648   3.485  15.781  0.4169  0.1164 -0.4582
  822MPD2    H712103   4.720   3.523  15.841 -0.1667  0.7356 -0.1479
  823MPD2     C12104   4.442   4.066  16.708 -0.0804  0.4246  0.7810
  823MPD2    C112105   4.419   3.997  16.591 -0.7164  0.3235  0.4838
  823MPD2    C212106   4.423   3.857  16.596 -0.8785 -0.4163 -0.9689
  823MPD2    C312107   4.436   3.782  16.714  0.3289 -0.1327  0.2888
  823MPD2    C412108   4.438   3.857  16.835 -0.0561  0.0064 -0.2456
  823MPD2    C512109   4.440   3.994  16.825  0.2447 -0.1206  0.0331
  823MPD2     H12110   4.406   3.799  16.507 -1.6553  1.2363 -1.8971
  823MPD2    H112111   4.443   3.813  16.934 -0.4216 -0.7707 -0.5712
  823MPD2    H212112   4.439   4.174  16.713 -0.6208  0.4085  0.8060
  823MPD2    H312113   4.472   4.061  16.904  1.3242  0.2689 -0.7321
  823MPD2     N12114   4.461   3.641  16.729 -0.0686 -0.1618 -0.4248
  823MPD2    H512115   4.463   3.602  16.822  0.4643  0.7527 -0.0548
  823MPD2    N112116   4.404   4.075  16.474 -0.5888  0.4644  0.7858
  823MPD2    H712117   4.425   4.174  16.485 -1.7198  0.6114  1.5461
  824MPD2     C12118   4.667   2.710  15.631 -0.4032  0.2090 -0.1115
  824MPD2    C112119   0.050   2.766  15.687  0.2471 -0.0663  0.7081
  824MPD2    C212120   0.175   2.725  15.652 -0.5001  0.5702  0.1366
  824MPD2    C312121   0.186   2.614  15.575 -0.7484  0.6036  0.5695
  824MPD2    C412122   0.078   2.552  15.521 -0.1074 -0.4283 -0.6111
  824MPD2    C512123   4.683   2.599  15.558  0.4423 -0.7639  0.0506
  824MPD2     H12124   0.263   2.777  15.689  0.0748 -2.0726  2.4419
  824MPD2    H112125   0.083   2.471  15.449 -3.1922 -0.9866 -0.1970
  824MPD2    H212126   4.570   2.745  15.663 -0.7756 -0.1857 -0.8317
  824MPD2    H312127   4.599   2.542  15.520  0.7364 -0.6207 -0.8071
  824MPD2     N12128   0.311   2.583  15.527  0.5227 -0.0313  0.1384
  824MPD2    H512129   0.379   2.646  15.568  2.0843 -0.9732 -1.0347
  824MPD2    N112130   0.033   2.880  15.766 -0.2459  0.8424 -0.5158
  824MPD2    H712131   4.665   2.920  15.769 -0.7969 -0.4229 -0.9471
  825MPD2     C12132   1.013   2.701  15.021 -0.2521 -0.0661  0.5982
  825MPD2    C112133   0.918   2.757  15.100  0.1741 -0.0812  0.1675
  825MPD2    C212134   0.896   2.896  15.086 -0.9692 -0.0761  0.7896
  825MPD2    C312135   0.956   2.962  14.984 -0.1158 -0.1622 -0.3281
  825MPD2    C412136   1.028   2.890  14.890 -0.2050 -0.1889 -0.1348
  825MPD2    C512137   1.067   2.760  14.908 -0.3488 -0.0970  0.2658
  825MPD2     H12138   0.810   2.933  15.142 -1.2968 -0.5915  0.6273
  825MPD2    H112139   1.064   2.931  14.797 -0.3991  1.3742  0.4744
  825MPD2    H212140   1.033   2.596  15.038 -0.8019 -0.2081  0.3573
  825MPD2    H312141   1.113   2.697  14.833  0.9324  0.5979  0.4798
  825MPD2     N12142   0.937   3.100  14.963 -0.0716 -1.4937  0.3159
  825MPD2    H512143   0.963   3.138  14.873 -1.5857  1.1413  0.9965
  825MPD2    N112144   0.850   2.669  15.184 -0.4039 -0.3829 -0.0137
  825MPD2    H712145   0.887   2.574  15.186 -3.0694 -1.4309 -0.4744
  826MPD2     C12146   1.149   2.527  12.845 -0.2166 -0.5646  0.7218
  826MPD2    C112147   1.169   2.636  12.931  0.4105  0.8781 -0.0470
  826MPD2    C212148   1.060   2.714  12.968 -0.2437  0.0043  0.4770
  826MPD2    C312149   0.936   2.697  12.911 -0.0631 -1.1374  0.0564
  826MPD2    C412150   0.914   2.592  12.823  1.1972 -0.3591  1.3507
  826MPD2    C512151   1.023   2.513  12.785 -0.1373 -0.0393 -0.0415
  826MPD2     H12152   1.073   2.796  13.038 -2.1109  1.0751 -0.4298
  826MPD2    H112153   0.816   2.571  12.783  1.3293  0.2540  0.7032
  826MPD2    H212154   1.228   2.460  12.814 -0.0815 -0.3697  0.6463
  826MPD2    H312155   1.005   2.431  12.716 -1.1342 -0.9075  1.2257
  826MPD2     N12156   0.824   2.769  12.949  0.4530  0.3344  0.2774
  826MPD2    H512157   0.730   2.735  12.929  0.4539 -0.6281  1.8518
  826MPD2    N112158   1.291   2.637  12.998 -0.5319 -0.0371 -0.3208
  826MPD2    H712159   1.350   2.555  12.986 -1.3675 -1.1053  2.8123
  827MPD2     C12160   1.248   4.385  10.130 -0.1612 -0.0783 -0.3288
  827MPD2    C112161   1.268   4.248  10.132  0.5678  0.1390 -0.2399
  827MPD2    C212162   1.187   4.164  10.061 -0.5303 -0.5177  0.5890
  827MPD2    C312163   1.088   4.213   9.982  0.0675 -0.2517  0.6497
  827MPD2    C412164   1.068   4.353   9.976 -0.5947 -0.7126 -0.1938
  827MPD2    C512165   1.136   4.433  10.058 -0.2349 -0.6304  0.2617
  827MPD2     H12166   1.203   4.058  10.047  2.0810  0.0394 -0.7187
  827MPD2    H112167   1.009   4.404   9.901  0.2159 -0.5278 -0.6990
  827MPD2    H212168   1.305   4.450  10.196 -1.2489  0.6169 -0.0819
  827MPD2    H312169   1.110   4.538  10.063 -0.7306 -0.7630  0.4675
  827MPD2     N12170   1.025   4.123   9.902 -0.4613  0.2565 -0.3023
  827MPD2    H512171   1.050   4.026   9.918 -0.4821  0.4628  0.9415
  827MPD2    N112172   1.368   4.202  10.217  0.1610 -0.1044  0.1441
  827MPD2    H712173   1.414   4.278  10.266  1.5269  0.5131 -2.0721
  828MPD2     C12174   4.234   4.014  12.574 -0.4185  0.8267 -0.0162
  828MPD2    C112175   4.223   3.990  12.439  0.0566 -0.1806 -0.3042
  828MPD2    C212176   4.338   3.949  12.368 -0.6472 -0.0229 -0.1050
  828MPD2    C312177   4.464   3.939  12.421  0.3081 -0.0853  0.1131
  828MPD2    C412178   4.473   3.975  12.557 -0.5121  0.4353 -0.3318
  828MPD2    C512179   4.356   3.998  12.628 -0.1415  0.2341 -1.0651
  828MPD2     H12180   4.321   3.929  12.262 -1.7817 -1.0327  0.2575
  828MPD2    H112181   4.573   3.978  12.599 -1.1178 -2.5761  1.3221
  828MPD2    H212182   4.152   4.020  12.645  0.1140  1.4479  0.5308
  828MPD2    H312183   4.369   4.021  12.733  0.3739  0.2201 -1.1257
  828MPD2     N12184   4.576   3.904  12.348  0.2152  0.1706 -0.0627
  828MPD2    H512185   4.667   3.899  12.393  0.6437 -1.2827 -1.0964
  828MPD2    N112186   4.114   4.007  12.353 -0.6345 -0.2279 -0.1192
  828MPD2    H712187   4.131   3.986  12.255 -2.2537 -2.6314  0.1223
  829MPD2     C12188   4.162   4.015  11.510  0.1786 -0.0201 -0.1485
  829MPD2    C112189   4.030   4.047  11.515 -0.7044 -0.4719 -0.2532
  829MPD2    C212190   3.969   4.055  11.638  0.0985  0.8021  0.3450
  829MPD2    C312191   4.040   4.042  11.757 -0.1542 -0.2882  0.5168
  829MPD2    C412192   4.173   4.014  11.747  0.3398  0.8970  0.6196
  829MPD2    C512193   4.230   3.996  11.626 -0.4148  0.0298 -0.2760
  829MPD2     H12194   3.862   4.071  11.647  0.3448  0.5432  3.6486
  829MPD2    H112195   4.232   4.004  11.837 -1.6597  1.0766  1.9584
  829MPD2    H212196   4.217   4.017  11.417  0.4711  2.4356  0.0747
  829MPD2    H312197   4.335   3.971  11.619 -0.2090  0.6332  0.6547
  829MPD2     N12198   3.996   4.047  11.888 -0.3266 -1.1107  0.3646
  829MPD2    H512199   4.069   4.018  11.953 -0.8281 -2.3293  0.3812
  829MPD2    N112200   3.964   4.074  11.391 -0.2350  0.6206 -0.5543
  829MPD2    H712201   4.012   4.069  11.302 -0.9577 -0.2191 -0.8926
  830MPD2     C12202   0.043   1.910  15.470  0.2765 -0.0207  0.1829
  830MPD2    C112203   4.682   1.927  15.368  0.0653 -0.8738 -0.1290
  830MPD2    C212204   4.724   1.998  15.260 -0.2249 -0.4854  0.0378
  830MPD2    C312205   0.116   2.058  15.260  1.2084  0.3229  0.7408
  830MPD2    C412206   0.204   2.036  15.361  0.4474 -1.1564 -0.3312
  830MPD2    C512207   0.171   1.960  15.469  0.2240  0.1867 -0.1965
  830MPD2     H12208   4.659   2.013  15.174  1.8977  0.5164 -1.3934
  830MPD2    H112209   0.300   2.086  15.365 -0.3956  0.3508  0.7659
  830MPD2    H212210   0.008   1.847  15.551  1.5969  1.5325  1.9445
  830MPD2    H312211   0.228   1.951  15.560 -1.5885 -1.1528  0.8076
  830MPD2     N12212   0.171   2.143  15.161 -0.8692 -0.0637 -0.1129
  830MPD2    H512213   0.261   2.189  15.174 -0.6488 -0.4677 -0.2099
  830MPD2    N112214   4.556   1.868  15.388 -0.6865  0.6473 -0.4755
  830MPD2    H712215   4.536   1.833  15.481  0.0180  0.9767 -0.2007
  831MPD2     C12216   0.145   3.889  16.246  0.6357  0.4292 -0.0996
  831MPD2    C112217   0.120   3.800  16.147  0.7327  0.1645 -0.6744
  831MPD2    C212218   4.722   3.742  16.138  0.8120  0.2508 -0.0324
  831MPD2    C312219   4.620   3.769  16.228  0.4544 -0.1034  0.2569
  831MPD2    C412220   4.652   3.871  16.324  0.0980 -0.3733 -0.6463
  831MPD2    C512221   0.049   3.937  16.334  0.9634  0.3417  0.6324
  831MPD2     H12222   4.703   3.670  16.058  0.7994  0.8936 -0.6116
  831MPD2    H112223   4.575   3.889  16.398 -0.3736 -1.3246 -0.8885
  831MPD2    H212224   0.240   3.942  16.248  0.9856 -0.1985 -0.0152
  831MPD2    H312225   0.071   4.014  16.407 -0.0621  1.9294 -0.7255
  831MPD2     N12226   4.485   3.708  16.223 -0.4069 -0.5989  0.7361
  831MPD2    H512227   4.431   3.737  16.304 -0.9654  1.2816 -0.3161
  831MPD2    N112228   0.220   3.779  16.058 -0.2416  0.4221  0.5494
  831MPD2    H712229   0.308   3.828  16.069 -0.2869  1.0240 -1.6205
  832MPD2     C12230   3.349   0.341  16.908 -0.7519  0.1373 -0.4789
  832MPD2    C112231   3.327   0.478  16.918  0.1922 -0.0564  0.1218
  832MPD2    C212232   3.197   0.523  16.877  0.2189 -0.0249  0.1253
  832MPD2    C312233   3.089   0.436  16.848 -0.5470  0.5391  0.2017
  832MPD2    C412234   3.120   0.300  16.849  0.3365  0.2666  0.7144
  832MPD2    C512235   3.246   0.257  16.876  0.6094  0.4414  0.3311
  832MPD2     H12236   3.171   0.628  16.884  3.0133  0.7313 -0.9568
  832MPD2    H112237   3.042   0.231  16.820  0.3016  1.7691 -2.7292
  832MPD2    H212238   3.449   0.306  16.932 -0.3564  0.4621 -1.6766
  832MPD2    H312239   3.268   0.151  16.871 -2.5231 -0.3013  2.6961
  832MPD2     N12240   2.956   0.476  16.810  0.1928 -0.1055  0.1733
  832MPD2    H512241   2.891   0.401  16.786 -0.4107  0.7555 -0.9348
  832MPD2    N112242   3.427   0.567  16.947  0.3526 -0.7084 -0.3250
  832MPD2    H712243   3.522   0.532  16.950 -0.1664 -1.9850  1.6991
  833MPD2     C12244   0.350   1.294  12.201  0.4091  0.1416  0.3940
  833MPD2    C112245   0.365   1.386  12.099 -0.2198  0.9858 -0.0624
  833MPD2    C212246   0.399   1.337  11.972  0.2061 -0.3757 -0.6248
  833MPD2    C312247   0.403   1.203  11.945  0.0041  0.5273  0.3896
  833MPD2    C412248   0.365   1.118  12.046  0.3607 -0.5850 -0.5582
  833MPD2    C512249   0.341   1.161  12.174  0.0788 -0.2053 -0.7437
  833MPD2     H12250   0.403   1.407  11.890 -3.2047 -0.3680 -0.7797
  833MPD2    H112251   0.359   1.011  12.029 -0.2042 -0.9290  1.8559
  833MPD2    H212252   0.331   1.320  12.304 -1.9147  0.7656 -0.1967
  833MPD2    H312253   0.317   1.096  12.257 -0.4019  0.1329 -0.6151
  833MPD2     N12254   0.425   1.150  11.811 -0.0145  0.5108 -0.5106
  833MPD2    H512255   0.423   1.049  11.802  0.1670  0.3949  0.7026
  833MPD2    N112256   0.348   1.524  12.122 -0.9980 -0.3872  0.0827
  833MPD2    H712257   0.340   1.558  12.218 -1.0494 -0.2358  0.0235
  834MPD2     C12258   4.502   0.797  11.205  0.0965 -0.3715 -0.4550
  834MPD2    C112259   4.605   0.805  11.116  0.7968 -0.6999 -0.0381
  834MPD2    C212260   4.713   0.889  11.143  0.7725  0.1425 -0.9591
  834MPD2    C312261   4.725   0.945  11.269  0.0184 -0.2146  0.3120
  834MPD2    C412262   4.627   0.916  11.366 -0.1771  0.0393 -0.1160
  834MPD2    C512263   4.516   0.844  11.329  0.1776 -0.1804  0.7252
  834MPD2     H12264   0.069   0.904  11.074 -0.7288 -2.2880 -3.2627
  834MPD2    H112265   4.608   0.959  11.463  0.1925  1.5003 -0.6903
  834MPD2    H212266   4.412   0.743  11.179 -0.1455  0.5989 -1.6477
  834MPD2    H312267   4.435   0.830  11.399 -1.0446  1.7304 -0.3354
  834MPD2     N12268   0.107   1.031  11.295 -0.4367  0.3740  0.2757
  834MPD2    H512269   0.170   1.050  11.217 -2.6400 -1.0321 -1.8334
  834MPD2    N112270   4.594   0.733  10.991  0.2023 -0.3227 -0.2288
  834MPD2    H712271   4.522   0.663  10.976  0.5397 -0.6685 -0.2401
  835MPD2     C12272   0.116   4.176  11.189 -0.1059  0.0056 -0.6539
  835MPD2    C112273   0.021   4.255  11.124 -0.5648 -0.4475  0.6564
  835MPD2    C212274   4.626   4.278  11.193 -0.1593  0.4172 -0.3475
  835MPD2    C312275   4.610   4.229  11.320 -0.7857  0.1147  0.4538
  835MPD2    C412276   4.697   4.133  11.379 -0.2016  0.4518 -0.2506
  835MPD2    C512277   0.091   4.120  11.311 -0.9276 -0.3102  0.0773
  835MPD2     H12278   4.545   4.326  11.139 -0.5710  1.6048  1.3002
  835MPD2    H112279   4.669   4.078  11.468  2.9213 -0.0573  0.3952
  835MPD2    H212280   0.200   4.136  11.133  1.0918  1.2625  0.2351
  835MPD2    H312281   0.161   4.044  11.344  1.2652  2.0639  0.8687
  835MPD2     N12282   4.508   4.261  11.407 -0.0024 -0.2323  0.2645
  835MPD2    H512283   4.486   4.191  11.477  1.3080 -0.9138 -0.0086
  835MPD2    N112284   0.036   4.301  10.991  0.0759  0.5343  0.0098
  835MPD2    H712285   4.684   4.344  10.942 -0.0866 -2.9094 -2.7885
  836MPD2     C12286   3.757   4.526  11.260 -0.2914  0.4044  0.8120
  836MPD2    C112287   3.792   4.533  11.393  0.2970  0.1578 -0.3200
  836MPD2    C212288   3.707   4.577  11.491  0.0801 -0.2687 -0.2621
  836MPD2    C312289   3.580   4.614  11.461  0.5022 -0.7724 -0.1489
  836MPD2    C412290   3.542   4.599  11.328  0.0010 -0.0946 -0.5043
  836MPD2    C512291   3.634   4.563  11.228  0.0394  0.5394 -0.0391
  836MPD2     H12292   3.738   4.592  11.594 -3.2180  2.3381  0.3454
  836MPD2    H112293   3.439   4.624  11.303 -0.2366 -0.3413  0.2343
  836MPD2    H212294   3.824   4.497  11.180  0.1059 -0.1770  1.3540
  836MPD2    H312295   3.596   4.540  11.130 -0.4936 -0.4724  0.4020
  836MPD2     N12296   3.484   4.651  11.559  0.4742 -0.1123  0.2097
  836MPD2    H512297   3.390   4.660  11.521  1.5839  1.7611 -2.0389
  836MPD2    N112298   3.919   4.483  11.430  0.1876  0.8604  0.2609
  836MPD2    H712299   3.976   4.458  11.350 -0.6294  0.0154 -0.0421
  837MPD2     C12300   2.289   4.051   9.700 -0.0665  0.0146  0.5953
  837MPD2    C112301   2.406   3.988   9.727  0.3094  0.4062  0.2817
  837MPD2    C212302   2.492   4.036   9.828 -1.3793  0.3722 -0.2032
  837MPD2    C312303   2.465   4.157   9.889 -0.1698  0.6185  0.2198
  837MPD2    C412304   2.359   4.227   9.844  0.1433  0.3748 -0.0006
  837MPD2    C512305   2.268   4.176   9.761 -0.0917 -0.3166 -0.5887
  837MPD2     H12306   2.575   3.980   9.870 -0.7696 -0.2493 -2.1877
  837MPD2    H112307   2.336   4.323   9.890 -0.6540  1.0678 -1.8193
  837MPD2    H212308   2.200   4.014   9.651 -1.2471  2.4641  0.9188
  837MPD2    H312309   2.171   4.223   9.747  0.1448  0.5763  0.7430
  837MPD2     N12310   2.557   4.205   9.981  0.2585 -0.4869 -0.0227
  837MPD2    H512311   2.625   4.136  10.011  1.8230  0.9801 -0.2259
  837MPD2    N112312   2.440   3.865   9.666  0.3127 -0.2651  0.8306
  837MPD2    H712313   2.523   3.813   9.696 -0.1771 -1.0898  0.7537
  838MPD2     C12314   1.240   1.650  11.197 -1.0922  0.1648 -0.3107
  838MPD2    C112315   1.256   1.726  11.309  0.5469  0.9444  0.5540
  838MPD2    C212316   1.148   1.742  11.397  0.1345 -0.1365  0.4948
  838MPD2    C312317   1.029   1.671  11.387 -0.1826 -0.3289  0.1026
  838MPD2    C412318   1.025   1.578  11.283 -0.5380  0.3208 -0.2289
  838MPD2    C512319   1.121   1.572  11.192 -0.5796  0.0011 -0.4783
  838MPD2     H12320   1.152   1.806  11.485 -2.9440  3.5185 -2.0298
  838MPD2    H112321   0.939   1.512  11.273  0.0355 -0.3421 -0.7199
  838MPD2    H212322   1.316   1.633  11.122  1.2912  0.3056  2.0935
  838MPD2    H312323   1.114   1.507  11.105  0.1277  2.7850 -2.6201
  838MPD2     N12324   0.934   1.688  11.487  0.8546  1.0832 -0.2690
  838MPD2    H512325   0.957   1.766  11.549  2.8248  0.6293 -0.4329
  838MPD2    N112326   1.377   1.786  11.343  0.4458  0.0029  0.3255
  838MPD2    H712327   1.373   1.853  11.419  0.0483  0.1722  0.1526
  839MPD2     C12328   1.456   1.535  12.032 -0.2991  0.0217  0.4746
  839MPD2    C112329   1.403   1.508  11.911  0.9385 -0.0185 -0.9377
  839MPD2    C212330   1.456   1.574  11.800  0.1154  0.1792 -0.3964
  839MPD2    C312331   1.558   1.666  11.819 -0.3601  0.9827  0.5194
  839MPD2    C412332   1.603   1.697  11.945  0.3931 -0.2546  0.0231
  839MPD2    C512333   1.550   1.630  12.050 -0.2420 -0.7486 -0.6194
  839MPD2     H12334   1.420   1.566  11.698 -2.1952  0.0105  0.4265
  839MPD2    H112335   1.676   1.773  11.970 -0.1724  0.1248  0.5228
  839MPD2    H212336   1.423   1.478  12.117  0.3270  1.3342  1.6017
  839MPD2    H312337   1.590   1.642  12.150 -2.5620 -0.4981  0.2754
  839MPD2     N12338   1.602   1.732  11.701  0.0418  0.9387 -0.5137
  839MPD2    H512339   1.551   1.717  11.615  1.5893 -1.1789 -1.0368
  839MPD2    N112340   1.285   1.436  11.882 -0.6262  0.7273 -0.2670
  839MPD2    H712341   1.269   1.422  11.783 -0.5588 -2.5044  0.1927
  840MPD2     C12342   1.581   4.647  10.446 -0.6959  0.4769  0.0354
  840MPD2    C112343   1.639   4.550  10.537 -0.1932 -1.2723 -0.2358
  840MPD2    C212344   1.724   4.589  10.647  0.0166  0.0027 -0.0887
  840MPD2    C312345   1.754   0.001  10.651  0.5854  0.1585 -0.1370
  840MPD2    C412346   1.693   0.093  10.566 -0.7033  0.1431 -0.7952
  840MPD2    C512347   1.608   0.053  10.466 -0.6649  0.3263  0.2358
  840MPD2     H12348   1.772   4.511  10.705  0.9499  0.2568 -0.5071
  840MPD2    H112349   1.714   0.199  10.578 -1.6807  0.2548 -0.0406
  840MPD2    H212350   1.515   4.629  10.361  0.1863  1.5611 -0.8786
  840MPD2    H312351   1.547   0.122  10.409  0.3327  0.0241 -1.1946
  840MPD2     N12352   1.837   0.053  10.747 -0.3900  0.3744  0.8419
  840MPD2    H512353   1.831   0.154  10.750 -0.1509  0.4341 -0.6730
  840MPD2    N112354   1.622   4.411  10.513 -0.2681 -0.0251 -0.6214
  840MPD2    H712355   1.581   4.390  10.422 -1.4978  0.2550 -0.1213
  841MPD2     C12356   2.017   3.736  13.947 -0.2531  0.0926 -0.0405
  841MPD2    C112357   1.982   3.690  14.070  0.4356 -0.0257  0.8309
  841MPD2    C212358   2.063   3.700  14.179  0.0437 -0.2485  0.4613
  841MPD2    C312359   2.171   3.787  14.167 -0.0811 -0.4073  0.5004
  841MPD2    C412360   2.197   3.850  14.043  0.1329 -0.3340  0.1863
  841MPD2    C512361   2.122   3.815  13.934  0.0295  0.3026  0.6160
  841MPD2     H12362   2.035   3.660  14.276 -1.0178  0.5009  0.4772
  841MPD2    H112363   2.280   3.916  14.026 -0.7706  0.7769  0.0899
  841MPD2    H212364   1.964   3.711  13.856 -2.2301 -0.5008  1.2678
  841MPD2    H312365   2.142   3.861  13.838  1.6113 -1.8768 -0.0848
  841MPD2     N12366   2.244   3.812  14.286 -0.4821  0.0856  1.1288
  841MPD2    H512367   2.216   3.760  14.369  0.4215  1.7052  2.4470
  841MPD2    N112368   1.871   3.603  14.092  0.7229  0.0201  0.3305
  841MPD2    H712369   1.856   3.546  14.175 -1.4857  0.0664 -0.0509
  842MPD2     C12370   2.216   0.699  16.655 -0.0306 -0.4818  0.3366
  842MPD2    C112371   2.095   0.642  16.640  0.0910  0.0543 -0.3254
  842MPD2    C212372   2.046   0.581  16.758 -0.2264  0.1385 -0.2546
  842MPD2    C312373   2.125   0.566  16.870 -0.2710 -0.1130 -0.7573
  842MPD2    C412374   2.247   0.618  16.873 -0.4331  0.0465  0.4212
  842MPD2    C512375   2.290   0.685  16.768 -0.0639  0.7808 -0.1516
  842MPD2     H12376   1.954   0.524  16.750 -0.2960  0.0587  1.0936
  842MPD2    H112377   2.321   0.614  16.952  0.0193  1.3480  0.0737
  842MPD2    H212378   2.257   0.771  16.585 -2.2000  0.7372  0.3036
  842MPD2    H312379   2.381   0.743  16.779  0.3098 -0.1368  1.6709
  842MPD2     N12380   2.079   0.503  16.992  0.4028  0.1075 -0.4408
  842MPD2    H512381   2.150   0.496  17.065 -0.8404  0.3841  0.7897
  842MPD2    N112382   2.018   0.661  16.519  0.2066 -0.2452 -0.1926
  842MPD2    H712383   2.065   0.708  16.443 -0.4246 -2.0085 -1.6807
  843MPD2     C12384   4.451   0.914  17.584 -0.8580  0.6408  0.3780
  843MPD2    C112385   4.506   0.882   0.003 -0.6322 -0.1084  0.4598
  843MPD2    C212386   4.624   0.944   0.036 -0.4709 -0.1542 -0.5376
  843MPD2    C312387   4.693   1.027  17.649  0.0029 -0.2504 -0.4189
  843MPD2    C412388   4.636   1.056  17.532  0.2293 -0.6186 -0.1999
  843MPD2    C512389   4.520   1.001  17.495  0.4164 -0.0703 -0.6177
  843MPD2     H12390   4.674   0.915   0.127  0.1882 -0.9265 -1.1539
  843MPD2    H112391   4.673   1.125  17.457  0.3309  0.2929  0.6891
  843MPD2    H212392   4.362   0.860  17.553 -0.5951  2.0231 -2.7394
  843MPD2    H312393   4.480   1.035  17.400  3.6843  0.1911 -1.9083
  843MPD2     N12394   0.089   1.092  17.684 -0.2774 -0.3216 -0.2592
  843MPD2    H512395   0.126   1.065   0.071 -3.3649  2.2549  1.7462
  843MPD2    N112396   4.430   0.792   0.087 -0.4350 -0.1075 -0.2548
  843MPD2    H712397   4.356   0.747   0.034 -0.5872 -0.9140  0.6518
  844MPD2     C12398   3.233   0.698  16.618 -0.1992  0.2567  0.2856
  844MPD2    C112399   3.361   0.649  16.599 -0.6080 -0.0543 -0.2581
  844MPD2    C212400   3.474   0.730  16.608  0.4442 -0.6068 -0.3384
  844MPD2    C312401   3.458   0.862  16.631 -0.2483  0.0728  0.2064
  844MPD2    C412402   3.327   0.904  16.658  1.5154 -0.2841  0.4713
  844MPD2    C512403   3.217   0.832  16.654 -0.3209 -0.0684  0.5226
  844MPD2     H12404   3.572   0.695  16.578  0.4460 -0.4647 -0.4998
  844MPD2    H112405   3.310   1.009  16.679  0.0036 -0.0290 -2.0195
  844MPD2    H212406   3.140   0.642  16.616  1.3276 -2.1631 -3.3360
  844MPD2    H312407   3.118   0.868  16.681  1.1816  2.7504  2.2639
  844MPD2     N12408   3.579   0.933  16.643 -0.0056  0.0477  0.1804
  844MPD2    H512409   3.662   0.888  16.606 -0.5505 -1.4294  0.7688
  844MPD2    N112410   3.388   0.518  16.557 -0.0023 -0.4334  0.8166
  844MPD2    H712411   3.485   0.487  16.558  0.0328 -0.2888  1.6407
  845MPD2     C12412   3.749   1.931  16.841 -0.3903 -0.0790  0.3041
  845MPD2    C112413   3.635   1.860  16.814  0.3375  0.1205 -0.6043
  845MPD2    C212414   3.660   1.736  16.759  0.2102  0.1546 -0.1165
  845MPD2    C312415   3.787   1.676  16.759  0.3896 -0.1539  0.0292
  845MPD2    C412416   3.897   1.745  16.794  0.1664  0.0431  0.0924
  845MPD2    C512417   3.875   1.877  16.835 -0.8142 -0.3699  0.8368
  845MPD2     H12418   3.585   1.665  16.727  0.7272 -0.3709 -0.1781
  845MPD2    H112419   3.997   1.704  16.785  0.0785 -0.3174  0.7417
  845MPD2    H212420   3.740   2.030  16.884 -1.6841  0.4212 -1.1390
  845MPD2    H312421   3.955   1.936  16.876  2.2176 -1.7963 -2.9944
  845MPD2     N12422   3.788   1.532  16.741 -1.3561  0.0084  0.4167
  845MPD2    H512423   3.702   1.486  16.714 -1.6349 -0.1400  1.5239
  845MPD2    N112424   3.506   1.912  16.834 -0.0627  0.0968 -0.4927
  845MPD2    H712425   3.492   1.998  16.885 -3.0275 -1.3237  1.0885
  846MPD2     C12426   4.483   1.227  13.320  0.3159  0.1867  0.7909
  846MPD2    C112427   4.391   1.318  13.358  0.1392 -0.2672  0.0792
  846MPD2    C212428   4.339   1.311  13.490  0.6285  0.4957 -0.1936
  846MPD2    C312429   4.379   1.211  13.572  0.2148  0.4720 -0.1282
  846MPD2    C412430   4.469   1.119  13.527  0.1264  0.2231 -0.0511
  846MPD2    C512431   4.523   1.133  13.403 -0.1443 -0.5751 -0.3778
  846MPD2     H12432   4.254   1.376  13.507 -2.0230 -2.6079 -1.5499
  846MPD2    H112433   4.510   1.049  13.598 -0.6182  0.3652  0.5153
  846MPD2    H212434   4.534   1.237  13.224  1.4200  2.6675  1.6192
  846MPD2    H312435   4.609   1.080  13.364  1.3804  2.3675 -1.0000
  846MPD2     N12436   4.314   1.204  13.698  0.0867 -0.3542 -0.5128
  846MPD2    H512437   4.228   1.256  13.710  0.2178 -0.3841  0.5906
  846MPD2    N112438   4.350   1.419  13.275  0.4420  0.1290 -0.4593
  846MPD2    H712439   4.302   1.497  13.318  0.8843  0.2085 -0.1095
  847MPD2     C12440   4.549   2.650  13.200  0.1001  0.1501 -0.0559
  847MPD2    C112441   4.522   2.609  13.323 -0.0699  1.3568  0.5222
  847MPD2    C212442   4.432   2.504  13.334 -0.4330 -0.0423 -0.3983
  847MPD2    C312443   4.362   2.447  13.237 -0.1209 -0.2062 -0.4402
  847MPD2    C412444   4.384   2.501  13.110 -0.2073 -0.5012 -0.0633
  847MPD2    C512445   4.479   2.597  13.093  0.1084 -0.2300 -0.1299
  847MPD2     H12446   4.419   2.464  13.434 -0.9579  4.1402  1.2150
  847MPD2    H112447   4.318   2.469  13.031 -1.1120  2.2117 -0.3940
  847MPD2    H212448   4.619   2.731  13.185 -0.7712  1.2622  1.9815
  847MPD2    H312449   4.487   2.638  12.993 -2.3284 -1.1546 -0.7113
  847MPD2     N12450   4.278   2.345  13.268  0.7318  0.4805 -0.7669
  847MPD2    H512451   4.270   2.322  13.366  0.1092 -1.0327 -1.1792
  847MPD2    N112452   4.590   2.645  13.441 -0.2325  0.6602  0.3871
  847MPD2    H712453   4.566   2.599  13.528  0.2316 -1.3110 -0.5217
  848MPD2     C12454   2.533   0.722  16.192  0.1001 -0.1621  1.0372
  848MPD2    C112455   2.569   0.805  16.299 -0.4332 -0.1490 -0.3556
  848MPD2    C212456   2.589   0.941  16.272 -0.5808  0.6300  0.2863
  848MPD2    C312457   2.566   0.996  16.145 -0.6202 -0.3401  0.9308
  848MPD2    C412458   2.540   0.911  16.038  0.0641 -0.5020 -0.0580
  848MPD2    C512459   2.528   0.775  16.065 -0.1568  0.6679 -0.6388
  848MPD2     H12460   2.625   1.006  16.351 -0.1224  1.3126 -0.4860
  848MPD2    H112461   2.522   0.944  15.936  0.5014 -3.1911 -1.0122
  848MPD2    H212462   2.521   0.615  16.207 -0.6905  0.0481  1.9337
  848MPD2    H312463   2.504   0.705  15.986  0.6899 -1.1418  0.7130
  848MPD2     N12464   2.566   1.134  16.108 -0.0186  0.3889 -0.3011
  848MPD2    H512465   2.532   1.148  16.013  0.4802  1.1471 -0.3662
  848MPD2    N112466   2.589   0.762  16.434  0.0962 -0.4899  0.1482
  848MPD2    H712467   2.611   0.824  16.511 -2.7190  0.4216  0.2388
  849MPD2     C12468   1.649   0.650  14.249  0.0088  0.3516 -0.0502
  849MPD2    C112469   1.735   0.563  14.192  0.3299  0.9359  0.1101
  849MPD2    C212470   1.766   0.447  14.257  0.4707 -0.1334  0.0239
  849MPD2    C312471   1.720   0.430  14.391 -0.2059 -0.2590 -0.7848
  849MPD2    C412472   1.642   0.518  14.450  0.2491 -0.4575 -0.4665
  849MPD2    C512473   1.597   0.624  14.375 -0.3333 -0.8937 -0.1426
  849MPD2     H12474   1.830   0.374  14.210 -2.0924 -1.1887 -1.8466
  849MPD2    H112475   1.596   0.501  14.547 -0.3275 -0.0237 -0.6670
  849MPD2    H212476   1.606   0.732  14.192  1.3861  1.4191  0.4462
  849MPD2    H312477   1.530   0.695  14.421  0.3945 -0.9045  0.9459
  849MPD2     N12478   1.784   0.323  14.469  0.1612  0.9702 -0.3893
  849MPD2    H512479   1.854   0.267  14.421  0.5399  0.6086  0.5946
  849MPD2    N112480   1.788   0.590  14.061 -0.3729  0.4482 -0.2718
  849MPD2    H712481   1.779   0.682  14.021 -0.2452  0.2555 -0.7494
  850MPD2     C12482   4.201   2.979  14.717 -0.3578 -0.2137 -0.1909
  850MPD2    C112483   4.229   2.985  14.854 -0.5932  0.0470  0.1905
  850MPD2    C212484   4.355   2.949  14.892 -0.2109  0.0316 -0.3515
  850MPD2    C312485   4.458   2.922  14.801  0.1630 -0.3341 -0.7750
  850MPD2    C412486   4.420   2.908  14.669  0.4656 -0.0200 -0.0800
  850MPD2    C512487   4.292   2.930  14.628 -0.6763 -0.9663  0.4513
  850MPD2     H12488   4.388   2.942  14.995 -1.7068  0.5094  0.1650
  850MPD2    H112489   4.498   2.877  14.601 -0.6723  1.6376 -2.1161
  850MPD2    H212490   4.102   2.999  14.676  0.2634  1.9274 -0.6546
  850MPD2    H312491   4.272   2.918  14.523 -1.6161  0.7790  0.4292
  850MPD2     N12492   4.593   2.922  14.835  0.4141 -0.3030 -0.0023
  850MPD2    H512493   4.652   2.911  14.754 -0.9314 -0.2298 -0.9868
  850MPD2    N112494   4.119   3.021  14.942  0.3352 -0.2566 -0.3138
  850MPD2    H712495   4.031   3.032  14.893 -0.4132 -0.3133  1.0215
  851MPD2     C12496   0.144   2.948  15.365  0.0812 -0.5440  0.0535
  851MPD2    C112497   0.033   2.884  15.314  0.0721  0.6795  0.1957
  851MPD2    C212498   0.052   2.771  15.229 -0.5040 -0.2620  0.3951
  851MPD2    C312499   0.184   2.728  15.206 -0.2114 -0.1244  0.1073
  851MPD2    C412500   0.292   2.804  15.248  0.4454 -0.2234  1.3159
  851MPD2    C512501   0.271   2.915  15.327 -0.2909  0.2276 -0.8976
  851MPD2     H12502   4.694   2.727  15.177 -0.6580  0.9221 -0.3684
  851MPD2    H112503   0.394   2.771  15.229  0.3912  0.0927  0.4739
  851MPD2    H212504   0.139   3.037  15.428 -0.0506 -0.4196 -0.1325
  851MPD2    H312505   0.354   2.976  15.361  0.3587 -1.3951  0.4064
  851MPD2     N12506   0.191   2.620  15.110  1.3829 -0.2162 -0.1445
  851MPD2    H512507   0.112   2.561  15.085 -1.0909  2.1344  2.1219
  851MPD2    N112508   4.632   2.945  15.342 -0.2985 -0.1185 -0.1979
  851MPD2    H712509   4.633   3.024  15.406  0.8842 -0.9699  0.8555
  852MPD2     C12510   3.688   1.290   9.663  0.3455 -0.6471  0.5422
  852MPD2    C112511   3.707   1.325   9.797  0.4451 -0.2191  0.5081
  852MPD2    C212512   3.825   1.381   9.829  0.2706  0.2095 -0.1536
  852MPD2    C312513   3.935   1.389   9.741  0.3528  0.3014 -0.0751
  852MPD2    C412514   3.912   1.351   9.611  0.3413 -0.3777  0.8791
  852MPD2    C512515   3.789   1.313   9.567 -0.5972 -0.4930 -0.1463
  852MPD2     H12516   3.845   1.409   9.932  0.7277  0.9693 -0.4534
  852MPD2    H112517   3.985   1.360   9.531 -1.4514 -0.7518 -0.7716
  852MPD2    H212518   3.596   1.248   9.623 -1.3546  1.9519  1.7098
  852MPD2    H312519   3.775   1.296   9.461  1.9719 -1.3209 -0.3560
  852MPD2     N12520   4.060   1.431   9.791 -0.7881 -0.5308  0.6001
  852MPD2    H512521   4.070   1.432   9.893  0.8698  2.8104  0.4006
  852MPD2    N112522   3.608   1.308   9.896  0.7687  0.5080 -0.0079
  852MPD2    H712523   3.640   1.353   9.982  0.8355 -1.0430  0.7744
  853MPD2     C12524   1.027   0.545  12.447  0.3180 -0.0509  0.7995
  853MPD2    C112525   0.922   0.622  12.399  0.3900 -0.5660 -0.5160
  853MPD2    C212526   0.893   0.626  12.263  0.3291  0.6909  0.1006
  853MPD2    C312527   0.970   0.546  12.175  0.9133  0.9348 -0.1086
  853MPD2    C412528   1.074   0.468  12.232 -0.0544 -0.6785 -0.2794
  853MPD2    C512529   1.094   0.466  12.360  0.6608 -0.5478  0.4927
  853MPD2     H12530   0.806   0.680  12.227 -0.3985 -0.3470  0.3189
  853MPD2    H112531   1.139   0.406  12.170 -1.3670 -1.3783 -0.9438
  853MPD2    H212532   1.064   0.550  12.549  0.5930 -1.2937  0.7526
  853MPD2    H312533   1.173   0.400  12.394  1.4135 -0.5054 -1.1536
  853MPD2     N12534   0.964   0.567  12.037 -0.0451 -0.3422 -0.2500
  853MPD2    H512535   1.029   0.513  11.980  0.3059  1.5419 -1.6292
  853MPD2    N112536   0.856   0.705  12.501  0.3277  0.7719 -0.3756
  853MPD2    H712537   0.877   0.678  12.597  0.0935  0.7162 -0.3388
  854MPD2     C12538   3.473   1.061  12.786  0.2836 -0.8074  1.2830
  854MPD2    C112539   3.346   1.009  12.773  0.5962 -0.2881 -0.3292
  854MPD2    C212540   3.327   0.876  12.812 -0.9299  0.6610  0.0120
  854MPD2    C312541   3.429   0.800  12.860 -0.3385 -0.2913  0.3918
  854MPD2    C412542   3.554   0.850  12.872 -0.3605 -0.2583  0.0658
  854MPD2    C512543   3.573   0.981  12.843 -1.1137 -0.3091 -0.1903
  854MPD2     H12544   3.225   0.840  12.804 -0.8071  0.1446  0.7731
  854MPD2    H112545   3.636   0.798  12.920  0.1570 -0.1687 -0.7072
  854MPD2    H212546   3.505   1.160  12.759  0.8344 -1.1467  0.7020
  854MPD2    H312547   3.668   1.032  12.856 -1.5418  0.3735  0.1839
  854MPD2     N12548   3.424   0.658  12.894  0.4097  0.4683 -0.0211
  854MPD2    H512549   3.507   0.622  12.940 -0.2527 -0.3008  0.5660
  854MPD2    N112550   3.239   1.078  12.716  0.7008  0.0241  0.2788
  854MPD2    H712551   3.252   1.177  12.699 -1.0651  0.1269 -0.4080
  855MPD2     C12552   3.766   0.362  13.592  0.3427  0.6964 -0.2331
  855MPD2    C112553   3.644   0.304  13.580 -0.0391 -0.5591 -0.2760
  855MPD2    C212554   3.593   0.273  13.455  1.1195  0.5581 -0.2186
  855MPD2    C312555   3.664   0.311  13.335 -0.2847  0.4294 -0.5575
  855MPD2    C412556   3.789   0.361  13.352 -0.1327  0.2104  0.5904
  855MPD2    C512557   3.843   0.382  13.478  0.2522  0.4862 -0.2469
  855MPD2     H12558   3.494   0.229  13.452  0.8843  1.2081 -2.3481
  855MPD2    H112559   3.853   0.385  13.268 -2.2454 -1.3197 -1.4661
  855MPD2    H212560   3.798   0.409  13.684  1.2837 -0.8036  0.2069
  855MPD2    H312561   3.938   0.433  13.484  1.0309 -1.1662  1.6435
  855MPD2     N12562   3.610   0.302  13.210 -0.3569 -0.7894 -0.2197
  855MPD2    H512563   3.654   0.345  13.130  0.0531 -1.4987 -0.3793
  855MPD2    N112564   3.554   0.277  13.695  0.3087  0.0218  0.1814
  855MPD2    H712565   3.478   0.215  13.670 -0.3639  1.7238 -1.9247
  856MPD2     C12566   0.419   1.445  13.997 -0.4555  0.0537 -0.0350
  856MPD2    C112567   0.537   1.513  13.991 -0.7887  0.8490  0.1812
  856MPD2    C212568   0.545   1.642  13.941  0.1812 -0.1268  0.4081
  856MPD2    C312569   0.441   1.691  13.870 -0.5145  0.7734 -0.2055
  856MPD2    C412570   0.321   1.614  13.861  0.1374 -0.0199  0.0072
  856MPD2    C512571   0.314   1.499  13.932 -0.2993  0.5540 -0.4854
  856MPD2     H12572   0.645   1.683  13.938  0.6593 -1.3233 -0.3969
  856MPD2    H112573   0.229   1.637  13.809  0.3372  2.1771  0.6568
  856MPD2    H212574   0.411   1.354  14.056  0.1465  1.1248  1.6961
  856MPD2    H312575   0.213   1.460  13.935 -0.2938  0.7039  1.9236
  856MPD2     N12576   0.457   1.815  13.804  0.2192  0.0869 -0.6015
  856MPD2    H512577   0.539   1.873  13.823  1.0263 -1.9882  2.2452
  856MPD2    N112578   0.659   1.444  14.010  0.0259  0.1076  0.1177
  856MPD2    H712579   0.745   1.497  14.008 -1.0119  1.7973 -0.2210
  857MPD2     C12580   1.935   3.553  12.594 -0.1693 -0.5828  1.0820
  857MPD2    C112581   2.072   3.521  12.607  0.2200 -0.2453 -0.6887
  857MPD2    C212582   2.161   3.620  12.596  0.9863 -0.0753  0.0895
  857MPD2    C312583   2.122   3.746  12.575  0.0336  0.4888 -0.3554
  857MPD2    C412584   1.989   3.775  12.560  0.0070  0.8297  0.4084
  857MPD2    C512585   1.896   3.676  12.575 -0.0188 -0.1283  0.2468
  857MPD2     H12586   2.269   3.604  12.597  1.0321  0.2909  1.1060
  857MPD2    H112587   1.961   3.878  12.544 -1.9959  0.2188  0.0886
  857MPD2    H212588   1.869   3.466  12.588 -0.3008 -0.3524 -0.8279
  857MPD2    H312589   1.793   3.702  12.553  0.1290 -1.5496 -2.0128
  857MPD2     N12590   2.227   3.842  12.563 -0.1498 -0.0483 -0.6861
  857MPD2    H512591   2.319   3.800  12.572  0.4694  1.7445  1.5732
  857MPD2    N112592   2.107   3.385  12.637 -0.0370  0.5425 -0.3010
  857MPD2    H712593   2.032   3.317  12.636 -0.8489  1.4649 -1.5773
  858MPD2     C12594   2.985   2.807  16.392 -0.6885  0.3060 -0.3944
  858MPD2    C112595   3.104   2.831  16.334 -0.0954 -0.0691 -0.5191
  858MPD2    C212596   3.163   2.951  16.375  0.1775  0.7036  0.1228
  858MPD2    C312597   3.106   3.047  16.454  0.4841  0.0605  0.0034
  858MPD2    C412598   2.989   3.014  16.513 -0.3115  0.2869  0.5871
  858MPD2    C512599   2.928   2.897  16.479 -0.2640 -0.6785 -0.1844
  858MPD2     H12600   3.267   2.957  16.344  0.4624  0.2699  0.9854
  858MPD2    H112601   2.931   3.086  16.570  1.2707  1.8426  0.2554
  858MPD2    H212602   2.930   2.716  16.373  0.9676 -0.6786 -0.4836
  858MPD2    H312603   2.833   2.877  16.528 -0.3845 -0.0186 -0.1390
  858MPD2     N12604   3.160   3.168  16.489  0.3712  0.5598  0.4483
  858MPD2    H512605   3.108   3.227  16.553  0.1753 -0.2657  1.0560
  858MPD2    N112606   3.183   2.737  16.259  1.3065  0.2116  0.3263
  858MPD2    H712607   3.130   2.651  16.249  2.0617 -0.1230 -0.7860
  859MPD2     C12608   1.314   0.058  14.990 -0.2119  0.0398  0.8967
  859MPD2    C112609   1.392   0.039  15.107 -0.5260  0.2714 -0.4088
  859MPD2    C212610   1.391   4.634  15.169  0.5106  0.2271  0.0363
  859MPD2    C312611   1.336   4.526  15.102  0.1355 -0.5029 -0.2869
  859MPD2    C412612   1.258   4.549  14.987 -0.0131 -0.4187 -0.3727
  859MPD2    C512613   1.236   4.674  14.942 -0.4860 -0.2529 -0.0138
  859MPD2     H12614   1.451   4.616  15.257  0.3397 -0.8682 -0.0767
  859MPD2    H112615   1.226   4.461  14.934 -2.6726  1.2679 -1.5670
  859MPD2    H212616   1.313   0.156  14.945 -1.1998 -0.6820 -0.6469
  859MPD2    H312617   1.172   4.686  14.856  0.3818 -0.0242 -0.6268
  859MPD2     N12618   1.363   4.388  15.135 -0.1306  0.1392 -0.6943
  859MPD2    H512619   1.318   4.318  15.077  4.1246 -2.5624 -0.7689
  859MPD2    N112620   1.458   0.146  15.161 -0.5334  0.5435 -0.0581
  859MPD2    H712621   1.464   0.233  15.109  1.2495  0.1117 -0.5541
  860MPD2     C12622   3.744   0.284  11.403 -0.0453 -0.3091  0.7028
  860MPD2    C112623   3.751   0.381  11.500  0.3191  0.5728 -0.3797
  860MPD2    C212624   3.648   0.415  11.585 -0.2451 -0.7185 -0.1386
  860MPD2    C312625   3.532   0.344  11.572  0.6113 -0.0997 -0.5390
  860MPD2    C412626   3.521   0.253  11.474  0.2297 -0.5558  0.4299
  860MPD2    C512627   3.619   0.220  11.388  0.2619  0.4251  0.2011
  860MPD2     H12628   3.663   0.485  11.666 -0.5979  0.0779 -0.7599
  860MPD2    H112629   3.424   0.208  11.456 -2.1098  4.3168  0.8819
  860MPD2    H212630   3.824   0.263  11.332 -0.2939  1.2051 -0.0138
  860MPD2    H312631   3.611   0.138  11.318 -0.9936 -0.2125  1.0940
  860MPD2     N12632   3.428   0.378  11.665 -0.2341 -0.3860 -0.0233
  860MPD2    H512633   3.455   0.443  11.738  0.3136 -0.5533 -0.0761
  860MPD2    N112634   3.875   0.456  11.516  0.0874 -0.5829  0.1438
  860MPD2    H712635   3.875   0.517  11.598  0.8439 -0.2981 -0.0631
  861MPD2     C12636   2.464   3.346  11.202 -0.5017 -0.0099 -0.4815
  861MPD2    C112637   2.531   3.467  11.179  0.0307  0.1887  0.5437
  861MPD2    C212638   2.501   3.545  11.066 -0.1506 -0.3773  0.2223
  861MPD2    C312639   2.404   3.506  10.972  0.5384  0.2570 -0.2322
  861MPD2    C412640   2.349   3.383  10.994  0.5112  0.1700 -0.1530
  861MPD2    C512641   2.377   3.305  11.107  0.6347  0.8807  0.5887
  861MPD2     H12642   2.564   3.634  11.059 -1.4226  0.5489  0.6279
  861MPD2    H112643   2.263   3.346  10.940  1.4903 -1.2916 -0.7156
  861MPD2    H212644   2.487   3.292  11.293  1.6052 -1.2655 -1.7591
  861MPD2    H312645   2.323   3.213  11.126 -0.4639  1.7473  1.6234
  861MPD2     N12646   2.347   3.585  10.868  0.6990  0.9549  0.0927
  861MPD2    H512647   2.270   3.552  10.811  1.2472 -0.4575  0.1759
  861MPD2    N112648   2.637   3.515  11.261 -0.3459 -0.2046 -0.2776
  861MPD2    H712649   2.683   3.603  11.242 -2.5818  1.4782  2.1373
  862MPD2     C12650   1.973   3.547  10.280 -0.0874  0.3754 -0.1825
  862MPD2    C112651   2.089   3.524  10.345  0.2807 -0.0355  0.1926
  862MPD2    C212652   2.155   3.407  10.332  0.6509 -0.0879 -0.0037
  862MPD2    C312653   2.099   3.306  10.251  0.2321 -0.2230  0.1397
  862MPD2    C412654   1.985   3.325  10.184 -0.1036 -0.0040  0.4141
  862MPD2    C512655   1.923   3.447  10.202 -0.5454 -0.8753 -0.0568
  862MPD2     H12656   2.248   3.402  10.386  0.6415  2.2515  0.2436
  862MPD2    H112657   1.930   3.253  10.123  0.6440  0.0709 -0.3487
  862MPD2    H212658   1.920   3.642  10.277 -1.4410 -0.4122 -1.0238
  862MPD2    H312659   1.838   3.464  10.137  0.5680  1.4139 -0.8830
  862MPD2     N12660   2.159   3.175  10.230  0.2425 -0.1622  0.5456
  862MPD2    H512661   2.107   3.115  10.168  1.6782 -0.9318  0.1031
  862MPD2    N112662   2.156   3.617  10.428  0.2211  0.0866  0.0973
  862MPD2    H712663   2.237   3.576  10.473 -0.0239  0.6423  1.0266
  863MPD2     C12664   1.450   1.813  16.725  0.0662 -0.1738  0.0118
  863MPD2    C112665   1.394   1.893  16.812 -0.6900 -0.5041 -0.8812
  863MPD2    C212666   1.468   1.930  16.923 -0.5035 -0.2644 -0.8124
  863MPD2    C312667   1.586   1.873  16.952 -0.3362  0.5621 -0.5000
  863MPD2    C412668   1.638   1.781  16.872  0.3654 -0.1234 -0.2585
  863MPD2    C512669   1.572   1.750  16.755 -0.2864 -0.0485 -0.0326
  863MPD2     H12670   1.442   2.023  16.971 -0.6963 -1.3868  1.2560
  863MPD2    H112671   1.724   1.716  16.888 -0.3055 -1.0860 -0.5897
  863MPD2    H212672   1.404   1.773  16.635 -2.5512 -1.4632  1.9277
  863MPD2    H312673   1.609   1.669  16.695 -2.3916 -1.1862  0.1867
  863MPD2     N12674   1.673   1.927  17.049  0.3356 -0.0788  0.0282
  863MPD2    H512675   1.766   1.891  17.066  0.6702  0.1515 -1.3089
  863MPD2    N112676   1.265   1.946  16.790  0.0516  0.1215 -0.2978
  863MPD2    H712677   1.219   1.905  16.709  0.5603 -0.7930 -0.1246
  864MPD2     C12678   1.677   3.403  16.750  0.4450 -0.4892 -0.3226
  864MPD2    C112679   1.799   3.427  16.814 -0.5011 -0.5853  0.0203
  864MPD2    C212680   1.901   3.501  16.752  0.4813 -0.4377 -0.1215
  864MPD2    C312681   1.876   3.565  16.633  0.3477  0.4263 -0.1798
  864MPD2    C412682   1.754   3.530  16.566 -0.1251 -0.1534 -0.3515
  864MPD2    C512683   1.662   3.446  16.621 -0.2002  0.8395  0.4454
  864MPD2     H12684   1.999   3.515  16.797  0.5545  1.2692 -0.8254
  864MPD2    H112685   1.731   3.571  16.468  1.0236  0.5623 -0.3184
  864MPD2    H212686   1.602   3.343  16.800  1.2318 -2.2285 -1.2409
  864MPD2    H312687   1.568   3.423  16.573  0.4566  0.4596 -0.6619
  864MPD2     N12688   1.973   3.647  16.571  0.0360 -0.1361  0.1053
  864MPD2    H512689   1.937   3.688  16.485  0.5505  1.4502  0.6498
  864MPD2    N112690   1.827   3.362  16.938 -0.1957  0.1913 -0.0153
  864MPD2    H712691   1.759   3.293  16.971 -0.4005  0.3721 -0.0608
  865MPD2     C12692   2.192   3.382  15.747 -0.0087 -0.2963 -0.7900
  865MPD2    C112693   2.159   3.342  15.873  0.1332 -0.2146  0.2953
  865MPD2    C212694   2.158   3.428  15.978  0.0043  0.6692 -0.3704
  865MPD2    C312695   2.188   3.560  15.954  0.4185 -0.0243 -0.6470
  865MPD2    C412696   2.227   3.602  15.827 -0.3273  0.8611  0.0729
  865MPD2    C512697   2.221   3.511  15.726 -0.2303  0.0505 -0.4501
  865MPD2     H12698   2.134   3.387  16.076 -1.1113  2.3356  0.0489
  865MPD2    H112699   2.255   3.705  15.810  1.0216  0.1860 -1.7600
  865MPD2    H212700   2.186   3.316  15.661 -1.6308 -0.6036 -0.4459
  865MPD2    H312701   2.251   3.542  15.627  0.5138  3.2763  0.7492
  865MPD2     N12702   2.190   3.664  16.054 -0.3449 -0.0442  0.0679
  865MPD2    H512703   2.234   3.750  16.023  0.2313 -0.6263 -0.7343
  865MPD2    N112704   2.136   3.204  15.903 -0.1541 -0.0666 -0.0973
  865MPD2    H712705   2.137   3.139  15.825 -0.9880  1.2271 -1.2086
  866MPD2     C12706   3.468   3.917  11.398  0.2172  0.1503 -0.4891
  866MPD2    C112707   3.455   3.876  11.265  0.2780 -0.8403  0.2042
  866MPD2    C212708   3.341   3.907  11.197 -0.2943 -0.3877 -0.2262
  866MPD2    C312709   3.236   3.964  11.265  0.3038  0.1205  0.4827
  866MPD2    C412710   3.244   3.990  11.396  0.0591  0.2024 -0.5961
  866MPD2    C512711   3.365   3.977  11.455  0.0462  0.2113 -0.5306
  866MPD2     H12712   3.328   3.894  11.090 -0.5973 -0.2768 -0.2028
  866MPD2    H112713   3.162   4.019  11.461 -2.1961 -2.3735 -2.2794
  866MPD2    H212714   3.563   3.916  11.451  0.0815 -0.4869 -0.2614
  866MPD2    H312715   3.373   3.989  11.562  2.4671  2.9595 -1.0192
  866MPD2     N12716   3.114   4.001  11.207  0.3604 -0.2817  0.0420
  866MPD2    H512717   3.041   4.049  11.260  2.1182 -0.1866  2.3472
  866MPD2    N112718   3.568   3.829  11.199 -0.0418 -1.0767 -0.0225
  866MPD2    H712719   3.648   3.814  11.260 -0.1572  2.3575  0.9630
  867MPD2     C12720   0.772   3.036  16.574 -0.2130 -0.1667 -0.0669
  867MPD2    C112721   0.862   3.057  16.678  0.0890 -0.2185  1.2228
  867MPD2    C212722   0.921   3.180  16.674 -0.4325  0.7376 -0.3251
  867MPD2    C312723   0.897   3.276  16.574  0.1017 -0.1280  0.6244
  867MPD2    C412724   0.806   3.248  16.479  0.4222  0.1886  0.7704
  867MPD2    C512725   0.744   3.133  16.479 -0.1578  0.3555  0.1852
  867MPD2     H12726   0.986   3.204  16.758  2.4153 -0.2043 -2.2614
  867MPD2    H112727   0.772   3.323  16.408 -1.8248 -2.0378 -0.5107
  867MPD2    H212728   0.715   2.944  16.566 -1.0592  0.5492 -2.4160
  867MPD2    H312729   0.666   3.107  16.408 -0.4527 -0.1281  0.6820
  867MPD2     N12730   0.970   3.395  16.566  0.1970 -0.3477 -0.4225
  867MPD2    H512731   0.934   3.464  16.502  0.3199  0.5361  0.4596
  867MPD2    N112732   0.894   2.954  16.768  0.5790 -0.5288  0.0204
  867MPD2    H712733   0.846   2.867  16.749 -1.0593  0.6944 -1.4232
  868MPD2     C12734   2.758   2.145  12.890  0.1531 -0.3837  0.3754
  868MPD2    C112735   2.758   2.028  12.958 -0.3706  0.0760  0.8649
  868MPD2    C212736   2.646   2.003  13.037 -0.3304  0.6072 -0.0368
  868MPD2    C312737   2.553   2.105  13.069  0.0037 -0.1167 -0.6382
  868MPD2    C412738   2.566   2.227  13.009 -0.2878  0.1288 -0.2365
  868MPD2    C512739   2.665   2.249  12.911 -0.2488  0.4835 -0.5511
  868MPD2     H12740   2.645   1.903  13.079 -2.8981  1.2172  1.3909
  868MPD2    H112741   2.498   2.307  13.039  1.8507  2.5814 -1.9326
  868MPD2    H212742   2.850   2.164  12.835  1.2570 -0.9015  2.0589
  868MPD2    H312743   2.666   2.348  12.868  0.7630  0.6296 -0.2151
  868MPD2     N12744   2.451   2.086  13.162  0.2849  0.1398 -0.6021
  868MPD2    H512745   2.393   2.167  13.183  1.6041  1.0319 -0.4536
  868MPD2    N112746   2.865   1.934  12.933 -0.2642  0.3804 -1.1083
  868MPD2    H712747   2.936   1.958  12.864  0.2773  2.4504  0.1816
  869MPD2     C12748   4.109   4.610   1.627 -0.5465  0.5078 -0.2431
  869MPD2    C112749   4.141   4.697   1.726  0.1832 -0.4667 -0.0090
  869MPD2    C212750   4.202   0.090   1.689  0.4615 -0.0475 -0.1092
  869MPD2    C312751   4.230   0.105   1.553 -0.3744  0.3159 -0.3350
  869MPD2    C412752   4.189   0.022   1.453  0.4517 -0.2432  0.7876
  869MPD2    C512753   4.136   4.631   1.494  0.1821 -0.0517 -0.0958
  869MPD2     H12754   4.220   0.169   1.761 -1.2982 -0.2608  0.5433
  869MPD2    H112755   4.207   0.050   1.350 -0.3955 -0.8131  0.4871
  869MPD2    H212756   4.051   4.523   1.655 -0.4673  0.5575  0.0791
  869MPD2    H312757   4.110   4.550   1.426  0.7800 -0.6556  0.3981
  869MPD2     N12758   4.276   0.227   1.502 -0.3520 -0.2329 -0.1221
  869MPD2    H512759   4.289   0.226   1.401  1.9879 -0.1251  0.1597
  869MPD2    N112760   4.103   4.664   1.857 -0.5728 -0.3068  0.1920
  869MPD2    H712761   4.067   4.571   1.875 -0.8548 -0.3986 -0.8425
  870MPD2     C12762   3.162   4.445   1.660 -0.4594  0.1462 -0.3043
  870MPD2    C112763   3.292   4.402   1.639  0.1287  0.3212  0.6516
  870MPD2    C212764   3.346   4.431   1.510 -1.0275  0.4368  0.3713
  870MPD2    C312765   3.256   4.477   1.413 -1.1286 -0.1283  0.3277
  870MPD2    C412766   3.125   4.503   1.441 -0.4543  0.1163 -0.1857
  870MPD2    C512767   3.081   4.490   1.565 -0.2808  0.1750  0.3054
  870MPD2     H12768   3.442   4.398   1.471 -1.2847 -0.9194  0.8662
  870MPD2    H112769   3.053   4.527   1.363 -2.4738 -3.4085  0.6055
  870MPD2    H212770   3.113   4.433   1.756 -3.4649 -2.0611 -2.1233
  870MPD2    H312771   2.976   4.513   1.582  0.0051  2.2820 -0.7031
  870MPD2     N12772   3.317   4.478   1.284  0.0123 -0.1956 -0.0944
  870MPD2    H512773   3.412   4.446   1.268 -0.0995  0.3842 -1.8971
  870MPD2    N112774   3.366   4.335   1.739  0.1554 -0.6294  0.1718
  870MPD2    H712775   3.311   4.284   1.807 -1.0798 -1.1245 -1.1800
  871MPD2     C12776   4.481   3.167  16.074  0.2715  0.6777  0.1868
  871MPD2    C112777   4.512   3.097  16.190 -0.5434  0.2364 -0.8432
  871MPD2    C212778   4.535   2.960  16.176  0.2127  0.2158 -0.6678
  871MPD2    C312779   4.523   2.892  16.054 -0.4209  0.6363  0.1123
  871MPD2    C412780   4.474   2.964  15.952 -0.1314  1.1798  0.0270
  871MPD2    C512781   4.457   3.100  15.959  0.2135  0.0120  0.6774
  871MPD2     H12782   4.548   2.908  16.270  1.9752  0.1740 -0.9313
  871MPD2    H112783   4.452   2.922  15.855  0.3490  2.6707 -0.7362
  871MPD2    H212784   4.460   3.273  16.073  0.5566  0.7198 -1.5927
  871MPD2    H312785   4.431   3.157  15.870  0.6715  0.6637  0.9559
  871MPD2     N12786   4.568   2.756  16.045 -0.5420 -0.2876 -0.1990
  871MPD2    H512787   4.612   2.719  16.128  0.7542  0.6227 -0.4803
  871MPD2    N112788   4.518   3.170  16.314 -0.4225 -0.2386 -0.2236
  871MPD2    H712789   4.512   3.271  16.309  0.5781 -0.2280 -1.2771
  872MPD2     C12790   0.743   0.714  14.189 -0.7218 -0.3562  0.2226
  872MPD2    C112791   0.657   0.717  14.080  0.3054 -0.0159  0.3522
  872MPD2    C212792   0.520   0.744  14.100 -0.2342  0.0842 -0.9024
  872MPD2    C312793   0.471   0.765  14.228  0.5586  0.4110 -0.2966
  872MPD2    C412794   0.563   0.758  14.336  0.1371  0.5987  0.5570
  872MPD2    C512795   0.694   0.734  14.315 -0.7529  0.3856  0.2937
  872MPD2     H12796   0.458   0.760  14.012 -2.0822  3.1185  0.9469
  872MPD2    H112797   0.523   0.790  14.432  0.4959  1.3580  0.4525
  872MPD2    H212798   0.847   0.688  14.178 -0.5284  1.4156 -2.0142
  872MPD2    H312799   0.760   0.738  14.401 -0.8691 -1.2735  0.4578
  872MPD2     N12800   0.338   0.810  14.254 -0.1949  0.3142  0.8060
  872MPD2    H512801   0.319   0.832  14.352  2.0329 -1.7734  1.6762
  872MPD2    N112802   0.699   0.695  13.943  0.4834 -0.0471  1.3239
  872MPD2    H712803   0.631   0.700  13.868  2.5441 -0.1017 -0.5106
  873MPD2     C12804   3.091   1.014   1.246 -0.2916  0.6947  0.5227
  873MPD2    C112805   2.966   1.040   1.280 -0.3132  0.5638 -0.0639
  873MPD2    C212806   2.868   0.944   1.262 -0.3118 -1.0017  0.6142
  873MPD2    C312807   2.900   0.814   1.221 -0.4089  0.0155  0.0694
  873MPD2    C412808   3.026   0.795   1.177 -0.9198 -0.0870  0.3064
  873MPD2    C512809   3.119   0.892   1.188 -0.3912 -0.2004  0.3838
  873MPD2     H12810   2.766   0.968   1.292  0.2147 -0.5674  2.0923
  873MPD2    H112811   3.065   0.708   1.124 -2.2406 -1.4558  1.5657
  873MPD2    H212812   3.162   1.091   1.271  0.6357 -0.2013  0.6496
  873MPD2    H312813   3.216   0.874   1.142 -0.8925 -0.0888 -0.7130
  873MPD2     N12814   2.812   0.713   1.198  0.0663  0.2720 -0.1823
  873MPD2    H512815   2.837   0.641   1.131  1.2420 -0.1364  0.6945
  873MPD2    N112816   2.933   1.173   1.315  0.0147 -0.4358  0.1971
  873MPD2    H712817   3.010   1.240   1.315  0.5580 -1.0569  1.4241
  874MPD2     C12818   1.787   1.185  15.932  0.0806 -0.6359  0.3025
  874MPD2    C112819   1.889   1.110  15.989 -0.1621  0.6420 -0.3798
  874MPD2    C212820   2.020   1.151  15.983  0.0469  0.5444  0.6485
  874MPD2    C312821   2.048   1.274  15.924  0.1272  0.0795  0.5777
  874MPD2    C412822   1.944   1.349  15.874 -0.6370 -0.4671  0.7865
  874MPD2    C512823   1.818   1.301  15.870 -0.0706 -0.7909 -0.2040
  874MPD2     H12824   2.104   1.099  16.028  1.3640 -0.1822 -2.6919
  874MPD2    H112825   1.955   1.446  15.827 -0.8868  0.5965  2.9265
  874MPD2    H212826   1.682   1.165  15.954 -0.2547  2.0626  1.2247
  874MPD2    H312827   1.742   1.362  15.824  1.0461 -0.5535 -1.7179
  874MPD2     N12828   2.182   1.321  15.936 -0.2379 -0.1266 -0.0141
  874MPD2    H512829   2.252   1.257  15.973  0.4005 -0.1119 -1.2152
  874MPD2    N112830   1.851   0.992  16.049 -0.4524  0.4106  0.1366
  874MPD2    H712831   1.752   0.975  16.038 -0.1715 -0.6612 -0.7372
  875MPD2     C12832   3.129   3.626  14.329  0.5677  0.5736 -0.2772
  875MPD2    C112833   2.996   3.592  14.335 -0.2736 -0.0325  0.6218
  875MPD2    C212834   2.924   3.606  14.451  0.6314 -0.8015 -0.1319
  875MPD2    C312835   2.985   3.652  14.568 -0.1052 -0.2288 -0.0847
  875MPD2    C412836   3.123   3.672  14.563 -0.3588  0.2553 -0.1492
  875MPD2    C512837   3.188   3.662  14.446  0.5038 -0.4396 -0.2649
  875MPD2     H12838   2.820   3.579  14.440  0.8913 -1.2457 -1.4915
  875MPD2    H112839   3.168   3.727  14.646 -1.6930 -0.3195  0.9456
  875MPD2    H212840   3.195   3.618  14.243 -0.4310 -1.7696 -0.8315
  875MPD2    H312841   3.296   3.673  14.437  0.6708 -1.3947  0.5737
  875MPD2     N12842   2.914   3.693  14.687 -0.1657 -0.3004  0.0779
  875MPD2    H512843   2.964   3.740  14.762 -2.5301 -2.8705  3.2577
  875MPD2    N112844   2.924   3.560  14.218  0.2429 -1.3063  0.1599
  875MPD2    H712845   2.827   3.538  14.239  0.0399 -1.4455 -0.9157
  876MPD2     C12846   1.941   0.253  16.462  0.0235  0.4406  0.6329
  876MPD2    C112847   2.022   0.196  16.365  0.3297  0.1533  0.3709
  876MPD2    C212848   2.052   0.060  16.378  0.6612 -0.5518  0.6243
  876MPD2    C312849   2.015   4.716  16.489 -0.4561 -0.4929  0.2165
  876MPD2    C412850   1.951   0.052  16.595 -0.5903  0.2001 -0.5929
  876MPD2    C512851   1.920   0.188  16.582  0.4359 -0.6228 -0.4855
  876MPD2     H12852   2.112   0.004  16.308  1.7867  0.3725  0.8475
  876MPD2    H112853   1.938   0.002  16.690 -0.4433  0.5412 -0.3906
  876MPD2    H212854   1.923   0.360  16.462 -0.3780  0.3539 -2.3704
  876MPD2    H312855   1.868   0.251  16.653  2.1812 -0.8141  0.9779
  876MPD2     N12856   2.070   4.585  16.495 -0.0611  0.5902  0.1217
  876MPD2    H512857   2.124   4.557  16.414 -0.4576 -2.9973  1.1133
  876MPD2    N112858   2.067   0.274  16.254  0.0175 -0.2296  0.4032
  876MPD2    H712859   2.030   0.368  16.247  0.0540 -0.1169  1.5836
  877MPD2     C12860   1.862   0.781  15.734 -0.3573  0.3361  0.4933
  877MPD2    C112861   1.996   0.765  15.717  0.5987  0.1003  0.0691
  877MPD2    C212862   2.056   0.815  15.599 -0.9114 -0.3495 -0.2137
  877MPD2    C312863   1.975   0.854  15.498 -0.5500  0.1076  0.2148
  877MPD2    C412864   1.840   0.853  15.514 -0.5450  0.1280  0.3901
  877MPD2    C512865   1.782   0.819  15.633 -0.3423  1.1432 -0.2740
  877MPD2     H12866   2.162   0.800  15.578 -1.3190  0.1583 -2.6746
  877MPD2    H112867   1.784   0.877  15.424  0.1985  0.8110  0.1063
  877MPD2    H212868   1.816   0.753  15.828 -1.1464 -1.6140 -0.4773
  877MPD2    H312869   1.674   0.822  15.643 -0.3504  2.4433 -0.6763
  877MPD2     N12870   2.024   0.908  15.372  0.8346  0.0717  0.3251
  877MPD2    H512871   1.956   0.919  15.297  1.9670 -2.4058 -1.0401
  877MPD2    N112872   2.089   0.705  15.806 -0.3442  0.4371  0.0832
  877MPD2    H712873   2.182   0.693  15.770  0.1771  0.0463  1.5567
  878MPD2     C12874   1.875   0.085  13.206  0.8416  0.5554  0.0171
  878MPD2    C112875   1.842   0.219  13.185  0.2181  0.0159 -0.3877
  878MPD2    C212876   1.852   0.313  13.287  0.0102 -0.4616  0.1525
  878MPD2    C312877   1.900   0.270  13.409  0.4782  0.8096  0.4745
  878MPD2    C412878   1.933   0.136  13.428  0.2260 -0.7713  0.1638
  878MPD2    C512879   1.930   0.048  13.321  0.2819 -0.1677  0.7965
  878MPD2     H12880   1.841   0.420  13.280 -2.3305 -0.7381 -0.5628
  878MPD2    H112881   1.971   0.102  13.524 -1.2827 -1.6109  0.4701
  878MPD2    H212882   1.866   0.015  13.124  1.6514  2.3691 -1.6258
  878MPD2    H312883   1.965   4.671  13.330 -0.0581 -0.4014 -0.4904
  878MPD2     N12884   1.929   0.362  13.507  0.5230  0.1096 -1.1090
  878MPD2    H512885   1.882   0.451  13.496 -1.9157 -0.8664  1.4612
  878MPD2    N112886   1.800   0.247  13.055  0.0514  0.0910  0.2504
  878MPD2    H712887   1.795   0.178  12.981 -0.0040 -0.4662  0.7691
  879MPD2     C12888   2.587   1.195  17.516  0.2950 -0.2247 -0.0734
  879MPD2    C112889   2.591   1.315  17.443 -0.7966  0.4004  0.7865
  879MPD2    C212890   2.481   1.335  17.363 -0.8919  0.3130 -0.0564
  879MPD2    C312891   2.383   1.244  17.347 -0.2374  0.1273  0.2128
  879MPD2    C412892   2.385   1.127  17.425 -0.5667 -0.1817  0.0860
  879MPD2    C512893   2.488   1.100  17.507  0.0094  0.4312  0.4012
  879MPD2     H12894   2.463   1.435  17.325  0.3891  0.9559  1.0373
  879MPD2    H112895   2.301   1.060  17.415 -0.4718 -0.1149 -1.0988
  879MPD2    H212896   2.664   1.155  17.581 -0.0110  0.4832  0.7258
  879MPD2    H312897   2.492   1.003  17.555  0.7021  0.4655  0.4255
  879MPD2     N12898   2.276   1.268  17.262 -0.0824  0.2439  0.6936
  879MPD2    H512899   2.208   1.193  17.268  0.4790 -0.2657  0.6062
  879MPD2    N112900   2.691   1.413  17.466 -0.2751 -0.0838 -0.3728
  879MPD2    H712901   2.762   1.395  17.536 -1.3020  1.6163  1.0872
  880MPD2     C12902   4.312   3.156   0.592 -0.1489 -0.5228 -0.7182
  880MPD2    C112903   4.186   3.206   0.579 -0.5781 -0.7162  0.3122
  880MPD2    C212904   4.078   3.115   0.555  0.0323 -0.2969 -0.2418
  880MPD2    C312905   4.099   2.986   0.530  0.3147  0.1295  0.8062
  880MPD2    C412906   4.221   2.931   0.546 -0.2448 -0.8639 -0.6869
  880MPD2    C512907   4.325   3.015   0.573  0.1147 -0.3348 -0.2305
  880MPD2     H12908   3.978   3.155   0.548 -0.6008 -1.6596  0.9681
  880MPD2    H112909   4.244   2.826   0.527  0.6954 -0.8222  0.1787
  880MPD2    H212910   4.402   3.212   0.615 -0.6212  1.3347 -3.3771
  880MPD2    H312911   4.423   2.969   0.577  0.7306  0.9579 -0.5195
  880MPD2     N12912   3.987   2.907   0.501  0.1999  0.3419  0.7088
  880MPD2    H512913   3.898   2.956   0.508 -1.2270 -1.9805 -0.8207
  880MPD2    N112914   4.163   3.342   0.591 -0.2615  0.2400 -0.6238
  880MPD2    H712915   4.250   3.393   0.578  0.1284  0.6622  3.8175
  881MPD2     C12916   4.274   4.200   0.032 -0.1747 -0.0255 -0.5350
  881MPD2    C112917   4.252   4.065  17.701 -0.7654 -0.2854  0.4148
  881MPD2    C212918   4.207   3.974   0.095  0.2725  1.0975 -0.6762
  881MPD2    C312919   4.221   4.011   0.230  0.7581  0.1652 -0.5647
  881MPD2    C412920   4.266   4.141   0.260 -0.1893  0.4061 -0.2111
  881MPD2    C512921   4.285   4.238   0.164  0.3584  0.1247  0.2506
  881MPD2     H12922   4.181   3.872   0.069  0.2152  0.9447 -0.0081
  881MPD2    H112923   4.276   4.174   0.363 -1.2670 -2.0840  0.6887
  881MPD2    H212924   4.297   4.272  17.658  1.1158  0.3451  0.2059
  881MPD2    H312925   4.318   4.338   0.187  0.8741 -0.3107  1.3963
  881MPD2     N12926   4.194   3.930   0.343  0.1185 -0.3095 -0.3009
  881MPD2    H512927   4.202   3.966   0.438  2.4397 -0.1560 -0.5698
  881MPD2    N112928   4.241   4.035  17.562  0.5862 -0.0374 -0.4133
  881MPD2    H712929   4.241   4.116  17.500  3.2528  0.8948  0.8086
  882MPD2     C12930   1.988   0.610  14.987  0.4372  0.0647  0.0350
  882MPD2    C112931   1.957   0.727  14.922 -0.2456  0.3212 -0.6605
  882MPD2    C212932   1.837   0.743  14.859  0.1093  1.0180  0.2556
  882MPD2    C312933   1.742   0.637  14.861  0.3532 -0.8810 -0.2746
  882MPD2    C412934   1.764   0.528  14.942  0.0638  0.8490 -0.2697
  882MPD2    C512935   1.889   0.514  14.996  0.2718 -0.0500 -0.1495
  882MPD2     H12936   1.814   0.835  14.807  0.3382  0.6585 -0.4940
  882MPD2    H112937   1.693   0.446  14.950 -0.1791  1.2465  1.6330
  882MPD2    H212938   2.088   0.595  15.026  0.3778  1.5973  0.7521
  882MPD2    H312939   1.918   0.417  15.036 -0.1444  0.7919  2.1710
  882MPD2     N12940   1.614   0.633  14.796 -0.7689  0.2128  0.5055
  882MPD2    H512941   1.558   0.550  14.808  0.3705 -0.6833 -0.4684
  882MPD2    N112942   2.051   0.832  14.937 -0.4482  0.2040  0.2864
  882MPD2    H712943   2.143   0.801  14.967 -1.1076 -0.0830  1.9891
  883MPD2     C12944   4.154   0.832  16.319  0.4007 -0.3314  0.5233
  883MPD2    C112945   4.182   0.943  16.242 -0.1140  0.4934 -0.3020
  883MPD2    C212946   4.309   1.003  16.269  0.1873 -0.0684 -0.3944
  883MPD2    C312947   4.395   0.958  16.369 -0.4174 -0.0983  0.1724
  883MPD2    C412948   4.354   0.852  16.448  0.2903  0.2315 -0.3904
  883MPD2    C512949   4.236   0.789  16.422  0.3194 -0.0919 -0.0242
  883MPD2     H12950   4.358   1.065  16.195  0.0608  0.0307 -0.3960
  883MPD2    H112951   4.412   0.819  16.533 -1.9646 -1.7867  0.3718
  883MPD2    H212952   4.064   0.772  16.307 -0.6176  1.1613  0.7268
  883MPD2    H312953   4.198   0.710  16.486  0.3108  1.2738  1.6672
  883MPD2     N12954   4.524   1.022  16.375  0.0212 -0.2159  0.3162
  883MPD2    H512955   4.542   1.100  16.314  2.5562 -1.2409 -0.2451
  883MPD2    N112956   4.104   0.974  16.135 -0.5842 -0.4062  0.2221
  883MPD2    H712957   4.139   1.046  16.074 -0.8195 -0.3594  0.1445
  884MPD2     C12958   0.964   1.418  15.401  0.5107  0.2335 -0.4265
  884MPD2    C112959   0.977   1.523  15.312  0.9180  0.2074 -0.2255
  884MPD2    C212960   0.855   1.590  15.274  0.1160 -0.3187 -0.2874
  884MPD2    C312961   0.738   1.552  15.331 -0.6217  0.0197 -0.5907
  884MPD2    C412962   0.728   1.449  15.418  0.7061 -0.4909  0.2697
  884MPD2    C512963   0.846   1.389  15.456 -0.1830 -0.0509 -0.2766
  884MPD2     H12964   0.844   1.669  15.201  0.1093 -0.7060 -0.7066
  884MPD2    H112965   0.632   1.419  15.459 -0.3240 -0.8373 -2.3866
  884MPD2    H212966   1.050   1.369  15.446  1.4314 -0.2554 -2.7126
  884MPD2    H312967   0.834   1.326  15.543  1.7099 -0.9546 -0.6699
  884MPD2     N12968   0.632   1.640  15.317  1.0330  0.3110  0.0983
  884MPD2    H512969   0.649   1.709  15.244 -2.0571 -0.2717 -1.1789
  884MPD2    N112970   1.097   1.587  15.274 -0.3473  0.3209 -0.5263
  884MPD2    H712971   1.096   1.674  15.221 -0.2077  0.7066  0.1027
  885MPD2     C12972   0.005   2.121   0.062  0.0895  0.2595  0.4376
  885MPD2    C112973   4.687   1.992   0.035  0.8229  0.3009 -0.2180
  885MPD2    C212974   4.602   1.974  17.625  0.0270  0.1430  0.1391
  885MPD2    C312975   4.562   2.084  17.549  0.6125  0.0315 -0.3304
  885MPD2    C412976   4.601   2.212  17.582  0.2826 -0.2368  1.1026
  885MPD2    C512977   4.665   2.227  17.702  0.5485  0.2152 -0.1933
  885MPD2     H12978   4.557   1.879  17.598 -0.0706  0.5125 -1.0123
  885MPD2    H112979   4.569   2.300  17.527  1.9805 -0.5793 -0.4238
  885MPD2    H212980   0.073   2.130   0.146 -0.3917  1.4725  0.7022
  885MPD2    H312981   4.684   2.324   0.042 -1.2477  0.3477  0.2884
  885MPD2     N12982   4.496   2.054  17.430 -0.4247 -0.0805 -0.2181
  885MPD2    H512983   4.494   1.955  17.410  0.6216 -0.0816 -0.3482
  885MPD2    N112984   0.008   1.882   0.119  0.0934 -0.0753  0.3976
  885MPD2    H712985   0.078   1.901   0.190  0.8097  0.1895 -0.3854
  886MPD2     C12986   0.432   4.725  15.105 -0.0068  0.2570 -0.6491
  886MPD2    C112987   0.544   0.056  15.169 -0.0352  0.2658 -0.0133
  886MPD2    C212988   0.563   0.188  15.150  0.0985 -0.0509 -0.3589
  886MPD2    C312989   0.472   0.272  15.088  0.4098  0.5450 -0.1854
  886MPD2    C412990   0.367   0.213  15.021  0.3742  0.6950  0.5657
  886MPD2    C512991   0.339   0.082  15.042  0.5981 -0.1620  0.2618
  886MPD2     H12992   0.649   0.235  15.196  1.3580 -2.1016 -0.6088
  886MPD2    H112993   0.294   0.272  14.965  0.3252  0.0584 -0.0341
  886MPD2    H212994   0.417   4.618  15.110 -1.9303  0.5705  0.0283
  886MPD2    H312995   0.257   0.031  14.993  1.3900  0.4530 -1.7125
  886MPD2     N12996   0.513   0.411  15.065 -0.0358  0.3268  0.1945
  886MPD2    H512997   0.463   0.467  14.996  1.6526  0.7277 -0.7394
  886MPD2    N112998   0.649   4.718  15.238  0.2723 -0.1614  0.1227
  886MPD2    H712999   0.706   0.050  15.299 -0.1892  0.6631 -0.2262
  887MPD2     C13000   1.275   0.177  15.502 -0.6157  0.2320 -0.4049
  887MPD2    C113001   1.140   0.169  15.526  0.5026 -0.6472  0.2085
  887MPD2    C213002   1.078   0.257  15.601  0.2098  0.2594  0.2852
  887MPD2    C313003   1.151   0.358  15.670 -0.2658 -0.8914  0.8539
  887MPD2    C413004   1.283   0.368  15.638 -0.0012 -0.2034  0.1850
  887MPD2    C513005   1.349   0.272  15.565  0.6447  0.7828 -0.1213
  887MPD2     H13006   0.973   0.256  15.625  0.5640 -1.1047  1.7918
  887MPD2    H113007   1.343   0.439  15.693 -2.0444 -0.0249  2.1938
  887MPD2    H213008   1.327   0.103  15.442 -1.5704  1.2688 -2.4839
  887MPD2    H313009   1.456   0.278  15.544  0.5679  0.9368 -0.4739
  887MPD2     N13010   1.092   0.456  15.762  0.0929 -0.3399  0.1134
  887MPD2    H513011   1.149   0.535  15.791  1.1005 -0.6939 -0.8896
  887MPD2    N113012   1.056   0.074  15.454 -0.0283  0.6199 -0.2938
  887MPD2    H713013   0.955   0.084  15.466  0.0278 -0.0198  0.7808
  888MPD2     C13014   2.962   0.416  14.724  1.0208  0.2247 -0.1739
  888MPD2    C113015   3.003   0.487  14.835 -0.0903 -0.0288 -0.4683
  888MPD2    C213016   3.065   0.613  14.816 -0.0742  0.1198 -0.1397
  888MPD2    C313017   3.090   0.660  14.690 -0.5504 -0.1610 -0.2430
  888MPD2    C413018   3.048   0.594  14.580  0.0730  0.1256 -0.4935
  888MPD2    C513019   2.975   0.478  14.597  0.2620 -0.2704 -0.5260
  888MPD2     H13020   3.095   0.674  14.900  0.5965  1.2868 -1.2386
  888MPD2    H113021   3.065   0.631  14.480 -0.1569  0.7472 -0.3021
  888MPD2    H213022   2.903   0.325  14.718  2.0789 -0.3806 -1.7500
  888MPD2    H313023   2.938   0.426  14.509  0.8687 -0.7414 -0.5037
  888MPD2     N13024   3.156   0.785  14.681  0.2986  0.3559  0.2652
  888MPD2    H513025   3.178   0.823  14.772  2.3661  3.4510 -1.5096
  888MPD2    N113026   2.976   0.438  14.962  0.6021 -1.0475 -0.6966
  888MPD2    H713027   2.987   0.506  15.036 -0.3191 -0.7798 -0.8068
  889MPD2     C13028   2.145   4.642  12.597  0.1186 -0.0117  0.0018
  889MPD2    C113029   2.236   4.613  12.696  0.1628 -0.0938  0.0308
  889MPD2    C213030   2.224   4.691  12.811  0.2112  0.2049  0.0124
  889MPD2    C313031   2.158   0.093  12.802 -0.2578  0.2731  0.4750
  889MPD2    C413032   2.080   0.121  12.695  0.5727 -0.3117  0.2861
  889MPD2    C513033   2.066   0.023  12.599  0.6919 -0.0484 -0.2310
  889MPD2     H13034   2.292   4.669  12.892 -1.1359  0.6375  1.2575
  889MPD2    H113035   2.022   0.213  12.690  0.2082 -0.6174 -1.1263
  889MPD2    H213036   2.138   4.578  12.510 -2.9453 -0.7169  0.7832
  889MPD2    H313037   1.985   0.043  12.530 -0.3882 -2.6024  0.3052
  889MPD2     N13038   2.156   0.179  12.916 -0.0690 -0.1523  0.2018
  889MPD2    H513039   2.194   0.139  13.001  1.3486  2.2168  0.6988
  889MPD2    N113040   2.304   4.489  12.696 -0.0047  0.2319  0.2278
  889MPD2    H713041   2.339   4.456  12.786  0.4527  1.7821  0.6164
  890MPD2     C13042   1.227   1.557  14.721 -0.4216 -0.2259  0.0546
  890MPD2    C113043   1.352   1.611  14.734  0.3709  0.2871 -0.5636
  890MPD2    C213044   1.437   1.541  14.815 -0.1287  0.2675  0.0201
  890MPD2    C313045   1.403   1.420  14.879  0.3395 -0.6428  0.7544
  890MPD2    C413046   1.269   1.370  14.873 -0.8878  0.0657 -0.3021
  890MPD2    C513047   1.188   1.444  14.786 -0.1030  0.1632 -0.5582
  890MPD2     H13048   1.533   1.576  14.849 -0.0003  1.4926 -1.6009
  890MPD2    H113049   1.240   1.277  14.919 -1.4946  0.1741 -0.4638
  890MPD2    H213050   1.151   1.611  14.665  1.3967  0.4399 -1.8026
  890MPD2    H313051   1.089   1.405  14.767 -0.4416  1.9617 -2.4460
  890MPD2     N13052   1.500   1.363  14.963 -0.2921  0.1451 -0.4574
  890MPD2    H513053   1.595   1.397  14.955  0.3950 -0.7535  3.7166
  890MPD2    N113054   1.380   1.730  14.659 -0.3259  0.4361  0.5787
  890MPD2    H713055   1.298   1.774  14.618  1.0275 -0.1567 -2.7309
  891MPD2     C13056   0.334   4.524  16.502  0.4085 -0.8131  0.0710
  891MPD2    C113057   0.307   4.637  16.580  0.3648 -0.2076  0.2206
  891MPD2    C213058   0.407   0.004  16.604 -0.8504  0.5294  1.0966
  891MPD2    C313059   0.539   4.703  16.565 -0.1651  0.2647 -1.2678
  891MPD2    C413060   0.565   4.581  16.498  0.1609  0.3337 -0.1471
  891MPD2    C513061   0.464   4.501  16.463 -0.0680  0.1440  0.5513
  891MPD2     H13062   0.389   0.096  16.658  0.5888  1.4745 -0.0382
  891MPD2    H113063   0.662   4.568  16.453  0.6070 -2.1998  1.4834
  891MPD2    H213064   0.251   4.458  16.479 -0.5248  0.3905 -0.0921
  891MPD2    H313065   0.476   4.416  16.397 -1.4906  0.9400 -0.7525
  891MPD2     N13066   0.643   0.058  16.618  0.0942 -0.1263  0.6668
  891MPD2    H513067   0.613   0.134  16.678 -1.2633 -0.6808  0.7065
  891MPD2    N113068   0.167   4.661  16.619 -0.2928  0.5632  0.5702
  891MPD2    H713069   0.101   4.590  16.589  0.9027 -0.0715 -0.5749
  892MPD2     C13070   1.003   1.366  14.442  0.2761 -0.1185  0.0517
  892MPD2    C113071   0.950   1.313  14.562 -0.2924 -0.1634 -0.2551
  892MPD2    C213072   1.009   1.204  14.623 -0.8171 -0.0350  0.0417
  892MPD2    C313073   1.119   1.149  14.557 -0.2970  0.1057 -0.4507
  892MPD2    C413074   1.176   1.214  14.443  0.2904  0.3969 -0.3562
  892MPD2    C513075   1.115   1.319  14.387 -0.4789 -0.1229  0.7706
  892MPD2     H13076   0.953   1.152  14.700 -3.1561  0.3769 -1.4010
  892MPD2    H113077   1.259   1.172  14.388  1.7885 -0.2813  2.3979
  892MPD2    H213078   0.957   1.453  14.396 -0.5471 -1.0476 -0.8901
  892MPD2    H313079   1.144   1.366  14.294  0.5945  0.2272  1.2848
  892MPD2     N13080   1.172   1.028  14.599  0.6405  0.1814  0.2272
  892MPD2    H513081   1.255   0.999  14.549  0.7835  0.7840  0.1192
  892MPD2    N113082   0.835   1.371  14.618 -0.0822  0.2961 -0.2124
  892MPD2    H713083   0.790   1.443  14.562 -0.3361 -0.5748 -1.1279
  893MPD2     C13084   2.768   0.005   1.115 -0.5466 -0.3004 -0.5562
  893MPD2    C113085   2.800   0.045   1.244  0.1047  0.3233 -0.0840
  893MPD2    C213086   2.692   0.092   1.316  0.1114  0.4048 -0.4046
  893MPD2    C313087   2.563   0.094   1.264 -0.2404  0.6342 -0.6327
  893MPD2    C413088   2.538   0.046   1.135  0.0231  0.0347  0.7799
  893MPD2    C513089   2.644   0.002   1.066  0.0021 -0.4814  0.1436
  893MPD2     H13090   2.713   0.126   1.417  0.4074 -0.0444 -0.3168
  893MPD2    H113091   2.440   0.051   1.089  0.0638 -2.8004  0.3541
  893MPD2    H213092   2.853   4.697   1.056 -0.8554 -0.7446 -0.7428
  893MPD2    H313093   2.631   4.690   0.965 -1.2077 -0.1579  0.1850
  893MPD2     N13094   2.448   0.136   1.334  0.2035  0.3664 -0.8459
  893MPD2    H513095   2.356   0.116   1.296  1.2808 -2.7808 -1.8233
  893MPD2    N113096   2.932   0.047   1.290 -0.3855 -0.4131 -0.7472
  893MPD2    H713097   3.004   4.723   1.239  1.0273 -1.2219  2.0591
  894MPD2     C13098   0.542   2.174   0.515  0.6945  0.0053 -0.3301
  894MPD2    C113099   0.605   2.101   0.614 -0.3996 -0.1959 -0.2387
  894MPD2    C213100   0.717   2.154   0.667 -0.0221 -0.4807 -0.3880
  894MPD2    C313101   0.773   2.277   0.628 -0.1391  0.6915 -0.0218
  894MPD2    C413102   0.709   2.342   0.524  0.2804  0.1289 -0.1976
  894MPD2    C513103   0.598   2.289   0.466 -0.4595  0.1302  0.4494
  894MPD2     H13104   0.763   2.101   0.750 -2.1810  1.4381  2.0509
  894MPD2    H113105   0.737   2.442   0.493  0.0067  0.4039  0.4461
  894MPD2    H213106   0.449   2.143   0.470  1.0587 -0.7924 -0.5371
  894MPD2    H313107   0.536   2.339   0.392 -2.4831 -2.8905  0.0909
  894MPD2     N13108   0.894   2.323   0.684  0.2056 -0.4705  0.2668
  894MPD2    H513109   0.933   2.270   0.761  0.1680  1.5670  1.6979
  894MPD2    N113110   0.555   1.982   0.668  0.1760 -0.2841 -0.0681
  894MPD2    H713111   0.607   1.953   0.750  0.2292  0.5452  0.1813
  895MPD2     C13112   0.065   0.209  13.578  0.5779  0.3551 -0.6609
  895MPD2    C113113   0.003   0.243  13.456 -0.1208 -0.1048  0.3670
  895MPD2    C213114   0.022   0.163  13.343  0.4415  0.2562 -0.2962
  895MPD2    C313115   0.101   0.052  13.358  0.6172 -0.8186 -0.0381
  895MPD2    C413116   0.152   0.018  13.484 -0.3193  0.3287  0.1275
  895MPD2    C513117   0.144   0.102  13.594  0.0312  0.3018  0.7371
  895MPD2     H13118   4.686   0.191  13.259 -0.2141 -0.6608 -0.1212
  895MPD2    H113119   0.209   4.651  13.490  2.2159  1.9014  0.2722
  895MPD2    H213120   0.065   0.281  13.659 -1.2507 -1.8791  1.3232
  895MPD2    H313121   0.186   0.084  13.692 -2.7257  1.4565  2.1098
  895MPD2     N13122   0.107   4.681  13.258 -0.6758  0.7731  0.0614
  895MPD2    H513123   0.148   4.591  13.279 -0.2660  1.1403  0.8327
  895MPD2    N113124   4.647   0.351  13.436 -0.5218  0.3226  0.3349
  895MPD2    H713125   4.602   0.362  13.346 -0.2228  0.6160  0.2193
  896MPD2     C13126   2.608   3.898   1.394 -0.3329 -0.0509  0.5426
  896MPD2    C113127   2.605   3.758   1.381  0.6485 -0.9397 -0.2605
  896MPD2    C213128   2.492   3.699   1.326 -0.3348  0.6564 -0.8657
  896MPD2    C313129   2.381   3.782   1.315 -0.1685 -0.5157 -0.6210
  896MPD2    C413130   2.388   3.920   1.334 -0.0208 -0.5482 -0.5323
  896MPD2    C513131   2.503   3.973   1.370  0.2104  0.2797  0.4382
  896MPD2     H13132   2.481   3.591   1.325 -2.8496  0.8842  1.9665
  896MPD2    H113133   2.304   3.988   1.328 -1.0866 -1.8630 -0.3613
  896MPD2    H213134   2.700   3.951   1.414 -0.6662  1.0860 -0.9589
  896MPD2    H313135   2.508   4.079   1.394  0.1106  0.3983 -0.0608
  896MPD2     N13136   2.254   3.716   1.310  0.8873  0.1206  0.1047
  896MPD2    H513137   2.246   3.615   1.313  0.3542  0.0369 -4.1102
  896MPD2    N113138   2.720   3.681   1.416 -0.1346 -0.2156  0.3914
  896MPD2    H713139   2.798   3.730   1.459 -1.3368 -1.6236  4.1797
  897MPD2     C13140   3.065   4.023  10.261  0.2071  0.2342 -0.3534
  897MPD2    C113141   3.136   4.125  10.315  0.2485  0.2405 -0.4603
  897MPD2    C213142   3.088   4.184  10.432 -0.2708  0.0561 -0.5253
  897MPD2    C313143   2.954   4.170  10.463 -0.2376 -0.3142 -0.1042
  897MPD2    C413144   2.872   4.087  10.396  0.2790 -0.5648  0.0973
  897MPD2    C513145   2.936   4.002  10.304  0.4754  0.4730  0.4636
  897MPD2     H13146   3.142   4.264  10.481 -0.7986  0.5058 -0.6722
  897MPD2    H113147   2.769   4.059  10.417 -0.5203  1.1891 -1.4790
  897MPD2    H213148   3.106   3.971  10.175 -0.4183  2.0333 -1.7417
  897MPD2    H313149   2.884   3.921  10.255 -0.9531 -0.3698  3.3841
  897MPD2     N13150   2.897   4.256  10.554 -0.0389  0.2711 -0.4551
  897MPD2    H513151   2.956   4.301  10.623 -1.2284  0.5885  0.3477
  897MPD2    N113152   3.260   4.166  10.257  0.0976  0.1045 -0.0568
  897MPD2    H713153   3.284   4.108  10.177  0.5926 -1.5354  1.3058
  898MPD2     C13154   1.639   0.401   0.100  0.2902  0.2516 -0.1407
  898MPD2    C113155   1.637   0.528   0.150 -0.7370 -0.9236  0.2722
  898MPD2    C213156   1.581   0.634   0.087 -0.0138 -0.4075  0.1519
  898MPD2    C313157   1.528   0.618  17.662 -0.1176  0.1541  0.4813
  898MPD2    C413158   1.522   0.490  17.608  0.4405  0.4736 -0.0229
  898MPD2    C513159   1.586   0.388  17.677 -1.2944 -0.6732 -0.2955
  898MPD2     H13160   1.581   0.725   0.145 -0.0158 -0.3803  0.1089
  898MPD2    H113161   1.484   0.481  17.507 -2.8343  1.4101  1.1051
  898MPD2    H213162   1.676   0.314   0.154 -1.1352 -0.5562 -0.4572
  898MPD2    H313163   1.589   0.291  17.629  1.9911  0.0882 -1.5815
  898MPD2     N13164   1.450   0.729  17.610 -0.3747  0.3076  0.7287
  898MPD2    H513165   1.453   0.819  17.656  0.7754 -0.0636  1.3675
  898MPD2    N113166   1.695   0.559   0.277  0.4835 -1.0573  0.1356
  898MPD2    H713167   1.724   0.654   0.297 -0.4896 -0.2756 -2.1788
  899MPD2     C13168   1.541   1.580  17.546  0.1449  0.0831 -0.6319
  899MPD2    C113169   1.621   1.664  17.610  0.1642  0.2474 -0.1529
  899MPD2    C213170   1.633   1.639   0.042  0.2627  0.1406 -0.2003
  899MPD2    C313171   1.565   1.538   0.108 -0.3894  0.0495  0.5157
  899MPD2    C413172   1.479   1.458   0.037  0.1556  0.7093 -0.1092
  899MPD2    C513173   1.475   1.478  17.606  0.1112  1.3625  0.1408
  899MPD2     H13174   1.698   1.708   0.095  2.0611 -2.3692  0.8972
  899MPD2    H113175   1.425   1.371   0.073  1.9786  0.6296  2.4677
  899MPD2    H213176   1.518   1.588  17.440  1.8131  1.7461 -0.8676
  899MPD2    H313177   1.419   1.406  17.547  1.0607  0.2592  0.5645
  899MPD2     N13178   1.567   1.505   0.240  0.1000  0.1014 -0.3640
  899MPD2    H513179   1.516   1.423   0.272 -1.1689  1.9541  2.3885
  899MPD2    N113180   1.690   1.759  17.535  0.1558  0.0364 -0.5209
  899MPD2    H713181   1.674   1.750  17.435 -1.3384  0.5081 -0.3200
  900MPD2     C13182   1.377   3.112  12.214  0.4834  0.0113 -0.3280
  900MPD2    C113183   1.282   3.020  12.178  0.2984 -0.8514  0.3570
  900MPD2    C213184   1.177   3.053  12.100  0.6113 -0.3973 -0.4750
  900MPD2    C313185   1.158   3.186  12.061  0.2480  0.0933  0.1252
  900MPD2    C413186   1.258   3.276  12.084 -0.1979  0.3558  0.9481
  900MPD2    C513187   1.370   3.237  12.158 -0.7913 -0.6333 -0.1343
  900MPD2     H13188   1.104   2.978  12.072 -0.6270  1.4736 -2.3142
  900MPD2    H113189   1.253   3.379  12.051 -0.8254 -0.2222 -0.7781
  900MPD2    H213190   1.456   3.099  12.288 -0.2011  1.0951  0.6055
  900MPD2    H313191   1.453   3.306  12.170  0.3330 -1.7546 -1.2795
  900MPD2     N13192   1.042   3.225  11.990 -0.4078  0.3866  0.0287
  900MPD2    H513193   0.972   3.152  11.981 -1.2857  1.0729  1.4018
  900MPD2    N113194   1.302   2.887  12.229  1.0404 -0.7149  0.2477
  900MPD2    H713195   1.384   2.867  12.286 -0.6705 -0.7916  2.6766
  901MPD2     C13196   0.929   1.935  12.631  0.5765  0.6471 -0.0077
  901MPD2    C113197   1.059   1.907  12.594  0.0948  0.5702  0.7796
  901MPD2    C213198   1.139   2.016  12.549  1.3884 -0.4881 -0.0809
  901MPD2    C313199   1.082   2.145  12.528 -0.2803  0.2399 -0.3383
  901MPD2    C413200   0.955   2.166  12.566 -0.2351 -0.1772  1.1934
  901MPD2    C513201   0.886   2.062  12.619  0.0505  0.2315 -0.3957
  901MPD2     H13202   1.243   2.001  12.523  1.2747  1.1242 -1.4845
  901MPD2    H113203   0.895   2.256  12.563  2.0315  1.2865 -0.5453
  901MPD2    H213204   0.868   1.854  12.668  1.4836 -0.6327 -1.2715
  901MPD2    H313205   0.784   2.087  12.648  0.8561 -0.6663  3.1844
  901MPD2     N13206   1.163   2.250  12.475 -0.0056 -0.1203  0.6238
  901MPD2    H513207   1.262   2.231  12.462 -0.3108 -0.1877 -1.7448
  901MPD2    N113208   1.105   1.775  12.611  0.5801  0.1815  0.0179
  901MPD2    H713209   1.046   1.717  12.669  0.8065  0.0286  0.0932
  902MPD2     C13210   4.700   0.733  12.784  0.0601 -0.0648 -0.1189
  902MPD2    C113211   4.720   0.794  12.657  0.6974  0.3939 -0.7040
  902MPD2    C213212   0.063   0.735  12.556 -0.0740 -0.0991  0.3978
  902MPD2    C313213   0.110   0.606  12.582 -0.2536 -0.4863  0.0404
  902MPD2    C413214   0.083   0.545  12.703  0.3943 -0.4638 -0.7393
  902MPD2    C513215   0.023   0.607  12.805 -0.0848 -0.3825 -0.9200
  902MPD2     H13216   0.082   0.777  12.458  0.9418 -0.4110  0.4676
  902MPD2    H113217   0.117   0.444  12.721  1.4006  0.2811  1.5609
  902MPD2    H213218   4.642   0.794  12.853 -0.3819 -1.5830  0.8400
  902MPD2    H313219   4.723   0.568  12.903  0.5288  1.2152 -0.1189
  902MPD2     N13220   0.179   0.524  12.488  0.0632 -0.0992 -0.0686
  902MPD2    H513221   0.193   0.427  12.514 -0.9235 -0.5552 -1.2800
  902MPD2    N113222   4.670   0.927  12.636 -0.5743  0.1989 -0.1406
  902MPD2    H713223   4.645   0.980  12.719  1.2776  2.0594 -0.7883
  903MPD2     C13224   0.233   0.528  11.660  0.8265 -0.4500  0.0081
  903MPD2    C113225   0.158   0.531  11.777 -0.3123 -0.0151  0.1812
  903MPD2    C213226   0.023   0.528  11.767 -0.5136 -0.5006  0.4642
  903MPD2    C313227   4.683   0.524  11.643 -0.0918  1.0113 -0.3936
  903MPD2    C413228   0.033   0.535  11.528 -1.1025  0.2416  0.0403
  903MPD2    C513229   0.172   0.537  11.540  0.2298  0.1264 -0.2195
  903MPD2     H13230   4.692   0.537  11.859 -1.6558  2.9885 -0.5664
  903MPD2    H113231   4.723   0.543  11.426 -1.3524 -0.3313  0.0870
  903MPD2    H213232   0.341   0.530  11.655  0.8219  1.2361  0.6977
  903MPD2    H313233   0.229   0.551  11.449 -2.0169 -0.3394 -1.7111
  903MPD2     N13234   4.541   0.517  11.646 -0.1115  0.2845  0.3163
  903MPD2    H513235   4.496   0.531  11.736 -1.6200 -0.0492 -0.3910
  903MPD2    N113236   0.216   0.525  11.905 -0.1974  0.2265 -0.7567
  903MPD2    H713237   0.157   0.525  11.988  1.7371  0.7928  0.6241
  904MPD2     C13238   4.271   4.558  14.253  0.0754  0.0713 -0.7751
  904MPD2    C113239   4.375   4.628  14.195  0.6853  0.6910  0.0322
  904MPD2    C213240   4.492   4.557  14.160 -0.0258 -0.2539 -0.5440
  904MPD2    C313241   4.488   4.413  14.174 -0.7592 -0.1724  0.1101
  904MPD2    C413242   4.380   4.352  14.234 -0.1094 -0.4442  1.0403
  904MPD2    C513243   4.270   4.420  14.278  0.4245 -0.2140  0.7012
  904MPD2     H13244   4.578   4.602  14.111 -0.6185 -0.1562 -1.5043
  904MPD2    H113245   4.372   4.245  14.246 -1.9818 -0.2866  1.1355
  904MPD2    H213246   4.175   4.600  14.282  0.5032  1.3298 -1.1531
  904MPD2    H313247   4.188   4.365  14.323 -1.4616  2.1072  0.1013
  904MPD2     N13248   4.603   4.336  14.139 -0.0056  0.0896  0.1722
  904MPD2    H513249   4.682   4.395  14.115  0.8389 -0.2763  2.0980
  904MPD2    N113250   4.373   0.040  14.170 -0.7359 -0.4279 -0.3314
  904MPD2    H713251   4.449   0.078  14.114 -1.6661  1.5793 -0.2402
  905MPD2     C13252   4.005   0.079  13.618 -0.1840 -0.2535 -0.3910
  905MPD2    C113253   4.130   0.116  13.626 -0.5312 -0.5621  0.5785
  905MPD2    C213254   4.217   0.083  13.516 -0.0298 -0.5277  0.6544
  905MPD2    C313255   4.182   4.710  13.424 -0.4248  0.5649  0.0108
  905MPD2    C413256   4.047   4.673  13.420  0.4066 -0.2249 -0.4037
  905MPD2    C513257   3.963   0.001  13.511  0.0888 -0.5308 -0.3379
  905MPD2     H13258   4.322   0.111  13.517 -0.8360  2.6265 -2.6285
  905MPD2    H113259   4.017   4.600  13.346  1.9410 -0.5288 -0.7250
  905MPD2    H213260   3.928   0.109  13.688  1.3030  1.3987  0.5375
  905MPD2    H313261   3.861   4.693  13.524  0.9761 -1.9176  3.0722
  905MPD2     N13262   4.269   4.650  13.327 -0.0155  0.2867 -0.1458
  905MPD2    H513263   4.233   4.573  13.271 -0.3541 -0.1961  0.7313
  905MPD2    N113264   4.170   0.204  13.735  0.2345 -0.1735  0.8985
  905MPD2    H713265   4.090   0.231  13.791  0.6934 -1.7629  2.3455
  906MPD2     C13266   2.116   4.660  11.541  1.0441  0.3411 -0.5746
  906MPD2    C113267   2.102   4.582  11.422  0.4969  0.4914  0.4359
  906MPD2    C213268   2.059   4.453  11.438  0.2024 -0.2322 -0.5542
  906MPD2    C313269   2.034   4.399  11.563  0.5221  0.2252  0.5513
  906MPD2    C413270   2.040   4.477  11.674  0.3719  0.1364  0.3921
  906MPD2    C513271   2.084   4.605  11.663 -0.5808  0.0712 -0.1604
  906MPD2     H13272   2.048   4.385  11.354  0.9152 -1.7658  0.5985
  906MPD2    H113273   2.023   4.431  11.771  3.7000 -1.7229  0.0852
  906MPD2    H213274   2.136   0.041  11.535  0.0191  0.4556 -2.1135
  906MPD2    H313275   2.093   4.666  11.752 -3.7042  1.4635 -0.8108
  906MPD2     N13276   1.999   4.265  11.578 -0.6011  0.1105  0.0773
  906MPD2    H513277   1.956   4.238  11.666 -0.1420  1.8195  0.8288
  906MPD2    N113278   2.109   4.633  11.289 -0.6279 -0.4153  0.3295
  906MPD2    H713279   2.084   4.574  11.210  0.8499  1.0802 -1.2539
  907MPD2     C13280   0.642   3.781  15.383 -0.0842  0.4243  0.7871
  907MPD2    C113281   0.744   3.697  15.340  0.6346 -0.6910 -0.4412
  907MPD2    C213282   0.857   3.699  15.424 -0.1846 -0.4576  0.2835
  907MPD2    C313283   0.868   3.768  15.543 -0.1642 -0.1568 -0.1787
  907MPD2    C413284   0.765   3.849  15.581  0.1565 -0.2542  0.1382
  907MPD2    C513285   0.655   3.859  15.495 -0.2804  0.3088 -0.0967
  907MPD2     H13286   0.943   3.638  15.398 -0.3657  0.6525 -2.9034
  907MPD2    H113287   0.765   3.922  15.662 -0.5239 -0.1844  0.0783
  907MPD2    H213288   0.550   3.791  15.327 -0.8716 -3.0298  1.4650
  907MPD2    H313289   0.572   3.920  15.527  0.6523  0.7045  1.5422
  907MPD2     N13290   0.988   3.742  15.613 -0.1730  0.2719 -0.2138
  907MPD2    H513291   1.049   3.672  15.571 -0.0956  1.1472 -1.5708
  907MPD2    N113292   0.738   3.605  15.233  0.5073  0.1789  0.4889
  907MPD2    H713293   0.824   3.552  15.228  0.4295 -0.0273  1.3494
  908MPD2     C13294   3.541   3.930   9.490  0.4719  0.1125  0.2754
  908MPD2    C113295   3.474   3.879   9.597 -0.0038  0.2713  0.6640
  908MPD2    C213296   3.482   3.945   9.718 -0.5814  0.7753  0.3304
  908MPD2    C313297   3.531   4.075   9.723 -0.2102  0.1390  0.9295
  908MPD2    C413298   3.584   4.132   9.611  0.4056  0.2529 -0.0749
  908MPD2    C513299   3.595   4.051   9.493  0.6395  0.0726 -0.3650
  908MPD2     H13300   3.442   3.897   9.806  0.5839 -1.8174 -0.5584
  908MPD2    H113301   3.617   4.235   9.606  2.4442 -0.1539  5.1242
  908MPD2    H213302   3.541   3.874   9.397  0.1591  1.1043 -0.3316
  908MPD2    H313303   3.649   4.082   9.404  0.1872 -2.4730 -1.5354
  908MPD2     N13304   3.523   4.144   9.842  0.1756  0.2373  0.5609
  908MPD2    H513305   3.461   4.108   9.915 -0.9650  0.0174 -0.5094
  908MPD2    N113306   3.409   3.749   9.592  0.3876  0.1463 -0.1864
  908MPD2    H713307   3.382   3.718   9.685 -1.4394  0.5858 -0.5667
  909MPD2     C13308   4.139   2.598  11.423  0.7490 -0.0427 -0.4750
  909MPD2    C113309   4.063   2.698  11.379  0.5830 -0.1286 -0.6081
  909MPD2    C213310   3.959   2.744  11.459 -0.5222  0.8654  0.4496
  909MPD2    C313311   3.942   2.691  11.587  0.8167  0.0837 -0.4427
  909MPD2    C413312   4.031   2.604  11.633 -0.0613 -0.2483  0.2669
  909MPD2    C513313   4.131   2.559  11.549  0.2825  0.0490 -0.4671
  909MPD2     H13314   3.890   2.824  11.434  0.2790  1.2076 -0.6540
  909MPD2    H113315   4.022   2.558  11.731  0.1125 -0.6191  0.1098
  909MPD2    H213316   4.220   2.558  11.362 -0.7115 -0.3185 -2.2252
  909MPD2    H313317   4.209   2.491  11.582  1.0521  2.0746  1.8840
  909MPD2     N13318   3.838   2.738  11.672  0.2286  0.1665  0.3181
  909MPD2    H513319   3.767   2.794  11.627  1.9856  1.5168 -0.7758
  909MPD2    N113320   4.086   2.746  11.244  0.4300 -0.2389 -0.3804
  909MPD2    H713321   4.161   2.699  11.195  0.7064  0.2678 -0.4417
  910MPD2     C13322   0.640   4.524  16.150 -0.3960  0.2730  0.4336
  910MPD2    C113323   0.668   4.410  16.080 -0.2892 -0.3455  0.3526
  910MPD2    C213324   0.587   4.368  15.978 -0.3373 -0.2057 -0.4084
  910MPD2    C313325   0.470   4.435  15.948 -0.2396  0.2318  0.3583
  910MPD2    C413326   0.443   4.544  16.022  0.3329  0.3972  0.8238
  910MPD2    C513327   0.524   4.591  16.122  0.4591  0.4083  0.3361
  910MPD2     H13328   0.610   4.284  15.914  0.8469 -0.2766  0.1062
  910MPD2    H113329   0.352   4.602  16.013 -0.0588 -0.7608 -2.8030
  910MPD2    H213330   0.699   4.562  16.232 -2.0180  2.5266  0.5454
  910MPD2    H313331   0.505   4.681  16.178 -1.2341 -0.3910  1.0344
  910MPD2     N13332   0.370   4.398  15.849  0.0725 -0.1208  0.0888
  910MPD2    H513333   0.288   4.458  15.844  2.2138  2.8236  0.2547
  910MPD2    N113334   0.781   4.331  16.116 -0.4121  1.0002 -0.4777
  910MPD2    H713335   0.792   4.242  16.068 -2.0963  1.6227 -2.0192
  911MPD2     C13336   3.321   0.138  15.976 -1.1078  0.1585 -0.3008
  911MPD2    C113337   3.378   0.219  16.071 -1.0884 -0.2195 -0.0081
  911MPD2    C213338   3.297   0.316  16.132 -0.3266 -0.6086 -0.6734
  911MPD2    C313339   3.162   0.345  16.100  0.0847 -0.1904 -0.2984
  911MPD2    C413340   3.111   0.254  16.007 -0.0521  0.1896 -0.0979
  911MPD2    C513341   3.191   0.161  15.953 -0.9613 -0.2342  0.6256
  911MPD2     H13342   3.343   0.385  16.202 -0.2161 -0.8452 -0.5117
  911MPD2    H113343   3.008   0.254  15.974  0.5016 -1.5095 -1.8258
  911MPD2    H213344   3.363   0.045  15.939  1.0407  0.8131  0.5267
  911MPD2    H313345   3.142   0.087  15.890 -0.5346  1.1717 -1.3841
  911MPD2     N13346   3.092   0.450  16.168 -0.5167  0.3532 -0.0055
  911MPD2    H513347   3.147   0.502  16.235 -1.3901 -0.0050  0.9909
  911MPD2    N113348   3.499   0.183  16.125 -0.2686  0.1427 -0.1281
  911MPD2    H713349   3.542   0.098  16.093 -1.1982 -0.3819  0.0191
  912MPD2     C13350   2.997   4.616  15.928  0.1391  0.0006  0.7773
  912MPD2    C113351   2.923   4.711  16.002 -0.6132 -0.3876  0.8864
  912MPD2    C213352   2.964   0.014  16.133 -0.3536  0.7105  0.1120
  912MPD2    C313353   3.082   4.685  16.180 -0.8220  0.7387 -0.4316
  912MPD2    C413354   3.147   4.582  16.106 -0.4912 -0.2655 -0.2614
  912MPD2    C513355   3.101   4.548  15.980  0.1235  0.2621  0.1027
  912MPD2     H13356   2.928   0.107  16.176  0.6535  1.6937 -1.1724
  912MPD2    H113357   3.236   4.529  16.140 -0.4907  0.9983  1.7032
  912MPD2    H213358   2.962   4.589  15.829 -2.1031  0.4217  1.4568
  912MPD2    H313359   3.136   4.461  15.925  0.1927  0.4327 -0.1233
  912MPD2     N13360   3.140   0.013  16.298  0.3410 -0.1382  0.6145
  912MPD2    H513361   3.083   0.085  16.343 -0.5116  0.1494 -0.9168
  912MPD2    N113362   2.821   0.062  15.938 -0.4490 -0.6694  0.3594
  912MPD2    H713363   2.812   0.058  15.837  1.3043  1.7773  0.1089
  913MPD2     C13364   2.806   1.850   9.425 -0.2477 -0.1950  0.5829
  913MPD2    C113365   2.860   1.834   9.552 -0.2495 -0.2045  0.7109
  913MPD2    C213366   2.996   1.854   9.573  0.1457  0.0738 -0.0667
  913MPD2    C313367   3.078   1.897   9.463  0.6446  0.2475  1.2136
  913MPD2    C413368   3.021   1.923   9.341  0.0705  0.3500 -0.4863
  913MPD2    C513369   2.891   1.879   9.320 -0.3399  0.4039  0.1399
  913MPD2     H13370   3.050   1.838   9.666  3.6199  1.0868 -1.9058
  913MPD2    H113371   3.074   1.965   9.257 -1.7265  2.5279 -0.5299
  913MPD2    H213372   2.701   1.835   9.404 -0.3230  2.4467 -0.8647
  913MPD2    H313373   2.845   1.885   9.223  0.3131  0.3105 -0.1751
  913MPD2     N13374   3.218   1.915   9.473 -0.5166  1.1219  0.2416
  913MPD2    H513375   3.263   1.928   9.383  0.7406  0.9341  0.8550
  913MPD2    N113376   2.772   1.795   9.656  0.4449 -0.6248 -0.1988
  913MPD2    H713377   2.678   1.763   9.633 -0.0867 -0.2327  1.4110
  914MPD2     C13378   0.714   1.255  12.104  0.0292  0.1804 -0.1031
  914MPD2    C113379   0.757   1.384  12.116  1.0159 -0.9600 -0.5313
  914MPD2    C213380   0.853   1.420  12.211  0.8646 -1.0429  0.4534
  914MPD2    C313381   0.899   1.324  12.301  0.0738  0.2803  0.4194
  914MPD2    C413382   0.835   1.206  12.304 -0.0823  0.4096 -0.8069
  914MPD2    C513383   0.755   1.164  12.207  0.5959  0.4522 -0.2367
  914MPD2     H13384   0.899   1.518  12.214 -0.2572 -0.5336  1.0567
  914MPD2    H113385   0.868   1.122  12.362  0.0535  1.0072 -0.0180
  914MPD2    H213386   0.662   1.219  12.016  1.0751  0.0392 -0.6606
  914MPD2    H313387   0.728   1.059  12.204  2.1225  0.0755 -1.0578
  914MPD2     N13388   1.008   1.364  12.393  0.1604 -0.2528  0.3094
  914MPD2    H513389   1.041   1.459  12.383  2.3502 -0.8904  1.4316
  914MPD2    N113390   0.717   1.469  12.003 -0.1752  0.2695  0.3887
  914MPD2    H713391   0.664   1.429  11.927  1.9687 -0.5019 -0.6878
  915MPD2     C13392   4.286   1.262  15.175  0.2619 -0.0721  0.5388
  915MPD2    C113393   4.191   1.353  15.138 -0.3722  0.6388  0.1900
  915MPD2    C213394   4.150   1.446  15.231 -0.7251  0.2208 -0.0831
  915MPD2    C313395   4.204   1.446  15.355 -0.2273  0.1448 -0.5488
  915MPD2    C413396   4.303   1.355  15.385 -0.0378  0.0857 -0.3666
  915MPD2    C513397   4.339   1.261  15.296 -0.5789 -0.2352 -0.3369
  915MPD2     H13398   4.073   1.517  15.202 -0.4060  0.9986  0.9794
  915MPD2    H113399   4.346   1.362  15.484 -0.4430  0.3956 -0.2098
  915MPD2    H213400   4.320   1.180  15.113 -0.7380 -0.2426  0.2207
  915MPD2    H313401   4.414   1.187  15.321  2.0563  1.3123 -3.7452
  915MPD2     N13402   4.151   1.537  15.446  0.5434 -0.2771  0.6441
  915MPD2    H513403   4.072   1.595  15.418 -0.1161 -1.4153  0.1578
  915MPD2    N113404   4.133   1.338  15.014  0.3030 -0.2020  0.8765
  915MPD2    H713405   4.160   1.253  14.964  0.7814  0.2039  0.4454
  916MPD2     C13406   2.626   4.428  16.169 -0.0073  0.0202 -0.0418
  916MPD2    C113407   2.524   4.332  16.177  0.7509  0.4538 -0.5743
  916MPD2    C213408   2.509   4.234  16.075 -0.1733 -0.2096 -0.0391
  916MPD2    C313409   2.590   4.238  15.962  0.5982  0.7195 -0.6362
  916MPD2    C413410   2.678   4.343  15.945 -0.2886 -0.5299 -0.5103
  916MPD2    C513411   2.688   4.440  16.047  0.0640  0.0953 -0.4653
  916MPD2     H13412   2.454   4.141  16.082 -3.0263  1.4449 -0.5372
  916MPD2    H113413   2.728   4.365  15.851 -0.5552 -0.8349 -0.7233
  916MPD2    H213414   2.636   4.503  16.246  1.0937  0.4308 -0.5911
  916MPD2    H313415   2.750   4.527  16.031 -0.3976  0.5598  0.2246
  916MPD2     N13416   2.572   4.132  15.875  0.7185 -0.1734  0.2011
  916MPD2    H513417   2.527   4.051  15.916 -0.1153 -0.3417 -1.0217
  916MPD2    N113418   2.461   4.316  16.305 -0.0317  0.7232 -0.4231
  916MPD2    H713419   2.480   4.390  16.371 -3.1600  0.7482  0.4525
  917MPD2     C13420   2.951   1.924  11.332  0.1273  0.1133 -1.0761
  917MPD2    C113421   2.877   2.019  11.395 -0.1370  0.6960 -0.0834
  917MPD2    C213422   2.919   2.150  11.378 -0.0132 -0.4060  0.0086
  917MPD2    C313423   3.023   2.182  11.292 -0.1049 -0.1687  0.0364
  917MPD2    C413424   3.088   2.086  11.218 -0.3883  0.2234 -0.7884
  917MPD2    C513425   3.052   1.958  11.251  0.2089 -0.0454 -0.0774
  917MPD2     H13426   2.865   2.219  11.443 -0.1786 -0.9244  0.4246
  917MPD2    H113427   3.184   2.108  11.171  0.5289 -0.6293  0.6948
  917MPD2    H213428   2.934   1.818  11.349 -1.8440  0.4245 -1.0571
  917MPD2    H313429   3.120   1.885  11.209  0.7416 -0.4227  1.4227
  917MPD2     N13430   3.053   2.318  11.259 -0.1507  0.1843  0.3120
  917MPD2    H513431   3.124   2.333  11.189 -1.9843  1.3609 -1.3172
  917MPD2    N113432   2.763   1.982  11.478 -0.0394 -0.5526  0.2461
  917MPD2    H713433   2.744   2.054  11.547  0.8028 -0.8700  0.8175
  918MPD2     C13434   2.723   2.421  12.122  0.5635 -0.2308  0.1030
  918MPD2    C113435   2.796   2.305  12.125  0.1083 -1.0456  0.1147
  918MPD2    C213436   2.751   2.190  12.055 -0.3964 -0.2020  0.4257
  918MPD2    C313437   2.629   2.193  11.996  0.0635  0.2103 -0.0602
  918MPD2    C413438   2.556   2.306  11.993  0.5031 -0.1070 -0.6256
  918MPD2    C513439   2.597   2.418  12.059 -0.2201  0.2357  0.1531
  918MPD2     H13440   2.814   2.102  12.044  0.9137  0.5275  2.2243
  918MPD2    H113441   2.462   2.311  11.938 -0.6652 -1.6054  1.2352
  918MPD2    H213442   2.768   2.512  12.159  0.7016 -0.4572  0.4862
  918MPD2    H313443   2.537   2.507  12.047 -0.2546  0.6591  3.4253
  918MPD2     N13444   2.598   2.081  11.926  0.8072 -0.6490  0.0749
  918MPD2    H513445   2.672   2.011  11.929  0.8434 -0.5574  1.3274
  918MPD2    N113446   2.930   2.296  12.166  0.2031 -0.5223 -0.2435
  918MPD2    H713447   2.985   2.211  12.157  2.2012  0.6031  1.1252
  919MPD2     C13448   3.130   1.262  11.112  0.7905  0.4741  0.4300
  919MPD2    C113449   3.047   1.194  11.199 -0.2602  0.2350 -0.0872
  919MPD2    C213450   2.914   1.165  11.162  0.5521 -0.3229  0.0227
  919MPD2    C313451   2.863   1.201  11.037 -0.2512 -0.2779  0.2161
  919MPD2    C413452   2.951   1.280  10.956 -0.4578  0.2797 -0.6394
  919MPD2    C513453   3.082   1.304  10.991 -0.2525  0.1878 -0.8057
  919MPD2     H13454   2.851   1.099  11.220 -0.6232 -0.4655 -1.4317
  919MPD2    H113455   2.915   1.323  10.863  2.1253  2.0337 -0.8235
  919MPD2    H213456   3.226   1.302  11.145  0.7150 -0.9195  2.3801
  919MPD2    H313457   3.140   1.370  10.928  1.8444  0.7351  1.7019
  919MPD2     N13458   2.731   1.179  10.994  0.0693 -0.2146 -0.3480
  919MPD2    H513459   2.699   1.214  10.905  1.9283  0.8785 -0.5995
  919MPD2    N113460   3.094   1.152  11.330  0.2291 -0.8759  0.0712
  919MPD2    H713461   3.023   1.127  11.399  0.5533 -2.1976 -0.0732
  920MPD2     C13462   2.240   1.010  10.195 -0.9811  0.4143  0.0033
  920MPD2    C113463   2.145   1.081  10.263 -0.3339 -0.2431  0.6608
  920MPD2    C213464   2.153   1.092  10.396  0.0411 -0.0299  0.1611
  920MPD2    C313465   2.269   1.050  10.459 -0.4926  0.6460 -1.2596
  920MPD2    C413466   2.365   0.983  10.386  0.0787  0.3043 -0.4851
  920MPD2    C513467   2.352   0.958  10.257 -0.3180 -0.4039  0.3942
  920MPD2     H13468   2.076   1.153  10.443  1.4331 -0.1185  2.5293
  920MPD2    H113469   2.455   0.944  10.432 -0.5256 -1.2945 -0.6275
  920MPD2    H213470   2.223   0.984  10.091  0.2808 -1.3869  0.2480
  920MPD2    H313471   2.428   0.896  10.211 -1.1281 -0.5795 -0.6959
  920MPD2     N13472   2.280   1.074  10.596  0.8257  0.2780 -0.7803
  920MPD2    H513473   2.204   1.123  10.642  1.0466  0.3888 -0.5306
  920MPD2    N113474   2.044   1.140  10.194 -0.0183  0.1896 -0.2035
  920MPD2    H713475   1.973   1.177  10.256  1.7980  2.7508  0.3552
  921MPD2     C13476   4.267   0.030  16.893 -0.5735 -0.1647 -0.2586
  921MPD2    C113477   4.279   0.129  16.803  0.1094  0.3028  0.0507
  921MPD2    C213478   4.178   0.142  16.717  0.6003 -0.2432  0.1266
  921MPD2    C313479   4.070   0.055  16.710 -0.0952  1.1750  0.0489
  921MPD2    C413480   4.063   4.682  16.806 -0.7732  0.0346  0.2225
  921MPD2    C513481   4.157   4.674  16.904  0.1796 -0.3478  1.0780
  921MPD2     H13482   4.181   0.217  16.639 -1.2345 -1.1942 -0.8525
  921MPD2    H113483   3.984   4.609  16.810 -1.4540  0.6997 -1.2187
  921MPD2    H213484   4.346   0.006  16.963 -1.2997  0.7982  0.9014
  921MPD2    H313485   4.165   4.597  16.980 -0.9688 -0.6288  0.9204
  921MPD2     N13486   3.962   0.052  16.615 -0.2317 -0.2703  0.0513
  921MPD2    H513487   3.906   4.694  16.619 -0.7439  0.1245  1.1429
  921MPD2    N113488   4.409   0.177  16.787 -0.0242 -0.4674  0.2532
  921MPD2    H713489   4.485   0.124  16.828  0.9953  2.2253  1.8439
  922MPD2     C13490   0.312   2.642  16.552  0.3306  0.0158  0.0810
  922MPD2    C113491   0.275   2.684  16.676 -0.3551  0.3324  0.7160
  922MPD2    C213492   0.183   2.610  16.745 -0.0595  0.1063 -0.1916
  922MPD2    C313493   0.119   2.496  16.692  0.0954  0.2919  0.8451
  922MPD2    C413494   0.166   2.450  16.570  0.3184 -0.1314 -0.0770
  922MPD2    C513495   0.254   2.527  16.502  0.4848  1.2038  0.4880
  922MPD2     H13496   0.148   2.636  16.844 -0.1528  0.8023 -0.4019
  922MPD2    H113497   0.144   2.351  16.531  1.0112  0.0167 -0.8449
  922MPD2    H213498   0.379   2.690  16.482 -0.6438  0.0197 -0.8444
  922MPD2    H313499   0.281   2.490  16.404  2.8942 -0.7326  1.8703
  922MPD2     N13500   0.023   2.425  16.770  0.2502  0.4640  0.2628
  922MPD2    H513501   0.015   2.460  16.865  1.9280 -2.3122  1.4283
  922MPD2    N113502   0.326   2.793  16.740  0.0096 -0.1041 -0.4177
  922MPD2    H713503   0.300   2.809  16.837  0.9563 -0.0119 -0.1842
  923MPD2     C13504   1.749   0.486   8.677 -0.3043  0.3129 -0.5423
  923MPD2    C113505   1.654   0.523   8.772  0.1986 -0.1240 -0.2728
  923MPD2    C213506   1.634   0.435   8.871 -0.0810  0.3355  0.2180
  923MPD2    C313507   1.704   0.310   8.880 -0.0366  0.3437  1.0627
  923MPD2    C413508   1.778   0.262   8.774 -0.8714 -0.7142  0.8113
  923MPD2    C513509   1.808   0.362   8.678 -0.0188  0.1988  0.5705
  923MPD2     H13510   1.562   0.458   8.949 -1.2132  1.0306 -1.0199
  923MPD2    H113511   1.833   0.169   8.779  1.0265  0.5480  2.7400
  923MPD2    H213512   1.772   0.559   8.600  0.0164 -1.5801 -2.2133
  923MPD2    H313513   1.885   0.338   8.606 -0.4071  1.1236 -0.1397
  923MPD2     N13514   1.693   0.227   8.992  0.2053 -0.3017 -0.3836
  923MPD2    H513515   1.718   0.128   8.999 -2.2343 -0.9645 -1.0677
  923MPD2    N113516   1.592   0.653   8.770  0.3782  0.7244 -0.0327
  923MPD2    H713517   1.605   0.713   8.689 -2.8621  3.9356  1.8544
  924MPD2     C13518   1.744   3.160  15.837  0.1149 -0.0331 -0.5267
  924MPD2    C113519   1.624   3.167  15.894  0.7954  0.6024  0.3874
  924MPD2    C213520   1.540   3.263  15.836  0.0833  0.7403  0.1742
  924MPD2    C313521   1.576   3.343  15.731 -0.1570  0.6274  0.1682
  924MPD2    C413522   1.693   3.318  15.667  0.6157 -0.3574 -0.3447
  924MPD2    C513523   1.780   3.235  15.726 -0.2597 -0.4971 -0.4012
  924MPD2     H13524   1.447   3.289  15.888 -0.7914 -1.6057 -0.2188
  924MPD2    H113525   1.733   3.396  15.603  2.8018 -0.1945  1.2165
  924MPD2    H213526   1.805   3.077  15.870 -1.2482 -1.3302 -1.2450
  924MPD2    H313527   1.881   3.243  15.687 -0.3141 -2.2656 -0.9127
  924MPD2     N13528   1.506   3.456  15.704  0.9788  0.0208  0.1910
  924MPD2    H513529   1.548   3.534  15.654  3.2172  0.4871  2.7974
  924MPD2    N113530   1.592   3.083  16.004  0.0361  0.3738 -0.1413
  924MPD2    H713531   1.661   3.025  16.050  0.8093 -0.2614 -2.1086
  925MPD2     C13532   4.660   1.091  14.833  0.9864 -0.8241  1.1205
  925MPD2    C113533   4.591   0.979  14.788  0.0557  0.1497 -0.4431
  925MPD2    C213534   4.503   0.914  14.871  0.1153 -0.3280  0.2406
  925MPD2    C313535   4.476   0.962  15.001  0.2525  0.1405 -0.0306
  925MPD2    C413536   4.555   1.061  15.046 -0.2035  0.2044  0.1685
  925MPD2    C513537   4.640   1.128  14.961 -0.3170 -0.4354 -0.0969
  925MPD2     H13538   4.453   0.822  14.840 -1.3605  0.3854  0.5104
  925MPD2    H113539   4.545   1.096  15.149 -1.1353  3.1870 -0.9452
  925MPD2    H213540   0.012   1.141  14.776  0.1986  0.7442  1.4403
  925MPD2    H313541   4.693   1.214  15.001  0.5263 -0.9432 -0.1159
  925MPD2     N13542   4.377   0.911  15.087 -0.1924  0.1448 -0.3705
  925MPD2    H513543   4.384   0.945  15.182 -1.9288  0.8441 -0.4928
  925MPD2    N113544   4.618   0.934  14.655 -0.3261 -0.1290  0.0993
  925MPD2    H713545   4.560   0.857  14.621 -3.0176  0.9588  2.1611
  926MPD2     C13546   3.100   3.776  13.497  0.2269 -0.5409  0.3963
  926MPD2    C113547   3.125   3.905  13.515  1.3319  0.0501  0.1241
  926MPD2    C213548   3.157   3.968  13.396 -0.1955  0.0479  0.1021
  926MPD2    C313549   3.162   3.909  13.271 -0.1670 -0.7641  0.4325
  926MPD2    C413550   3.125   3.781  13.265 -0.3783 -0.2768  0.6134
  926MPD2    C513551   3.096   3.712  13.381 -0.6000 -0.6679 -0.5021
  926MPD2     H13552   3.159   4.075  13.413 -0.8655  0.3045 -1.4622
  926MPD2    H113553   3.125   3.729  13.170  0.4508 -0.3462  0.6479
  926MPD2    H213554   3.083   3.709  13.581  0.8056 -0.3088  0.7002
  926MPD2    H313555   3.080   3.605  13.378  1.9552 -1.1076  1.5282
  926MPD2     N13556   3.184   3.985  13.153  0.1554  0.3867  0.7407
  926MPD2    H513557   3.162   3.939  13.065  0.6673 -0.7404  1.1966
  926MPD2    N113558   3.112   3.972  13.638  0.0900  0.9617  0.6349
  926MPD2    H713559   3.125   4.073  13.640 -0.2359  1.0348 -0.9632
  927MPD2     C13560   3.381   2.192   0.209  0.5181 -0.4823  0.0089
  927MPD2    C113561   3.429   2.075   0.251  0.1025  0.3493 -0.4574
  927MPD2    C213562   3.500   1.992   0.163 -0.8302 -0.3884  0.8514
  927MPD2    C313563   3.538   2.039   0.041 -0.4533 -0.0672  0.1605
  927MPD2    C413564   3.495   2.168   0.007  0.6465 -0.2848  0.0147
  927MPD2    C513565   3.412   2.245   0.089 -0.4350 -0.1685 -0.2575
  927MPD2     H13566   3.544   1.901   0.201  1.8148  0.0062 -1.2158
  927MPD2    H113567   3.529   2.221  17.623 -0.6409  0.3595 -0.0983
  927MPD2    H213568   3.330   2.252   0.283 -0.2888 -1.7249  0.4567
  927MPD2    H313569   3.376   2.344   0.064 -2.0503 -0.5901  0.3958
  927MPD2     N13570   3.628   1.979  17.660  0.0661  0.1775 -0.1291
  927MPD2    H513571   3.657   2.028  17.575  1.6896  0.7845  0.7705
  927MPD2    N113572   3.401   2.031   0.384  0.1555 -0.1304  0.1079
  927MPD2    H713573   3.345   2.091   0.444 -0.0474 -1.1700  0.9618
  928MPD2     C13574   1.550   0.045   0.922 -0.1102 -0.7836 -0.0882
  928MPD2    C113575   1.585   0.161   0.979  0.6232 -0.1512 -1.0952
  928MPD2    C213576   1.702   0.222   0.932 -0.3023  0.4010 -0.2439
  928MPD2    C313577   1.763   0.170   0.823 -0.4395  0.0115  0.3224
  928MPD2    C413578   1.711   0.067   0.759 -0.1391 -0.1619  0.7509
  928MPD2    C513579   1.610   4.721   0.808 -0.0918  0.6044  0.5635
  928MPD2     H13580   1.751   0.308   0.974 -1.6779  0.0946  1.9540
  928MPD2    H113581   1.748   0.031   0.664 -1.2838 -0.5851  0.4613
  928MPD2    H213582   1.471   4.709   0.963  0.5643 -2.5076 -1.3239
  928MPD2    H313583   1.574   4.624   0.777 -0.9607  0.2581  2.6322
  928MPD2     N13584   1.882   0.230   0.763 -0.3007 -0.1139  0.0525
  928MPD2    H513585   1.914   0.184   0.679  1.2641  0.2241  0.4753
  928MPD2    N113586   1.511   0.236   1.072 -0.1552  0.1301  0.5376
  928MPD2    H713587   1.426   0.189   1.104 -0.5123  0.4128  0.0097
  929MPD2     C13588   1.404   4.692  10.824  0.0828 -0.1238 -0.5615
  929MPD2    C113589   1.375   4.569  10.779  0.5846  0.5973 -0.3797
  929MPD2    C213590   1.292   4.544  10.670  0.5254  0.1028  0.5458
  929MPD2    C313591   1.246   4.644  10.600 -0.0191 -0.7826 -0.1644
  929MPD2    C413592   1.284   0.052  10.638  0.4978  0.5035  0.4021
  929MPD2    C513593   1.359   0.073  10.751 -0.1135 -0.0885 -0.1658
  929MPD2     H13594   1.249   4.447  10.650  1.7766 -0.5493  1.0532
  929MPD2    H113595   1.257   0.140  10.581  1.4626  0.5134 -0.0424
  929MPD2    H213596   1.461   4.712  10.914  1.2601 -2.5381 -0.7856
  929MPD2    H313597   1.371   0.178  10.777  1.4442  0.0947 -1.6332
  929MPD2     N13598   1.159   4.643  10.487 -0.1064 -0.1833  0.2875
  929MPD2    H513599   1.121   0.004  10.451  0.6913  0.1037  0.1441
  929MPD2    N113600   1.436   4.455  10.845  0.5093 -0.0538  0.0799
  929MPD2    H713601   1.496   4.479  10.923  0.0643  1.5455 -0.0791
  930MPD2     C13602   2.969   2.230  13.821  0.0398 -0.8295  0.7523
  930MPD2    C113603   3.052   2.297  13.731  0.0690 -0.0302 -0.7168
  930MPD2    C213604   3.054   2.254  13.601  0.2034  0.0749  0.0974
  930MPD2    C313605   2.976   2.151  13.568 -0.4599 -0.5463  0.7555
  930MPD2    C413606   2.901   2.078  13.656  0.4387  0.1850 -0.1228
  930MPD2    C513607   2.884   2.124  13.788  0.2266 -0.0065 -0.0070
  930MPD2     H13608   3.121   2.289  13.524 -1.4740  1.0642 -0.9087
  930MPD2    H113609   2.835   2.006  13.609 -1.2706  1.2167  0.6606
  930MPD2    H213610   2.982   2.264  13.923  0.2098 -1.0930  0.8177
  930MPD2    H313611   2.807   2.078  13.849 -1.9055  0.2924 -2.4813
  930MPD2     N13612   2.978   2.100  13.435  0.0694 -0.2380  0.4247
  930MPD2    H513613   2.955   2.002  13.425  2.0097 -0.6426 -0.0456
  930MPD2    N113614   3.134   2.403  13.776  0.1343  0.3054  0.3992
  930MPD2    H713615   3.140   2.419  13.876 -0.3617  2.6208  0.0684
  931MPD2     C13616   3.872   1.568   0.760 -0.2650  0.0224 -0.7047
  931MPD2    C113617   3.758   1.583   0.837 -0.5802 -0.6226  0.1707
  931MPD2    C213618   3.766   1.560   0.973  0.0480 -0.1679  1.0324
  931MPD2    C313619   3.891   1.558   1.036 -0.6884 -0.6475 -0.0173
  931MPD2    C413620   4.005   1.545   0.958  0.4959 -0.0870 -0.8126
  931MPD2    C513621   3.995   1.542   0.822  0.6205 -0.3256  0.8708
  931MPD2     H13622   3.676   1.569   1.033  0.8086  1.0694  1.9959
  931MPD2    H113623   4.104   1.525   0.999 -1.2620  0.2320  3.5650
  931MPD2    H213624   3.856   1.563   0.653 -0.3952 -0.6279 -0.6517
  931MPD2    H313625   4.084   1.530   0.761 -1.1472  3.8759 -2.5479
  931MPD2     N13626   3.909   1.530   1.174  1.2923  1.0315 -0.2924
  931MPD2    H513627   4.004   1.511   1.205  0.7199 -1.8297 -0.2865
  931MPD2    N113628   3.644   1.613   0.761 -0.0903  0.0591 -0.6767
  931MPD2    H713629   3.651   1.621   0.660  1.0045  1.6346 -0.4664
  932MPD2     C13630   4.396   0.086  10.885  0.5341  0.2678 -0.8107
  932MPD2    C113631   4.518   0.137  10.909  0.2513 -0.9030 -0.0739
  932MPD2    C213632   4.592   0.072  11.015  0.2674  0.1024 -0.1282
  932MPD2    C313633   4.548   4.685  11.074 -0.0535  0.1883 -0.3809
  932MPD2    C413634   4.424   4.638  11.048 -0.3644  0.3899  0.2631
  932MPD2    C513635   4.351   4.699  10.951 -0.2686 -0.6362  0.1363
  932MPD2     H13636   4.681   0.123  11.050 -0.4405  2.5486 -1.8192
  932MPD2    H113637   4.371   4.558  11.099  0.9445 -1.1622 -0.8489
  932MPD2    H213638   4.325   0.119  10.809  0.4748 -0.9481 -1.2819
  932MPD2    H313639   4.251   4.658  10.938 -1.2951  2.2811 -1.1157
  932MPD2     N13640   4.625   4.623  11.181 -0.5460 -0.4943  0.1146
  932MPD2    H513641   4.581   4.558  11.245 -4.9642  2.4313  0.0195
  932MPD2    N113642   4.569   0.250  10.843  0.6473 -0.1565  0.4516
  932MPD2    H713643   4.652   0.299  10.877  0.6826  0.1544 -0.0885
  933MPD2     C13644   0.886   0.226   1.024  0.6037 -0.2041  0.5886
  933MPD2    C113645   0.918   0.301   1.138 -0.4913 -0.5762  0.6303
  933MPD2    C213646   0.816   0.373   1.203  0.0549  0.0831  0.0312
  933MPD2    C313647   0.693   0.392   1.144  0.0100  0.3834 -0.7874
  933MPD2    C413648   0.664   0.309   1.040 -0.4043  0.0433  0.4934
  933MPD2    C513649   0.758   0.232   0.973 -0.0264 -0.1297 -0.1826
  933MPD2     H13650   0.834   0.432   1.292 -1.1801  0.6588 -0.1039
  933MPD2    H113651   0.573   0.313   0.981 -0.0607  1.3845  0.0585
  933MPD2    H213652   0.964   0.174   0.969 -0.0027 -0.5499  0.0623
  933MPD2    H313653   0.731   0.199   0.873 -1.3703  2.5403 -0.6957
  933MPD2     N13654   0.625   0.505   1.185  0.7423  0.4287  0.0982
  933MPD2    H513655   0.682   0.569   1.241  2.0382 -0.9117  0.2990
  933MPD2    N113656   1.050   0.294   1.187 -0.1345  0.5738 -0.6545
  933MPD2    H713657   1.111   0.233   1.134 -1.0770  0.6305 -1.7796
  934MPD2     C13658   2.014   3.422   1.653  0.0958  0.3719  0.2470
  934MPD2    C113659   2.130   3.360   1.611 -0.1294  0.2716 -0.0798
  934MPD2    C213660   2.117   3.232   1.564  0.2766 -0.2051 -0.2530
  934MPD2    C313661   1.991   3.159   1.563 -0.0196  0.4642 -0.4774
  934MPD2    C413662   1.886   3.227   1.607  0.4725 -0.0948  0.4840
  934MPD2    C513663   1.898   3.358   1.640  0.0745  0.7685  0.4915
  934MPD2     H13664   2.208   3.192   1.520 -0.5199 -0.7508 -1.4273
  934MPD2    H113665   1.786   3.184   1.612 -0.0911  0.9878 -1.4036
  934MPD2    H213666   2.019   3.525   1.685 -1.9749  0.1972  1.0975
  934MPD2    H313667   1.817   3.422   1.674 -0.6290  0.7307 -1.0999
  934MPD2     N13668   1.974   3.021   1.520  0.2963 -0.1462  0.4002
  934MPD2    H513669   1.888   2.974   1.546 -0.4423  1.0194  0.1061
  934MPD2    N113670   2.261   3.428   1.613 -0.0122 -0.1146 -0.3146
  934MPD2    H713671   2.343   3.371   1.593 -0.9983 -1.3748 -0.7166
  935MPD2     C13672   2.656   2.270   1.355 -0.8158 -0.1884  0.6093
  935MPD2    C113673   2.527   2.218   1.357  0.1470  0.4059  0.4499
  935MPD2    C213674   2.415   2.298   1.398 -0.3768 -0.2665 -0.0144
  935MPD2    C313675   2.430   2.433   1.420  0.0468  0.2199 -0.3512
  935MPD2    C413676   2.559   2.487   1.421 -0.3048  0.3630 -0.2174
  935MPD2    C513677   2.667   2.403   1.400 -0.2828  0.1314  0.1135
  935MPD2     H13678   2.324   2.241   1.397 -0.9718  0.6610  1.9737
  935MPD2    H113679   2.594   2.582   1.459  1.1283  0.2530 -1.2285
  935MPD2    H213680   2.747   2.228   1.315  0.5346  1.0169  2.4552
  935MPD2    H313681   2.764   2.449   1.410  0.1378 -0.3714 -1.6569
  935MPD2     N13682   2.325   2.521   1.446 -0.3002 -0.1114  0.2688
  935MPD2    H513683   2.350   2.618   1.432  0.0179 -0.1027  0.8886
  935MPD2    N113684   2.506   2.088   1.315  0.4452 -0.2422 -0.1447
  935MPD2    H713685   2.410   2.072   1.287  0.7617 -0.0094 -1.3433
  936MPD2     C13686   0.381   4.418  12.271  0.7601  0.4803  0.2832
  936MPD2    C113687   0.410   4.327  12.369 -0.8365 -0.6195  0.5440
  936MPD2    C213688   0.541   4.291  12.395 -0.3537 -0.1649  0.0195
  936MPD2    C313689   0.643   4.337  12.317  0.3961  0.9806  0.0989
  936MPD2    C413690   0.613   4.442  12.223 -0.3631 -0.4134  0.1291
  936MPD2    C513691   0.485   4.483  12.209 -0.2481 -0.2594  0.1788
  936MPD2     H13692   0.555   4.218  12.474 -0.8348  0.5069  0.7219
  936MPD2    H113693   0.687   4.491  12.160  0.2536  0.8366  1.8233
  936MPD2    H213694   0.284   4.466  12.262  0.9912  0.8127 -0.4276
  936MPD2    H313695   0.457   4.566  12.145  2.2688 -1.8422 -2.9532
  936MPD2     N13696   0.775   4.267  12.317 -0.4627 -0.0408 -0.0354
  936MPD2    H513697   0.842   4.303  12.250  1.6112 -0.5439  1.7816
  936MPD2    N113698   0.323   4.278  12.462  0.6958 -0.1688 -0.0721
  936MPD2    H713699   0.362   4.213  12.529  0.6142  0.4506  0.5770
  937MPD2     C13700   3.269   0.516  11.348 -0.9887  0.6350  0.3397
  937MPD2    C113701   3.389   0.592  11.362  1.2127 -0.0740 -0.3988
  937MPD2    C213702   3.489   0.597  11.261  0.4253 -0.5360  0.3053
  937MPD2    C313703   3.477   0.509  11.161 -0.4900  0.0495  0.5460
  937MPD2    C413704   3.361   0.434  11.148  0.1473 -0.7156  0.4893
  937MPD2    C513705   3.257   0.436  11.239 -0.0595  0.0974 -0.3214
  937MPD2     H13706   3.578   0.660  11.266 -0.4627  0.8030 -0.7682
  937MPD2    H113707   3.343   0.358  11.073  0.5666  0.9294 -1.2679
  937MPD2    H213708   3.189   0.510  11.421 -0.9071  2.5569  0.5813
  937MPD2    H313709   3.179   0.364  11.216 -0.1020  0.0261  0.0436
  937MPD2     N13710   3.577   0.499  11.067  0.5092 -0.6869  0.2539
  937MPD2    H513711   3.662   0.554  11.078 -0.3566  0.8067 -0.5166
  937MPD2    N113712   3.398   0.701  11.454  0.3748 -0.0705  0.6724
  937MPD2    H713713   3.476   0.765  11.447  2.5872 -2.7328  0.7570
  938MPD2     C13714   2.029   2.147   1.243  1.6745 -0.2880  0.5068
  938MPD2    C113715   1.931   2.237   1.213 -0.2349  0.1152 -0.4579
  938MPD2    C213716   1.797   2.204   1.228 -0.8603 -0.6618 -0.2863
  938MPD2    C313717   1.761   2.073   1.264 -0.5696  0.0441  0.2462
  938MPD2    C413718   1.861   1.980   1.277  0.5343 -0.1866  0.3129
  938MPD2    C513719   1.997   2.021   1.277 -0.0846 -0.2976  0.7704
  938MPD2     H13720   1.722   2.282   1.222 -0.5096 -0.2580  0.5472
  938MPD2    H113721   1.838   1.878   1.303  1.6847 -1.2564 -2.8505
  938MPD2    H213722   2.135   2.161   1.224  1.5655  0.6003  0.5515
  938MPD2    H313723   2.068   1.941   1.291 -1.4731 -1.7472 -0.4833
  938MPD2     N13724   1.628   2.030   1.272 -0.9876  0.7508  0.0304
  938MPD2    H513725   1.605   1.933   1.288  0.1947  0.3337 -0.7704
  938MPD2    N113726   1.962   2.363   1.160  0.4156  0.1775 -0.8220
  938MPD2    H713727   1.885   2.424   1.136  0.4047 -0.1029 -1.4949
  939MPD2     C13728   2.800   3.060   0.336  0.1179 -0.4629 -0.2855
  939MPD2    C113729   2.887   3.153   0.384 -0.3181  0.3872  0.5531
  939MPD2    C213730   3.004   3.168   0.317  0.0454  0.0001 -0.5692
  939MPD2    C313731   3.035   3.076   0.211 -0.8165 -0.2455 -0.4382
  939MPD2    C413732   2.941   2.986   0.167 -0.1395 -0.0032 -0.2767
  939MPD2    C513733   2.824   2.978   0.229 -0.1000  0.4807  0.5501
  939MPD2     H13734   3.082   3.233   0.355  1.8617 -0.6124 -3.2836
  939MPD2    H113735   2.959   2.911   0.092 -2.3310 -1.1931  0.3914
  939MPD2    H213736   2.703   3.052   0.384 -0.1440  2.9728 -0.2239
  939MPD2    H313737   2.751   2.905   0.197  0.6758 -0.4371  0.8319
  939MPD2     N13738   3.165   3.091   0.156  0.4365 -0.5270 -0.2943
  939MPD2    H513739   3.228   3.161   0.194  0.7000 -1.0430  0.2216
  939MPD2    N113740   2.844   3.225   0.500  0.0537  0.4369 -0.3527
  939MPD2    H713741   2.764   3.183   0.546  1.0923  1.5713  2.4950
  940MPD2     C13742   1.418   3.477  12.752  0.0790 -0.1013  0.2687
  940MPD2    C113743   1.334   3.585  12.755  0.4323  0.7795 -0.7905
  940MPD2    C213744   1.356   3.698  12.678 -0.4232 -0.1553 -0.2760
  940MPD2    C313745   1.456   3.694  12.584 -0.9208 -0.1579  0.0576
  940MPD2    C413746   1.541   3.587  12.587  0.0446 -0.0314  0.1571
  940MPD2    C513747   1.524   3.480  12.670  0.1369  0.6263  0.3666
  940MPD2     H13748   1.281   3.776  12.672 -1.9612 -1.5587  0.5503
  940MPD2    H113749   1.620   3.580  12.513  1.4114  0.6856  1.5560
  940MPD2    H213750   1.395   3.390  12.813 -1.2911 -0.5542 -0.8952
  940MPD2    H313751   1.599   3.402  12.671  0.5360  0.9852 -0.7641
  940MPD2     N13752   1.490   3.809  12.504 -0.4137 -0.3611 -0.5234
  940MPD2    H513753   1.588   3.808  12.475  0.4079  1.7396  2.1458
  940MPD2    N113754   1.238   3.588  12.856 -0.3815  0.1919 -0.5703
  940MPD2    H713755   1.224   3.505  12.912 -0.9751 -1.6213 -3.4427
  941MPD2     C13756   0.402   3.209   9.696 -0.3852 -0.4222 -0.7482
  941MPD2    C113757   0.509   3.129   9.740  0.7043 -0.1730  0.5740
  941MPD2    C213758   0.482   3.016   9.815  0.3388 -0.1127 -1.0757
  941MPD2    C313759   0.357   2.968   9.835  0.3373  0.3110  0.0769
  941MPD2    C413760   0.254   3.043   9.784 -0.0015  0.7862 -0.7962
  941MPD2    C513761   0.270   3.173   9.734 -0.7872  0.3942 -0.4715
  941MPD2     H13762   0.567   2.951   9.834  0.9012  0.6567 -0.9582
  941MPD2    H113763   0.152   3.010   9.800 -0.6847  3.6741  0.9228
  941MPD2    H213764   0.412   3.307   9.651 -1.7489 -0.5365 -1.3132
  941MPD2    H313765   0.187   3.239   9.714 -0.4083  0.8537 -0.5200
  941MPD2     N13766   0.322   2.850   9.901 -0.8164 -0.0623  0.4846
  941MPD2    H513767   0.224   2.832   9.919 -0.8039 -0.8265 -0.2542
  941MPD2    N113768   0.646   3.158   9.719 -0.0321 -0.2814  0.1283
  941MPD2    H713769   0.715   3.110   9.776  0.5251 -0.0192 -0.3382
  942MPD2     C13770   1.023   0.910   8.496  1.2363  0.3017 -0.3856
  942MPD2    C113771   1.138   0.852   8.456  0.2001 -0.0354  0.0584
  942MPD2    C213772   1.166   0.725   8.495  0.6785  0.1693  0.4223
  942MPD2    C313773   1.095   0.658   8.593  0.7450  0.2270  0.6209
  942MPD2    C413774   0.970   0.715   8.629  0.0405 -0.0671 -0.2325
  942MPD2    C513775   0.938   0.840   8.579 -0.5127 -0.0822  0.0279
  942MPD2     H13776   1.257   0.682   8.456 -1.4915 -0.6083 -3.7087
  942MPD2    H113777   0.905   0.666   8.701 -0.2908 -1.3817 -1.4122
  942MPD2    H213778   1.000   1.015   8.480 -2.7406 -0.3776  0.9611
  942MPD2    H313779   0.838   0.876   8.603 -1.0155 -2.0087  0.8587
  942MPD2     N13780   1.127   0.523   8.645  0.0331  0.6417  0.1935
  942MPD2    H513781   1.061   0.478   8.708  1.7605 -0.3717  1.3071
  942MPD2    N113782   1.230   0.912   8.369  0.4129  0.1255  0.2973
  942MPD2    H713783   1.305   0.853   8.335  2.3366  1.8603  1.4975
  943MPD2     C13784   4.313   3.255   9.652  0.3332  0.5264 -0.0942
  943MPD2    C113785   4.224   3.166   9.687 -0.8222  0.2719  0.5593
  943MPD2    C213786   4.117   3.218   9.761  0.4584  0.3898  0.1465
  943MPD2    C313787   4.109   3.347   9.804  0.0208 -0.3600 -0.1543
  943MPD2    C413788   4.202   3.438   9.750  0.0150 -0.2779  0.4221
  943MPD2    C513789   4.300   3.386   9.670 -0.6922 -0.2001  0.5734
  943MPD2     H13790   4.048   3.144   9.797 -0.3927  1.1397  0.0532
  943MPD2    H113791   4.196   3.543   9.778 -0.1899  0.2599 -1.6302
  943MPD2    H213792   4.398   3.221   9.594  0.7022 -1.7713  1.7575
  943MPD2    H313793   4.375   3.447   9.621  1.0351 -0.8950  2.3909
  943MPD2     N13794   4.015   3.390   9.908  0.1806  0.1902 -0.2193
  943MPD2    H513795   4.026   3.484   9.944  0.6063 -0.5221  1.5283
  943MPD2    N113796   4.244   3.025   9.666 -0.4014 -0.3523  0.2795
  943MPD2    H713797   4.333   3.000   9.623  0.5301  3.1836  0.1371
  944MPD2     C13798   3.636   2.068  10.556  0.6683  0.3496 -0.1196
  944MPD2    C113799   3.773   2.059  10.579  0.0381 -0.8887 -0.0968
  944MPD2    C213800   3.821   2.055  10.710  0.2038  0.5678 -0.0320
  944MPD2    C313801   3.732   2.067  10.816  0.2020 -0.4493  0.4562
  944MPD2    C413802   3.594   2.088  10.786 -0.3369  0.3642 -0.5554
  944MPD2    C513803   3.552   2.087  10.663  0.0343  0.5503 -0.1033
  944MPD2     H13804   3.927   2.055  10.731 -0.1261  0.4534  1.6250
  944MPD2    H113805   3.522   2.104  10.865  1.4490 -0.1547  1.1731
  944MPD2    H213806   3.594   2.073  10.456  3.0605 -2.4857 -1.2525
  944MPD2    H313807   3.449   2.102  10.633  0.2344  3.9580  0.9400
  944MPD2     N13808   3.778   2.054  10.951  0.0446  0.2229  0.8739
  944MPD2    H513809   3.875   2.029  10.966  0.3102  0.3774 -0.6196
  944MPD2    N113810   3.851   2.044  10.466 -0.7580 -0.0649  0.6283
  944MPD2    H713811   3.794   2.017  10.387 -1.1334 -0.0046  0.8799
    1TCq1    O113812   1.922   2.897  15.156 -0.3735 -0.4454  0.0706
    1TCq1    C113813   2.008   2.997  15.144  0.0076  0.1295 -0.3886
    1TCq1    O213814   2.109   3.015  15.210  0.0438 -0.2655 -0.3830
    1TCq1    C213815   1.969   3.073  15.034  0.2382  0.1024  1.4292
    1TCq1    C313816   1.839   3.081  14.991 -0.5643  0.3379  0.1637
    1TCq1    C413817   1.817   3.113  14.858 -0.6871 -0.1161  0.1480
    1TCq1    C513818   1.919   3.147  14.768 -0.9104 -0.5889  0.4064
    1TCq1    C613819   2.047   3.128  14.812  0.5861  0.6309 -0.5146
    1TCq1    C713820   2.068   3.096  14.944  0.7429  0.0139 -0.3200
    1TCq1    C813821   2.163   3.196  14.752  0.6246 -0.1343  0.6697
    1TCq1    O413822   2.260   3.215  14.823  0.3042  0.3902 -0.9826
    1TCq1    C913823   1.680   3.150  14.830  0.3895 -0.4474  0.5850
    1TCq1    O513824   1.611   3.177  14.935  0.2613  1.1423 -0.4799
    1TCq1    O613825   1.661   3.205  14.716  0.4653  0.2291 -0.0014
    1TCq1    H113826   1.869   2.879  15.076 -0.4062  1.5470 -0.3725
    1TCq1    H213827   1.763   3.065  15.067 -2.4294  0.8660 -1.6249
    1TCq1    H313828   1.891   3.201  14.678 -2.0097 -1.8988 -0.0303
    1TCq1    H413829   2.165   3.068  14.984 -0.2966 -2.1427  0.7161
    2MPD2     C13830   2.374   3.464  14.385  0.1833 -0.1887 -0.3365
    2MPD2    C113831   2.279   3.390  14.321 -0.8151 -0.4784  0.5777
    2MPD2    C213832   2.207   3.301  14.398 -0.2459 -0.0934 -0.8011
    2MPD2    C313833   2.233   3.287  14.534 -0.4368  0.4858 -0.3997
    2MPD2    C413834   2.332   3.363  14.593  0.2420 -0.5803  0.5017
    2MPD2    C513835   2.399   3.452  14.517 -0.3699  0.2991 -0.1878
    2MPD2     H13836   2.116   3.256  14.358  1.3079 -1.9908 -2.2011
    2MPD2    H113837   2.348   3.369  14.700  0.2070 -0.6278  0.5099
    2MPD2    H213838   2.439   3.528  14.325  0.6852 -2.4494 -2.1852
    2MPD2    H313839   2.479   3.512  14.559 -0.8325 -0.2563  1.4743
    2MPD2     N13840   2.146   3.213  14.614 -0.3478 -0.7103 -0.2887
    2MPD2    H513841   2.060   3.179  14.572 -0.8767 -0.9739  1.0405
    2MPD2    N113842   2.268   3.405  14.182 -0.0575  0.1892  0.0154
    2MPD2    H713843   2.334   3.467  14.137 -1.5758  0.7134 -1.4846
    3TMC2    C113844   2.167   3.397  13.966 -0.2581  0.3294 -0.2536
    3TMC2    C213845   2.267   3.474  13.915 -0.2918 -0.0470 -1.0536
    3TMC2    C313846   2.258   3.526  13.793 -0.6583 -0.3075 -0.1000
    3TMC2    C413847   2.055   3.372  13.894  0.0906  0.0294  0.3790
    3TMC2    C513848   2.051   3.416  13.769  0.1024  0.5527  0.3042
    3TMC2    C613849   2.148   3.494  13.720 -0.3393  0.3790  1.2485
    3TMC2     C13850   2.166   3.349  14.104  0.6890  0.4956 -0.2656
    3TMC2     O13851   2.093   3.257  14.134  0.1740 -0.8205  0.1605
    3TMC2     H13852   2.368   3.460  13.953 -1.4655 -2.4322  1.1455
    3TMC2    H113853   1.969   3.324  13.941 -1.0113  1.2927 -0.3377
    3TMC2    H213854   2.149   3.517  13.614  2.3156  1.1573  1.4520
    3TMC2    C713855   1.921   3.417  13.715  0.0426 -0.1180 -0.2053
    3TMC2    C813856   2.354   3.614  13.733 -0.2012 -0.6685  0.1231
    3TMC2    O113857   1.835   3.346  13.767  0.8337  0.5039  0.2944
    3TMC2    O213858   2.352   3.650  13.618  0.4291 -0.3864  0.1285
    3TMC2    O513859   2.416   3.675  13.832 -0.5171  0.0857 -0.1370
    3TMC2    H513860   2.415   3.627  13.917  0.4094  1.2079  0.5000
    4MPD2     C13861   1.119   4.581  13.169 -0.1480  0.2675 -0.5698
    4MPD2    C113862   1.132   4.517  13.050  0.5541 -0.6697 -0.4475
    4MPD2    C213863   1.245   4.440  13.024  0.6683  1.3034  0.0129
    4MPD2    C313864   1.345   4.436  13.116 -0.3444 -0.0917  0.0138
    4MPD2    C413865   1.331   4.497  13.237 -0.3403  0.8217  0.1421
    4MPD2    C513866   1.219   4.569  13.264  0.8539 -0.2228 -0.2388
    4MPD2     H13867   1.260   4.382  12.934 -0.8373 -0.5551  0.9585
    4MPD2    H113868   1.405   4.481  13.315 -0.0620 -0.4231 -0.3715
    4MPD2    H213869   1.030   4.627  13.211 -0.2717 -1.1334  0.7129
    4MPD2    H313870   1.208   4.618  13.360 -0.4583  1.3417 -1.2012
    4MPD2     N13871   1.449   4.350  13.086 -0.1783 -0.8865  0.1182
    4MPD2    H513872   1.448   4.312  12.992  0.0969 -2.1328  0.6219
    4MPD2    N113873   1.029   4.523  12.954 -0.6230 -0.5809  0.2610
    4MPD2    H713874   0.942   4.570  12.976  0.1029  1.1969 -0.6538
    5TCq2    C113875   1.514   4.280  13.182 -0.4351  0.4157 -0.3014
    5TCq2    O213876   1.486   4.271  13.303  0.4668 -0.1334 -0.9795
    5TCq2    C213877   1.602   4.178  13.135  0.0813 -0.0669 -0.3748
    5TCq2    C313878   1.698   4.220  13.042 -0.4260  0.8249 -0.0745
    5TCq2    C413879   1.804   4.139  13.023 -0.2396 -0.0790 -0.4062
    5TCq2    C513880   1.818   4.024  13.092  0.1337 -0.0147 -0.6175
    5TCq2    C613881   1.728   3.989  13.188  0.7075 -0.0426  0.5039
    5TCq2    C713882   1.616   4.065  13.210  0.2402  0.0106  0.1530
    5TCq2    C813883   1.760   3.876  13.271 -0.0748  0.0828  0.0655
    5TCq2    O413884   1.880   3.849  13.281 -0.1188  0.7434  0.2671
    5TCq2    C913885   1.903   4.162  12.914 -0.7378  0.7967  1.4125
    5TCq2    O513886   1.941   4.058  12.852  0.0388  0.0497  0.5737
    5TCq2    O613887   1.887   4.268  12.847  0.5362  0.1007  0.1655
    5TCq2    H213888   1.677   4.309  12.983 -3.3457 -0.9450 -1.7314
    5TCq2    H313889   1.904   3.959  13.082 -1.6452 -2.2241 -1.4097
    5TCq2    H413890   1.541   4.038  13.284 -1.2794  0.5955 -1.1743
    6MPD1     C13891   0.374   1.363  12.768  0.8718  0.0265 -0.5589
    6MPD1    C113892   0.350   1.297  12.891  0.2395  0.3700 -0.4146
    6MPD1    C213893   0.332   1.163  12.893  0.0045 -0.1633  0.3055
    6MPD1    C313894   0.331   1.088  12.779 -0.3101 -0.5740 -0.0301
    6MPD1    C413895   0.339   1.153  12.654 -0.1030 -0.4545 -0.3645
    6MPD1    C513896   0.359   1.289  12.656  0.3279  0.7816  0.2369
    6MPD1     H13897   0.328   1.115  12.990 -1.2031 -0.6444  0.0161
    6MPD1    H113898   0.338   1.097  12.561 -0.2715  0.6552 -1.0218
    6MPD1    H213899   0.372   1.471  12.763 -0.7069  0.0179  0.1227
    6MPD1    H313900   0.361   1.344  12.563  2.4724 -0.2139 -0.3028
    6MPD1     N13901   0.330   0.943  12.773 -0.0216  0.1656  0.5642
    6MPD1    H513902   0.340   0.901  12.681  1.1638  4.2981 -1.1928
    6MPD1    N113903   0.356   1.369  13.010  0.0186 -0.1265 -0.3810
    6MPD1    H613904   0.295   1.317  13.074  2.1385 -2.2161 -0.0719
    6MPD1    H713905   0.320   1.463  12.994  1.8822  0.8687  1.4524
    7MPD2     C13906   0.417   0.161  13.220  0.1604 -1.0220 -0.4776
    7MPD2    C113907   0.433   0.170  13.082  0.2794 -0.1607 -0.2054
    7MPD2    C213908   0.473   0.057  13.011  0.4167 -0.8388 -0.2520
    7MPD2    C313909   0.497   4.660  13.065  0.4238  0.1961  0.6040
    7MPD2    C413910   0.475   4.646  13.200  0.4914 -0.7456 -0.6517
    7MPD2    C513911   0.438   0.034  13.276  0.6429 -0.5770 -0.0110
    7MPD2     H13912   0.511   0.069  12.911  0.8292 -2.1039 -0.2398
    7MPD2    H113913   0.497   4.553  13.252  3.2583 -1.1585 -2.5774
    7MPD2    H213914   0.374   0.240  13.279 -1.7670 -0.8310 -2.1267
    7MPD2    H313915   0.417   0.022  13.382 -0.1687  2.3059  0.1439
    7MPD2     N13916   0.564   4.557  12.989  0.1658  0.2539 -0.2745
    7MPD2    H513917   0.607   4.479  13.039 -1.4637 -0.0574  0.6323
    7MPD2    N113918   0.407   0.285  13.008  0.5323  0.2148 -0.4415
    7MPD2    H713919   0.414   0.281  12.907  1.2099  1.1743 -0.4322
    8TMC3    C113920   0.672   4.497  12.777  0.1368 -0.3011 -0.0902
    8TMC3    C213921   0.793   4.487  12.838  0.6372  0.1226  0.1354
    8TMC3    C313922   0.905   4.476  12.770 -0.4443 -0.3269 -0.4472
    8TMC3    C413923   0.668   4.500  12.640 -0.0900  0.9677 -0.5530
    8TMC3    C513924   0.788   4.493  12.569 -0.0002  0.1133  0.3162
    8TMC3    C613925   0.906   4.479  12.635 -0.7501  0.3515 -0.1961
    8TMC3     C13926   0.562   4.557  12.845  0.1973  0.3928  0.2921
    8TMC3     O13927   0.481   4.612  12.773  0.2814 -0.8085  0.1826
    8TMC3     H13928   0.791   4.489  12.946 -1.3301  2.3326  0.0618
    8TMC3    H113929   0.570   4.520  12.597  0.3688  2.9758 -0.6533
    8TMC3    H213930   1.003   4.499  12.590 -0.3499 -1.5924 -0.1788
    8TMC3    C713931   0.808   4.597  12.467  0.3184 -0.0587  1.0209
    8TMC3    C813932   1.032   4.470  12.828 -0.2540 -0.2620 -0.6407
    8TMC3    O113933   0.918   4.607  12.414 -0.4281 -0.1574 -0.0531
    8TMC3    O213934   1.129   4.437  12.761  0.2911  0.1272  0.3550
    9TMC3    C113935   0.351   0.718  12.859  0.1947 -0.2686  0.0148
    9TMC3    C213936   0.415   0.685  12.742 -0.0206  0.2501  0.0933
    9TMC3    C313937   0.453   0.557  12.733  0.1565  0.9672  0.1935
    9TMC3    C413938   0.321   0.626  12.965 -0.2960 -0.6889 -0.5752
    9TMC3    C513939   0.375   0.504  12.951 -0.0861 -0.0494 -0.9820
    9TMC3    C613940   0.446   0.470  12.835  0.1033  0.3942  0.0363
    9TMC3     C13941   0.312   0.861  12.880 -0.0609 -0.9031  0.0188
    9TMC3     O13942   0.269   0.887  12.992 -0.6251  0.1568 -0.6344
    9TMC3     H13943   0.448   0.761  12.672 -0.6294  0.2171 -0.2267
    9TMC3    H113944   0.263   0.651  13.053  0.0935 -0.8155 -0.2864
    9TMC3    H213945   0.515   0.386  12.833  1.0213  1.1723 -1.5609
    9TMC3    C713946   0.371   0.411  13.062 -0.2070 -0.1680 -0.6337
    9TMC3    C813947   0.506   0.518  12.602  0.1527 -0.1979  0.0420
    9TMC3    O113948   0.338   0.442  13.174  0.2940  0.2583  0.1752
    9TMC3    O213949   0.533   0.612  12.525 -0.7916  0.0542 -0.1662
   10MPD2     C13950   0.796   0.154  12.372  0.3085  0.2525 -0.3720
   10MPD2    C113951   0.701   0.094  12.456  0.8435  0.4429 -0.6246
   10MPD2    C213952   0.613   0.170  12.523  0.0973 -0.1338  0.0397
   10MPD2    C313953   0.608   0.311  12.512  0.7743  0.8908 -0.5029
   10MPD2    C413954   0.693   0.359  12.419 -0.5256  0.3018 -0.1629
   10MPD2    C513955   0.783   0.287  12.349  0.0132 -0.3039 -0.1548
   10MPD2     H13956   0.543   0.131  12.596  1.5576 -1.0755  0.9481
   10MPD2    H113957   0.695   0.465  12.395 -3.4060  0.7782  1.7407
   10MPD2    H213958   0.871   0.099  12.316  3.1131  3.0927  0.5902
   10MPD2    H313959   0.844   0.337  12.274  1.6656 -0.3168  1.1845
   10MPD2     N13960   0.514   0.387  12.585  0.0012 -0.1371  0.5202
   10MPD2    H513961   0.449   0.339  12.647 -1.7438  1.9175  0.2896
   10MPD2    N113962   0.701   4.685  12.494 -0.4502  0.1631  0.2286
   10MPD2    H713963   0.627   4.659  12.557  0.6814 -2.8684  0.3379
   11MPD2     C13964   1.654   3.531  13.630  0.4597  0.2816 -0.2881
   11MPD2    C113965   1.774   3.576  13.585  0.2400  0.0484  0.1007
   11MPD2    C213966   1.772   3.677  13.487  0.4364 -0.6781 -0.4855
   11MPD2    C313967   1.654   3.732  13.432  0.0155 -0.7402  0.2529
   11MPD2    C413968   1.536   3.683  13.482 -0.7285 -0.0964  0.0619
   11MPD2    C513969   1.538   3.587  13.579  0.6393  0.3276  0.0047
   11MPD2     H13970   1.862   3.704  13.433  0.8696  0.8322  0.9942
   11MPD2    H113971   1.449   3.732  13.442 -0.3021 -1.6345 -2.8200
   11MPD2    H213972   1.660   3.455  13.707 -1.0008  0.3673 -0.0895
   11MPD2    H313973   1.444   3.554  13.623 -0.6259  3.1638 -0.5424
   11MPD2     N13974   1.655   3.833  13.335  0.3382 -0.4159 -0.1181
   11MPD2    H513975   1.568   3.875  13.306  0.4898  1.0069  1.4887
   11MPD2    N113976   1.903   3.520  13.624 -0.4961 -0.3921 -0.2889
   11MPD2    H713977   1.982   3.573  13.589  1.1108 -2.3100  0.4569
    1MPD1     C13978   0.445   0.462  17.628 -0.2043  0.4238 -0.5269
    1MPD1    C113979   0.564   0.521  17.598 -0.7604  0.5961  0.8284
    1MPD1    C213980   0.581   0.569  17.468  0.0690 -0.0616 -0.0464
    1MPD1    C313981   0.470   0.574  17.375 -0.2600 -0.1399  0.6219
    1MPD1    C413982   0.347   0.527  17.424  0.1348 -0.2186  0.1670
    1MPD1    C513983   0.344   0.463  17.542 -0.0719 -0.1355 -0.2371
    1MPD1     H13984   0.681   0.601  17.439 -0.6885  0.8215 -1.7211
    1MPD1    H113985   0.255   0.533  17.367  0.3116 -2.0954 -0.3099
    1MPD1    H213986   0.425   0.418   0.022 -1.4909 -0.6878 -1.2900
    1MPD1    H313987   0.250   0.420  17.575 -0.4222 -0.2473 -1.3742
    1MPD1     N13988   0.473   0.628  17.243  0.9013 -0.5444  0.3360
    1MPD1    H513989   0.400   0.602  17.177  1.0381  2.1329 -0.8753
    1MPD1    N113990   0.667   0.509  17.690 -0.5649  0.6134 -0.1788
    1MPD1    H613991   0.736   0.584  17.689  1.2286 -1.0031  3.5033
    1MPD1    H713992   0.627   0.520   0.079 -3.1241 -0.5407 -1.1369
    2MPD1     C13993   0.157   1.403  16.828  0.0513  0.2519 -0.0501
    2MPD1    C113994   0.095   1.282  16.852  0.5900  0.7030 -0.1445
    2MPD1    C213995   0.180   1.170  16.857 -0.5364 -0.4177 -0.7603
    2MPD1    C313996   0.310   1.176  16.856 -0.2637 -0.0878 -0.2216
    2MPD1    C413997   0.373   1.295  16.826 -0.1774 -0.4266 -0.3792
    2MPD1    C513998   0.291   1.405  16.803 -0.6754  0.0707  0.1734
    2MPD1     H13999   0.132   1.075  16.875 -2.5354  0.8529  0.5784
    2MPD1    H114000   0.480   1.302  16.807  0.2224  3.0697  3.1464
    2MPD1    H214001   0.092   1.489  16.814  1.4140  1.2608 -0.0839
    2MPD1    H314002   0.347   1.496  16.786  1.4037 -1.1955  0.1209
    2MPD1     N14003   0.376   1.060  16.857 -0.3094  0.7957 -0.0453
    2MPD1    H514004   0.320   0.976  16.847  0.3363  0.3992 -0.3433
    2MPD1    N114005   4.677   1.276  16.861 -0.0423  0.3555 -0.0428
    2MPD1    H614006   4.646   1.209  16.931 -2.9901 -0.1696 -1.8247
    2MPD1    H714007   4.635   1.367  16.883 -0.0197  0.8428 -2.0312
    3TMC3    C114008   0.548   0.907  16.892  0.0359  0.2360  0.0583
    3TMC3    C214009   0.518   0.815  16.798  0.1273 -0.4131 -0.4145
    3TMC3    C314010   0.517   0.684  16.838 -0.5867  0.2299  0.0102
    3TMC3    C414011   0.571   0.878  17.027 -0.5274  0.2711  0.4443
    3TMC3    C514012   0.553   0.749  17.064  0.0947 -0.7285 -0.3001
    3TMC3    C614013   0.522   0.650  16.970  0.5518 -0.9678 -0.4164
    3TMC3     C14014   0.512   1.043  16.867 -0.5897  0.2937  0.2920
    3TMC3     O14015   0.589   1.122  16.923 -0.5794  0.2830  0.0711
    3TMC3     H14016   0.502   0.855  16.698  1.1854  0.2684 -0.3092
    3TMC3    H114017   0.591   0.955  17.100  0.6530 -0.1384  0.5440
    3TMC3    H214018   0.529   0.544  16.993  3.7570 -1.1451 -2.2690
    3TMC3    C714019   0.579   0.708  17.203 -0.2990  0.5310 -1.0650
    3TMC3    C814020   0.477   0.576  16.749  0.1345  0.7594 -0.3274
    3TMC3    O114021   0.658   0.774  17.268  0.0965  0.3457 -0.3017
    3TMC3    O214022   0.491   0.460  16.787  0.2175 -0.4277  0.2561
    4MPD1     C14023   0.155   0.381  16.399  0.0303 -0.2237 -0.6019
    4MPD1    C114024   0.187   0.511  16.364 -0.2679 -0.5013 -0.7106
    4MPD1    C214025   0.271   0.587  16.443 -0.4892 -0.3230 -0.3549
    4MPD1    C314026   0.318   0.536  16.562 -0.1489 -0.0680  0.5058
    4MPD1    C414027   0.281   0.406  16.599 -0.2495  0.2152  0.2688
    4MPD1    C514028   0.204   0.326  16.514  0.4816 -0.1645  0.7406
    4MPD1     H14029   0.273   0.690  16.411  3.5297 -0.7489 -1.4778
    4MPD1    H114030   0.299   0.368  16.698  0.2625  0.9532  0.4561
    4MPD1    H214031   0.081   0.327  16.341  1.1721  0.4900 -2.7203
    4MPD1    H314032   0.188   0.222  16.540  0.4550  0.1051  1.8284
    4MPD1     N14033   0.397   0.618  16.645  0.2618 -0.4230  0.0775
    4MPD1    H514034   0.410   0.710  16.605 -2.0430 -0.0662  0.1140
    4MPD1    N114035   0.133   0.567  16.249 -0.2063 -0.9547  0.0087
    4MPD1    H614036   0.087   0.494  16.196  0.2744  0.6535 -2.6501
    4MPD1    H714037   0.056   0.630  16.274  1.2458 -0.5518  3.3920
    1TCq1    O114038   0.297   0.164  11.772  0.1739 -0.0352  0.1008
    1TCq1    C114039   0.163   0.173  11.783 -0.9599 -0.0841 -0.1206
    1TCq1    O214040   0.097   0.192  11.881 -0.3808  0.1393  0.0800
    1TCq1    C214041   0.093   0.186  11.650  0.0319  0.3509  1.0076
    1TCq1    C314042   0.174   0.215  11.541 -0.1727 -1.0761 -0.3159
    1TCq1    C414043   0.118   0.203  11.416  0.4005 -0.1903 -0.2314
    1TCq1    C514044   4.701   0.193  11.402 -0.0714 -0.0440 -0.4947
    1TCq1    C614045   4.629   0.170  11.513  0.5246 -0.0384 -0.3266
    1TCq1    C714046   4.689   0.158  11.640  0.2718 -0.3875 -0.0953
    1TCq1    C814047   4.481   0.147  11.517  0.4769  0.8211 -0.0727
    1TCq1    O414048   4.431   0.109  11.627  0.2358 -0.1875 -0.3779
    1TCq1    C914049   0.195   0.270  11.312 -0.2562 -0.0167  0.0994
    1TCq1    O514050   0.128   0.323  11.217 -0.0805 -0.3656 -1.0008
    1TCq1    O614051   0.322   0.276  11.314 -0.3341  0.3509  0.0186
    1TCq1    H114052   0.322   0.125  11.685 -1.0442  4.5613 -2.3354
    1TCq1    H214053   0.275   0.254  11.548 -1.1181  1.4215 -0.5247
    1TCq1    H314054   4.653   0.212  11.306 -0.0346 -0.1060 -0.5247
    1TCq1    H414055   4.633   0.130  11.729  0.1494 -2.0230 -0.6989
    2MPD1     C14056   4.018   0.059  11.293 -0.1102  0.2613  0.0186
    2MPD1    C114057   4.107   0.077  11.195  0.0003 -0.1151 -0.7314
    2MPD1    C214058   4.241   0.110  11.234 -0.5031 -0.3323 -0.1029
    2MPD1    C314059   4.283   0.113  11.366  0.9073 -0.5675 -0.9030
    2MPD1    C414060   4.182   0.093  11.463 -0.0430  0.0325  0.3631
    2MPD1    C514061   4.057   0.069  11.424  0.1187  0.3197  0.3221
    2MPD1     H14062   4.306   0.156  11.160 -2.4282 -0.5138 -1.9202
    2MPD1    H114063   4.199   0.111  11.569  0.4563 -0.9462  0.4514
    2MPD1    H214064   3.913   0.036  11.283  0.6458 -2.8432 -0.6558
    2MPD1    H314065   3.972   0.052  11.489 -0.7119 -1.8575 -1.3022
    2MPD1     N14066   4.419   0.148  11.389  0.4837  0.0289  0.8427
    2MPD1    H514067   4.478   0.157  11.307  1.3700  0.4889  1.5151
    2MPD1    N114068   4.064   0.113  11.065 -0.3042 -0.7065  0.2190
    2MPD1    H614069   4.137   0.088  10.999  0.3940 -0.1128  0.7637
    2MPD1    H714070   3.984   0.055  11.039 -1.2760  1.2312 -1.1187
    1TCq1    O114071   3.667   1.134   1.745  0.1019 -0.3296  0.3279
    1TCq1    C114072   3.788   1.071   1.731  0.1745 -0.7956 -0.1104
    1TCq1    O214073   3.861   1.031   1.819  0.6422 -0.2542  0.4881
    1TCq1    C214074   3.798   1.026   1.590  0.8915 -0.0223 -0.0988
    1TCq1    C314075   3.764   1.113   1.488  0.3577 -0.3658 -0.6147
    1TCq1    C414076   3.821   1.086   1.367 -0.6243 -0.2583 -0.2830
    1TCq1    C514077   3.879   0.962   1.345 -0.8844  0.0447 -0.2766
    1TCq1    C614078   3.910   0.879   1.450 -0.0213 -0.4729 -0.1515
    1TCq1    C714079   3.877   0.912   1.574  0.1847 -0.5122 -0.0875
    1TCq1    C814080   3.951   0.741   1.431 -0.2289  0.2831 -0.3511
    1TCq1    O414081   3.941   0.665   1.527 -0.3744 -0.0163  0.2909
    1TCq1    C914082   3.765   1.148   1.251 -0.2324  0.3043  0.2849
    1TCq1    O514083   3.665   1.223   1.270 -0.0303 -0.2168 -0.7519
    1TCq1    O614084   3.807   1.102   1.144 -0.6633  0.0010 -0.3624
    1TCq1    H114085   3.617   1.127   1.661  0.4092 -2.3351  0.3182
    1TCq1    H214086   3.727   1.214   1.502  0.8659 -0.0553 -1.5059
    1TCq1    H314087   3.893   0.920   1.246  1.2086 -1.3735  0.6011
    1TCq1    H414088   3.909   0.861   1.664 -2.4885 -1.5410  0.2846
    2MPD1     C14089   4.086   0.344   1.133  0.5479 -0.2832 -0.4381
    2MPD1    C114090   4.104   0.462   1.065 -0.2885  0.2485 -0.8046
    2MPD1    C214091   4.072   0.584   1.120 -0.0885 -0.1225  0.2271
    2MPD1    C314092   4.025   0.596   1.250  0.0602 -0.2136  1.0346
    2MPD1    C414093   4.008   0.476   1.316 -0.3342 -0.4429 -0.3233
    2MPD1    C514094   4.045   0.360   1.262 -0.0814 -0.6143  0.0942
    2MPD1     H14095   4.082   0.675   1.061 -0.2080  0.9070  1.7868
    2MPD1    H114096   3.954   0.469   1.409  0.9626 -0.8269  0.4091
    2MPD1    H214097   4.115   0.253   1.082 -2.1650  0.3840 -3.1530
    2MPD1    H314098   4.028   0.268   1.317 -1.0290 -0.6884 -0.3348
    2MPD1     N14099   3.997   0.717   1.307 -0.1851  0.0134  0.0015
    2MPD1    H514100   4.003   0.798   1.246  1.3966 -1.3510 -1.6482
    2MPD1    N114101   4.141   0.463   0.932 -0.2452  0.1561  0.3444
    2MPD1    H614102   4.198   0.382   0.907  0.8068  1.2591 -0.7575
    2MPD1    H714103   4.188   0.546   0.898 -1.3393  0.7470  0.2538
    1MPD1     C14104   1.973   4.424  12.227 -0.0313 -0.5253  0.6974
    1MPD1    C114105   1.947   4.546  12.294  0.4244  0.7851 -0.2790
    1MPD1    C214106   2.013   4.661  12.256 -0.1110  0.2622  0.4869
    1MPD1    C314107   2.099   4.656  12.152  0.2279  0.1179  1.0563
    1MPD1    C414108   2.114   4.546  12.080  1.2143  1.0053  0.1207
    1MPD1    C514109   2.049   4.430  12.114 -0.8275 -0.1464 -0.3251
    1MPD1     H14110   2.004   0.025  12.317 -1.2393  0.1755  0.4540
    1MPD1    H114111   2.184   4.548  11.996  1.5690  0.2074  0.3941
    1MPD1    H214112   1.932   4.329  12.259 -1.1923  0.3139  1.6698
    1MPD1    H314113   2.068   4.336  12.063  1.2955 -0.0053  0.1830
    1MPD1     N14114   2.174   0.048  12.121 -0.1797  0.3595 -0.6893
    1MPD1    H514115   2.157   0.128  12.182  0.8267 -0.8036  1.1149
    1MPD1    N114116   1.878   4.539  12.416 -0.1146  0.2987  0.1213
    1MPD1    H614117   1.807   4.467  12.403  0.3213  0.2432 -2.0863
    1MPD1    H714118   1.822   4.622  12.436  1.7720  1.5671  0.1503
    2MPD1     C14119   1.695   4.675  11.256 -0.4377  0.4106 -0.5762
    2MPD1    C114120   1.677   4.690  11.119  0.1104  0.1473 -0.4637
    2MPD1    C214121   1.685   0.093  11.069 -0.1083  0.2552  0.1463
    2MPD1    C314122   1.735   0.198  11.145  0.3143  0.5006 -1.1411
    2MPD1    C414123   1.759   0.177  11.282  0.0235 -0.1570 -0.2096
    2MPD1    C514124   1.728   0.055  11.339 -0.2459  0.1573 -0.0359
    2MPD1     H14125   1.658   0.100  10.964  2.0803 -1.2750 -0.5190
    2MPD1    H114126   1.806   0.254  11.342 -0.7922 -0.1772  0.4548
    2MPD1    H214127   1.682   4.579  11.304 -2.2895  1.1934  0.5158
    2MPD1    H314128   1.750   0.046  11.444  1.2927  1.8934 -0.2036
    2MPD1     N14129   1.761   0.331  11.099 -0.2199 -0.3342 -0.6140
    2MPD1    H514130   1.802   0.405  11.155 -1.3585 -0.2913  0.1619
    2MPD1    N114131   1.657   4.580  11.036  0.2640  0.0560  0.5844
    2MPD1    H614132   1.691   4.495  11.081 -0.6113 -0.5289  0.1421
    2MPD1    H714133   1.711   4.592  10.951 -0.0301  1.1431  0.5584
    3MPD1     C14134   1.301   0.914  10.452 -0.3152  0.2055  0.4937
    3MPD1    C114135   1.259   0.820  10.535  0.1486 -0.1250  0.3877
    3MPD1    C214136   1.361   0.760  10.620 -0.2804  0.3645  0.1190
    3MPD1    C314137   1.495   0.794  10.606  0.0033  0.7618  0.7358
    3MPD1    C414138   1.535   0.883  10.510  0.2140 -0.5262  0.1634
    3MPD1    C514139   1.436   0.938  10.432 -0.3431 -0.3754  1.0457
    3MPD1     H14140   1.334   0.702  10.708 -0.4522 -0.5162 -0.5172
    3MPD1    H114141   1.635   0.921  10.494  0.5367 -0.4284  2.4660
    3MPD1    H214142   1.235   0.969  10.386  0.7930  2.9771  1.7194
    3MPD1    H314143   1.456   1.022  10.366  0.6222 -0.6173  1.0302
    3MPD1     N14144   1.574   0.738  10.700 -0.0647 -0.1360 -0.3716
    3MPD1    H514145   1.538   0.662  10.758 -0.8774 -0.5977 -1.4840
    3MPD1    N114146   1.124   0.825  10.572  0.3208  0.2009 -0.5552
    3MPD1    H614147   1.081   0.745  10.618 -1.6749  0.3011 -2.2047
    3MPD1    H714148   1.069   0.851  10.490 -1.6974 -1.5317  0.2369
    4MPD2     C14149   2.324   0.753  11.958 -0.2573 -0.2299  0.3538
    4MPD2    C114150   2.440   0.686  11.955  0.2123 -0.1538 -0.5555
    4MPD2    C214151   2.546   0.715  11.878 -1.2639  0.1112 -0.2012
    4MPD2    C314152   2.538   0.831  11.801 -0.1889 -0.2026 -0.3484
    4MPD2    C414153   2.424   0.914  11.807  1.0081 -0.0523 -0.1163
    4MPD2    C514154   2.325   0.874  11.889  0.1045  0.2805 -0.1508
    4MPD2     H14155   2.617   0.636  11.861 -0.4321  0.6901  0.5145
    4MPD2    H114156   2.421   1.002  11.743 -0.9625  0.3926  0.5866
    4MPD2    H214157   2.231   0.715  11.999  0.2089 -1.7234  0.0194
    4MPD2    H314158   2.236   0.934  11.904 -0.2182  0.3615 -2.3695
    4MPD2     N14159   2.622   0.853  11.689  0.4090 -0.6123 -0.2034
    4MPD2    H514160   2.599   0.934  11.631 -0.4967 -2.2857 -2.1869
    4MPD2    N114161   2.449   0.559  12.023  0.4883  0.5219 -0.5343
    4MPD2    H714162   2.533   0.503  12.004 -0.0475 -0.6358  0.5002
    5TMC3    C114163   2.389   0.377  12.159 -0.6458  0.5654  0.3694
    5TMC3    C214164   2.308   0.276  12.108 -0.4723 -0.2197  0.6751
    5TMC3    C314165   2.367   0.161  12.057  0.3587 -0.8304  0.6468
    5TMC3    C414166   2.526   0.357  12.148 -0.3208 -0.1926  0.9109
    5TMC3    C514167   2.588   0.251  12.082 -0.6702 -0.2990 -0.7413
    5TMC3    C614168   2.505   0.150  12.041 -0.0218 -0.9317 -0.2007
    5TMC3     C14169   2.358   0.514  12.120  0.2728  0.0961 -0.4346
    5TMC3     O14170   2.245   0.555  12.161  0.5862  0.1172 -0.0339
    5TMC3     H14171   2.201   0.290  12.114 -0.3486  1.1333 -0.1808
    5TMC3    H114172   2.590   0.435  12.188  1.9053 -1.3321 -0.4800
    5TMC3    H214173   2.539   0.061  11.989 -0.7895 -1.6730  0.5493
    5TMC3    C714174   2.693   0.293  11.990  0.0033 -0.9978 -0.4282
    5TMC3    C814175   2.291   0.040  12.052  0.7627  0.2407 -0.1377
    5TMC3    O114176   2.705   0.416  11.985  0.4773 -0.3541  0.3765
    5TMC3    O214177   2.351   4.671  12.000  0.0221 -0.0133 -0.3290
    6TMC3    C114178   1.792   0.512  10.944 -0.7901  0.8445 -0.5005
    6TMC3    C214179   1.723   0.572  10.844 -0.3585 -0.3386 -0.3542
    6TMC3    C314180   1.779   0.684  10.800 -0.3022 -0.1281 -0.3657
    6TMC3    C414181   1.906   0.556  11.003  0.0988  0.0343 -0.1114
    6TMC3    C514182   1.968   0.659  10.934 -0.0744  0.1981  0.4587
    6TMC3    C614183   1.907   0.723  10.828  0.3054  0.0415  0.2883
    6TMC3     C14184   1.743   0.371  10.970  0.5484 -0.3750 -0.3571
    6TMC3     O14185   1.693   0.312  10.876  0.0564 -0.0852 -0.1701
    6TMC3     H14186   1.627   0.534  10.811 -1.2751  0.1934  1.6916
    6TMC3    H114187   1.964   0.504  11.078 -2.2826 -0.9489  1.0284
    6TMC3    H214188   1.955   0.809  10.784  0.6661  0.6091  1.7993
    6TMC3    C714189   2.113   0.671  10.963 -0.0608 -0.4844 -0.0556
    6TMC3    C814190   1.708   0.768  10.712 -0.3461  0.1853  0.3134
    6TMC3    O114191   2.149   0.620  11.067 -0.5620 -0.6337 -0.8235
    6TMC3    O214192   1.770   0.846  10.645  0.1716  0.0884  0.2309
    7MPD2     C14193   2.943   0.250  11.534 -0.0561 -0.6708  0.1326
    7MPD2    C114194   2.911   0.366  11.602  0.6203 -0.3657  0.0082
    7MPD2    C214195   2.843   0.344  11.722  0.2832 -0.4292  0.9536
    7MPD2    C314196   2.821   0.219  11.784 -0.0446  0.1452 -1.1273
    7MPD2    C414197   2.861   0.109  11.714  0.0342 -1.0210  0.4166
    7MPD2    C514198   2.907   0.129  11.588 -0.2307 -0.0659 -0.1823
    7MPD2     H14199   2.808   0.431  11.777  2.1091  1.3258 -0.6716
    7MPD2    H114200   2.832   0.010  11.745 -1.0074 -0.8319  0.0383
    7MPD2    H214201   2.981   0.253  11.433  2.2631  0.2217  1.0569
    7MPD2    H314202   2.922   0.036  11.535  0.9452  0.0888 -0.1199
    7MPD2     N14203   2.742   0.199  11.905  0.0284  0.1280  0.5487
    7MPD2    H514204   2.724   0.104  11.935 -0.1714  0.3342  1.0840
    7MPD2    N114205   2.907   0.492  11.540  0.5691 -0.1105 -0.3062
    7MPD2    H714206   2.879   0.566  11.604  2.3335  0.1523  0.1510
    8TMC3    C114207   2.871   0.649  11.376 -0.6437 -1.1199  0.5664
    8TMC3    C214208   2.780   0.670  11.273  0.8032 -0.0708  0.3516
    8TMC3    C314209   2.685   0.766  11.301  0.0734 -0.4804  0.1202
    8TMC3    C414210   2.872   0.733  11.480  0.7510 -0.6323  0.6865
    8TMC3    C514211   2.770   0.817  11.511  0.3928  0.0126 -0.8364
    8TMC3    C614212   2.665   0.818  11.424 -0.4502  0.4298 -0.5476
    8TMC3     C14213   2.898   0.512  11.402 -0.1426  0.1995 -0.0093
    8TMC3     O14214   2.892   0.427  11.312  0.2182  0.0569  0.5933
    8TMC3     H14215   2.763   0.592  11.199  1.6204  1.1758 -1.1541
    8TMC3    H114216   2.959   0.736  11.544  0.2265  0.3820  1.3446
    8TMC3    H214217   2.577   0.882  11.424 -1.0483 -0.4003 -0.5530
    8TMC3    C714218   2.737   0.794  11.656  0.0511  0.1192 -0.6969
    8TMC3    C814219   2.567   0.767  11.211  0.1456  0.0138 -0.1033
    8TMC3    O114220   2.809   0.717  11.717 -0.1037  0.4602 -0.7833
    8TMC3    O214221   2.458   0.813  11.251  0.2252  0.2388 -0.1924
    9MPD2     C14222   2.602   0.759  10.838  0.3765 -0.6505 -0.0834
    9MPD2    C114223   2.540   0.741  10.962  0.1216 -0.4715  0.0276
    9MPD2    C214224   2.399   0.724  10.972  0.1089 -0.6737 -0.1825
    9MPD2    C314225   2.326   0.702  10.855  0.0405  0.7149 -0.0580
    9MPD2    C414226   2.394   0.708  10.733  0.7838  0.1360  0.6459
    9MPD2    C514227   2.528   0.735  10.723  0.5598  0.2063  0.1964
    9MPD2     H14228   2.356   0.729  11.072  0.7135 -1.0086  0.1002
    9MPD2    H114229   2.340   0.709  10.639  0.7541  1.1677  0.6735
    9MPD2    H214230   2.708   0.777  10.834  0.5866 -1.4410  1.7368
    9MPD2    H314231   2.574   0.758  10.628 -0.3854  1.2697 -0.0066
    9MPD2     N14232   2.186   0.685  10.850 -0.0556 -0.1533  0.3816
    9MPD2    H514233   2.148   0.681  10.756  2.5540  0.4468 -0.7018
    9MPD2    N114234   2.616   0.756  11.078  0.5091 -0.0703 -0.1705
    9MPD2    H714235   2.716   0.765  11.068  0.4501 -0.4987 -1.1764
    1MPD1     C14236   1.828   0.084   0.230 -0.2440 -0.1997  0.4080
    1MPD1    C114237   1.954   0.047   0.177 -0.3757 -0.7236  0.0587
    1MPD1    C214238   1.969   4.676   0.075 -0.1198  0.4368 -0.5260
    1MPD1    C314239   1.849   4.621   0.027 -0.5067  0.1052 -0.6075
    1MPD1    C414240   1.728   4.666   0.074  0.5341  0.2421 -0.0129
    1MPD1    C514241   1.720   0.021   0.181 -0.4511  0.5791 -0.3851
    1MPD1     H14242   2.068   4.643   0.049 -0.0814 -0.6150  0.9493
    1MPD1    H114243   1.634   4.630   0.034  1.4516  0.0425 -2.0258
    1MPD1    H214244   1.819   0.146   0.318 -1.3337  0.2433 -0.0166
    1MPD1    H314245   1.628   0.025   0.238  0.7749 -0.5262  1.6787
    1MPD1     N14246   1.846   4.523  17.634  0.5590 -0.0963 -0.2589
    1MPD1    H514247   1.759   4.475  17.613 -0.5145  0.7683  2.2060
    1MPD1    N114248   2.067   0.077   0.251  0.5682  0.3563 -0.7430
    1MPD1    H614249   2.160   0.072   0.210  1.1961 -1.5899  0.8899
    1MPD1    H714250   2.056   0.168   0.296 -2.2189 -0.4036  0.0767
    2MPD1     C14251   2.297   3.869  16.879 -0.9727 -0.4499  0.4631
    2MPD1    C114252   2.208   3.793  16.958 -0.3748  0.5124  0.4596
    2MPD1    C214253   2.144   3.850  17.063  0.6100 -0.5834 -0.0771
    2MPD1    C314254   2.169   3.987  17.092  0.0394 -0.3381  0.5003
    2MPD1    C414255   2.247   4.061  17.003 -0.1759 -0.5211  0.3353
    2MPD1    C514256   2.310   4.008  16.899  0.0232 -0.1808  0.3654
    2MPD1     H14257   2.077   3.786  17.119  2.6037 -1.4435  1.3144
    2MPD1    H114258   2.251   4.168  17.018  1.0941 -0.1739 -2.4334
    2MPD1    H214259   2.338   3.823  16.789 -0.5379  1.9958 -0.5978
    2MPD1    H314260   2.368   4.061  16.824  0.0214 -1.0487 -0.2636
    2MPD1     N14261   2.099   4.045  17.192  0.1290  0.0527  0.5633
    2MPD1    H514262   2.017   4.001  17.233 -0.1453  0.0216 -0.0171
    2MPD1    N114263   2.212   3.654  16.951  0.2212  0.1534  0.2737
    2MPD1    H614264   2.218   3.631  16.852  2.6591  1.3456  0.1394
    2MPD1    H714265   2.137   3.603  16.997 -1.0484  0.9842 -0.8699
    3TCq2    C114266   2.126   4.173  17.233  0.0047  0.1453  0.4329
    3TCq2    O214267   2.219   4.248  17.208  0.2826 -0.1036  1.1425
    3TCq2    C214268   2.014   4.218  17.316  0.9396  0.1630 -0.4993
    3TCq2    C314269   1.896   4.152  17.310  0.1480  0.0291 -0.0467
    3TCq2    C414270   1.799   4.181  17.398  0.1375  0.6086  0.5997
    3TCq2    C514271   1.820   4.292  17.482  0.0428 -0.2392 -0.4810
    3TCq2    C614272   1.935   4.370  17.474  0.0790 -0.4246  0.2470
    3TCq2    C714273   2.033   4.329  17.386  0.1073  0.0469 -0.9326
    3TCq2    C814274   1.958   4.481  17.560 -0.4041 -0.8320  0.0330
    3TCq2    O414275   2.065   4.541  17.549  0.1157 -0.5191  0.0735
    3TCq2    C914276   1.680   4.106  17.404 -1.1090  0.1441  0.0362
    3TCq2    O514277   1.670   4.008  17.330  0.3628 -0.1510 -0.3210
    3TCq2    O614278   1.614   4.122  17.509  0.2221  0.2862  0.0982
    3TCq2    H214279   1.873   4.088  17.226 -0.1649  0.0626  0.0128
    3TCq2    H314280   1.748   4.309  17.562  2.0313  0.9800  1.0307
    3TCq2    H414281   2.133   4.369  17.395 -0.5958  1.3345  1.2202
    1TCq1    O114282   0.632   3.777  12.673 -0.1354  0.5710  0.6120
    1TCq1    C114283   0.578   3.774  12.798 -0.4650  0.1289 -0.0769
    1TCq1    O214284   0.464   3.812  12.823  0.1795  0.2285  0.1447
    1TCq1    C214285   0.674   3.709  12.883 -0.1214 -0.5105 -0.7955
    1TCq1    C314286   0.726   3.584  12.855 -0.5013 -1.0775 -0.3854
    1TCq1    C414287   0.789   3.508  12.953  0.4061 -0.1751  0.9046
    1TCq1    C514288   0.770   3.537  13.082  0.0020 -0.1551 -0.0226
    1TCq1    C614289   0.718   3.663  13.112 -0.5725  0.6494  0.9799
    1TCq1    C714290   0.673   3.749  13.015 -0.2198 -0.6672 -0.2957
    1TCq1    C814291   0.725   3.706  13.248  0.2177  0.3305 -0.5699
    1TCq1    O414292   0.712   3.826  13.263  0.3294 -0.1504  0.2108
    1TCq1    C914293   0.859   3.389  12.913  0.1727 -0.6165 -0.4334
    1TCq1    O514294   0.854   3.363  12.792 -0.0679 -0.3521  0.0798
    1TCq1    O614295   0.884   3.304  13.006 -0.1046 -0.0351  0.1142
    1TCq1    H114296   0.724   3.747  12.687 -0.2637  0.2986  0.8674
    1TCq1    H214297   0.728   3.554  12.751 -2.7471  0.6941 -0.9398
    1TCq1    H314298   0.809   3.466  13.154  0.5054  0.4412  0.2912
    1TCq1    H414299   0.642   3.852  13.031 -1.3063 -1.0970  0.3614
    2MPD2     C14300   0.763   3.757  13.536 -0.5612  0.0549 -0.1974
    2MPD2    C114301   0.782   3.629  13.482 -0.2157 -0.1595 -0.5145
    2MPD2    C214302   0.816   3.521  13.566 -1.5355  0.7536  0.2120
    2MPD2    C314303   0.852   3.554  13.699  0.0469  0.3001  0.2701
    2MPD2    C414304   0.818   3.680  13.752  0.0610  0.1281  0.7956
    2MPD2    C514305   0.788   3.784  13.667  0.2431 -0.1344  0.1407
    2MPD2     H14306   0.822   3.420  13.527 -1.3147  0.3046  1.4266
    2MPD2    H114307   0.821   3.708  13.857 -0.3555 -4.0468  1.9100
    2MPD2    H214308   0.732   3.842  13.476 -1.9686  0.1186  0.6177
    2MPD2    H314309   0.771   3.884  13.706  1.8401  1.7385 -3.9638
    2MPD2     N14310   0.880   3.446  13.789  0.0281 -0.4161 -0.0015
    2MPD2    H514311   0.882   3.356  13.744 -0.0450 -0.0532 -0.7381
    2MPD2    N114312   0.763   3.608  13.340  0.2271 -0.2841  0.5600
    2MPD2    H714313   0.768   3.512  13.309 -0.0881  0.3201 -1.3262
    3TCq1    O114314   1.075   2.899  13.927  0.1499 -1.0272  0.3383
    3TCq1    C114315   0.959   2.974  13.946 -0.5332 -0.4101  0.2009
    3TCq1    O214316   0.855   2.948  13.894 -0.3156 -0.3141 -0.0129
    3TCq1    C214317   0.986   3.102  14.002 -0.6644 -0.0099 -0.1754
    3TCq1    C314318   1.064   3.105  14.107  0.3303 -0.1574 -0.5773
    3TCq1    C414319   1.097   3.227  14.153 -0.0782 -0.1970 -0.1024
    3TCq1    C514320   1.051   3.340  14.094 -0.9178 -0.3234 -0.2975
    3TCq1    C614321   0.960   3.334  13.988  0.5715  0.0073 -0.7503
    3TCq1    C714322   0.932   3.207  13.937 -0.2527  0.0432 -0.4068
    3TCq1    C814323   0.933   3.460  13.913 -0.2762 -0.0555 -0.0486
    3TCq1    O414324   0.971   3.565  13.965 -0.3014 -0.5201 -0.1383
    3TCq1    C914325   1.193   3.244  14.266 -0.1456 -0.0471 -0.1572
    3TCq1    O514326   1.247   3.138  14.310  0.3190  0.3963  0.3714
    3TCq1    O614327   1.213   3.362  14.305  0.7465 -0.5144  0.1797
    3TCq1    H114328   1.159   2.930  13.966 -0.5109  0.6856  0.4269
    3TCq1    H214329   1.099   3.024  14.171 -0.5039 -0.9367 -1.1081
    3TCq1    H314330   1.106   3.430  14.122 -1.1052 -0.3378  0.1117
    3TCq1    H414331   0.873   3.190  13.848  1.7204  0.4792 -1.7849
    1MPD2     C14332   4.471   4.035  14.945 -0.2746 -0.4388  0.8047
    1MPD2    C114333   4.413   3.908  14.932  0.7304  0.2867  0.5514
    1MPD2    C214334   4.485   3.812  14.868  0.0704  0.0461  0.3494
    1MPD2    C314335   4.603   3.832  14.805  0.2166 -0.4988  0.3768
    1MPD2    C414336   4.659   3.955  14.822  0.2402 -0.4151 -0.2997
    1MPD2    C514337   4.594   4.057  14.891  0.9314  0.0284 -0.1188
    1MPD2     H14338   4.443   3.713  14.864 -2.2435  1.0694 -0.6779
    1MPD2    H114339   0.024   3.982  14.769  1.9675 -1.3411  2.1761
    1MPD2    H214340   4.422   4.116  14.999 -0.6984 -1.5190  2.0322
    1MPD2    H314341   4.630   4.159  14.893  0.2796  0.2067  2.9113
    1MPD2     N14342   4.669   3.736  14.728 -0.1300 -0.8252 -0.3458
    1MPD2    H514343   0.042   3.745  14.705 -1.0814  3.1851 -2.8404
    1MPD2    N114344   4.286   3.884  14.989  0.7185 -0.3344  0.3496
    1MPD2    H714345   4.240   3.964  15.032  1.1268  0.3527 -0.5092
    2TMC3    C114346   4.079   3.764  15.023  0.6415  0.5149 -0.2544
    2TMC3    C214347   4.037   3.636  15.043  0.3915 -0.5715  0.5797
    2TMC3    C314348   3.915   3.609  14.974  0.1096  0.1386 -0.3529
    2TMC3    C414349   4.006   3.864  14.974  0.0024  0.9171 -0.2591
    2TMC3    C514350   3.888   3.830  14.914 -0.3467 -0.4291  0.9169
    2TMC3    C614351   3.841   3.708  14.907  0.3130 -0.5193  0.4546
    2TMC3     C14352   4.222   3.760  14.997  0.0919  0.4172 -0.1028
    2TMC3     O14353   4.249   3.645  14.962 -0.5568 -0.2292 -0.0594
    2TMC3     H14354   4.096   3.556  15.086 -0.5723 -0.7793  1.5065
    2TMC3    H114355   4.027   3.965  15.004 -1.4974  1.5470 -1.3084
    2TMC3    H214356   3.747   3.682  14.859 -0.0629  0.4439  0.6761
    2TMC3    C714357   3.819   3.923  14.829 -0.2107 -0.4054 -0.2981
    2TMC3    C814358   3.913   3.497  14.889  0.8378  0.2393 -0.4745
    2TMC3    O114359   3.707   3.904  14.786 -0.1156  0.4006 -0.4472
    2TMC3    O214360   3.804   3.481  14.834  0.2259 -0.0101  0.0381
    3TCq1    O114361   4.485   0.210  14.489 -0.3319  0.0700 -0.3017
    3TCq1    C114362   4.353   0.209  14.516 -0.3145 -0.1675  0.1256
    3TCq1    O214363   4.263   0.280  14.471 -0.7420 -0.7855 -0.2470
    3TCq1    C214364   4.330   0.089  14.592  0.6587  0.8006 -0.0970
    3TCq1    C314365   4.423   0.046  14.679  0.1531 -0.3035 -0.3322
    3TCq1    C414366   4.407   4.642  14.733 -0.3323  0.1657 -0.1477
    3TCq1    C514367   4.301   4.565  14.692 -0.1667  0.6624  0.1016
    3TCq1    C614368   4.208   4.620  14.602  0.5163  0.1726  0.3253
    3TCq1    C714369   4.217   0.022  14.554  0.3967 -0.9564  0.4988
    3TCq1    C814370   4.083   4.550  14.570  0.0562 -0.5237  0.4597
    3TCq1    O414371   4.006   4.608  14.498 -0.4450  0.6217  0.0042
    3TCq1    C914372   4.515   4.588  14.813 -0.5418  1.0228 -0.0538
    3TCq1    O514373   4.612   4.662  14.843 -0.1642  0.0144 -0.8013
    3TCq1    O614374   4.513   4.458  14.817 -0.3401 -0.3726 -0.3861
    3TCq1    H114375   4.524   0.124  14.518 -2.6477 -0.0591  2.4298
    3TCq1    H214376   4.512   0.096  14.716 -0.9715 -0.6073  2.7376
    3TCq1    H314377   4.311   4.459  14.713 -0.4529  0.3291 -1.4368
    3TCq1    H414378   4.152   0.054  14.473  1.3800  0.4925  0.2865
    4MPD2     C14379   3.867   4.353  14.554 -0.3093 -0.3827 -0.3306
    4MPD2    C114380   3.977   4.340  14.635  0.5304 -0.3973 -0.1194
    4MPD2    C214381   3.991   4.227  14.715 -0.4325  0.4945  0.0232
    4MPD2    C314382   3.892   4.135  14.718 -0.2133 -0.3036  0.2688
    4MPD2    C414383   3.781   4.154  14.638  0.0097 -0.2884 -0.2915
    4MPD2    C514384   3.769   4.257  14.553  0.2159  0.0169 -0.0988
    4MPD2     H14385   4.076   4.232  14.781  1.0479 -0.1129 -1.8381
    4MPD2    H114386   3.697   4.086  14.642 -0.9602  1.0818  2.4146
    4MPD2    H214387   3.849   4.438  14.490 -0.1807  0.4136  0.6852
    4MPD2    H314388   3.675   4.277  14.504 -0.6135 -1.5584  0.8450
    4MPD2     N14389   3.909   4.029  14.808  0.9022 -0.0374  0.3823
    4MPD2    H514390   3.995   4.021  14.861  0.6980 -2.2390  0.4062
    4MPD2    N114391   4.079   4.431  14.637 -0.2750 -0.0003  1.0508
    4MPD2    H714392   4.162   4.424  14.695  0.2161  2.2917  0.6527
    5TMC2    C114393   4.628   3.312  14.621 -0.5718 -0.6889  0.0131
    5TMC2    C214394   0.015   3.291  14.694  0.3513 -0.0660  0.4043
    5TMC2    C314395   0.104   3.393  14.708  0.2396 -0.0226  0.2491
    5TMC2    C414396   4.615   3.427  14.555  0.0501 -0.4845  0.7480
    5TMC2    C514397   4.683   3.539  14.593 -0.1341 -0.2988  0.1074
    5TMC2    C614398   0.078   3.519  14.662  0.5783 -0.8842  0.1960
    5TMC2     C14399   4.501   3.284  14.683 -0.7545 -0.3571 -0.0876
    5TMC2     O14400   4.500   3.303  14.804  0.2507 -0.0937 -0.1032
    5TMC2     H14401   0.026   3.198  14.750 -1.7310 -1.0532 -0.8214
    5TMC2    H114402   4.523   3.455  14.506  1.6105  2.9309 -0.2522
    5TMC2    H214403   0.147   3.601  14.678  0.6530 -1.1206  1.0811
    5TMC2    C714404   4.604   3.642  14.661 -0.6203  0.0631 -0.4212
    5TMC2    C814405   0.214   3.377  14.790  0.5461  0.4927 -0.8217
    5TMC2    O114406   4.486   3.622  14.671 -0.3928  0.8146 -0.0981
    5TMC2    O214407   0.255   3.467  14.866 -0.1166  0.6711 -0.0724
    5TMC2    O514408   0.275   3.267  14.736 -0.6114 -0.4889  0.3908
    5TMC2    H514409   0.240   3.243  14.648  1.7554 -3.3173  0.2042
    6MPD2     C14410   3.995   3.344  14.662  0.0156 -0.4801  0.5409
    6MPD2    C114411   4.081   3.372  14.764  0.4347  0.3084  0.3351
    6MPD2    C214412   4.214   3.339  14.736  0.0475 -0.0993 -0.4934
    6MPD2    C314413   4.257   3.290  14.614  0.6928 -0.6797 -0.6600
    6MPD2    C414414   4.167   3.266  14.513 -0.2192 -0.5860 -0.2115
    6MPD2    C514415   4.034   3.294  14.541 -0.4703  0.2202  0.0620
    6MPD2     H14416   4.286   3.363  14.814 -1.4304 -2.7592  1.7071
    6MPD2    H114417   4.207   3.228  14.420 -0.3588  1.5723 -1.1480
    6MPD2    H214418   3.892   3.377  14.657  0.4173  0.6282 -0.3974
    6MPD2    H314419   3.964   3.279  14.460  0.0483  2.9460 -0.8754
    6MPD2     N14420   4.398   3.272  14.584  0.4417 -0.1814  0.1390
    6MPD2    H514421   4.422   3.265  14.485  1.1554 -0.2143  0.3161
    6MPD2    N114422   4.042   3.444  14.882  0.1120 -0.0603  0.3575
    6MPD2    H714423   4.124   3.476  14.933 -0.1905  0.1646  0.6930
  945NH3     N114424   1.159   3.709  13.624 -0.8369  0.3011 -0.2949
  945NH3     H214425   1.233   3.669  13.681  0.3194 -0.9620 -2.6815
  945NH3     H314426   1.162   3.808  13.648 -2.0596  0.4999 -0.9410
  945NH3     H414427   1.079   3.676  13.676  0.9242 -1.5752  1.1787
  946SOD     NA14428   3.716   0.757  16.263  0.0459 -0.2275  0.2675
  947SOD     NA14429   2.217   1.055  14.490 -0.5524 -0.2108 -0.5380
  948SOD     NA14430   2.594   2.719   0.747  0.1144 -0.2368  0.0789
  949SOD     NA14431   1.141   3.796  11.585  0.4548  0.3046  0.3058
  950SOD     NA14432   2.503   2.968   0.943  0.0534 -0.1588 -0.1463
  951SOD     NA14433   3.673   1.015   0.999 -0.0339 -0.0424 -0.3927
  952SOD     NA14434   2.798   4.322   2.321  0.2078 -0.2073 -0.0974
  953SOD     NA14435   0.482   4.344  11.080  0.2553 -0.4439 -0.1728
  954SOD     NA14436   4.530   2.218  10.055 -0.2279 -0.4385  0.0350
  955SOD     NA14437   1.420   3.194  15.028  0.2987 -0.1743  0.1498
  956SOD     NA14438   0.414   3.404  11.486 -0.4299 -0.0299  0.0138
  957SOD     NA14439   3.869   2.950   9.914 -0.1645  0.2430  0.2667
  958SOD     NA14440   1.342   2.193  17.150  0.3546 -0.4738  0.4531
  959SOD     NA14441   1.393   3.000  14.260 -0.3574 -0.1170 -0.1015
  960SOD     NA14442   1.927   4.158  12.662 -0.2524  0.2466  0.1547
  961SOD     NA14443   0.219   2.474  11.801 -0.0416  0.0743 -0.3543
  962SOD     NA14444   0.601   2.925  11.251 -0.3454  0.0662 -0.3631
  963SOD     NA14445   3.870   4.118   9.874  0.1429  0.4748  0.0785
  964SOD     NA14446   4.376   1.929   9.872 -0.3274 -0.1963 -0.0999
  965SOD     NA14447   3.969   1.011   1.007 -0.6527  0.2010  0.6314
  966SOD     NA14448   4.062   4.008  14.212 -0.3168  0.6943 -0.1015
  967SOD     NA14449   1.126   1.394  17.353  0.0873  0.1027  0.0709
  968SOD     NA14450   0.103   1.981   6.611 -0.2928 -0.1062  0.6733
  969SOD     NA14451   2.936   4.695   2.959  0.2555  0.2343 -0.0954
  970SOD     NA14452   1.735   2.196   2.185 -0.1668 -0.2217  0.3009
  971SOD     NA14453   1.617   3.163  14.519  0.3834  0.2123  0.3397
  972SOD     NA14454   1.900   4.271  15.029 -0.4288 -0.0448 -0.1821
  973SOD     NA14455   0.598   4.213  11.391 -0.2625 -0.1191  0.6419
  974SOD     NA14456   0.441   3.726  12.488  0.2444  0.0081 -0.3828
  975SOD     NA14457   3.283   4.416   8.376  0.0170 -0.3356 -0.3957
  976SOD     NA14458   2.564   0.233  10.999 -0.4019  0.7444 -0.4582
  977SOD     NA14459   0.379   3.655  11.690  0.1867 -0.1961 -0.0073
  978SOD     NA14460   4.610   2.767  10.153 -0.2919 -0.2736  0.0048
  979SOD     NA14461   3.695   2.676  12.623 -0.2997 -0.0304  0.0898
  980SOD     NA14462   1.266   1.600  15.783 -0.0157 -0.2648  0.0528
  981SOD     NA14463   2.510   3.533  12.588  0.3226 -0.1719  0.2662
  982SOD     NA14464   3.908   3.853  10.019 -0.2205 -0.4208 -0.1259
  983SOD     NA14465   1.492   3.924  17.417 -0.4776  0.1234 -0.6698
  984SOD     NA14466   1.887   0.536   3.232  0.1090  0.2467 -0.0214
  985SOD     NA14467   0.860   2.823  12.316 -0.5814 -0.0943 -0.3873
  986SOD     NA14468   3.335   0.046  17.703 -0.0908  0.3696 -0.3257
  987SOD     NA14469   4.653   1.794   4.821  0.0647  0.3707  0.1220
  988SOD     NA14470   0.547   1.211   3.949  0.2903 -0.3207  0.3539
  989SOD     NA14471   4.568   0.722   2.901 -0.2157 -0.2154 -0.0126
  990SOD     NA14472   1.101   3.600  17.373  0.5539  0.1850  0.5007
  991SOD     NA14473   1.537   3.363  14.826 -0.3350  0.1015 -0.1149
  992SOD     NA14474   4.718   4.470  14.910 -0.0080  0.3219 -0.2068
  993SOD     NA14475   4.103   0.445  17.696  0.5346  0.1961  0.7957
  994SOD     NA14476   0.161   4.302   9.993 -0.6441  0.3355 -0.0181
  995SOD     NA14477   1.970   1.950  14.935 -0.2915 -0.0055  0.0617
  996SOD     NA14478   4.302   0.026  11.967  0.1905  0.3272  0.3045
  997SOD     NA14479   2.646   3.970   0.642  0.1700  0.1560  0.3498
  998SOD     NA14480   4.065   0.587   5.915  0.4038 -0.2957 -0.6741
  999SOD     NA14481   3.100   2.178   1.558  0.3761  0.0947 -0.4625
 1000SOD     NA14482   3.192   3.899  16.360 -0.3459  0.2340  0.0265
 1001SOD     NA14483   3.558   2.807  10.989 -0.1350  0.0054 -0.2950
 1002SOD     NA14484   4.553   4.317  14.653 -0.3461 -0.1279  0.2245
 1003SOD     NA14485   3.540   3.359  10.637 -0.3639  0.0813 -0.3764
 1004SOD     NA14486   0.969   3.161  13.120  0.3623  0.1637 -0.3434
 1005SOD     NA14487   4.156   1.912  14.310 -0.0273 -0.0079  0.4833
 1006SOD     NA14488   0.319   2.516  11.397  0.3202  0.5463  0.2581
 1007SOD     NA14489   4.686   0.306   1.714  0.1548  0.4461 -0.3146
 1008SOD     NA14490   4.625   3.467  15.215  0.2579  0.3991 -0.1877
 1009SOD     NA14491   4.522   1.200   2.416  0.6867 -0.4271 -0.2613
 1010SOD     NA14492   3.955   4.482   7.913  0.3927 -0.5067 -0.0136
 1011SOD     NA14493   3.618   3.822  10.266  0.0644  0.2193  0.2813
 1012SOL     OW14494   1.602   3.033   4.078 -0.5689  0.1430  0.0062
 1012SOL    HW114495   1.561   2.993   4.002  1.5442  0.1128 -1.1154
 1012SOL    HW214496   1.606   3.123   4.044  0.9295  0.6037  1.3974
 1013SOL     OW14497   0.560   3.875   9.135  0.0013  0.0380  0.5350
 1013SOL    HW114498   0.555   3.803   9.072 -0.5686 -0.9806  1.7128
 1013SOL    HW214499   0.528   3.827   9.212 -0.1305 -0.4162  0.2004
 1014SOL     OW14500   0.710   2.068   4.443  0.7966 -0.2177 -0.8450
 1014SOL    HW114501   0.758   2.047   4.524  0.1823  1.6829 -0.0078
 1014SOL    HW214502   0.618   2.060   4.468  1.0820 -1.2661 -0.1034
 1015SOL     OW14503   3.579   1.482   4.407  0.1803 -0.3780 -0.1692
 1015SOL    HW114504   3.672   1.479   4.426 -0.0329 -0.0671  0.8980
 1015SOL    HW214505   3.540   1.426   4.474 -0.1248 -1.4406 -1.2333
 1016SOL     OW14506   4.105   1.786  15.089 -0.3456  0.2762 -0.2456
 1016SOL    HW114507   4.179   1.808  15.033 -1.0810  0.1586 -1.2521
 1016SOL    HW214508   4.071   1.703  15.054 -0.4412  0.4898 -0.6489
 1017SOL     OW14509   1.636   2.481   2.492  0.6384  0.4869  0.3509
 1017SOL    HW114510   1.721   2.497   2.531 -1.1320  0.1419  4.3589
 1017SOL    HW214511   1.659   2.403   2.441  1.8003  0.1056  1.4765
 1018SOL     OW14512   0.205   4.092   2.030  0.0929 -0.2158 -0.6284
 1018SOL    HW114513   0.156   4.095   1.948  1.9902 -1.2659 -1.8036
 1018SOL    HW214514   0.254   4.174   2.026  0.8462 -0.6423 -0.0196
 1019SOL     OW14515   2.583   4.490   4.467  0.4824  0.3838  0.1471
 1019SOL    HW114516   2.672   4.522   4.450  0.1322  1.4313  0.2779
 1019SOL    HW214517   2.568   4.418   4.406  0.7089  0.4059  0.0649
 1020SOL     OW14518   4.577   0.812   9.379  0.5040  0.2126 -0.4680
 1020SOL    HW114519   4.597   0.904   9.359 -0.1416  0.3474 -0.4906
 1020SOL    HW214520   4.666   0.784   9.402 -0.6140  0.0190  3.5961
 1021SOL     OW14521   1.953   2.924   3.179 -0.4352  0.1546  0.7534
 1021SOL    HW114522   1.938   2.921   3.085  0.6012 -0.7981  0.6153
 1021SOL    HW214523   1.911   2.844   3.210  0.6202 -0.5170  0.4508
 1022SOL     OW14524   3.251   0.430   0.394 -0.4612  0.1766 -0.2718
 1022SOL    HW114525   3.215   0.482   0.466  0.1766 -2.9127  2.3163
 1022SOL    HW214526   3.318   0.374   0.434 -1.2695 -1.5859 -1.3638
 1023SOL     OW14527   2.042   0.423  10.244  0.3328  0.4777 -0.0673
 1023SOL    HW114528   2.052   0.405  10.150  1.2019  0.9287 -0.0607
 1023SOL    HW214529   2.115   0.480  10.267  1.1094 -0.2638 -0.6973
 1024SOL     OW14530   3.814   2.144   3.174  0.3872 -0.2330  0.5052
 1024SOL    HW114531   3.819   2.071   3.112 -1.4935  0.0041  0.0705
 1024SOL    HW214532   3.738   2.192   3.141  0.1615 -1.5388 -0.9223
 1025SOL     OW14533   1.920   3.054   9.530 -0.4621  0.3319 -0.3399
 1025SOL    HW114534   1.833   3.094   9.532 -1.1407 -1.1160 -0.9708
 1025SOL    HW214535   1.930   3.010   9.614  0.5038  0.7727 -0.2312
 1026SOL     OW14536   0.564   1.260   7.824 -0.3127  0.3557 -0.1846
 1026SOL    HW114537   0.619   1.218   7.889 -1.8914 -1.6600 -0.1346
 1026SOL    HW214538   0.497   1.193   7.813  1.2095 -1.2289  0.2527
 1027SOL     OW14539   1.926   3.827   5.651 -0.7040  0.5551  0.0161
 1027SOL    HW114540   1.913   3.741   5.693  1.1708 -0.5494 -1.7024
 1027SOL    HW214541   1.931   3.801   5.559 -2.8609 -1.2232  0.3996
 1028SOL     OW14542   1.580   2.108   0.909 -0.3995  0.1281  0.3823
 1028SOL    HW114543   1.617   2.038   0.963  0.1428 -0.3506 -0.6272
 1028SOL    HW214544   1.618   2.079   0.827  0.6765 -0.9826  1.2794
 1029SOL     OW14545   1.643   4.644  15.551 -0.8376 -0.0425  0.2590
 1029SOL    HW114546   1.621   4.699  15.477  0.1520 -0.1590 -0.1258
 1029SOL    HW214547   1.563   4.599  15.576  0.0181 -1.9837 -0.4783
 1030SOL     OW14548   3.738   1.782   2.372 -0.0401  0.2872 -0.1575
 1030SOL    HW114549   3.667   1.843   2.352 -0.5525  0.8809  3.4020
 1030SOL    HW214550   3.709   1.759   2.460  0.0043  0.2353 -0.1564
 1031SOL     OW14551   3.743   0.906   3.047  1.0436  0.0547  0.1239
 1031SOL    HW114552   3.750   0.888   2.953  1.7303  2.3648 -0.2596
 1031SOL    HW214553   3.793   0.831   3.080 -0.2747 -0.7186  0.3652
 1032SOL     OW14554   2.656   3.427   7.135 -0.1645  0.3000 -0.7763
 1032SOL    HW114555   2.709   3.497   7.174  0.7611 -0.6998 -0.2279
 1032SOL    HW214556   2.570   3.444   7.172  0.5465 -0.2260  1.1031
 1033SOL     OW14557   1.712   1.330   6.975 -0.4115 -0.1321  0.0612
 1033SOL    HW114558   1.795   1.333   7.021 -0.9131  1.8433  0.8274
 1033SOL    HW214559   1.658   1.343   7.053  0.0210  1.6908  0.0397
 1034SOL     OW14560   0.566   1.055   2.102 -0.6848  0.3266  0.6086
 1034SOL    HW114561   0.590   0.972   2.061 -1.7819  0.3375 -0.0715
 1034SOL    HW214562   0.591   1.121   2.037  4.6718  0.0387  2.4318
 1035SOL     OW14563   1.795   4.246   1.970  0.3039 -0.0027  0.1340
 1035SOL    HW114564   1.791   4.327   2.020 -0.3352 -0.4499  0.8063
 1035SOL    HW214565   1.713   4.242   1.921  0.2771  2.5036 -0.0245
 1036SOL     OW14566   0.637   2.160   2.946 -0.4322  0.3621  0.1556
 1036SOL    HW114567   0.682   2.099   3.004  1.5832  1.0016 -0.7247
 1036SOL    HW214568   0.662   2.131   2.858 -1.7933 -0.8575  0.1646
 1037SOL     OW14569   0.059   2.043   9.685  0.1804  0.1040 -0.3737
 1037SOL    HW114570   0.024   2.116   9.635 -0.1614  0.2472  0.0807
 1037SOL    HW214571   0.023   1.963   9.645  2.1200  0.4703 -2.8978
 1038SOL     OW14572   2.270   2.869   6.178  0.2527 -0.1363 -0.6725
 1038SOL    HW114573   2.223   2.872   6.261 -0.2512  0.9093 -0.9959
 1038SOL    HW214574   2.355   2.874   6.223  0.4430 -1.2791 -0.9188
 1039SOL     OW14575   1.209   4.235   7.086 -0.7775 -0.8110 -0.1314
 1039SOL    HW114576   1.152   4.164   7.058 -1.1943 -0.1346 -1.0201
 1039SOL    HW214577   1.179   4.250   7.176 -0.7991  0.4666 -0.3532
 1040SOL     OW14578   3.640   1.597   7.715  0.1147 -0.9319  0.0872
 1040SOL    HW114579   3.567   1.606   7.653  1.0370 -1.3009 -1.0657
 1040SOL    HW214580   3.669   1.686   7.737 -0.7388 -0.1650 -1.7942
 1041SOL     OW14581   2.316   4.376   1.343 -0.8221  0.6112  0.2580
 1041SOL    HW114582   2.280   4.301   1.391  1.4440 -0.3237  0.4689
 1041SOL    HW214583   2.238   4.431   1.336 -1.0155  0.3870  0.6370
 1042SOL     OW14584   3.624   1.258   3.724 -0.8374 -0.6888  0.1476
 1042SOL    HW114585   3.559   1.280   3.792 -0.9954  1.2737 -0.6428
 1042SOL    HW214586   3.572   1.234   3.647 -1.9595  0.4667  0.5522
 1043SOL     OW14587   0.847   0.725   3.416  0.4233  0.1914 -0.1504
 1043SOL    HW114588   0.912   0.763   3.475  0.4636  0.1831 -0.1889
 1043SOL    HW214589   0.908   0.658   3.384 -0.4495 -1.0566  0.7976
 1044SOL     OW14590   0.511   2.070   1.841 -0.4214 -0.0102 -0.0784
 1044SOL    HW114591   0.424   2.101   1.819 -0.3029  0.5806  0.2870
 1044SOL    HW214592   0.542   2.084   1.751 -0.1640 -2.1929 -0.3452
 1045SOL     OW14593   0.141   4.661   6.708  0.3016  0.0160 -0.9851
 1045SOL    HW114594   0.184   4.678   6.792 -0.9892 -1.9218  0.0575
 1045SOL    HW214595   0.218   4.624   6.665 -0.2134 -0.3592 -1.5744
 1046SOL     OW14596   0.663   3.105   1.371 -0.0748 -0.5696 -0.4048
 1046SOL    HW114597   0.584   3.071   1.414 -0.0686 -0.8839 -0.6420
 1046SOL    HW214598   0.737   3.082   1.427 -0.5009 -1.2210 -0.1111
 1047SOL     OW14599   0.435   0.343   6.151 -0.0066  0.0209  0.4731
 1047SOL    HW114600   0.530   0.344   6.140 -0.1473  1.3886 -0.6846
 1047SOL    HW214601   0.430   0.340   6.247  2.4419 -0.6128  0.5739
 1048SOL     OW14602   0.169   4.506   4.805 -0.4557  0.6425  0.1930
 1048SOL    HW114603   0.193   4.549   4.887 -1.5048 -0.1461  0.9030
 1048SOL    HW214604   0.248   4.527   4.755  0.6230  0.0289  1.6514
 1049SOL     OW14605   4.013   1.366   5.690  0.1457 -0.0176 -0.4281
 1049SOL    HW114606   4.012   1.460   5.707 -0.9073 -0.0989 -0.0717
 1049SOL    HW214607   4.039   1.373   5.598 -1.0820 -0.5158 -0.8075
 1050SOL     OW14608   1.173   2.234  10.551  0.3195  0.0585 -0.5139
 1050SOL    HW114609   1.098   2.231  10.611  1.5835  0.5480  1.0751
 1050SOL    HW214610   1.172   2.150  10.505  0.2706 -0.3096  0.1702
 1051SOL     OW14611   0.289   4.456   1.791 -0.9311 -0.2247  0.4050
 1051SOL    HW114612   0.269   4.439   1.699 -0.9830  0.7161  0.2430
 1051SOL    HW214613   0.248   4.541   1.807  0.4946  0.5088  0.2325
 1052SOL     OW14614   3.712   3.427   8.059 -0.6093  0.5095 -0.4677
 1052SOL    HW114615   3.658   3.413   7.982 -0.6407 -0.4246 -0.2741
 1052SOL    HW214616   3.799   3.450   8.028 -0.2395  2.8072  2.2477
 1053SOL     OW14617   1.916   0.833   2.820  0.7506  0.1883  0.3983
 1053SOL    HW114618   1.855   0.777   2.772  1.8919 -0.0624 -0.7616
 1053SOL    HW214619   1.969   0.870   2.750  1.9723 -3.0137 -0.3599
 1054SOL     OW14620   1.190   4.283  13.396  0.3716 -0.2330  0.1061
 1054SOL    HW114621   1.213   4.219  13.463  0.6858 -1.8860 -1.6095
 1054SOL    HW214622   1.267   4.275  13.340 -0.1851 -1.0406 -0.5437
 1055SOL     OW14623   1.943   1.683  16.054  0.7126  0.2535 -0.5998
 1055SOL    HW114624   2.020   1.643  16.016 -0.2290 -1.3591 -0.7940
 1055SOL    HW214625   1.985   1.758  16.097 -1.5478 -0.0028  2.0238
 1056SOL     OW14626   1.854   2.242   7.288  0.1465  0.7911  0.1093
 1056SOL    HW114627   1.763   2.226   7.264  0.5464  0.9498 -1.5596
 1056SOL    HW214628   1.836   2.311   7.352  0.5362 -1.2512  2.4176
 1057SOL     OW14629   1.816   4.242   7.955 -0.4696  0.8242 -0.2002
 1057SOL    HW114630   1.845   4.197   7.876  0.2632 -0.7675  0.9803
 1057SOL    HW214631   1.794   4.328   7.918 -0.8630  0.6555 -0.3498
 1058SOL     OW14632   1.901   2.488   3.884 -0.0947 -0.0898  0.3730
 1058SOL    HW114633   1.888   2.571   3.837 -0.0650 -1.1139 -1.4520
 1058SOL    HW214634   1.903   2.528   3.971  0.3319 -0.0047  0.3220
 1059SOL     OW14635   2.791   3.500  15.989  0.1323 -0.5576 -0.2260
 1059SOL    HW114636   2.721   3.467  16.046  1.2373  1.3656  2.2271
 1059SOL    HW214637   2.741   3.564  15.939 -0.2426 -0.0595  0.7868
 1060SOL     OW14638   2.491   2.331   4.758 -0.4868 -0.0535 -0.1470
 1060SOL    HW114639   2.455   2.392   4.694 -2.1190  0.4949  1.2594
 1060SOL    HW214640   2.577   2.323   4.719 -0.1575 -0.6788  0.6996
 1061SOL     OW14641   1.741   2.465   3.372 -0.0239  0.0170 -0.1159
 1061SOL    HW114642   1.745   2.393   3.308  1.0446 -2.1224  2.3210
 1061SOL    HW214643   1.829   2.462   3.411  0.2111 -0.8162 -0.6951
 1062SOL     OW14644   2.260   1.789   7.192  0.7794  0.0239 -0.2189
 1062SOL    HW114645   2.236   1.731   7.265 -0.0773 -0.4406 -0.8698
 1062SOL    HW214646   2.275   1.871   7.239 -0.9494 -0.1075  0.5525
 1063SOL     OW14647   1.522   0.944  13.905  0.0634  0.2539  0.6721
 1063SOL    HW114648   1.552   1.011  13.843  0.9383 -0.0770  0.7454
 1063SOL    HW214649   1.602   0.910  13.943  0.9361  2.4495  0.8435
 1064SOL     OW14650   4.446   2.421   8.140  0.6327  0.3103 -0.2089
 1064SOL    HW114651   4.505   2.487   8.176  1.7420 -0.6991 -0.1703
 1064SOL    HW214652   4.394   2.480   8.086  2.0893  2.1555  0.3874
 1065SOL     OW14653   4.171   3.515  14.301  0.1968  0.4367 -0.5144
 1065SOL    HW114654   4.189   3.526  14.394  1.7985 -1.8170 -0.5728
 1065SOL    HW214655   4.246   3.470  14.262 -0.8376 -1.1915 -0.6263
 1066SOL     OW14656   1.353   4.191   2.578  0.5852 -0.2288 -0.0585
 1066SOL    HW114657   1.364   4.286   2.584  0.2834 -0.2195  0.3692
 1066SOL    HW214658   1.302   4.164   2.502  0.9158 -2.1950  0.4216
 1067SOL     OW14659   0.330   2.023   5.907 -0.0666 -0.0158 -0.1926
 1067SOL    HW114660   0.284   1.951   5.864  2.2889 -0.4953 -1.9466
 1067SOL    HW214661   0.271   2.056   5.974 -0.8589 -1.5643 -0.1310
 1068SOL     OW14662   0.742   2.231   8.276 -0.6561  0.2219 -0.0084
 1068SOL    HW114663   0.762   2.239   8.370 -0.5651 -0.3517  0.0202
 1068SOL    HW214664   0.831   2.229   8.242 -0.5963 -1.6067  0.2967
 1069SOL     OW14665   4.259   3.987   1.964 -0.5586  0.1890  0.4061
 1069SOL    HW114666   4.268   4.032   1.881  2.4520 -0.0254  0.6102
 1069SOL    HW214667   4.340   3.999   2.013 -0.0965  0.5441 -0.4501
 1070SOL     OW14668   0.900   4.123  15.914 -0.1352 -0.5018  0.5870
 1070SOL    HW114669   0.920   4.041  15.868  1.0893 -0.1993  0.5754
 1070SOL    HW214670   0.986   4.164  15.922 -0.3248 -0.1901  1.0118
 1071SOL     OW14671   3.546   2.137   6.146  0.1360  0.7281 -0.5959
 1071SOL    HW114672   3.457   2.163   6.120  0.6733  0.4323 -2.7123
 1071SOL    HW214673   3.540   2.131   6.241  0.2216  1.2608 -0.5578
 1072SOL     OW14674   1.696   0.390   7.789 -0.0486 -0.6455 -0.2454
 1072SOL    HW114675   1.671   0.302   7.815  0.4405  0.7165  4.8989
 1072SOL    HW214676   1.697   0.432   7.875  2.4162 -1.1279 -0.0251
 1073SOL     OW14677   0.925   3.581  14.836 -0.0101 -0.3356  0.5344
 1073SOL    HW114678   0.987   3.620  14.897  3.3288 -1.5286 -2.0721
 1073SOL    HW214679   0.847   3.631  14.858  0.3215 -0.5822  2.2612
 1074SOL     OW14680   4.187   4.600   7.633 -0.0322  0.0355 -0.2468
 1074SOL    HW114681   4.265   4.609   7.686  0.6714  1.1687 -1.4717
 1074SOL    HW214682   4.155   4.518   7.669 -0.5482  0.4903  0.3253
 1075SOL     OW14683   2.421   1.331   1.144 -0.2619  0.5147  0.3405
 1075SOL    HW114684   2.337   1.298   1.112  0.4705 -0.8903 -0.1134
 1075SOL    HW214685   2.440   1.402   1.083  1.2701 -1.9255 -2.0451
 1076SOL     OW14686   1.404   3.893   4.447 -0.2731 -0.3725  0.8326
 1076SOL    HW114687   1.376   3.836   4.375  1.2409 -1.2533  0.9408
 1076SOL    HW214688   1.488   3.849   4.463 -1.1708 -1.9613  1.1736
 1077SOL     OW14689   2.157   4.259   7.821 -0.4953 -0.1190 -0.2271
 1077SOL    HW114690   2.075   4.241   7.775 -2.9076  1.6978  3.3830
 1077SOL    HW214691   2.203   4.183   7.786 -0.0692 -1.6450  3.6655
 1078SOL     OW14692   2.212   0.139   5.841  0.1310 -0.0489  0.6506
 1078SOL    HW114693   2.138   0.135   5.901  1.4276  1.4824  2.3213
 1078SOL    HW214694   2.155   0.143   5.764  0.1810 -2.6382  0.4833
 1079SOL     OW14695   0.462   4.657   5.614 -0.3600 -0.4629 -0.3816
 1079SOL    HW114696   0.464   4.583   5.552 -0.5898 -0.0326 -0.9056
 1079SOL    HW214697   0.529   4.716   5.579  0.2035  0.2920  1.9732
 1080SOL     OW14698   1.588   4.288  15.743 -0.2008  0.6727 -0.1198
 1080SOL    HW114699   1.617   4.229  15.674  1.9401  1.4813  0.0909
 1080SOL    HW214700   1.541   4.352  15.689  0.2312  1.9895  1.0353
 1081SOL     OW14701   2.185   0.319   7.740 -0.2025 -0.2170 -0.0866
 1081SOL    HW114702   2.124   0.248   7.761 -2.7698  1.4621 -1.9381
 1081SOL    HW214703   2.263   0.301   7.793 -0.3103 -1.4178 -0.3353
 1082SOL     OW14704   0.813   3.052  17.701  0.1102 -0.2792 -0.0466
 1082SOL    HW114705   0.765   2.976   0.029 -2.0170  1.6931  1.4488
 1082SOL    HW214706   0.901   3.038   0.032  0.4125  3.2620  0.6647
 1083SOL     OW14707   0.533   2.873   7.854 -0.7566  0.0333 -0.5048
 1083SOL    HW114708   0.574   2.872   7.767  0.8680  0.5493  0.2565
 1083SOL    HW214709   0.600   2.915   7.908 -0.6737  0.5278 -0.9886
 1084SOL     OW14710   2.240   4.675  13.166 -0.3381 -0.1794  0.0830
 1084SOL    HW114711   2.216   4.584  13.151 -0.6446 -0.0062 -0.4567
 1084SOL    HW214712   2.209   4.689  13.256  0.3624 -0.2281  0.3301
 1085SOL     OW14713   2.488   0.292   5.559  0.4205  0.1692 -0.1210
 1085SOL    HW114714   2.492   0.197   5.559 -1.1263  0.1165 -1.0774
 1085SOL    HW214715   2.525   0.316   5.644  1.4422 -0.6202 -0.3451
 1086SOL     OW14716   0.945   1.712  10.351  0.3325  0.0696 -0.2722
 1086SOL    HW114717   0.941   1.721  10.446 -0.9358 -1.4556 -0.1655
 1086SOL    HW214718   1.039   1.715  10.338  0.5379  0.6438  1.4739
 1087SOL     OW14719   2.579   2.416   0.737 -0.1934 -0.4186 -0.4912
 1087SOL    HW114720   2.545   2.332   0.767 -0.5563 -0.5629 -1.3314
 1087SOL    HW214721   2.532   2.484   0.786  3.4324  1.7219  0.0513
 1088SOL     OW14722   3.516   2.213   7.263 -0.0366  0.0077 -0.0168
 1088SOL    HW114723   3.568   2.265   7.323  0.3470  0.2766 -0.5851
 1088SOL    HW214724   3.515   2.130   7.312  2.9272  1.8499  3.1356
 1089SOL     OW14725   4.215   1.078  15.688 -0.1899  0.5817  0.7913
 1089SOL    HW114726   4.128   1.064  15.652 -0.3870 -0.1412  1.5464
 1089SOL    HW214727   4.270   1.122  15.622 -2.3405  2.4202  0.2333
 1090SOL     OW14728   2.730   2.278   8.927  0.1867  0.1193  0.4766
 1090SOL    HW114729   2.702   2.346   8.987  1.3430 -0.0239  1.1785
 1090SOL    HW214730   2.691   2.200   8.967  2.8016 -1.2599  0.3286
 1091SOL     OW14731   0.832   2.284  11.072  0.0549  0.0347  0.3226
 1091SOL    HW114732   0.810   2.365  11.027 -0.6493  0.2280  1.0084
 1091SOL    HW214733   0.749   2.235  11.075  1.0617 -1.8406 -2.8319
 1092SOL     OW14734   2.813   1.192  13.166  0.0725  0.1916  0.2265
 1092SOL    HW114735   2.761   1.234  13.234 -1.9840 -1.6478 -0.2079
 1092SOL    HW214736   2.885   1.254  13.154 -2.3681  3.1260  0.7155
 1093SOL     OW14737   1.085   3.275   0.506 -0.4544  0.7597 -0.2694
 1093SOL    HW114738   1.121   3.364   0.499  1.1484  0.1622  0.4814
 1093SOL    HW214739   1.115   3.254   0.594  0.2107 -2.9406 -1.3569
 1094SOL     OW14740   1.623   4.699  16.963 -0.3340 -0.3743  0.0345
 1094SOL    HW114741   1.652   0.024  16.886  4.3172 -0.8350  1.4705
 1094SOL    HW214742   1.628   0.043  17.028  0.2001 -1.5893  1.2832
 1095SOL     OW14743   3.331   3.850   8.375  0.3719 -0.0695 -0.2526
 1095SOL    HW114744   3.391   3.794   8.425 -1.3527 -0.7162  1.0604
 1095SOL    HW214745   3.332   3.796   8.295  1.2728 -1.2438  0.5443
 1096SOL     OW14746   0.670   0.131   5.030  0.3520 -0.8732  0.1691
 1096SOL    HW114747   0.723   0.108   5.107  1.2477  0.7393  0.0154
 1096SOL    HW214748   0.656   0.041   5.001 -0.2238 -0.8746  0.4488
 1097SOL     OW14749   1.560   1.831   5.967  0.2667 -0.3180  0.3480
 1097SOL    HW114750   1.481   1.796   6.008 -0.1487  0.8056  0.4864
 1097SOL    HW214751   1.622   1.816   6.038 -0.4093  0.7509  1.1609
 1098SOL     OW14752   0.300   1.771   7.397 -0.3771 -0.0024 -0.1563
 1098SOL    HW114753   0.221   1.742   7.351 -1.0327 -0.5887  1.3579
 1098SOL    HW214754   0.307   1.712   7.472  0.0553  1.6658  1.1243
 1099SOL     OW14755   3.061   1.503   6.547  0.5367 -0.1916  0.2503
 1099SOL    HW114756   3.111   1.487   6.627 -2.1773 -2.4198  1.5154
 1099SOL    HW214757   3.012   1.583   6.565  1.1750  0.4313 -0.8175
 1100SOL     OW14758   1.293   1.924   8.198  0.1563  0.0004 -0.2981
 1100SOL    HW114759   1.289   1.867   8.274  2.3719 -1.1562 -1.0643
 1100SOL    HW214760   1.341   2.004   8.218 -0.8904  0.6157 -0.2096
 1101SOL     OW14761   4.103   1.822  14.673 -0.4223  0.0529 -0.3263
 1101SOL    HW114762   4.031   1.838  14.611 -0.8144  0.7451  0.3009
 1101SOL    HW214763   4.110   1.910  14.709  1.2328  0.9035 -2.7319
 1102SOL     OW14764   1.035   3.356   2.883 -0.1106  0.0274  0.6698
 1102SOL    HW114765   0.989   3.321   2.959 -1.0392 -0.2394 -0.0199
 1102SOL    HW214766   1.042   3.278   2.828 -0.5227 -0.6318  1.5559
 1103SOL     OW14767   1.768   4.496   5.850  0.1053  0.1735 -0.1675
 1103SOL    HW114768   1.726   4.524   5.931  0.0878 -4.1061  1.2870
 1103SOL    HW214769   1.768   4.575   5.796  0.1288  2.3200  3.0409
 1104SOL     OW14770   2.129   3.693  13.307  0.4898  0.8887  0.4758
 1104SOL    HW114771   2.035   3.681  13.295  0.1368  0.1680  3.8671
 1104SOL    HW214772   2.156   3.729  13.223 -0.4458  0.4860  0.0009
 1105SOL     OW14773   0.319   4.144   3.384 -0.7656 -0.0183  0.3213
 1105SOL    HW114774   0.362   4.162   3.300 -2.4462  1.4166 -0.2320
 1105SOL    HW214775   0.289   4.054   3.376  1.5268 -0.5733 -1.9213
 1106SOL     OW14776   1.963   2.266  15.521  0.0359  0.1306 -0.1958
 1106SOL    HW114777   2.053   2.238  15.538 -0.5500 -1.9138 -0.4714
 1106SOL    HW214778   1.924   2.181  15.541  0.5399 -0.5567 -2.0668
 1107SOL     OW14779   1.429   1.598   1.987  0.6961  0.3206  0.2535
 1107SOL    HW114780   1.410   1.678   1.938  0.6939 -0.2530 -0.6871
 1107SOL    HW214781   1.498   1.564   1.930 -0.1832 -0.1929 -0.4940
 1108SOL     OW14782   1.139   1.033   2.882 -0.0572 -0.1652  0.1714
 1108SOL    HW114783   1.200   1.005   2.814 -1.0479 -1.0830 -0.3173
 1108SOL    HW214784   1.118   0.951   2.925  0.8025  0.6726  2.1983
 1109SOL     OW14785   2.641   1.268   0.537 -0.4719  0.1890 -0.1469
 1109SOL    HW114786   2.702   1.337   0.509 -0.4684  0.7231  1.1715
 1109SOL    HW214787   2.650   1.299   0.627 -2.3442 -0.0061  0.1005
 1110SOL     OW14788   1.381   1.182   4.845  0.1799  0.1432  0.1816
 1110SOL    HW114789   1.298   1.152   4.881  1.1754 -1.5905  0.9987
 1110SOL    HW214790   1.434   1.213   4.919  2.1071 -3.6523  0.3921
 1111SOL     OW14791   2.984   1.080  10.717  0.4539  0.0020  0.1581
 1111SOL    HW114792   3.045   1.142  10.679 -0.4071 -0.5528 -2.1481
 1111SOL    HW214793   2.899   1.117  10.690 -0.5100 -1.8268  0.6370
 1112SOL     OW14794   0.330   4.550   1.305  0.0933 -0.2856 -0.1565
 1112SOL    HW114795   0.401   4.598   1.262  1.4192 -1.1041  1.0922
 1112SOL    HW214796   0.280   4.629   1.326  0.3051  0.0026 -0.7424
 1113SOL     OW14797   4.620   2.316   1.981 -0.8138  0.0461 -0.1219
 1113SOL    HW114798   4.679   2.242   1.965 -0.5286  0.1757  0.3210
 1113SOL    HW214799   4.591   2.339   1.893  0.1331  0.9002 -0.2213
 1114SOL     OW14800   1.228   3.705  14.269  0.0958  0.2282  0.4051
 1114SOL    HW114801   1.251   3.707  14.176 -2.3832  1.7549 -0.1635
 1114SOL    HW214802   1.133   3.716  14.262  0.2701  0.0115 -2.3084
 1115SOL     OW14803   1.326   1.717   6.064  0.3255  0.0040  0.2470
 1115SOL    HW114804   1.237   1.748   6.048  1.0866  1.0837 -1.8800
 1115SOL    HW214805   1.329   1.621   6.058 -1.0645 -0.0752  0.7679
 1116SOL     OW14806   1.543   0.601   5.973 -0.3317  0.4870 -0.1730
 1116SOL    HW114807   1.497   0.524   5.940  0.7334  0.3391 -1.3220
 1116SOL    HW214808   1.497   0.671   5.926  0.2549  0.7755 -0.3237
 1117SOL     OW14809   0.451   0.506   8.407  0.0615  0.1434 -0.2074
 1117SOL    HW114810   0.451   0.487   8.313 -0.7049 -1.4195  0.1183
 1117SOL    HW214811   0.377   0.567   8.417  0.2988  0.2621  0.8225
 1118SOL     OW14812   3.837   1.999   3.539 -0.1957 -0.0148  0.4965
 1118SOL    HW114813   3.850   2.053   3.617  2.0290 -0.2569  0.2853
 1118SOL    HW214814   3.927   1.967   3.528  0.6825  2.4739  0.2476
 1119SOL     OW14815   2.366   3.180  11.977  0.0148  0.3163 -0.2577
 1119SOL    HW114816   2.405   3.113  11.921  0.5579 -0.4787  1.0596
 1119SOL    HW214817   2.442   3.234  12.003 -0.5634  0.7421  0.5418
 1120SOL     OW14818   4.178   3.996   1.464  0.3005  0.4115  0.3954
 1120SOL    HW114819   4.155   3.912   1.425  3.0527 -0.0696 -0.1979
 1120SOL    HW214820   4.144   4.054   1.396 -0.5591 -0.9590 -0.3570
 1121SOL     OW14821   2.923   3.134   8.466  0.4328 -0.4244 -0.5597
 1121SOL    HW114822   2.876   3.053   8.490  1.0435 -1.6873 -3.7097
 1121SOL    HW214823   2.952   3.161   8.553 -2.0367  0.0073  0.1491
 1122SOL     OW14824   3.349   2.316  14.877  0.8800 -0.2651 -0.3980
 1122SOL    HW114825   3.288   2.243  14.873  1.5290 -0.7497 -1.3168
 1122SOL    HW214826   3.389   2.313  14.790  2.5894  0.9663  0.3470
 1123SOL     OW14827   2.261   4.055   7.675  0.0297 -0.2436 -0.3018
 1123SOL    HW114828   2.209   3.980   7.644  0.4579 -2.0504  3.3385
 1123SOL    HW214829   2.340   4.009   7.701  0.3929  0.3436 -0.3758
 1124SOL     OW14830   1.715   4.564  13.478 -0.5395  0.1068 -1.0372
 1124SOL    HW114831   1.761   4.530  13.401 -0.8898 -2.5758 -0.0550
 1124SOL    HW214832   1.781   4.549  13.545  1.1734  2.0132 -2.3049
 1125SOL     OW14833   2.733   4.323   8.650  0.7959 -0.0139 -0.6896
 1125SOL    HW114834   2.728   4.234   8.614 -0.1809 -0.7178  1.1767
 1125SOL    HW214835   2.695   4.321   8.738  1.9929 -2.4711 -0.2260
 1126SOL     OW14836   4.526   3.983   0.832  0.0623 -0.0047 -0.4090
 1126SOL    HW114837   4.441   4.004   0.871 -0.1117 -2.4535  0.5386
 1126SOL    HW214838   4.549   3.904   0.882 -0.5174  0.3711  0.4537
 1127SOL     OW14839   3.232   4.627  16.782 -0.0383 -0.4669  0.1811
 1127SOL    HW114840   3.179   4.690  16.734  1.1377 -0.6921 -1.4088
 1127SOL    HW214841   3.232   4.551  16.724 -1.3154 -0.2254 -0.1345
 1128SOL     OW14842   2.448   4.366   1.789  0.1536 -0.3924  0.8613
 1128SOL    HW114843   2.476   4.366   1.881  3.1080 -0.0664 -0.0700
 1128SOL    HW214844   2.489   4.448   1.761  0.4884 -0.6172  0.7025
 1129SOL     OW14845   3.861   2.635  17.463 -0.2379 -0.1730  0.3658
 1129SOL    HW114846   3.777   2.681  17.472  0.2826  0.6914  0.8192
 1129SOL    HW214847   3.876   2.634  17.557  0.1516  2.4051  0.3429
 1130SOL     OW14848   0.033   2.713   8.481 -0.3713 -0.5285 -0.5643
 1130SOL    HW114849   4.691   2.711   8.550  0.8048  1.3817  0.6634
 1130SOL    HW214850   0.042   2.803   8.450 -3.2323  0.3186  0.9822
 1131SOL     OW14851   4.405   4.295   3.308 -0.1971  0.7765 -0.3374
 1131SOL    HW114852   4.493   4.275   3.340  0.1792  0.2392 -1.6970
 1131SOL    HW214853   4.416   4.384   3.274  0.4662  1.6404  2.1768
 1132SOL     OW14854   2.387   0.980   9.866 -0.7864 -0.3978  0.0021
 1132SOL    HW114855   2.328   1.026   9.925 -1.7391  0.5791 -1.7344
 1132SOL    HW214856   2.326   0.936   9.807 -2.0955 -1.6678  2.3012
 1133SOL     OW14857   3.511   3.620   1.671 -1.1198  0.0818 -0.0255
 1133SOL    HW114858   3.435   3.563   1.661  0.5272 -1.4240 -3.7025
 1133SOL    HW214859   3.527   3.622   1.766  0.7718 -1.6825 -0.2975
 1134SOL     OW14860   2.184   4.200   2.910 -0.6434  0.1417  0.3048
 1134SOL    HW114861   2.160   4.184   3.002 -2.2892  1.5278  0.1273
 1134SOL    HW214862   2.135   4.282   2.898  2.3931  1.9632  0.3851
 1135SOL     OW14863   4.389   0.503  11.011 -0.1876 -0.2451  0.0104
 1135SOL    HW114864   4.464   0.465  11.057 -1.0381 -1.7434  0.1789
 1135SOL    HW214865   4.321   0.438  11.031  0.1988 -0.5313  0.3924
 1136SOL     OW14866   2.512   3.287   1.470 -0.5404 -0.3155 -0.1789
 1136SOL    HW114867   2.544   3.215   1.416  0.4686  0.1280 -0.1679
 1136SOL    HW214868   2.525   3.363   1.414 -1.3747 -0.2602 -0.2984
 1137SOL     OW14869   1.034   3.152   4.252 -0.7013 -0.0962 -0.0564
 1137SOL    HW114870   1.002   3.224   4.307  0.3166  1.6149 -1.6982
 1137SOL    HW214871   1.002   3.167   4.163 -0.2033 -0.8036 -0.3559
 1138SOL     OW14872   1.679   0.861   6.174  0.0616 -0.1958 -0.7274
 1138SOL    HW114873   1.610   0.927   6.176 -0.4919 -0.8085  0.3530
 1138SOL    HW214874   1.628   0.780   6.182 -0.5646  0.2768  0.0369
 1139SOL     OW14875   2.489   2.827  13.644 -0.4905 -0.1337  0.4271
 1139SOL    HW114876   2.422   2.889  13.614 -0.1877 -0.6185 -1.2557
 1139SOL    HW214877   2.447   2.792  13.723 -0.1565 -1.7381 -0.1014
 1140SOL     OW14878   3.558   4.305  11.573  0.9362 -0.0823  0.1938
 1140SOL    HW114879   3.609   4.382  11.599 -0.1229  0.5658  0.3830
 1140SOL    HW214880   3.624   4.243  11.541  0.0033 -0.3805 -1.1463
 1141SOL     OW14881   3.691   2.303   9.040 -0.2449  0.2434  0.0737
 1141SOL    HW114882   3.734   2.221   9.016 -1.0894 -0.1895  0.0479
 1141SOL    HW214883   3.764   2.351   9.080  0.2591 -0.3789 -0.0974
 1142SOL     OW14884   1.206   0.271   7.772  0.0432  0.0810  0.8834
 1142SOL    HW114885   1.286   0.322   7.761 -0.3932  0.5062 -0.3388
 1142SOL    HW214886   1.238   0.181   7.772  0.1253  0.1098 -0.8064
 1143SOL     OW14887   1.362   2.648   6.489  0.2954  0.0250  0.3146
 1143SOL    HW114888   1.432   2.706   6.519  1.3222 -0.4998 -1.1037
 1143SOL    HW214889   1.347   2.662   6.396 -1.0966 -2.6200  0.1233
 1144SOL     OW14890   1.365   3.414   3.604  0.0895  0.3798  0.3435
 1144SOL    HW114891   1.356   3.327   3.643 -1.8477  0.9151  1.0802
 1144SOL    HW214892   1.451   3.437   3.639  0.2347 -0.3832  0.4816
 1145SOL     OW14893   0.918   3.934  10.769  0.2386  0.0472 -0.4296
 1145SOL    HW114894   0.912   3.839  10.764 -2.2810  0.1451  0.5473
 1145SOL    HW214895   1.008   3.958  10.748 -0.2213  1.6092 -0.6075
 1146SOL     OW14896   2.867   2.765   4.989  0.0299  0.0803 -0.2525
 1146SOL    HW114897   2.807   2.830   5.024  0.7707  0.8124 -0.3396
 1146SOL    HW214898   2.838   2.686   5.035  1.1443 -1.5644 -2.3973
 1147SOL     OW14899   0.759   3.414   2.986 -0.2404 -0.4023  0.1968
 1147SOL    HW114900   0.696   3.417   3.058 -0.1854  2.0600  0.1527
 1147SOL    HW214901   0.797   3.501   2.994  1.4499 -1.0672 -0.7828
 1148SOL     OW14902   0.788   0.153  15.476 -0.0884  0.1083 -0.6285
 1148SOL    HW114903   0.810   0.246  15.476  1.5562 -0.2786  0.5838
 1148SOL    HW214904   0.694   0.152  15.493  0.2735 -3.1902  1.3063
 1149SOL     OW14905   1.941   3.624   7.326 -0.6294 -0.1170 -0.3802
 1149SOL    HW114906   1.852   3.596   7.347 -0.7469  0.3826 -0.1933
 1149SOL    HW214907   1.992   3.568   7.385 -0.0593  1.3669  0.5369
 1150SOL     OW14908   0.155   1.312   7.346  0.4144 -0.0246  0.3289
 1150SOL    HW114909   0.140   1.391   7.398 -1.2329 -0.0920 -0.0695
 1150SOL    HW214910   0.065   1.285   7.328  0.3028 -0.6714  1.8046
 1151SOL     OW14911   0.500   3.058   3.265 -0.1373 -0.3031 -0.2141
 1151SOL    HW114912   0.419   3.056   3.316 -1.1101  2.2366 -1.6476
 1151SOL    HW214913   0.568   3.054   3.333  1.0710  2.7087 -1.2020
 1152SOL     OW14914   3.165   0.646   4.671 -0.1059 -0.3592 -0.4827
 1152SOL    HW114915   3.185   0.558   4.639 -0.8019 -0.3465 -0.9589
 1152SOL    HW214916   3.250   0.686   4.691  1.4577 -3.5431 -0.8108
 1153SOL     OW14917   0.573   0.297  11.368  0.0080  0.1288  0.6086
 1153SOL    HW114918   0.478   0.302  11.361  0.0764  0.9853  0.2661
 1153SOL    HW214919   0.586   0.208  11.337 -1.0586 -0.8423  2.9124
 1154SOL     OW14920   0.593   2.406  16.525 -0.8300 -0.0837 -1.1678
 1154SOL    HW114921   0.534   2.395  16.599 -0.1756 -0.4472 -0.7019
 1154SOL    HW214922   0.568   2.492  16.490 -3.2135  0.3349  1.5923
 1155SOL     OW14923   0.322   3.964  17.145 -0.0844  0.4230 -0.6599
 1155SOL    HW114924   0.332   4.049  17.102  3.3844  0.4985  0.3156
 1155SOL    HW214925   0.259   3.976  17.216 -0.5844 -0.6973 -0.9045
 1156SOL     OW14926   1.851   1.258   5.937 -0.1438 -0.1114 -0.2002
 1156SOL    HW114927   1.836   1.164   5.935  0.7805 -0.2998  1.8809
 1156SOL    HW214928   1.921   1.255   6.003 -1.4568  0.8328  1.2306
 1157SOL     OW14929   3.252   1.221  16.132 -0.0409  0.3119  0.6315
 1157SOL    HW114930   3.231   1.305  16.092  1.8331  1.7349  2.6416
 1157SOL    HW214931   3.178   1.220  16.192 -0.4927 -2.2102  0.0455
 1158SOL     OW14932   0.931   0.894   0.810  0.0226 -0.7462 -0.4190
 1158SOL    HW114933   0.917   0.940   0.728 -0.6347 -1.1933 -0.5580
 1158SOL    HW214934   0.931   0.967   0.872 -2.7244 -1.0845 -0.0363
 1159SOL     OW14935   2.374   1.984   2.893 -0.0175 -0.0516  0.3192
 1159SOL    HW114936   2.393   1.957   2.983 -1.3642 -0.1566  0.5669
 1159SOL    HW214937   2.367   2.079   2.906 -2.6123 -0.2375  0.2710
 1160SOL     OW14938   1.656   0.651  10.274 -0.4402  0.3685 -0.1121
 1160SOL    HW114939   1.676   0.683  10.186 -0.0876  0.3745 -0.0303
 1160SOL    HW214940   1.566   0.683  10.265 -0.1161  1.2011 -0.4650
 1161SOL     OW14941   3.415   2.579   2.112  0.0474 -0.3551  0.0359
 1161SOL    HW114942   3.461   2.656   2.145  1.0544 -1.2547  0.7122
 1161SOL    HW214943   3.477   2.512   2.142 -0.6751 -1.0430 -0.0112
 1162SOL     OW14944   4.610   1.564  13.455  0.5744 -0.0580 -0.6048
 1162SOL    HW114945   4.682   1.518  13.498 -0.8425  0.8190  2.6831
 1162SOL    HW214946   4.545   1.495  13.471  0.8104 -0.4498 -1.3600
 1163SOL     OW14947   0.083   1.941   7.956  0.3404  0.0312 -0.3181
 1163SOL    HW114948   0.125   1.903   7.879 -1.0866 -1.3760 -0.4022
 1163SOL    HW214949   0.142   1.905   8.022 -2.6570 -2.5057  1.0060
 1164SOL     OW14950   3.470   2.774   2.892 -0.1095  0.2476  0.5919
 1164SOL    HW114951   3.486   2.845   2.954  2.7924 -1.6868  2.0484
 1164SOL    HW214952   3.451   2.702   2.951 -0.1959 -0.5274 -0.3718
 1165SOL     OW14953   2.633   1.379   5.691  0.4750 -0.2588  0.1001
 1165SOL    HW114954   2.600   1.430   5.618 -0.4262 -0.2373  0.5243
 1165SOL    HW214955   2.601   1.442   5.757 -0.1299 -1.3585  0.8583
 1166SOL     OW14956   0.151   3.702   0.116  0.2595 -0.4482 -0.1995
 1166SOL    HW114957   0.107   3.630   0.161 -0.5232 -0.0586 -0.3582
 1166SOL    HW214958   0.091   3.713   0.042 -1.4077  3.5330  1.7707
 1167SOL     OW14959   0.856   1.689   3.183  0.3214  0.1851  0.1568
 1167SOL    HW114960   0.827   1.640   3.260  1.9461 -2.2085 -0.7429
 1167SOL    HW214961   0.950   1.676   3.192  0.2357  0.7855  1.8807
 1168SOL     OW14962   2.957   1.522   3.656 -0.3536  0.1726  0.0590
 1168SOL    HW114963   3.026   1.580   3.624  0.8941 -1.2156  0.2318
 1168SOL    HW214964   3.005   1.489   3.732 -0.4554 -0.6866 -0.2539
 1169SOL     OW14965   1.116   0.015  12.279  0.5446 -0.5138 -0.0966
 1169SOL    HW114966   1.103   4.685  12.202 -0.6061 -0.3680 -0.0130
 1169SOL    HW214967   1.044   4.710  12.334  0.5269 -0.3535 -0.0316
 1170SOL     OW14968   2.641   1.133   8.038 -0.0457 -0.4227 -0.1319
 1170SOL    HW114969   2.577   1.065   8.019 -1.1271  0.1798  1.3430
 1170SOL    HW214970   2.681   1.096   8.117  0.6411 -0.2221 -0.3867
 1171SOL     OW14971   2.330   3.484   4.764 -0.0612  0.2913 -0.1398
 1171SOL    HW114972   2.379   3.422   4.710  0.9397  1.5788 -0.7107
 1171SOL    HW214973   2.397   3.548   4.785 -0.4368  1.2002 -1.7425
 1172SOL     OW14974   1.110   3.652   0.300  0.4625 -0.3041 -0.5243
 1172SOL    HW114975   1.148   3.611   0.377 -2.4165  0.0580  1.0901
 1172SOL    HW214976   1.138   3.592   0.230 -1.1266  1.6826 -2.8699
 1173SOL     OW14977   1.720   3.527   2.874 -0.0080  0.3522 -0.1342
 1173SOL    HW114978   1.752   3.445   2.912 -0.7478  0.9470  1.7221
 1173SOL    HW214979   1.791   3.585   2.902  0.2074  0.0584 -0.0665
 1174SOL     OW14980   3.092   3.973   4.452 -0.4603  0.0548  0.0564
 1174SOL    HW114981   3.098   3.878   4.461 -0.9027 -0.1112 -1.5068
 1174SOL    HW214982   3.180   3.990   4.486 -0.6753  0.1518  0.5571
 1175SOL     OW14983   4.431   0.855   8.488 -0.2401 -0.0012 -0.0625
 1175SOL    HW114984   4.459   0.831   8.577  2.4284  2.1651 -0.3043
 1175SOL    HW214985   4.374   0.779   8.480  0.4238 -0.6058  0.9175
 1176SOL     OW14986   2.459   0.028   5.789 -0.2593  1.2286 -0.0329
 1176SOL    HW114987   2.372   0.049   5.823 -0.3994  0.9694 -0.2280
 1176SOL    HW214988   2.521   0.089   5.829  0.9068 -1.4191  2.1571
 1177SOL     OW14989   2.529   1.864  13.814  0.0252 -0.0622  0.4124
 1177SOL    HW114990   2.447   1.817  13.829 -0.4152 -0.0594 -1.9078
 1177SOL    HW214991   2.516   1.884  13.721 -0.5974  0.4731  0.6150
 1178SOL     OW14992   0.421   0.212  11.072  0.7233  0.4268  0.4487
 1178SOL    HW114993   0.372   0.216  11.154 -0.4906 -3.1314 -0.0952
 1178SOL    HW214994   0.453   0.302  11.068 -0.5160  0.7938 -0.9444
 1179SOL     OW14995   0.296   3.847  11.155  0.1400  0.3712 -0.4490
 1179SOL    HW114996   0.354   3.825  11.227 -1.2524 -1.7984  0.0201
 1179SOL    HW214997   0.349   3.838  11.076  4.2606  1.5398  2.2323
 1180SOL     OW14998   2.191   1.901   0.428  0.4741  0.1841  0.4098
 1180SOL    HW114999   2.124   1.842   0.462  0.4615 -1.7036 -2.8265
 1180SOL    HW215000   2.175   1.892   0.334  0.0171 -1.4866  0.6498
 1181SOL     OW15001   1.771   3.962   6.993 -0.0141  0.4756  0.2339
 1181SOL    HW115002   1.831   4.017   7.044  1.4379 -0.2973 -0.6271
 1181SOL    HW215003   1.704   3.930   7.053 -0.6217  0.0327 -0.6686
 1182SOL     OW15004   4.536   0.978   5.456  0.1143 -0.1121  0.4420
 1182SOL    HW115005   4.628   1.001   5.468 -0.0677  1.1083 -0.5203
 1182SOL    HW215006   4.506   1.033   5.384  0.0365 -0.4608  0.2098
 1183SOL     OW15007   2.250   1.623   5.475 -0.2482 -0.1218  0.7086
 1183SOL    HW115008   2.327   1.600   5.527  0.0569  0.4976  0.5265
 1183SOL    HW215009   2.204   1.689   5.525 -0.3058 -0.3914  1.0081
 1184SOL     OW15010   2.409   0.466   7.185  0.4693  0.1625  0.0510
 1184SOL    HW115011   2.328   0.513   7.202  0.6730  1.2197 -1.9350
 1184SOL    HW215012   2.407   0.407   7.260 -0.6808 -1.2290 -1.0690
 1185SOL     OW15013   0.648   0.856   7.027  0.1800 -0.0710  0.2798
 1185SOL    HW115014   0.590   0.914   6.978 -1.6057 -0.3366  2.1187
 1185SOL    HW215015   0.620   0.768   7.001  1.8678 -0.1324 -1.3591
 1186SOL     OW15016   0.546   3.120  13.485 -0.0644  0.0607 -0.2723
 1186SOL    HW115017   0.478   3.186  13.502  0.4274  0.6941 -0.7703
 1186SOL    HW215018   0.495   3.039  13.480 -0.6822  0.3848  0.6573
 1187SOL     OW15019   4.664   3.493  13.224  0.1628  0.5258 -0.4113
 1187SOL    HW115020   4.693   3.553  13.155  1.8088  0.8799  0.5934
 1187SOL    HW215021   4.599   3.542  13.274 -0.3767 -0.4208 -0.1696
 1188SOL     OW15022   0.374   2.208   7.035  0.1740 -0.0529  0.0901
 1188SOL    HW115023   0.333   2.177   7.115 -0.9028 -0.7884 -0.7350
 1188SOL    HW215024   0.453   2.155   7.023 -0.7752 -1.7143  1.2944
 1189SOL     OW15025   3.998   2.459  12.056 -0.4656 -0.5311  0.0615
 1189SOL    HW115026   4.034   2.398  11.991 -0.2067 -0.4114  0.0937
 1189SOL    HW215027   3.996   2.540  12.005 -1.1971 -1.5297 -1.4970
 1190SOL     OW15028   0.985   2.824   4.980  0.1354 -0.5931  0.2639
 1190SOL    HW115029   0.921   2.886   5.014  0.2734 -2.4311  3.8598
 1190SOL    HW215030   1.068   2.872   4.981 -0.8960  1.2092 -0.8747
 1191SOL     OW15031   1.682   4.357   8.691 -0.4506  0.2641  0.1269
 1191SOL    HW115032   1.723   4.294   8.632  0.2203  0.9754 -0.1708
 1191SOL    HW215033   1.700   4.320   8.777  0.5498 -0.1623 -0.2704
 1192SOL     OW15034   2.822   0.327   7.907 -0.2048 -0.2471  0.0936
 1192SOL    HW115035   2.758   0.353   7.841  1.4463  1.2116 -0.9281
 1192SOL    HW215036   2.906   0.330   7.860  0.3431  0.4705  1.1183
 1193SOL     OW15037   1.490   0.017  17.388 -0.6013 -0.0070  0.3816
 1193SOL    HW115038   1.438   4.695  17.323  1.4989 -1.8572  0.0610
 1193SOL    HW215039   1.503   0.097  17.337 -0.3667  0.0719  0.5652
 1194SOL     OW15040   0.649   4.135   6.286  0.0417  0.5977 -1.0155
 1194SOL    HW115041   0.731   4.163   6.245 -0.0093  0.7993 -0.9813
 1194SOL    HW215042   0.604   4.098   6.210  0.6084 -2.3341  0.0710
 1195SOL     OW15043   2.794   2.627   0.011 -0.6364 -0.2912 -0.3303
 1195SOL    HW115044   2.861   2.571  17.675  0.3519  2.9216 -3.1532
 1195SOL    HW215045   2.769   2.571   0.085 -2.4096  1.7923  0.6619
 1196SOL     OW15046   2.550   2.915   9.490 -0.2714  0.6431 -0.1225
 1196SOL    HW115047   2.562   2.979   9.420 -1.6035  0.7734 -0.2263
 1196SOL    HW215048   2.609   2.843   9.468 -1.2165 -0.2197  0.1711
 1197SOL     OW15049   0.131   2.051   8.538  0.1766 -0.3039 -0.0619
 1197SOL    HW115050   0.169   1.978   8.491  1.8962  2.2304 -2.6190
 1197SOL    HW215051   0.141   2.122   8.474 -0.8846 -1.2854 -1.2934
 1198SOL     OW15052   3.726   0.750  12.008 -0.4663  0.6606  0.3977
 1198SOL    HW115053   3.802   0.703  11.973 -2.4093 -1.6171 -0.7549
 1198SOL    HW215054   3.677   0.769  11.929 -0.2868 -1.2490 -0.1563
 1199SOL     OW15055   2.662   0.873   5.048  0.3259 -1.0753  0.6393
 1199SOL    HW115056   2.613   0.824   5.114  0.7929 -0.0498  1.7547
 1199SOL    HW215057   2.754   0.852   5.064 -0.0487 -3.5578 -0.5613
 1200SOL     OW15058   3.942   2.040   2.078  0.5662 -0.3006 -0.7325
 1200SOL    HW115059   3.899   1.959   2.051  0.7895 -1.2434  1.7895
 1200SOL    HW215060   4.019   2.045   2.020 -0.0902 -0.0737 -1.5791
 1201SOL     OW15061   2.292   2.652   7.564  0.2914 -0.1061  0.4434
 1201SOL    HW115062   2.339   2.691   7.638 -1.7485 -0.4016  1.8897
 1201SOL    HW215063   2.212   2.703   7.574  1.0001  0.4499  3.4664
 1202SOL     OW15064   0.310   0.762   4.380  0.3469 -0.1551 -0.4980
 1202SOL    HW115065   0.265   0.706   4.442  0.8962 -0.8011 -0.6848
 1202SOL    HW215066   0.287   0.852   4.404 -0.3059 -0.2753 -0.6888
 1203SOL     OW15067   1.869   3.183  11.990 -0.3421 -0.2813  0.0921
 1203SOL    HW115068   1.809   3.258  11.986 -0.2635 -0.1170  2.1214
 1203SOL    HW215069   1.796   3.126  11.968 -0.1456 -0.1311 -0.9447
 1204SOL     OW15070   3.615   3.641  17.464  0.5117  0.4047 -0.1658
 1204SOL    HW115071   3.636   3.549  17.451 -0.1251  0.2300  0.0531
 1204SOL    HW215072   3.654   3.669  17.547 -1.9526  0.2934  1.0196
 1205SOL     OW15073   0.877   3.397   4.173 -0.3265 -0.2700 -0.0819
 1205SOL    HW115074   0.849   3.443   4.094 -2.4807  1.0960  1.4695
 1205SOL    HW215075   0.820   3.427   4.244 -0.7324 -0.4822 -0.3213
 1206SOL     OW15076   2.946   0.571   5.264  0.4031  0.7721 -0.2312
 1206SOL    HW115077   2.935   0.617   5.181 -0.5007 -1.5694 -1.4054
 1206SOL    HW215078   2.853   0.570   5.286 -0.0221 -0.4585 -2.0454
 1207SOL     OW15079   0.360   4.268  14.448 -0.1430 -0.3408  0.0568
 1207SOL    HW115080   0.280   4.261  14.397  0.8028  2.9850 -1.8385
 1207SOL    HW215081   0.399   4.349  14.416 -0.6767  0.8265  2.3369
 1208SOL     OW15082   1.157   4.724   4.586 -0.3799  0.4731  0.2888
 1208SOL    HW115083   1.078   0.045   4.560 -1.5668 -1.3617  0.6365
 1208SOL    HW215084   1.120   4.636   4.591  1.5662 -0.3201  0.9013
 1209SOL     OW15085   0.334   3.416  17.399 -0.0448  0.2337  0.0933
 1209SOL    HW115086   0.309   3.349  17.335  2.9586 -1.4681  0.6878
 1209SOL    HW215087   0.316   3.495  17.349  0.3336  0.5421  0.4435
 1210SOL     OW15088   0.426   2.278  10.928 -0.2047 -0.8934  0.6735
 1210SOL    HW115089   0.370   2.335  10.876 -1.0609 -3.1449 -0.8743
 1210SOL    HW215090   0.452   2.212  10.863  0.4111 -1.4417  1.4726
 1211SOL     OW15091   2.977   0.574  10.018 -0.3960  0.1479  0.1617
 1211SOL    HW115092   2.992   0.615  10.103  0.5826 -0.9742  0.5295
 1211SOL    HW215093   3.031   0.494  10.021 -0.2017  0.2708 -0.0793
 1212SOL     OW15094   2.878   4.625  17.069  0.5546 -0.6280  0.1501
 1212SOL    HW115095   2.828   4.554  17.028 -0.4021  0.8810 -1.2822
 1212SOL    HW215096   2.841   4.697  17.018  0.6728  0.1319  1.1561
 1213SOL     OW15097   1.042   4.525  17.587  0.0957 -0.2353  0.3125
 1213SOL    HW115098   1.120   4.559  17.542 -1.9998  1.5849 -1.9118
 1213SOL    HW215099   0.973   4.586  17.561 -1.4108 -2.3872 -0.6808
 1214SOL     OW15100   1.797   0.889   8.890  0.1377 -0.1313  0.4420
 1214SOL    HW115101   1.834   0.943   8.960 -3.3422 -0.4444  2.5417
 1214SOL    HW215102   1.814   0.802   8.926 -0.6317 -1.2229 -1.8838
 1215SOL     OW15103   1.403   1.222   7.267 -0.0319  0.6644  0.6737
 1215SOL    HW115104   1.409   1.173   7.185 -0.0002  2.2355 -0.2664
 1215SOL    HW215105   1.308   1.228   7.269 -0.1341 -0.4043 -0.3915
 1216SOL     OW15106   0.663   2.605  14.545  0.0463 -0.0071 -0.7312
 1216SOL    HW115107   0.588   2.658  14.518 -1.5088 -1.3811  0.8675
 1216SOL    HW215108   0.722   2.653  14.487  0.8656 -0.1521 -0.0061
 1217SOL     OW15109   2.493   0.204   3.432 -0.1694 -0.2751  0.0861
 1217SOL    HW115110   2.483   0.294   3.462  2.0321 -0.0362  0.0795
 1217SOL    HW215111   2.549   0.168   3.501  0.6976  0.2217 -0.3607
 1218SOL     OW15112   4.521   4.046   4.232  0.4241  0.0479 -0.2686
 1218SOL    HW115113   4.428   4.068   4.238  0.6613  1.1381 -0.5693
 1218SOL    HW215114   4.520   3.968   4.288 -2.9948  0.7854  0.7328
 1219SOL     OW15115   4.348   1.782   7.976  0.4436 -0.0213  0.1462
 1219SOL    HW115116   4.308   1.866   7.954  0.5113 -0.2058 -0.6874
 1219SOL    HW215117   4.438   1.810   7.991  0.5220  0.1224 -0.6060
 1220SOL     OW15118   4.644   0.518   2.518  0.0281  0.2010 -0.3604
 1220SOL    HW115119   4.569   0.458   2.517  1.2867 -1.3544 -0.6722
 1220SOL    HW215120   4.600   0.591   2.473 -0.1649 -0.2439 -0.8868
 1221SOL     OW15121   3.992   1.674   1.966 -0.2402  0.0142 -0.0707
 1221SOL    HW115122   3.946   1.757   1.952 -0.4461 -0.2603 -1.0189
 1221SOL    HW215123   3.915   1.619   1.953 -0.3968  0.7480 -2.2944
 1222SOL     OW15124   4.493   1.096   7.825  0.4197 -0.0512  0.2939
 1222SOL    HW115125   4.423   1.150   7.788  1.0482  0.3014 -0.3771
 1222SOL    HW215126   4.459   1.093   7.914  1.6974  0.1035  0.7785
 1223SOL     OW15127   1.354   2.940  15.008 -0.0212 -0.5843 -0.2031
 1223SOL    HW115128   1.264   2.911  14.994  0.8828 -3.0519 -1.0504
 1223SOL    HW215129   1.387   2.931  14.918  1.1797  0.2543  0.1622
 1224SOL     OW15130   3.576   2.152   4.162 -0.1790  0.0330  0.0562
 1224SOL    HW115131   3.514   2.080   4.174  0.9953 -0.8525  0.8696
 1224SOL    HW215132   3.657   2.114   4.199 -0.6809 -1.6340 -0.5350
 1225SOL     OW15133   0.837   1.995   3.123 -0.4136  0.2923 -0.6997
 1225SOL    HW115134   0.904   2.053   3.158  1.2937 -0.0968 -3.3197
 1225SOL    HW215135   0.890   1.932   3.074  0.5422  1.2100 -0.8439
 1226SOL     OW15136   0.013   3.597  13.837 -0.1529 -0.5280 -0.7277
 1226SOL    HW115137   4.706   3.610  13.926 -0.1581  1.8443 -1.0941
 1226SOL    HW215138   0.045   3.683  13.811 -2.2538  0.0418 -1.4724
 1227SOL     OW15139   0.020   0.356   3.344 -0.1452  0.1633  0.3850
 1227SOL    HW115140   4.712   0.359   3.433  1.2170 -2.1054  0.9685
 1227SOL    HW215141   4.669   0.339   3.288  0.5288 -0.1055 -0.4651
 1228SOL     OW15142   1.569   4.269   0.774  0.1918 -0.4401 -0.0148
 1228SOL    HW115143   1.637   4.331   0.800  0.4185 -1.0035  0.7601
 1228SOL    HW215144   1.567   4.277   0.679 -0.0018  0.4219  0.0640
 1229SOL     OW15145   2.955   2.230   2.709 -0.6888 -0.0551 -0.4989
 1229SOL    HW115146   3.047   2.230   2.683 -0.4749 -0.4424  0.2715
 1229SOL    HW215147   2.940   2.324   2.705 -1.0910 -0.1503 -1.2588
 1230SOL     OW15148   4.548   2.871   2.992  0.1560 -0.1346 -0.1438
 1230SOL    HW115149   4.457   2.888   2.968  0.7022  0.8984 -1.4653
 1230SOL    HW215150   4.567   2.801   2.929 -1.7008 -0.3644 -0.4287
 1231SOL     OW15151   0.471   4.220   5.102 -0.0002  0.6983 -0.7349
 1231SOL    HW115152   0.542   4.225   5.165 -1.5186 -0.8508  1.1065
 1231SOL    HW215153   0.401   4.278   5.134 -2.3838 -2.2612 -0.5704
 1232SOL     OW15154   3.546   0.003   8.946 -0.2325 -0.6840 -0.4543
 1232SOL    HW115155   3.605   4.711   8.873 -1.4032 -0.4320 -1.4516
 1232SOL    HW215156   3.457   4.715   8.912 -0.4450 -0.8730  0.1739
 1233SOL     OW15157   4.667   0.413   8.836  0.3679 -0.5152 -0.3499
 1233SOL    HW115158   0.010   0.444   8.778 -0.6047 -1.1399 -1.8451
 1233SOL    HW215159   4.694   0.321   8.836 -2.2770 -1.3094 -0.7515
 1234SOL     OW15160   1.843   2.632   2.954  0.1577 -0.2878  0.3174
 1234SOL    HW115161   1.875   2.680   2.877  1.0366 -3.0930 -1.0757
 1234SOL    HW215162   1.867   2.540   2.937  0.3217 -0.1773 -0.0558
 1235SOL     OW15163   0.367   3.555   5.589  0.3752 -0.0962 -0.4052
 1235SOL    HW115164   0.435   3.600   5.539  2.3732 -4.2028 -1.3699
 1235SOL    HW215165   0.324   3.490   5.533  0.2417 -0.8728  0.5893
 1236SOL     OW15166   1.532   2.411   9.696  0.0385 -0.3622 -0.0955
 1236SOL    HW115167   1.513   2.324   9.731 -1.2182  1.1066  2.9427
 1236SOL    HW215168   1.474   2.404   9.620  0.4040 -1.0302 -0.3110
 1237SOL     OW15169   2.832   3.689   4.365  0.1041 -0.2492 -0.3715
 1237SOL    HW115170   2.837   3.770   4.315  0.1554 -0.1793 -0.2543
 1237SOL    HW215171   2.746   3.655   4.341  1.1932 -3.6206  0.5605
 1238SOL     OW15172   1.545   2.810   9.476  0.2606 -0.2598 -0.4373
 1238SOL    HW115173   1.452   2.834   9.474  0.3614  0.1373 -0.3326
 1238SOL    HW215174   1.537   2.730   9.424  2.7752 -2.5412  2.7117
 1239SOL     OW15175   4.232   3.380   3.260  0.3311  0.0402 -0.5572
 1239SOL    HW115176   4.299   3.400   3.195  1.7973 -1.3961  0.5102
 1239SOL    HW215177   4.172   3.449   3.231  0.5485  0.7930  0.7845
 1240SOL     OW15178   3.096   2.220   9.591  0.5533  0.1638  0.8610
 1240SOL    HW115179   3.126   2.310   9.576  1.0806 -0.4534 -1.6714
 1240SOL    HW215180   3.166   2.191   9.651  1.4261 -1.0114 -0.7358
 1241SOL     OW15181   3.631   2.239   8.111  1.0337  0.0360  1.0019
 1241SOL    HW115182   3.535   2.241   8.110  1.0571  1.2516  1.0005
 1241SOL    HW215183   3.648   2.236   8.205  0.6639  0.2753  1.0763
 1242SOL     OW15184   1.243   2.373  16.159  0.2617  0.0298  0.1761
 1242SOL    HW115185   1.174   2.346  16.219  0.2523 -0.1823  0.0719
 1242SOL    HW215186   1.214   2.345  16.072 -0.1705 -1.7725  0.8856
 1243SOL     OW15187   3.692   3.140  15.832  0.1472 -0.4673 -0.0596
 1243SOL    HW115188   3.626   3.134  15.901  0.6532  1.7308  0.5973
 1243SOL    HW215189   3.769   3.103  15.875  0.0740  0.4451  0.8628
 1244SOL     OW15190   1.398   2.265  12.673  0.5756  0.2358  0.0400
 1244SOL    HW115191   1.415   2.171  12.681 -1.7868 -0.2604 -0.6996
 1244SOL    HW215192   1.486   2.288  12.642  0.2674  1.8345  0.3470
 1245SOL     OW15193   3.155   4.209   3.017  0.5552  0.3216  0.0549
 1245SOL    HW115194   3.152   4.117   3.042 -1.0211  1.1020  2.6675
 1245SOL    HW215195   3.062   4.229   3.012  0.7903  1.5367  0.6469
 1246SOL     OW15196   1.316   2.079  12.929 -0.1533 -0.1768 -0.0222
 1246SOL    HW115197   1.400   2.108  12.893  0.2970 -1.3354  0.0921
 1246SOL    HW215198   1.264   2.077  12.848  0.3501 -1.2124 -0.3218
 1247SOL     OW15199   0.383   0.179   4.266 -0.5200  0.1509  0.4382
 1247SOL    HW115200   0.434   0.222   4.335  0.6262 -1.0681  0.3455
 1247SOL    HW215201   0.436   0.104   4.239 -1.5274 -0.6862  0.7352
 1248SOL     OW15202   0.059   4.454   2.971 -0.0438 -0.0781 -0.2923
 1248SOL    HW115203   0.151   4.477   2.979 -0.2222  1.0067 -1.2468
 1248SOL    HW215204   0.046   4.399   3.048  1.1679 -0.1796 -0.1622
 1249SOL     OW15205   4.412   0.892  11.679  0.3424  0.5450 -0.1596
 1249SOL    HW115206   4.501   0.896  11.713 -0.6202  1.8698  2.1677
 1249SOL    HW215207   4.398   0.981  11.647  2.9293  1.3951  1.1248
 1250SOL     OW15208   0.499   0.347   5.508  0.3643 -0.2336  0.6998
 1250SOL    HW115209   0.559   0.417   5.480 -1.4519  0.9856 -0.1447
 1250SOL    HW215210   0.502   0.379   5.598 -1.1381 -0.7903  0.9355
 1251SOL     OW15211   4.005   2.660   5.889  0.1229  0.2989  0.2768
 1251SOL    HW115212   4.028   2.570   5.867 -3.7092 -0.7588  0.5976
 1251SOL    HW215213   4.078   2.707   5.848  0.4517 -2.6534 -2.5725
 1252SOL     OW15214   1.960   4.415   4.230 -0.0742 -0.6033 -0.2727
 1252SOL    HW115215   1.877   4.404   4.276  0.6238 -3.0672  0.4182
 1252SOL    HW215216   1.933   4.412   4.138 -1.1861 -0.3125  0.0396
 1253SOL     OW15217   3.039   2.480   0.256  0.1165 -0.3753  0.1444
 1253SOL    HW115218   3.033   2.446   0.345  1.2257 -0.4812  0.1850
 1253SOL    HW215219   2.945   2.492   0.244  0.1500 -1.4361 -1.2032
 1254SOL     OW15220   4.410   0.453  11.935  0.2672 -0.0590 -0.8458
 1254SOL    HW115221   4.416   0.502  12.017  2.0501 -0.8524 -0.5076
 1254SOL    HW215222   4.460   0.375  11.959 -2.7394 -0.9223  2.6414
 1255SOL     OW15223   0.669   4.286   5.294 -0.3289  0.2705 -0.9450
 1255SOL    HW115224   0.757   4.309   5.264 -0.7517  1.7553 -1.0641
 1255SOL    HW215225   0.687   4.216   5.357 -2.1553  1.6154  1.1130
 1256SOL     OW15226   0.211   3.281   1.549 -0.1515 -0.4511 -0.3401
 1256SOL    HW115227   0.181   3.340   1.481 -0.8362  0.0482  0.4012
 1256SOL    HW215228   0.141   3.217   1.542  1.0231 -1.7590 -0.2627
 1257SOL     OW15229   0.764   4.560   2.769 -0.0686 -0.4994  0.1143
 1257SOL    HW115230   0.677   4.581   2.736  0.6553 -0.0825 -1.5727
 1257SOL    HW215231   0.769   4.465   2.774 -2.2955 -0.7336 -2.5593
 1258SOL     OW15232   1.345   3.753   5.050  0.2658  0.3970  0.5860
 1258SOL    HW115233   1.313   3.843   5.042  0.1816  0.4694  1.7705
 1258SOL    HW215234   1.403   3.759   5.126 -1.0985 -2.6501  1.8439
 1259SOL     OW15235   3.400   0.489  10.532 -0.2547  0.1552 -0.0780
 1259SOL    HW115236   3.479   0.439  10.551  0.6779  2.0735  1.1147
 1259SOL    HW215237   3.412   0.540  10.612 -0.8287 -0.5199  0.4473
 1260SOL     OW15238   1.136   4.254   5.333 -0.2499  0.2362 -0.1698
 1260SOL    HW115239   1.103   4.220   5.250 -0.2513 -2.7702  1.0381
 1260SOL    HW215240   1.188   4.327   5.301  0.3174 -0.6136 -1.1569
 1261SOL     OW15241   1.764   4.175   8.208 -0.0436 -0.1638 -0.3232
 1261SOL    HW115242   1.688   4.137   8.163  0.2818 -2.2028  0.8482
 1261SOL    HW215243   1.807   4.202   8.127  2.5040 -1.6145  0.5654
 1262SOL     OW15244   2.817   3.301   6.840  0.2502 -0.0440  0.2922
 1262SOL    HW115245   2.751   3.232   6.846  1.0875 -0.7747  1.1844
 1262SOL    HW215246   2.758   3.361   6.795  1.0641 -0.0211 -0.7452
 1263SOL     OW15247   0.444   3.119   2.890  0.2415 -0.3685 -0.2913
 1263SOL    HW115248   0.479   3.134   2.803 -1.1973 -0.2143 -0.8489
 1263SOL    HW215249   0.483   3.039   2.925 -0.5397 -0.7086 -0.1812
 1264SOL     OW15250   1.597   3.492   3.741 -0.2321 -0.0857  0.0377
 1264SOL    HW115251   1.607   3.582   3.771 -2.4893  0.5833 -1.2525
 1264SOL    HW215252   1.637   3.432   3.804  1.6909  2.8055  1.5335
 1265SOL     OW15253   0.275   1.344   2.715 -0.6406  0.3046  0.1946
 1265SOL    HW115254   0.343   1.393   2.762 -0.2030 -0.6355  0.5271
 1265SOL    HW215255   0.323   1.342   2.632 -0.0516 -1.2283  0.5800
 1266SOL     OW15256   1.697   4.066   2.289  0.5648 -0.0483  0.0820
 1266SOL    HW115257   1.659   3.992   2.335  2.4552 -0.8153  0.4186
 1266SOL    HW215258   1.727   4.028   2.206  0.0637  0.9599 -0.5641
 1267SOL     OW15259   1.417   1.226   7.588  0.1858 -0.1163 -0.0244
 1267SOL    HW115260   1.405   1.139   7.550  0.6741 -0.2592  0.1580
 1267SOL    HW215261   1.327   1.242   7.615  0.2959 -0.2294  0.4034
 1268SOL     OW15262   1.604   1.076  11.358  0.4166 -0.5330 -0.0987
 1268SOL    HW115263   1.625   1.086  11.265 -2.7346 -2.4856 -1.0199
 1268SOL    HW215264   1.659   1.138  11.406  0.0566 -0.6743  0.5022
 1269SOL     OW15265   4.097   2.738   1.256  0.3801 -0.5751  0.7731
 1269SOL    HW115266   4.172   2.697   1.214  1.3941  0.2261  1.7880
 1269SOL    HW215267   4.126   2.829   1.257  0.5262 -0.6573  3.9150
 1270SOL     OW15268   1.973   4.119   1.278  0.6763  0.2293  0.7411
 1270SOL    HW115269   2.010   4.032   1.263 -0.3714 -0.0842 -0.0470
 1270SOL    HW215270   1.888   4.108   1.234  0.7490  1.5550  0.2609
 1271SOL     OW15271   0.062   0.764   7.237  0.2829  0.3307  0.0103
 1271SOL    HW115272   0.121   0.703   7.193 -0.9213 -0.3511 -0.6734
 1271SOL    HW215273   0.128   0.818   7.281  1.8395 -1.9110  0.4467
 1272SOL     OW15274   2.542   2.830   3.818 -0.0624 -0.1016 -0.1681
 1272SOL    HW115275   2.469   2.815   3.878  0.2640  1.8769  0.7320
 1272SOL    HW215276   2.604   2.871   3.878 -0.4035 -1.9732  1.4839
 1273SOL     OW15277   0.047   3.577   4.660 -0.1498 -0.2995 -0.4479
 1273SOL    HW115278   0.057   3.483   4.642  2.2782 -0.1846  0.2690
 1273SOL    HW215279   0.119   3.606   4.602  1.4116 -1.1286  1.0719
 1274SOL     OW15280   2.770   3.797   0.725  0.4345 -0.1490 -0.3053
 1274SOL    HW115281   2.739   3.708   0.709  0.3307 -0.0168 -0.8480
 1274SOL    HW215282   2.845   3.772   0.779 -0.5950 -0.5179  0.9468
 1275SOL     OW15283   2.336   3.167   6.073  0.3611  0.7110 -0.2829
 1275SOL    HW115284   2.410   3.120   6.110 -2.1039 -2.0092  1.2708
 1275SOL    HW215285   2.343   3.133   5.984 -0.6641 -0.6689  0.1589
 1276SOL     OW15286   1.863   1.759   5.387 -0.0602 -0.2572  0.3126
 1276SOL    HW115287   1.883   1.794   5.474 -1.4486 -0.3561  0.6791
 1276SOL    HW215288   1.868   1.843   5.342 -2.2166  0.2999  1.0882
 1277SOL     OW15289   0.612   2.661  15.875  0.4948 -0.0440  0.4593
 1277SOL    HW115290   0.585   2.752  15.885  2.8085  0.7860 -0.8239
 1277SOL    HW215291   0.643   2.652  15.785 -2.1569 -1.3823 -0.3186
 1278SOL     OW15292   1.638   1.014   3.815 -0.3105  0.2999  1.2045
 1278SOL    HW115293   1.597   1.093   3.778  2.6490  1.1070 -0.2927
 1278SOL    HW215294   1.676   0.973   3.738 -2.7620  1.9511 -0.9042
 1279SOL     OW15295   3.459   0.915   8.628  0.0251 -0.6390  0.0137
 1279SOL    HW115296   3.515   0.990   8.649  0.1701 -0.6529 -0.3241
 1279SOL    HW215297   3.447   0.874   8.714  0.1359 -1.8317 -0.5372
 1280SOL     OW15298   1.033   1.813   6.240 -0.0634  0.0678 -0.2628
 1280SOL    HW115299   1.093   1.887   6.252 -1.0580  0.7054  0.7785
 1280SOL    HW215300   1.041   1.810   6.144 -0.5012 -0.0931 -0.2904
 1281SOL     OW15301   1.149   3.053   6.435  0.4693  0.2725  0.1425
 1281SOL    HW115302   1.123   3.138   6.401  1.1180 -0.4334 -2.2020
 1281SOL    HW215303   1.236   3.076   6.468  0.8612 -0.0339 -0.6644
 1282SOL     OW15304   4.642   1.403   2.438 -0.5792 -0.4444  0.1522
 1282SOL    HW115305   4.697   1.454   2.497 -1.7554  2.2639 -1.0912
 1282SOL    HW215306   4.577   1.472   2.423 -1.9417 -1.4675  1.2224
 1283SOL     OW15307   4.638   0.516   8.250  0.2139  0.2275 -0.0560
 1283SOL    HW115308   4.564   0.521   8.310  0.8385  0.3126  0.7231
 1283SOL    HW215309   4.594   0.492   8.169 -0.5225 -0.4839  0.5620
 1284SOL     OW15310   3.423   4.276   3.041 -0.4632 -0.6576  0.8777
 1284SOL    HW115311   3.427   4.322   3.125 -1.5933  1.2006 -0.0704
 1284SOL    HW215312   3.328   4.262   3.044 -0.7194  0.8012 -0.9312
 1285SOL     OW15313   4.645   3.329   5.903 -0.2856  0.2178 -0.1274
 1285SOL    HW115314   4.674   3.319   5.813  1.7776  2.1210  0.3288
 1285SOL    HW215315   4.679   3.413   5.934  0.9529 -0.8081  1.3222
 1286SOL     OW15316   4.191   4.495   2.930  0.2101 -0.8656 -0.0231
 1286SOL    HW115317   4.206   4.554   2.857 -1.2035  0.3116  0.6354
 1286SOL    HW215318   4.096   4.491   2.940  0.1811  0.5368  0.2804
 1287SOL     OW15319   2.779   2.006   7.525 -0.0786 -0.2950  0.5160
 1287SOL    HW115320   2.702   1.970   7.481  0.5909  0.2909 -1.1311
 1287SOL    HW215321   2.802   1.933   7.583 -0.4058 -0.5902  0.2705
 1288SOL     OW15322   1.758   2.834   6.377  0.6535 -0.4036  0.1950
 1288SOL    HW115323   1.785   2.914   6.333 -2.2000  0.3873 -0.1521
 1288SOL    HW215324   1.843   2.810   6.413  1.5860 -0.5323 -2.1110
 1289SOL     OW15325   1.851   2.282   6.717 -0.5431 -0.4021  0.2523
 1289SOL    HW115326   1.831   2.237   6.635  1.6210 -0.5614 -0.2090
 1289SOL    HW215327   1.843   2.202   6.769 -2.9402  0.3695  1.0454
 1290SOL     OW15328   2.070   0.684   6.666 -0.1068  0.2086  0.0472
 1290SOL    HW115329   2.044   0.770   6.699 -0.7150  0.1264 -0.2370
 1290SOL    HW215330   2.161   0.705   6.643 -0.7055  0.0517 -2.4259
 1291SOL     OW15331   2.101   4.249  14.270 -0.5850 -0.1939  0.0779
 1291SOL    HW115332   2.010   4.264  14.244 -0.7902  0.6965  1.2711
 1291SOL    HW215333   2.148   4.218  14.194  0.2706 -0.5479  0.7508
 1292SOL     OW15334   4.017   2.799   9.008 -0.0475  0.5073 -0.2030
 1292SOL    HW115335   4.082   2.804   9.078  1.1754  1.8427 -1.4451
 1292SOL    HW215336   4.046   2.866   8.946 -1.2899  2.3252  1.1907
 1293SOL     OW15337   0.717   1.568  14.413  0.2327  0.1865 -0.3175
 1293SOL    HW115338   0.706   1.572  14.319  0.0137  2.3143 -0.1846
 1293SOL    HW215339   0.793   1.626  14.413  0.8050 -0.5656 -2.7269
 1294SOL     OW15340   0.619   2.893   7.581 -0.4896 -0.2953  0.1189
 1294SOL    HW115341   0.558   2.888   7.508 -0.7065 -0.8214  0.3330
 1294SOL    HW215342   0.682   2.822   7.565 -0.8054 -0.4501 -0.4175
 1295SOL     OW15343   0.171   1.891   3.795  0.5091 -0.2322  0.1383
 1295SOL    HW115344   0.204   1.943   3.721 -1.0820  1.1202  0.3762
 1295SOL    HW215345   0.080   1.922   3.797 -0.3059 -2.5992 -0.7484
 1296SOL     OW15346   1.353   2.502   2.544  0.1631 -0.3746  0.1950
 1296SOL    HW115347   1.282   2.554   2.506 -0.7561 -0.8483  1.2439
 1296SOL    HW215348   1.424   2.515   2.481 -0.4893 -2.8604 -1.0684
 1297SOL     OW15349   3.402   0.428   1.475 -0.5367  0.0684 -0.1050
 1297SOL    HW115350   3.477   0.403   1.528 -0.0072 -0.0421 -0.9011
 1297SOL    HW215351   3.339   0.414   1.546 -0.7867 -1.5152 -0.6411
 1298SOL     OW15352   3.968   2.949   3.366 -0.4535 -0.0040  0.2010
 1298SOL    HW115353   4.021   3.027   3.347  1.1275 -0.9454  0.7465
 1298SOL    HW215354   4.002   2.914   3.448  2.6149  0.4649 -0.8801
 1299SOL     OW15355   1.620   1.697   5.698 -0.9296  0.3623  0.1487
 1299SOL    HW115356   1.586   1.735   5.780  0.1951 -1.5217  1.4977
 1299SOL    HW215357   1.635   1.608   5.730 -1.6958 -0.7018 -2.5270
 1300SOL     OW15358   4.493   2.177  14.520 -0.1225  0.2219  0.0701
 1300SOL    HW115359   4.564   2.128  14.479  0.7448  0.5918  1.1453
 1300SOL    HW215360   4.507   2.161  14.613 -0.4843  0.7385  0.2170
 1301SOL     OW15361   4.610   4.614   6.571 -0.3622 -0.5068  0.0007
 1301SOL    HW115362   4.604   4.534   6.622  0.5251 -0.7181 -0.2258
 1301SOL    HW215363   4.682   4.654   6.620  0.8559 -1.1918 -1.2178
 1302SOL     OW15364   4.027   0.201   6.596  0.2083 -0.5956 -0.2721
 1302SOL    HW115365   3.993   0.286   6.623 -0.4339 -0.5357 -1.2415
 1302SOL    HW215366   3.943   0.170   6.562  0.3225  1.6141 -2.6463
 1303SOL     OW15367   1.574   2.557   3.774 -0.1554 -0.0177  0.1464
 1303SOL    HW115368   1.615   2.639   3.749  3.6186 -2.1199 -0.6144
 1303SOL    HW215369   1.517   2.601   3.837 -0.3155  1.2480 -0.9022
 1304SOL     OW15370   1.145   0.277   7.457  0.1442 -0.2460  0.0582
 1304SOL    HW115371   1.156   0.293   7.363 -1.9453 -1.5340 -0.4188
 1304SOL    HW215372   1.209   0.208   7.476  2.0297  0.8451 -2.3677
 1305SOL     OW15373   2.295   3.469   3.922  0.0323  0.3873 -0.0374
 1305SOL    HW115374   2.284   3.399   3.858  1.7253  0.5517 -0.5018
 1305SOL    HW215375   2.323   3.420   4.000 -3.1095  0.3708  1.0957
 1306SOL     OW15376   4.467   3.635   9.318 -0.1883 -0.3973  0.1658
 1306SOL    HW115377   4.532   3.631   9.388 -1.4061 -2.2124  1.1793
 1306SOL    HW215378   4.421   3.552   9.311 -0.3588 -0.1027 -2.5111
 1307SOL     OW15379   0.922   3.167  11.625 -0.6887  0.7294  0.2493
 1307SOL    HW115380   0.983   3.237  11.603 -0.7828  0.7600  0.0913
 1307SOL    HW215381   0.982   3.104  11.666  1.6999  2.6127 -0.3546
 1308SOL     OW15382   3.828   0.031   2.892 -0.3022  0.1557 -0.2134
 1308SOL    HW115383   3.749   0.076   2.921 -0.1257 -0.6824  1.5693
 1308SOL    HW215384   3.864   0.096   2.831  1.0492  0.8000  1.2506
 1309SOL     OW15385   1.484   2.429  11.274  0.3834  0.7088 -0.3329
 1309SOL    HW115386   1.496   2.475  11.358 -0.8511  1.7529 -0.7146
 1309SOL    HW215387   1.548   2.358  11.280  0.5741  1.0151  1.3755
 1310SOL     OW15388   3.453   0.422   5.834  0.2056  0.3328  0.2613
 1310SOL    HW115389   3.372   0.378   5.860  0.7899 -0.4333  0.7809
 1310SOL    HW215390   3.433   0.491   5.771  1.0294  0.6347  0.3234
 1311SOL     OW15391   0.275   0.385   1.318 -0.8059  0.3138 -0.6114
 1311SOL    HW115392   0.336   0.386   1.392  0.2385 -2.1586 -1.4590
 1311SOL    HW215393   0.259   0.479   1.309  0.6158  0.6867  0.6587
 1312SOL     OW15394   1.031   2.224   2.811  0.0544 -0.0268  0.4452
 1312SOL    HW115395   1.008   2.160   2.744 -1.9464 -1.3127  2.3712
 1312SOL    HW215396   1.010   2.307   2.768  1.7506 -0.4955 -1.2872
 1313SOL     OW15397   1.537   3.135  15.216  0.7274 -0.0769  0.1741
 1313SOL    HW115398   1.510   3.148  15.307 -0.8631  0.9747 -0.4497
 1313SOL    HW215399   1.631   3.147  15.226  1.2366 -1.7710 -2.5795
 1314SOL     OW15400   3.464   2.491   5.706  0.5705  0.5571  0.1136
 1314SOL    HW115401   3.480   2.397   5.703  0.7564  0.6955 -2.6578
 1314SOL    HW215402   3.394   2.492   5.641  1.4657  0.2014 -0.8438
 1315SOL     OW15403   2.185   2.884  15.463  0.2026 -0.3486  0.0307
 1315SOL    HW115404   2.163   2.936  15.386 -0.0057 -1.3009 -0.5654
 1315SOL    HW215405   2.127   2.809  15.447 -0.6829  0.5264 -0.8311
 1316SOL     OW15406   1.338   1.520  15.574 -0.3576 -0.4095  0.3455
 1316SOL    HW115407   1.424   1.478  15.571 -0.0124  0.3924 -1.4356
 1316SOL    HW215408   1.286   1.472  15.509  0.1965  0.0534 -0.4462
 1317SOL     OW15409   0.933   2.207   5.528 -0.3780  0.5832  0.7798
 1317SOL    HW115410   0.980   2.179   5.450  0.1786  0.4866  1.1468
 1317SOL    HW215411   0.877   2.278   5.497 -0.5213  0.5170  0.8858
 1318SOL     OW15412   2.658   3.387   5.004  0.3143  0.3205 -0.0970
 1318SOL    HW115413   2.564   3.403   5.012 -0.0121 -0.9123 -1.4962
 1318SOL    HW215414   2.695   3.427   5.083 -2.1571 -1.1219  1.7820
 1319SOL     OW15415   4.371   2.691   8.386  0.3184  0.4084  1.1096
 1319SOL    HW115416   4.342   2.661   8.472  0.4521  1.6686  1.5865
 1319SOL    HW215417   4.399   2.780   8.407  1.3928  0.2904  0.1556
 1320SOL     OW15418   4.007   0.279   2.256 -0.2329 -0.2458  0.4787
 1320SOL    HW115419   3.980   0.371   2.246 -2.5235 -0.8643  0.8072
 1320SOL    HW215420   3.989   0.245   2.169 -0.2996  5.2488 -1.6689
 1321SOL     OW15421   0.339   3.108   0.701 -0.4583 -0.5538  0.1928
 1321SOL    HW115422   0.338   3.087   0.794  2.5023 -2.1487 -0.1203
 1321SOL    HW215423   0.310   3.199   0.699  0.2844 -0.3385 -0.5992
 1322SOL     OW15424   3.928   3.830   5.921  0.1250 -0.3299  0.9624
 1322SOL    HW115425   3.844   3.803   5.883 -0.8770  1.7366  1.7723
 1322SOL    HW215426   3.985   3.823   5.843 -1.6558  1.3774 -0.4783
 1323SOL     OW15427   1.879   2.664   0.721  0.9461 -0.1449  0.1420
 1323SOL    HW115428   1.927   2.698   0.645  0.4351  0.5292  0.1274
 1323SOL    HW215429   1.955   2.662   0.780 -0.5293 -1.6909  1.9740
 1324SOL     OW15430   3.076   0.039   0.418  0.1766 -0.4236  0.1274
 1324SOL    HW115431   3.040   4.676   0.423  3.3387 -1.8295 -1.8358
 1324SOL    HW215432   3.005   0.090   0.458  0.8638  1.0149 -0.4647
 1325SOL     OW15433   1.255   1.443   6.036  0.7736 -0.0733 -0.5045
 1325SOL    HW115434   1.210   1.396   5.966 -0.5043  0.6840 -0.1809
 1325SOL    HW215435   1.258   1.371   6.100  1.6066  0.3735 -0.0403
 1326SOL     OW15436   4.146   0.444   1.973 -0.3700 -0.6364 -0.1051
 1326SOL    HW115437   4.154   0.349   1.980 -0.1323 -0.5675  0.5421
 1326SOL    HW215438   4.227   0.470   1.929 -1.0415  0.0045 -0.9488
 1327SOL     OW15439   0.037   2.246   7.918 -0.0974 -0.2737  0.1738
 1327SOL    HW115440   0.060   2.154   7.904  0.3520  0.3382 -3.1597
 1327SOL    HW215441   0.026   2.250   8.013  0.3137  0.8214  0.1834
 1328SOL     OW15442   2.399   0.233   6.288  0.6864 -0.1636  0.0014
 1328SOL    HW115443   2.389   0.274   6.202  2.9215 -2.9445 -1.5745
 1328SOL    HW215444   2.437   0.148   6.267  2.6114  0.2615  1.7475
 1329SOL     OW15445   3.518   4.472   5.961 -0.3852 -0.4024  0.0764
 1329SOL    HW115446   3.495   4.390   5.917 -1.7000 -0.5378  1.0019
 1329SOL    HW215447   3.612   4.481   5.947 -0.4673  0.1598 -0.0799
 1330SOL     OW15448   1.785   1.991   5.842  0.6333  0.0223 -0.3014
 1330SOL    HW115449   1.828   1.908   5.821 -1.6556 -1.3756  0.5640
 1330SOL    HW215450   1.698   1.983   5.880  0.9031 -0.6277  0.1770
 1331SOL     OW15451   1.052   0.947   5.934  0.5326 -0.2051 -0.0772
 1331SOL    HW115452   0.986   1.017   5.931  0.3377 -0.4268 -0.9634
 1331SOL    HW215453   1.014   0.880   5.990 -0.2744 -0.4595 -0.9223
 1332SOL     OW15454   3.753   3.217  11.015  0.4542 -0.2688 -1.1727
 1332SOL    HW115455   3.843   3.244  11.034 -0.0921  0.3196  0.5774
 1332SOL    HW215456   3.730   3.269  10.937 -0.3163  0.6270 -0.3501
 1333SOL     OW15457   4.048   0.453   5.368 -0.1824  0.4017  0.0928
 1333SOL    HW115458   4.126   0.494   5.330 -1.6035  2.5744 -0.5168
 1333SOL    HW215459   4.061   0.462   5.462  0.8574  2.5336 -0.2468
 1334SOL     OW15460   0.217   1.420   6.221 -0.1090  0.0727 -0.0376
 1334SOL    HW115461   0.288   1.370   6.262  1.0483  2.6609  1.1097
 1334SOL    HW215462   0.236   1.421   6.127  1.4094  0.9924  0.2772
 1335SOL     OW15463   4.346   2.194   7.236 -0.0732 -0.5148  0.1242
 1335SOL    HW115464   4.345   2.278   7.189 -1.1486  0.3189  1.6329
 1335SOL    HW215465   4.395   2.145   7.171  0.8277  0.2656  0.2088
 1336SOL     OW15466   4.490   2.944   8.419  0.2245  0.9791 -0.2952
 1336SOL    HW115467   4.564   3.002   8.437  0.1386  1.0028 -0.0262
 1336SOL    HW215468   4.413   2.992   8.449  1.7738  1.8405  2.2795
 1337SOL     OW15469   1.056   0.177  10.437 -0.0775 -0.3306  0.9157
 1337SOL    HW115470   1.020   0.181  10.525  0.6113  1.7031  1.0820
 1337SOL    HW215471   1.053   0.268  10.408 -3.9390  0.0225  2.4233
 1338SOL     OW15472   1.154   0.802   4.317 -0.4051 -0.0155  0.5275
 1338SOL    HW115473   1.210   0.814   4.240 -0.8501 -0.0618  0.1968
 1338SOL    HW215474   1.068   0.826   4.284 -0.5003 -3.5952 -1.8729
 1339SOL     OW15475   4.306   2.338   4.141  0.5802 -0.3821  0.6510
 1339SOL    HW115476   4.213   2.317   4.155 -0.0971  0.6030 -2.3872
 1339SOL    HW215477   4.308   2.433   4.145  3.4432 -0.4844  1.3261
 1340SOL     OW15478   0.080   0.019   3.607  0.5632 -0.6444  0.9697
 1340SOL    HW115479   0.104   0.098   3.656 -0.1901  1.2728 -1.7884
 1340SOL    HW215480   4.713   0.034   3.587  0.7823 -0.2839  0.2560
 1341SOL     OW15481   1.234   1.582  17.319 -0.4213 -0.1455 -1.3173
 1341SOL    HW115482   1.310   1.641  17.322 -0.2272 -0.5125  0.6905
 1341SOL    HW215483   1.167   1.650  17.313 -0.7976 -0.3706  0.5657
 1342SOL     OW15484   1.319   3.743  14.553 -0.2096 -0.0137  0.0131
 1342SOL    HW115485   1.314   3.764  14.459 -0.1315 -0.1112 -0.0125
 1342SOL    HW215486   1.246   3.681  14.551  0.1394 -0.4278  0.2988
 1343SOL     OW15487   4.629   1.638   8.761  0.3700 -0.6146  0.0587
 1343SOL    HW115488   4.544   1.667   8.793  0.5351  0.3411 -0.3547
 1343SOL    HW215489   4.605   1.554   8.723 -1.0283 -0.3202  0.2883
 1344SOL     OW15490   0.777   0.021  14.514  0.3572 -0.2201  0.1372
 1344SOL    HW115491   0.838   0.042  14.584 -0.8948 -0.4633  1.2898
 1344SOL    HW215492   0.833   4.710  14.445  0.9610 -0.6188  0.8388
 1345SOL     OW15493   4.577   1.576   7.323 -0.0597  0.7038  0.2635
 1345SOL    HW115494   4.666   1.603   7.303 -0.2543  0.6260 -0.7142
 1345SOL    HW215495   4.570   1.494   7.275 -0.1305  1.0245 -0.2714
 1346SOL     OW15496   2.619   3.909   1.075  0.3113 -0.6202  0.0753
 1346SOL    HW115497   2.589   3.898   1.165  0.5328  2.1731  0.5068
 1346SOL    HW215498   2.599   3.822   1.043  0.6163 -0.2952 -1.0159
 1347SOL     OW15499   2.019   4.508   4.683 -0.5917  0.6888 -0.4294
 1347SOL    HW115500   1.950   4.547   4.629 -1.9419 -1.6605 -0.4197
 1347SOL    HW215501   2.061   4.585   4.723  0.0404 -0.8736  1.9303
 1348SOL     OW15502   1.030   4.385  14.000 -0.3960 -0.1821  0.0438
 1348SOL    HW115503   0.979   4.455  13.957  1.1390  0.5080 -0.6370
 1348SOL    HW215504   1.100   4.363  13.939  1.6071  3.0149  1.2067
 1349SOL     OW15505   4.588   1.258   6.902  0.1324 -0.0254 -0.8097
 1349SOL    HW115506   4.493   1.245   6.903  0.1785 -0.2655  0.1399
 1349SOL    HW215507   4.585   1.345   6.863  2.4321  0.8520  0.9613
 1350SOL     OW15508   0.297   1.838   6.412  0.0298 -0.1388 -0.2757
 1350SOL    HW115509   0.315   1.902   6.343  1.9419  1.0088  1.2798
 1350SOL    HW215510   0.381   1.794   6.401  0.1197  0.2513 -1.1734
 1351SOL     OW15511   3.206   3.038   6.975  0.4095 -0.2311  0.4642
 1351SOL    HW115512   3.130   3.033   6.917  0.1679 -2.4934  0.9738
 1351SOL    HW215513   3.191   3.124   7.012 -3.6285 -1.0575  0.7946
 1352SOL     OW15514   2.368   2.387  10.154 -0.7694  0.0655  0.6612
 1352SOL    HW115515   2.363   2.303  10.199  2.0188 -0.6384 -0.3243
 1352SOL    HW215516   2.305   2.443  10.200  0.4151  1.8423  0.1294
 1353SOL     OW15517   2.736   4.158   1.700  0.0550 -0.3740  0.1216
 1353SOL    HW115518   2.734   4.077   1.751  0.2615 -1.0782 -0.9787
 1353SOL    HW215519   2.647   4.159   1.665  0.4063  0.8789 -0.7176
 1354SOL     OW15520   2.533   1.518   5.473 -0.4176  0.3804 -0.2089
 1354SOL    HW115521   2.563   1.455   5.407  1.1585  0.4754  0.4239
 1354SOL    HW215522   2.523   1.602   5.429 -0.8851 -0.5539 -1.9016
 1355SOL     OW15523   0.922   2.340   4.718 -0.4138  0.3491 -0.1300
 1355SOL    HW115524   0.842   2.351   4.771 -0.9943  1.4817 -1.2568
 1355SOL    HW215525   0.975   2.416   4.742 -0.8588  0.4127  0.6843
 1356SOL     OW15526   1.230   3.099   4.417  0.0152 -0.2269 -0.5981
 1356SOL    HW115527   1.147   3.105   4.368  0.6650  2.2876 -1.4182
 1356SOL    HW215528   1.261   3.189   4.405 -0.7670 -0.1002 -1.7230
 1357SOL     OW15529   4.219   1.677  14.311 -0.1330 -0.2342 -0.5578
 1357SOL    HW115530   4.163   1.617  14.261  0.1227  0.3439 -1.5392
 1357SOL    HW215531   4.272   1.612  14.357 -0.4184  0.9771  1.4485
 1358SOL     OW15532   3.316   1.137   2.621  0.2237 -0.1511  0.0287
 1358SOL    HW115533   3.363   1.139   2.538 -1.8433 -0.7980 -1.1704
 1358SOL    HW215534   3.311   1.042   2.633  1.9152 -0.4124 -1.4586
 1359SOL     OW15535   3.209   0.958   4.408 -0.1280  0.6346  0.2009
 1359SOL    HW115536   3.121   0.930   4.434  0.6762 -1.5524  0.5640
 1359SOL    HW215537   3.227   0.912   4.326  0.0079  1.3987 -0.1951
 1360SOL     OW15538   4.483   2.730   5.361 -0.0303 -0.2373  0.3614
 1360SOL    HW115539   4.448   2.651   5.403 -1.1593 -0.0427 -0.2160
 1360SOL    HW215540   4.398   2.764   5.333  0.5106  1.7970  1.1617
 1361SOL     OW15541   1.255   0.216   3.510  0.2003  0.4437 -0.8196
 1361SOL    HW115542   1.172   0.179   3.480 -0.1224  0.4495  0.0557
 1361SOL    HW215543   1.217   0.270   3.580 -0.7690  0.1524 -1.1124
 1362SOL     OW15544   1.920   1.110   6.880 -0.0051  0.1606 -0.4719
 1362SOL    HW115545   1.828   1.110   6.856 -0.6889  0.0680  2.2505
 1362SOL    HW215546   1.913   1.155   6.964  0.9826  0.5919 -0.6140
 1363SOL     OW15547   4.061   0.233   8.855 -0.4635  0.2192  0.3218
 1363SOL    HW115548   4.069   0.146   8.895 -0.6054 -0.3947 -0.9761
 1363SOL    HW215549   4.105   0.284   8.923  2.1611 -2.7431  0.8796
 1364SOL     OW15550   3.117   1.588  14.758 -0.6893  0.4482  0.0525
 1364SOL    HW115551   3.098   1.509  14.808 -1.1022  1.5240  1.5814
 1364SOL    HW215552   3.204   1.560  14.728 -0.3273  0.5186  1.0439
 1365SOL     OW15553   3.339   1.950   6.277  0.2994 -0.1104 -0.2603
 1365SOL    HW115554   3.366   1.955   6.185 -0.5896 -3.6469 -0.7115
 1365SOL    HW215555   3.244   1.954   6.269  0.3094  0.1956 -0.2293
 1366SOL     OW15556   3.195   0.494  14.122  0.0051  0.3552  0.5594
 1366SOL    HW115557   3.195   0.411  14.170 -0.7504 -0.4809 -0.8723
 1366SOL    HW215558   3.121   0.488  14.062 -0.8704 -0.8139  1.7461
 1367SOL     OW15559   3.464   0.596   2.835 -0.0628  0.9899 -0.4900
 1367SOL    HW115560   3.388   0.542   2.813 -0.2779  1.6372 -1.3103
 1367SOL    HW215561   3.437   0.663   2.898 -2.0771 -0.2221 -0.0557
 1368SOL     OW15562   3.124   3.821  10.719 -0.1417 -0.0670 -0.0015
 1368SOL    HW115563   3.203   3.846  10.767  0.5119 -2.1169 -0.0292
 1368SOL    HW215564   3.152   3.809  10.629  0.7078 -2.8824  0.6612
 1369SOL     OW15565   4.594   3.704   2.657 -0.7543 -0.1997  0.3140
 1369SOL    HW115566   4.547   3.629   2.619 -1.1043  0.4417 -0.4954
 1369SOL    HW215567   4.653   3.649   2.709  1.0655 -1.6190 -3.2821
 1370SOL     OW15568   3.134   0.714  11.161 -0.3205  0.2186 -0.5782
 1370SOL    HW115569   3.179   0.638  11.199 -0.0942 -0.0868 -1.4646
 1370SOL    HW215570   3.207   0.775  11.168 -0.4051  0.1082  1.3991
 1371SOL     OW15571   1.571   3.729   4.079  0.0451  0.0956 -0.0393
 1371SOL    HW115572   1.616   3.644   4.083  0.5278  0.5326  3.6842
 1371SOL    HW215573   1.629   3.784   4.027 -1.6702  1.2968 -0.6631
 1372SOL     OW15574   0.591   3.828   7.868  0.0941  0.3456 -0.0710
 1372SOL    HW115575   0.498   3.844   7.850  0.0278 -0.5847 -0.5496
 1372SOL    HW215576   0.595   3.855   7.960  1.3255 -1.5095  0.4066
 1373SOL     OW15577   0.507   2.908  15.984 -0.1855 -0.0072  0.5064
 1373SOL    HW115578   0.513   2.946  16.071  0.7941  1.4546 -0.1968
 1373SOL    HW215579   0.412   2.902  15.969  0.2776  0.0183 -2.4752
 1374SOL     OW15580   2.812   0.265  16.666 -0.7992  0.8957 -0.4567
 1374SOL    HW115581   2.870   0.234  16.596 -1.6044  0.2539 -0.8398
 1374SOL    HW215582   2.740   0.204  16.649  0.7163 -1.5195  1.8265
 1375SOL     OW15583   3.473   1.375   7.496  0.0547  0.6304 -0.5474
 1375SOL    HW115584   3.542   1.405   7.438 -0.7406  1.3435 -1.1227
 1375SOL    HW215585   3.525   1.335   7.566  1.2937  1.7972 -0.8076
 1376SOL     OW15586   0.982   1.653   9.719  0.5975  0.7764 -0.0217
 1376SOL    HW115587   1.050   1.586   9.711 -0.8998 -0.8218  0.3995
 1376SOL    HW215588   0.907   1.597   9.697  1.2376 -0.3178  0.5991
 1377SOL     OW15589   2.756   1.793   6.780 -0.1117  0.5311  0.2740
 1377SOL    HW115590   2.701   1.839   6.842  0.1602  1.3125 -0.0615
 1377SOL    HW215591   2.699   1.756   6.713 -2.4870  2.0511  1.4865
 1378SOL     OW15592   2.411   1.201   1.387 -0.7862  0.3957 -0.5590
 1378SOL    HW115593   2.505   1.191   1.377 -1.0805 -0.4798 -2.3872
 1378SOL    HW215594   2.400   1.272   1.323  0.2906  0.3074 -0.8457
 1379SOL     OW15595   1.122   0.776   7.003 -0.0313  0.3732 -0.2227
 1379SOL    HW115596   1.057   0.828   7.051 -0.5159 -0.6901  0.2710
 1379SOL    HW215597   1.195   0.760   7.063 -0.9554  0.0290  0.8196
 1380SOL     OW15598   3.750   0.933   5.986 -0.6174 -0.2055 -0.2137
 1380SOL    HW115599   3.714   0.846   5.974 -0.5936 -0.2911  0.3224
 1380SOL    HW215600   3.712   0.986   5.916  0.9332  2.3074  0.8550
 1381SOL     OW15601   4.153   2.248   7.882  0.8988  0.7179 -0.1972
 1381SOL    HW115602   4.137   2.336   7.847 -0.5729  1.2931  1.9557
 1381SOL    HW215603   4.246   2.254   7.903  0.8303 -2.4195  1.0551
 1382SOL     OW15604   2.267   0.777   3.467 -0.4915  0.0718  0.4752
 1382SOL    HW115605   2.251   0.863   3.506 -2.6403  0.3312 -0.9550
 1382SOL    HW215606   2.284   0.728   3.548  4.0112 -1.8265 -1.6053
 1383SOL     OW15607   0.118   1.686   4.738  0.4065  0.5111 -0.0014
 1383SOL    HW115608   0.170   1.618   4.695 -0.8804 -1.1127  1.0046
 1383SOL    HW215609   0.174   1.761   4.720 -0.5081  1.6274  1.8901
 1384SOL     OW15610   3.608   3.658   0.167 -1.0355 -0.2328  0.4416
 1384SOL    HW115611   3.688   3.663   0.115 -2.1597  0.5085 -1.2476
 1384SOL    HW215612   3.573   3.575   0.133  0.2347 -0.3960 -0.4454
 1385SOL     OW15613   3.260   3.199  15.795  0.3245  0.4650 -0.2810
 1385SOL    HW115614   3.206   3.168  15.868  1.3090 -2.6239 -0.8323
 1385SOL    HW215615   3.334   3.239  15.841 -1.0007  3.7409 -1.0416
 1386SOL     OW15616   3.379   1.792   4.663 -0.6889  0.2692  0.2893
 1386SOL    HW115617   3.286   1.794   4.683 -0.2953  1.3388  2.1233
 1386SOL    HW215618   3.397   1.886   4.667 -2.0636  0.5523 -0.2305
 1387SOL     OW15619   0.421   4.345   4.098  0.1242  0.2803  0.0689
 1387SOL    HW115620   0.476   4.286   4.046  1.1717 -1.4033  3.0978
 1387SOL    HW215621   0.345   4.291   4.120  0.7624 -0.2380  0.9609
 1388SOL     OW15622   4.501   3.856  10.240 -0.6678 -0.4241  0.3027
 1388SOL    HW115623   4.590   3.891  10.240 -0.5410 -0.7353 -1.8156
 1388SOL    HW215624   4.511   3.804  10.160 -0.5683  0.1375 -0.0491
 1389SOL     OW15625   1.037   0.534   3.371 -0.4854 -0.8922 -0.4097
 1389SOL    HW115626   1.032   0.519   3.276  0.9903  1.9335 -0.9345
 1389SOL    HW215627   1.008   0.451   3.408 -0.1367 -0.4532  0.8416
 1390SOL     OW15628   2.969   1.097   4.769 -0.1633 -0.1379 -0.1346
 1390SOL    HW115629   2.949   1.122   4.679 -2.3781  1.6781  0.8768
 1390SOL    HW215630   2.913   1.020   4.780 -2.0927  1.3898  0.6054
 1391SOL     OW15631   1.130   3.481  14.510  0.9292  0.1042 -0.0804
 1391SOL    HW115632   1.171   3.448  14.430  1.2979  1.3952 -0.4178
 1391SOL    HW215633   1.041   3.452  14.487  1.8900 -3.3530  0.6582
 1392SOL     OW15634   2.296   1.790   4.652  0.3714 -0.7510 -0.0440
 1392SOL    HW115635   2.265   1.875   4.683  2.6211 -0.9277  2.7182
 1392SOL    HW215636   2.216   1.738   4.662 -1.4712  1.9302 -0.9822
 1393SOL     OW15637   1.421   3.530   4.928  0.1774  0.2613 -0.5088
 1393SOL    HW115638   1.395   3.598   4.990 -0.5214  1.0569 -1.6710
 1393SOL    HW215639   1.381   3.567   4.849  1.4007  1.7044 -0.4463
 1394SOL     OW15640   4.212   4.246   7.124  0.4959 -0.7311 -0.0907
 1394SOL    HW115641   4.298   4.283   7.144 -0.0499 -0.7817  2.3223
 1394SOL    HW215642   4.220   4.157   7.157  4.8758  1.0020  3.6311
 1395SOL     OW15643   1.351   1.527  10.761 -0.0136 -0.7300 -0.4064
 1395SOL    HW115644   1.424   1.541  10.822  0.7757 -0.8347 -1.3126
 1395SOL    HW215645   1.401   1.525  10.679  0.1504 -1.8184 -0.2844
 1396SOL     OW15646   4.461   0.025   4.449 -0.1180 -0.4340  0.0146
 1396SOL    HW115647   4.499   4.716   4.530  0.4649 -0.5992 -0.3365
 1396SOL    HW215648   4.538   0.031   4.393 -0.4610 -1.4355 -0.5694
 1397SOL     OW15649   2.374   0.385   9.507  0.6347  0.2693 -0.0368
 1397SOL    HW115650   2.407   0.333   9.434 -0.2704 -0.8460  0.3375
 1397SOL    HW215651   2.429   0.463   9.498  1.4550 -0.6739 -3.1186
 1398SOL     OW15652   4.131   0.103   4.082  0.1536 -0.0920 -0.7077
 1398SOL    HW115653   4.058   0.158   4.111 -0.6031 -0.9299 -1.0211
 1398SOL    HW215654   4.202   0.164   4.102 -0.3113 -0.2526  1.4130
 1399SOL     OW15655   4.300   1.985   8.297 -0.1060  0.1537 -0.1636
 1399SOL    HW115656   4.235   1.978   8.367 -0.1721 -0.3513 -0.2756
 1399SOL    HW215657   4.294   2.074   8.263  1.5819 -0.2672 -1.6220
 1400SOL     OW15658   3.230   0.818   2.330  0.2297 -0.2096  0.3348
 1400SOL    HW115659   3.299   0.783   2.272  2.0151 -0.5125  2.6553
 1400SOL    HW215660   3.148   0.789   2.290  0.9297 -1.4877 -0.1932
 1401SOL     OW15661   4.309   0.793  12.817 -0.2597 -0.4000  0.2094
 1401SOL    HW115662   4.346   0.756  12.897 -0.7430 -2.9535 -0.7528
 1401SOL    HW215663   4.285   0.720  12.760  0.1541 -2.0864  2.1928
 1402SOL     OW15664   0.170   4.644   5.388  0.2242  0.1210 -0.5768
 1402SOL    HW115665   0.157   4.599   5.472  0.0988  1.1452 -0.0551
 1402SOL    HW215666   0.154   0.011   5.406  0.9351 -0.0262  0.7916
 1403SOL     OW15667   2.354   1.021   4.564  0.5589 -0.5244 -0.2770
 1403SOL    HW115668   2.341   1.097   4.507  2.7678 -0.2479 -0.4437
 1403SOL    HW215669   2.267   1.011   4.602 -0.1220  1.7996 -1.2345
 1404SOL     OW15670   0.779   4.104   2.922  0.2287  0.8019  0.5018
 1404SOL    HW115671   0.861   4.122   2.875  1.7333  0.5139  3.0336
 1404SOL    HW215672   0.703   4.144   2.880  0.9113 -0.4555 -1.9759
 1405SOL     OW15673   0.996   2.067   6.903  0.2064 -0.0021  0.0253
 1405SOL    HW115674   0.955   1.997   6.852 -0.7313  0.8165 -0.3451
 1405SOL    HW215675   1.087   2.044   6.883  0.7388  1.0263  1.2639
 1406SOL     OW15676   1.864   4.218  15.598  0.7296 -0.1300 -0.2953
 1406SOL    HW115677   1.791   4.157  15.603 -0.1698  0.8494 -1.7997
 1406SOL    HW215678   1.811   4.290  15.564  0.2181 -0.6978 -0.6861
 1407SOL     OW15679   4.112   1.464   5.141  0.4840 -0.3751 -0.1330
 1407SOL    HW115680   4.058   1.389   5.120 -1.7769  1.1765  0.1341
 1407SOL    HW215681   4.195   1.449   5.096 -0.5194  0.0928 -2.1404
 1408SOL     OW15682   2.015   1.719  10.979 -0.1352 -0.6579  0.5124
 1408SOL    HW115683   2.000   1.768  11.060  0.4292 -0.6687  0.6264
 1408SOL    HW215684   2.109   1.727  10.962 -0.4806  0.4376 -0.8645
 1409SOL     OW15685   1.914   4.179  16.955 -0.9485 -0.0784  0.5107
 1409SOL    HW115686   1.821   4.173  16.933 -0.8640 -2.8300  0.8384
 1409SOL    HW215687   1.936   4.114  16.888  0.0715  1.3202 -0.5002
 1410SOL     OW15688   2.109   4.662   2.679  0.1553 -0.1392 -0.2765
 1410SOL    HW115689   2.015   4.663   2.662  0.1419  1.8109 -0.1433
 1410SOL    HW215690   2.131   4.581   2.634  1.5279  1.7964 -3.1087
 1411SOL     OW15691   4.479   0.109   7.528  0.3472  0.6320 -0.7423
 1411SOL    HW115692   4.551   0.171   7.539  1.0407 -0.7521  2.5698
 1411SOL    HW215693   4.424   0.172   7.482  0.3004  0.6391 -0.6762
 1412SOL     OW15694   1.276   3.256   6.824  0.0476  0.5529  0.3669
 1412SOL    HW115695   1.297   3.190   6.890  0.2492 -0.7526 -0.9922
 1412SOL    HW215696   1.181   3.251   6.828  0.0474 -0.8678 -1.5699
 1413SOL     OW15697   2.547   3.288   3.615 -0.5346  0.4456  0.2581
 1413SOL    HW115698   2.501   3.369   3.594 -2.3181 -0.6179 -0.0013
 1413SOL    HW215699   2.579   3.304   3.704  0.0336  1.5962 -0.1566
 1414SOL     OW15700   0.645   4.100   6.823 -0.5757  0.5539 -0.4067
 1414SOL    HW115701   0.716   4.120   6.884  0.7630 -0.9438 -1.4488
 1414SOL    HW215702   0.575   4.065   6.878  1.4000 -1.0851  1.0906
 1415SOL     OW15703   0.495   1.765  13.116  0.3091 -0.4824 -0.3350
 1415SOL    HW115704   0.506   1.832  13.184 -1.1550 -2.1655  1.5507
 1415SOL    HW215705   0.515   1.681  13.159 -0.1186  0.4208  1.6685
 1416SOL     OW15706   0.715   1.509   5.574 -0.1894 -0.6166 -0.8748
 1416SOL    HW115707   0.700   1.582   5.635 -1.8377 -1.7580  0.0943
 1416SOL    HW215708   0.737   1.563   5.498  1.5282  0.6662  0.5232
 1417SOL     OW15709   0.145   0.300   5.852  0.0652  0.3732  0.8539
 1417SOL    HW115710   0.078   0.277   5.916 -0.8572  1.8172  0.4067
 1417SOL    HW215711   0.107   0.281   5.766  1.8663 -0.8094  0.3197
 1418SOL     OW15712   1.928   4.200   7.206  0.1718 -0.0789 -0.2283
 1418SOL    HW115713   1.958   4.109   7.201 -1.5229 -0.5734 -1.4204
 1418SOL    HW215714   2.008   4.246   7.184  0.4305 -0.3628  0.1083
 1419SOL     OW15715   3.104   2.766   3.993  0.3086 -0.4393 -0.2648
 1419SOL    HW115716   3.123   2.713   3.915 -0.8962 -0.3189 -0.6328
 1419SOL    HW215717   3.158   2.843   3.973 -0.3547  0.0227 -0.2456
 1420SOL     OW15718   1.860   1.849  14.765 -0.2478 -0.2800  0.4424
 1420SOL    HW115719   1.907   1.842  14.682 -1.1449 -0.5222 -0.0456
 1420SOL    HW215720   1.782   1.798  14.743 -0.0459 -0.6023  0.4798
 1421SOL     OW15721   0.967   4.455   6.315 -0.4361  0.6963  0.4014
 1421SOL    HW115722   0.917   4.472   6.235 -0.3526 -3.2247 -0.4874
 1421SOL    HW215723   0.889   4.442   6.370 -0.1200  0.3612  0.7688
 1422SOL     OW15724   0.063   3.884   8.274  0.3703 -0.1084 -0.0314
 1422SOL    HW115725   0.002   3.936   8.326  0.7338  0.1687  0.1180
 1422SOL    HW215726   0.123   3.855   8.343 -2.5756  0.2580  2.6750
 1423SOL     OW15727   3.078   4.419   8.990 -0.0858  0.4763 -0.1278
 1423SOL    HW115728   3.110   4.447   9.076 -2.2216  0.1887  0.7717
 1423SOL    HW215729   2.998   4.471   8.983 -1.0869 -0.8742  1.3723
 1424SOL     OW15730   1.617   3.722   4.433 -0.2922 -0.2413 -0.3010
 1424SOL    HW115731   1.577   3.642   4.465 -2.5878  0.4451 -1.4300
 1424SOL    HW215732   1.622   3.710   4.338  0.9437 -0.2309 -0.2353
 1425SOL     OW15733   4.074   2.449   3.443 -0.0213 -0.0166  0.1620
 1425SOL    HW115734   4.127   2.372   3.423  0.2647  0.6705 -1.6837
 1425SOL    HW215735   4.010   2.432   3.374  0.3954  0.2840 -0.2993
 1426SOL     OW15736   3.042   2.478   8.318 -0.1949  0.0332  0.0004
 1426SOL    HW115737   3.053   2.391   8.355  0.8953  0.1088 -0.1472
 1426SOL    HW215738   2.947   2.488   8.329 -0.2509  0.3117 -0.7221
 1427SOL     OW15739   3.013   2.147   3.443  0.8340 -0.1318  0.3475
 1427SOL    HW115740   2.920   2.126   3.444  0.7867  0.1609  2.5069
 1427SOL    HW215741   3.024   2.193   3.360 -1.4224 -0.9961 -0.4200
 1428SOL     OW15742   3.550   0.774  11.787 -0.6947  0.0915 -0.1113
 1428SOL    HW115743   3.557   0.869  11.780  0.8904 -0.0383 -0.3947
 1428SOL    HW215744   3.460   0.749  11.807 -0.7383  1.3836  1.2601
 1429SOL     OW15745   3.346   4.445   7.434 -0.6514  0.1801  0.0330
 1429SOL    HW115746   3.324   4.402   7.352 -0.3836 -0.3438  0.2316
 1429SOL    HW215747   3.295   4.526   7.443 -0.2351  0.5566 -1.0100
 1430SOL     OW15748   3.722   4.326  13.080 -0.0892  0.1364  0.0010
 1430SOL    HW115749   3.774   4.406  13.073  0.2914 -0.2353 -1.5121
 1430SOL    HW215750   3.648   4.357  13.028 -0.4549  0.2672  0.5961
 1431SOL     OW15751   1.788   4.150  14.639 -0.2529  0.1751 -0.4867
 1431SOL    HW115752   1.839   4.105  14.571 -0.4587  0.8195 -1.0708
 1431SOL    HW215753   1.726   4.205  14.592  1.6357  1.3049 -1.6684
 1432SOL     OW15754   2.654   1.245   1.012 -0.1797 -0.1044  0.7254
 1432SOL    HW115755   2.619   1.328   0.980  0.2602 -0.0800  0.2951
 1432SOL    HW215756   2.592   1.229   1.083  0.3268  1.6439  1.5673
 1433SOL     OW15757   3.874   2.830   8.602 -0.0446  0.5785 -0.0723
 1433SOL    HW115758   3.784   2.861   8.609 -0.2970 -0.4921  1.3868
 1433SOL    HW215759   3.925   2.911   8.598  0.8041 -0.0110 -1.4937
 1434SOL     OW15760   1.454   1.469  16.560 -0.0653  0.6731  0.1664
 1434SOL    HW115761   1.469   1.425  16.644  0.9975  0.1287 -0.3090
 1434SOL    HW215762   1.532   1.521  16.540  0.4881 -0.8090 -1.5568
 1435SOL     OW15763   0.019   2.019   6.392  0.2959 -0.0694  0.2256
 1435SOL    HW115764   0.024   2.102   6.344  1.7458 -0.0341  0.4534
 1435SOL    HW215765   4.724   1.959   6.321 -0.5423  1.7996 -1.1267
 1436SOL     OW15766   4.310   2.866   4.904  0.0139  0.0439 -0.7583
 1436SOL    HW115767   4.394   2.885   4.944  0.1974 -1.8357 -0.2647
 1436SOL    HW215768   4.289   2.957   4.885  1.8687  1.0115  1.8955
 1437SOL     OW15769   0.869   0.165   8.439  0.3238 -0.1637  0.2323
 1437SOL    HW115770   0.860   0.235   8.504  0.9326 -0.1917  0.3454
 1437SOL    HW215771   0.776   0.160   8.419 -0.0018  1.7839  1.2488
 1438SOL     OW15772   2.545   0.738   3.801  0.3645  0.2489 -0.2022
 1438SOL    HW115773   2.521   0.813   3.746 -0.9141  0.9655  1.3186
 1438SOL    HW215774   2.473   0.677   3.783 -0.1954  0.6108  0.7810
 1439SOL     OW15775   1.711   0.309   2.079 -0.6229 -0.2370 -0.6103
 1439SOL    HW115776   1.655   0.233   2.059 -1.6062  0.6995 -1.3891
 1439SOL    HW215777   1.767   0.314   2.002 -0.6245 -3.7586 -0.8570
 1440SOL     OW15778   2.950   1.784   6.591 -0.3862  0.1697  0.1438
 1440SOL    HW115779   2.899   1.786   6.672 -0.6094  0.0162  0.0069
 1440SOL    HW215780   3.023   1.835   6.628 -0.4578  1.4228 -1.4284
 1441SOL     OW15781   0.908   3.320  14.411 -0.0778  0.1821  0.5582
 1441SOL    HW115782   0.904   3.260  14.336  1.9097 -1.7629  2.0342
 1441SOL    HW215783   0.841   3.286  14.471 -0.7739  0.0304 -0.2954
 1442SOL     OW15784   2.166   4.569   5.222 -0.2282 -0.0658 -0.0266
 1442SOL    HW115785   2.220   4.539   5.148  3.2150  0.7671  2.1738
 1442SOL    HW215786   2.087   4.517   5.208  0.5617 -1.4425  0.6422
 1443SOL     OW15787   4.014   2.598   3.652 -0.2222 -0.2072  0.3829
 1443SOL    HW115788   4.027   2.542   3.575  0.2296 -0.3020  0.5262
 1443SOL    HW215789   3.919   2.589   3.653 -0.2292 -0.1788  0.1606
 1444SOL     OW15790   3.838   3.497   5.343 -0.2295  0.2823 -0.1940
 1444SOL    HW115791   3.765   3.478   5.284  0.1091  2.1113 -1.1934
 1444SOL    HW215792   3.883   3.413   5.332 -0.8479  0.1426 -1.7335
 1445SOL     OW15793   2.859   3.738  12.050  0.3842  1.0527  0.0519
 1445SOL    HW115794   2.810   3.711  11.973  0.1808  2.8930 -0.4643
 1445SOL    HW215795   2.837   3.831  12.062 -0.4886  0.8052  0.3304
 1446SOL     OW15796   3.278   3.222  11.431 -0.2003  0.5370 -0.1161
 1446SOL    HW115797   3.211   3.234  11.499  0.4856  0.1258  0.6395
 1446SOL    HW215798   3.231   3.261  11.357 -0.5466  0.1003 -0.1290
 1447SOL     OW15799   0.226   2.686   2.825  0.0443  0.2174  0.3315
 1447SOL    HW115800   0.226   2.693   2.729  1.1688 -0.2658  0.2949
 1447SOL    HW215801   0.245   2.593   2.841  1.4987 -0.0666 -2.9138
 1448SOL     OW15802   1.493   2.939   8.405  0.0637 -0.2406  0.1503
 1448SOL    HW115803   1.495   2.917   8.498 -0.6893  1.3261  0.5308
 1448SOL    HW215804   1.422   3.002   8.402 -1.7716 -2.3448 -0.8912
 1449SOL     OW15805   4.454   3.360   1.431 -0.2162  0.0226 -0.2821
 1449SOL    HW115806   4.368   3.358   1.472 -0.4087 -0.1694 -0.6964
 1449SOL    HW215807   4.480   3.269   1.414  1.0774  0.6781 -1.7435
 1450SOL     OW15808   2.527   0.676   5.202 -0.1849  0.0370  0.3081
 1450SOL    HW115809   2.441   0.638   5.182  0.1164 -0.1408 -0.6222
 1450SOL    HW215810   2.589   0.603   5.198  0.6447  0.6901  1.1817
 1451SOL     OW15811   1.493   1.115   5.710 -0.3122 -0.5636  0.5476
 1451SOL    HW115812   1.507   1.114   5.805 -1.5269 -0.3395  0.7255
 1451SOL    HW215813   1.398   1.124   5.715 -0.0175  2.4133  0.7552
 1452SOL     OW15814   0.936   1.789   2.641  0.4449  0.1748  0.0709
 1452SOL    HW115815   0.952   1.849   2.568  1.3350 -0.7184 -0.4769
 1452SOL    HW215816   1.025   1.755   2.657  0.4427 -0.0380 -0.3918
 1453SOL     OW15817   3.873   2.467   4.728 -0.3411 -0.1219  0.0417
 1453SOL    HW115818   3.962   2.499   4.711 -0.4866  0.2668  0.0210
 1453SOL    HW215819   3.861   2.517   4.809 -2.9936 -0.8324  0.0650
 1454SOL     OW15820   1.719   4.395   5.001  0.2005 -0.1262 -0.3095
 1454SOL    HW115821   1.773   4.418   5.077 -3.3915 -0.1197  2.2457
 1454SOL    HW215822   1.656   4.467   5.001 -2.2696 -2.2905  0.0317
 1455SOL     OW15823   3.284   4.339   0.026 -0.1385  0.0290 -0.3130
 1455SOL    HW115824   3.363   4.354   0.078 -1.3946  0.8742  1.3409
 1455SOL    HW215825   3.308   4.288  17.652 -0.2221  0.8118 -0.8540
 1456SOL     OW15826   2.409   1.321   5.938 -0.1449 -0.3576  0.4884
 1456SOL    HW115827   2.454   1.404   5.923 -1.0240  0.1149  0.4391
 1456SOL    HW215828   2.485   1.267   5.961  0.5844  0.6262  0.3740
 1457SOL     OW15829   3.189   1.157   6.129  0.5060 -0.4176  0.0384
 1457SOL    HW115830   3.205   1.251   6.128 -2.2087  0.0254 -0.7086
 1457SOL    HW215831   3.150   1.153   6.217  1.1815  1.8369  0.4366
 1458SOL     OW15832   1.624   3.772   9.401 -0.2765 -0.2528 -0.2977
 1458SOL    HW115833   1.649   3.680   9.416  2.3058  0.3795 -0.7528
 1458SOL    HW215834   1.545   3.762   9.453  0.8198 -4.8503  0.4920
 1459SOL     OW15835   2.021   1.799   7.836  0.1220  0.5176 -0.4444
 1459SOL    HW115836   2.032   1.798   7.741  0.3602 -0.5134 -0.4019
 1459SOL    HW215837   2.102   1.752   7.858 -0.8779 -0.7942  0.3892
 1460SOL     OW15838   0.395   1.695   3.867  0.5634  0.2052  0.1860
 1460SOL    HW115839   0.400   1.629   3.798  2.1385  1.6429 -1.0738
 1460SOL    HW215840   0.326   1.751   3.831 -1.3212 -1.3054  1.4436
 1461SOL     OW15841   4.489   0.438   5.824 -0.3054  0.1730 -0.0119
 1461SOL    HW115842   4.553   0.452   5.893 -0.2639 -0.6538  0.1235
 1461SOL    HW215843   4.529   0.497   5.761  1.2570 -1.0752 -0.1925
 1462SOL     OW15844   1.033   4.538  13.714 -0.0717 -0.3420  0.1709
 1462SOL    HW115845   1.103   4.473  13.716 -0.5687 -0.8525  0.9173
 1462SOL    HW215846   0.969   4.488  13.663 -1.9955  2.3313 -0.0617
 1463SOL     OW15847   0.656   4.327   1.530  0.0918  0.3378  0.4209
 1463SOL    HW115848   0.624   4.269   1.461  0.2377  0.6311  0.1059
 1463SOL    HW215849   0.602   4.304   1.606  1.1889 -0.8839  0.8079
 1464SOL     OW15850   3.329   0.025   9.708 -0.0696  0.2621  0.2499
 1464SOL    HW115851   3.423   0.028   9.689 -0.1279  0.3008 -0.0253
 1464SOL    HW215852   3.291   4.696   9.639 -1.4210 -1.4722  2.3820
 1465SOL     OW15853   2.691   0.826   4.553  0.0309 -0.1498  0.0042
 1465SOL    HW115854   2.781   0.857   4.541  0.2625 -0.1767  1.6742
 1465SOL    HW215855   2.697   0.754   4.616 -1.4226  1.0395  1.4793
 1466SOL     OW15856   0.089   4.299   2.346  0.0139  0.3738 -0.5054
 1466SOL    HW115857   4.723   4.323   2.329 -0.0015  0.6207 -0.0853
 1466SOL    HW215858   0.084   4.203   2.343  1.5611  0.3189 -1.1148
 1467SOL     OW15859   4.326   2.715   8.875 -0.5855 -0.6288  0.0142
 1467SOL    HW115860   4.314   2.807   8.896  2.0765  0.0162 -1.3031
 1467SOL    HW215861   4.311   2.677   8.962 -1.5581  0.4800  0.3378
 1468SOL     OW15862   1.120   0.970  13.685  0.4422 -0.4593 -0.2332
 1468SOL    HW115863   1.092   0.913  13.613  2.9264 -2.7795  0.6584
 1468SOL    HW215864   1.210   0.988  13.657 -0.1010  2.8124  0.1220
 1469SOL     OW15865   1.461   1.819   4.725  0.6511 -0.6026 -1.0456
 1469SOL    HW115866   1.498   1.731   4.735  0.1058 -0.9693 -2.2954
 1469SOL    HW215867   1.405   1.821   4.803  1.0783  0.4707 -0.7763
 1470SOL     OW15868   0.822   3.993  14.680 -0.1389 -0.1929 -0.0922
 1470SOL    HW115869   0.906   4.018  14.719 -0.2550 -0.1535  0.1312
 1470SOL    HW215870   0.838   4.009  14.587 -0.0312  1.1349  0.1438
 1471SOL     OW15871   1.471   3.304   4.029  0.2114 -0.5275  0.1086
 1471SOL    HW115872   1.377   3.313   4.011  1.1184  0.2097 -4.1808
 1471SOL    HW215873   1.470   3.309   4.125 -2.7629 -2.4476  0.1877
 1472SOL     OW15874   0.740   4.558  11.720 -0.5614  0.2430 -0.2558
 1472SOL    HW115875   0.735   4.647  11.686 -1.6748  0.2706 -0.0227
 1472SOL    HW215876   0.749   4.574  11.814  2.5890  0.8258 -0.6465
 1473SOL     OW15877   2.701   1.139   3.730 -0.1827 -0.6471  0.5242
 1473SOL    HW115878   2.733   1.218   3.686  0.0529 -1.4961 -0.8085
 1473SOL    HW215879   2.735   1.147   3.819 -0.3358  0.0157  0.5275
 1474SOL     OW15880   1.947   1.911   3.788 -0.2422 -0.2333 -0.1343
 1474SOL    HW115881   1.857   1.943   3.784 -0.0037  0.5640  0.8063
 1474SOL    HW215882   1.966   1.924   3.695  1.8798  0.1853  0.3762
 1475SOL     OW15883   3.362   0.005   2.331  0.0389  0.5522 -0.7057
 1475SOL    HW115884   3.394   0.026   2.419  0.4966 -0.9508 -0.5115
 1475SOL    HW215885   3.416   0.050   2.267  0.7241 -1.3423 -1.4760
 1476SOL     OW15886   2.405   3.017   2.798 -0.2050 -0.0074 -0.2568
 1476SOL    HW115887   2.312   3.014   2.776 -0.0121 -1.7064 -0.8709
 1476SOL    HW215888   2.400   2.977   2.885 -1.8636  0.1794 -0.2818
 1477SOL     OW15889   4.315   3.695   2.952 -0.0329  0.4015 -0.3470
 1477SOL    HW115890   4.266   3.776   2.970 -2.0451 -0.5726 -1.5418
 1477SOL    HW215891   4.400   3.739   2.957  0.3394 -0.3343 -0.1197
 1478SOL     OW15892   2.928   0.704   5.652  0.5827  0.4289  0.2053
 1478SOL    HW115893   2.867   0.633   5.673 -1.3488  1.6127 -1.4274
 1478SOL    HW215894   2.897   0.782   5.698  0.4679 -0.1485  1.1189
 1479SOL     OW15895   4.491   3.015   5.786  0.3876  0.6114 -0.1708
 1479SOL    HW115896   4.490   3.081   5.717 -0.9205 -1.5181 -2.2161
 1479SOL    HW215897   4.447   3.067   5.854  2.9587  1.9676  0.4253
 1480SOL     OW15898   0.462   0.908  15.186 -0.2054  0.3550  0.0433
 1480SOL    HW115899   0.555   0.905  15.163 -0.4291  0.5099 -0.8556
 1480SOL    HW215900   0.461   0.985  15.243  0.7854 -1.0120  1.9280
 1481SOL     OW15901   1.053   4.239   1.961 -0.0722  0.3925  0.3688
 1481SOL    HW115902   1.114   4.169   1.986  0.3386  0.2217 -1.1084
 1481SOL    HW215903   1.111   4.312   1.982  1.8027 -1.6703  2.4228
 1482SOL     OW15904   3.696   1.381   8.873  0.7408 -0.4942 -0.1733
 1482SOL    HW115905   3.727   1.379   8.964  0.2068 -1.1384 -0.0036
 1482SOL    HW215906   3.727   1.464   8.839  1.0435 -0.6927 -0.3846
 1483SOL     OW15907   1.587   1.452   6.116 -0.3857 -0.2506 -0.2276
 1483SOL    HW115908   1.543   1.460   6.200 -2.2635 -0.3839 -1.2021
 1483SOL    HW215909   1.648   1.381   6.138  0.3239 -0.0504 -1.5338
 1484SOL     OW15910   1.787   2.034   6.118 -0.1099  0.1991 -0.4480
 1484SOL    HW115911   1.817   1.990   6.038  0.0109 -1.9813  0.7842
 1484SOL    HW215912   1.779   2.116   6.070 -1.3209  0.1369 -0.3728
 1485SOL     OW15913   2.282   0.731  14.174  0.4951 -0.1525 -0.1068
 1485SOL    HW115914   2.285   0.644  14.135  0.8704  0.1924 -0.8513
 1485SOL    HW215915   2.375   0.753  14.168  0.5154 -0.5011 -1.0413
 1486SOL     OW15916   0.900   0.220  11.975 -0.1178  0.1355  0.2339
 1486SOL    HW115917   0.815   0.264  11.975  0.0654  0.4890 -0.1890
 1486SOL    HW215918   0.959   0.295  11.986 -1.7813  1.1701  2.1237
 1487SOL     OW15919   4.445   0.747   3.578 -0.0431  0.3006 -0.1259
 1487SOL    HW115920   4.540   0.736   3.586 -0.0880  1.2800  1.8597
 1487SOL    HW215921   4.426   0.838   3.600  2.0768  0.2354  2.0709
 1488SOL     OW15922   1.949   4.452  16.966  0.1368  0.3243  0.1095
 1488SOL    HW115923   1.983   4.482  16.882 -1.5915 -1.5653 -1.2789
 1488SOL    HW215924   1.950   4.356  16.963  2.3184  0.2762  1.9687
 1489SOL     OW15925   2.215   1.363   6.876 -0.4971  0.3265  0.0124
 1489SOL    HW115926   2.136   1.408   6.846 -1.0182 -1.2925 -1.0143
 1489SOL    HW215927   2.202   1.273   6.848  1.0655 -0.0618  0.5552
 1490SOL     OW15928   0.210   4.131   7.631  0.2110 -0.3803  0.2997
 1490SOL    HW115929   0.143   4.079   7.587 -0.7383  0.2888  0.9334
 1490SOL    HW215930   0.227   4.203   7.570  0.8337 -0.3051  0.5697
 1491SOL     OW15931   4.243   4.693  17.520  0.5429  0.4314  0.1647
 1491SOL    HW115932   4.234   0.031  17.449 -0.8161  1.7559  1.5288
 1491SOL    HW215933   4.280   0.017  17.593  1.1796 -0.2846  0.3331
 1492SOL     OW15934   0.145   3.074   4.999 -0.0950  0.8292  0.2816
 1492SOL    HW115935   0.200   3.082   4.921 -1.0993  0.4729 -0.4528
 1492SOL    HW215936   0.070   3.029   4.961 -1.5751  2.5628  1.1618
 1493SOL     OW15937   1.188   2.179  14.598  0.0668 -0.8051 -0.2114
 1493SOL    HW115938   1.189   2.226  14.515  0.0210  1.8035  1.2591
 1493SOL    HW215939   1.208   2.088  14.575  0.1503 -1.2055  1.4381
 1494SOL     OW15940   0.379   3.182   7.356  0.0835 -0.4126  0.4780
 1494SOL    HW115941   0.448   3.202   7.293 -0.7249 -0.6945 -0.4984
 1494SOL    HW215942   0.409   3.109   7.409 -1.2801 -2.0505 -1.0149
 1495SOL     OW15943   1.639   1.388  10.548 -0.2900  0.3697  0.1693
 1495SOL    HW115944   1.675   1.454  10.608  0.2595 -1.5547  1.9910
 1495SOL    HW215945   1.625   1.317  10.611 -0.0112  0.8171  0.7329
 1496SOL     OW15946   2.599   0.314   8.297  0.8374  0.3791  0.4014
 1496SOL    HW115947   2.650   0.351   8.369  0.4540 -0.5065  1.1148
 1496SOL    HW215948   2.571   0.232   8.337 -2.0097  1.8983  1.5354
 1497SOL     OW15949   2.992   1.402   0.495 -0.0307  0.2278 -0.3717
 1497SOL    HW115950   3.043   1.360   0.426  1.4400  1.7578 -0.2114
 1497SOL    HW215951   3.034   1.487   0.509  0.1875 -0.3627  2.4578
 1498SOL     OW15952   1.610   1.574   3.024 -0.0933 -0.0384  0.4009
 1498SOL    HW115953   1.634   1.514   2.954 -0.1430 -1.1798  1.3564
 1498SOL    HW215954   1.670   1.538   3.090 -0.3994  0.9895  1.2459
 1499SOL     OW15955   3.643   3.086  11.295  0.1838 -0.0436  0.1690
 1499SOL    HW115956   3.553   3.066  11.322  0.1302  1.9436  1.4692
 1499SOL    HW215957   3.640   3.074  11.200 -2.0992 -2.5346  0.5343
 1500SOL     OW15958   4.194   3.580   7.402 -0.3087  0.4980 -0.0614
 1500SOL    HW115959   4.140   3.644   7.448  0.8595  0.0820  1.9160
 1500SOL    HW215960   4.204   3.509   7.465  0.1656  0.2532 -0.4095
 1501SOL     OW15961   0.943   1.258   2.858 -0.4863  0.0353  0.4871
 1501SOL    HW115962   0.973   1.266   2.768  2.7819 -0.1869  1.5511
 1501SOL    HW215963   0.986   1.174   2.877  1.6405  1.0674  0.1534
 1502SOL     OW15964   4.576   0.428   7.062  0.4895  0.0180  0.1202
 1502SOL    HW115965   4.506   0.480   7.100  3.0327  2.9573  0.7672
 1502SOL    HW215966   4.611   0.381   7.139 -1.1554 -0.3513  0.6372
 1503SOL     OW15967   0.667   3.870   2.543  0.3509 -0.0908 -0.2504
 1503SOL    HW115968   0.641   3.844   2.455  0.3078 -1.3764  0.1473
 1503SOL    HW215969   0.675   3.963   2.523  1.7801 -0.2212 -0.3250
 1504SOL     OW15970   0.848   0.796   5.387 -0.1092  0.5957  0.4865
 1504SOL    HW115971   0.887   0.867   5.438  1.2118 -0.6144  1.1575
 1504SOL    HW215972   0.761   0.788   5.427 -0.5290 -0.4442 -0.6239
 1505SOL     OW15973   3.896   1.070   5.568  0.9434  0.0511  0.6839
 1505SOL    HW115974   3.813   1.044   5.609  1.1643  1.6263  2.1455
 1505SOL    HW215975   3.909   1.160   5.599 -0.4091  0.7992 -0.9872
 1506SOL     OW15976   0.738   2.819   9.011  0.3354 -0.1988 -0.3766
 1506SOL    HW115977   0.817   2.836   8.959 -0.5458  0.3625 -1.5409
 1506SOL    HW215978   0.713   2.899   9.058  3.3476  0.7256 -0.3428
 1507SOL     OW15979   1.654   1.972   2.151  0.2905  0.5051  0.7709
 1507SOL    HW115980   1.606   1.946   2.073  0.6539  1.7409  0.1358
 1507SOL    HW215981   1.677   1.888   2.192 -3.4046 -0.9501 -0.2004
 1508SOL     OW15982   2.327   0.943   4.985 -0.4303 -0.4844  0.2341
 1508SOL    HW115983   2.393   0.925   5.052  0.8705  2.4035 -0.2968
 1508SOL    HW215984   2.337   1.036   4.965  1.5006 -1.4624 -3.2599
 1509SOL     OW15985   4.183   2.029  14.793 -0.3147 -0.1735 -0.0040
 1509SOL    HW115986   4.246   1.980  14.846 -0.3456  0.3646  0.5317
 1509SOL    HW215987   4.169   2.100  14.855  0.4705  2.3752 -2.7408
 1510SOL     OW15988   2.476   0.717  17.472 -0.9727  0.3632  0.2625
 1510SOL    HW115989   2.550   0.727  17.532  0.3738 -1.8463 -1.0167
 1510SOL    HW215990   2.510   0.667  17.397 -1.1751 -0.1616  0.5258
 1511SOL     OW15991   2.146   4.519   7.740  0.1158 -1.0816  0.1781
 1511SOL    HW115992   2.165   4.444   7.797 -1.9233 -0.4975  1.6231
 1511SOL    HW215993   2.216   4.580   7.761  1.1164 -1.8445 -0.9266
 1512SOL     OW15994   0.297   3.276   5.209  0.0547 -0.8549 -0.3566
 1512SOL    HW115995   0.297   3.293   5.115  0.8845 -0.4500 -0.2840
 1512SOL    HW215996   0.310   3.181   5.208  1.3490 -0.6780 -0.4621
 1513SOL     OW15997   2.472   1.871  15.460  0.1951 -0.5686  0.2704
 1513SOL    HW115998   2.567   1.881  15.449  0.2417 -0.2719  0.9283
 1513SOL    HW215999   2.449   1.953  15.417  2.3204 -0.1140  0.0063
 1514SOL     OW16000   3.424   3.388   6.725  0.4812 -0.0299  0.2302
 1514SOL    HW116001   3.499   3.400   6.784  0.0313  1.7289  0.4381
 1514SOL    HW216002   3.458   3.430   6.646 -0.6054  1.7852  0.7245
 1515SOL     OW16003   0.877   4.130   4.231  0.3614 -0.0547  0.5520
 1515SOL    HW116004   0.966   4.098   4.246  0.0962 -1.0951 -0.1090
 1515SOL    HW216005   0.856   4.181   4.310 -0.9096 -2.5219  1.7943
 1516SOL     OW16006   1.938   3.936  13.569  0.2516  0.1100  0.4588
 1516SOL    HW116007   1.888   3.914  13.490 -1.7273 -0.2196  1.7947
 1516SOL    HW216008   2.026   3.933  13.533  0.3622  1.9292  0.6172
 1517SOL     OW16009   4.016   1.586   7.831  0.1950  0.6101 -0.1880
 1517SOL    HW116010   3.952   1.620   7.895  1.9855  0.8301  1.4841
 1517SOL    HW216011   4.086   1.555   7.887  0.4724 -0.1833 -0.9793
 1518SOL     OW16012   1.502   4.707   6.645  0.0248  0.2171  0.0586
 1518SOL    HW116013   1.507   4.708   6.740 -2.3522  0.5718  0.1857
 1518SOL    HW216014   1.471   4.616   6.638 -0.8579  0.7345 -2.8434
 1519SOL     OW16015   0.211   1.032   5.973  0.1918  0.2673  0.4787
 1519SOL    HW116016   0.134   1.072   6.013  0.7996 -1.6898  3.5768
 1519SOL    HW216017   0.199   0.938   5.978 -0.6367  0.5399  3.6867
 1520SOL     OW16018   0.105   0.323  10.965  0.2904  0.9376 -0.1092
 1520SOL    HW116019   0.126   0.312  11.058  1.2013  2.5757 -0.1166
 1520SOL    HW216020   0.195   0.311  10.934  0.9921  0.5944  2.0728
 1521SOL     OW16021   3.343   4.008  10.816 -0.2523  0.4764  0.0671
 1521SOL    HW116022   3.398   4.083  10.838 -0.1648  0.9893 -1.9023
 1521SOL    HW216023   3.281   4.018  10.888  0.1025 -3.1306  0.8417
 1522SOL     OW16024   0.872   4.232   6.135 -0.0690  0.0770 -0.0666
 1522SOL    HW116025   0.817   4.183   6.074  1.2364 -1.3201 -0.1223
 1522SOL    HW216026   0.856   4.319   6.098 -0.1021  0.8395  1.7335
 1523SOL     OW16027   4.683   0.618  13.266  0.4592  0.9854  0.0432
 1523SOL    HW116028   0.037   0.639  13.315  0.5715 -0.4101  0.4851
 1523SOL    HW216029   4.649   0.706  13.254  0.0585  0.6316 -1.3681
 1524SOL     OW16030   4.640   4.582  12.492 -0.5382  0.2091  0.3796
 1524SOL    HW116031   4.710   4.518  12.476 -0.1708  0.3958  1.2624
 1524SOL    HW216032   4.688   4.643  12.548 -1.4790  2.3336 -1.1268
 1525SOL     OW16033   2.104   3.346   2.264 -0.0104  0.2248 -0.1107
 1525SOL    HW116034   2.167   3.330   2.335 -1.5632 -1.0310  0.9873
 1525SOL    HW216035   2.140   3.274   2.213 -0.5995  0.6040 -1.0519
 1526SOL     OW16036   3.879   4.276   2.646 -0.2238  0.3351 -0.4825
 1526SOL    HW116037   3.804   4.302   2.593  0.5168  0.5600 -1.4384
 1526SOL    HW216038   3.898   4.366   2.672  1.6911 -0.5214  1.0883
 1527SOL     OW16039   2.582   2.705  11.810 -0.1452 -0.5592  0.0278
 1527SOL    HW116040   2.653   2.665  11.860  0.1639  2.6646  2.1674
 1527SOL    HW216041   2.504   2.675  11.858 -0.3930 -0.5284 -0.3570
 1528SOL     OW16042   2.171   1.263  12.910 -0.6649  0.4068 -0.0310
 1528SOL    HW116043   2.240   1.322  12.880  0.1912  0.7685  2.7284
 1528SOL    HW216044   2.204   1.174  12.901  3.1060  1.5638  2.9124
 1529SOL     OW16045   3.472   1.115   1.569 -0.2507 -0.1186 -0.4361
 1529SOL    HW116046   3.478   1.180   1.499  0.1513  0.5802  0.2511
 1529SOL    HW216047   3.376   1.112   1.572 -0.2459  1.8166  1.6414
 1530SOL     OW16048   4.400   0.404  12.811  0.2970 -0.1688 -0.1079
 1530SOL    HW116049   4.396   0.491  12.772 -2.5457  0.0472  0.6809
 1530SOL    HW216050   4.306   0.389  12.825 -0.4095  3.6536 -0.9634
 1531SOL     OW16051   4.498   3.375   4.412  0.7832 -0.3526  0.6055
 1531SOL    HW116052   4.465   3.458   4.375  1.3155 -0.4722 -0.1488
 1531SOL    HW216053   4.567   3.360   4.348  0.0569  0.1907 -0.3183
 1532SOL     OW16054   4.115   2.848   1.835  0.2401 -0.1983 -0.6510
 1532SOL    HW116055   4.147   2.937   1.823  2.8524 -0.8689  1.4540
 1532SOL    HW216056   4.150   2.816   1.918 -0.2177  1.8545  0.3156
 1533SOL     OW16057   2.445   4.123   1.645 -0.1460  0.0157 -0.0927
 1533SOL    HW116058   2.435   4.207   1.691 -1.8782 -0.9393  1.2517
 1533SOL    HW216059   2.469   4.061   1.713 -2.4421 -1.7010 -0.8322
 1534SOL     OW16060   2.859   3.027   7.670 -0.7235 -0.0459  0.3572
 1534SOL    HW116061   2.816   2.997   7.750 -1.1097 -0.4117  0.0128
 1534SOL    HW216062   2.800   2.984   7.608  0.1629  0.7810 -1.0807
 1535SOL     OW16063   2.101   2.355   5.072  0.0717  0.4760  0.2951
 1535SOL    HW116064   2.179   2.333   5.021  0.3738 -2.5509  2.1148
 1535SOL    HW216065   2.104   2.449   5.051  0.5514  0.1859 -0.9524
 1536SOL     OW16066   4.222   3.942   2.973  0.2051 -0.3439  0.3605
 1536SOL    HW116067   4.147   3.926   3.030 -0.3002  0.8044  0.0436
 1536SOL    HW216068   4.217   4.036   2.953  0.2318 -0.1525  1.2362
 1537SOL     OW16069   3.313   2.442  10.446 -0.4602  0.9547  0.0673
 1537SOL    HW116070   3.343   2.357  10.413  1.1552  1.7600 -0.5523
 1537SOL    HW216071   3.233   2.457  10.395 -0.0482 -0.0582 -0.8991
 1538SOL     OW16072   2.183   4.198  16.024 -0.0228  0.4121 -0.1152
 1538SOL    HW116073   2.198   4.286  15.989  1.4981  0.4663  0.6448
 1538SOL    HW216074   2.233   4.203  16.106  1.7967 -1.7428 -1.0851
 1539SOL     OW16075   1.464   1.474  17.066 -0.1863  0.0099 -0.5828
 1539SOL    HW116076   1.547   1.426  17.068 -0.7395 -0.8801  1.4843
 1539SOL    HW216077   1.473   1.498  16.974  1.1710  0.7931 -0.2573
 1540SOL     OW16078   0.475   2.682   0.489  0.8082  0.2973 -0.9205
 1540SOL    HW116079   0.442   2.666   0.578  0.0010 -3.1581 -1.8495
 1540SOL    HW216080   0.512   2.766   0.518  0.6675  0.3316 -0.8432
 1541SOL     OW16081   0.856   0.277  11.231  0.2040 -0.5045 -0.4973
 1541SOL    HW116082   0.933   0.326  11.260 -0.2469  0.1463 -0.3998
 1541SOL    HW216083   0.791   0.347  11.222 -0.7098 -1.1681  0.9835
 1542SOL     OW16084   1.846   0.533  11.759 -0.6680  0.1692  0.1117
 1542SOL    HW116085   1.886   0.619  11.767  1.2587 -1.0102  3.0594
 1542SOL    HW216086   1.854   0.493  11.845 -1.4844 -0.1907  0.0301
 1543SOL     OW16087   3.549   3.588   1.947 -0.7644 -0.2203 -0.5621
 1543SOL    HW116088   3.492   3.522   1.985 -1.0603 -0.3325 -1.1945
 1543SOL    HW216089   3.600   3.608   2.025 -1.5031  0.5577 -0.2891
 1544SOL     OW16090   4.545   3.032   4.285 -0.1737  0.1604 -0.3697
 1544SOL    HW116091   4.544   3.055   4.192 -0.8402 -1.1450 -0.6770
 1544SOL    HW216092   4.634   2.996   4.295 -1.1568 -1.9985  0.5058
 1545SOL     OW16093   0.749   0.023   2.211  0.6477  0.8315  0.5151
 1545SOL    HW116094   0.817   0.037   2.146  0.4003 -1.1644 -0.1699
 1545SOL    HW216095   0.794   0.025   2.296  0.8964 -1.6209  0.4535
 1546SOL     OW16096   2.638   3.670  17.663  0.4303 -0.0883 -0.4122
 1546SOL    HW116097   2.631   3.661   0.055  0.2335  0.0293 -0.4168
 1546SOL    HW216098   2.597   3.590  17.632  0.2084 -0.1662  0.0749
 1547SOL     OW16099   3.667   1.513   5.343  0.0121 -0.1445 -0.0969
 1547SOL    HW116100   3.683   1.558   5.426 -1.2476 -0.8628  0.5412
 1547SOL    HW216101   3.730   1.556   5.286  2.4052 -3.0808  0.3604
 1548SOL     OW16102   0.962   0.234   5.003  0.1923  0.3350  0.5986
 1548SOL    HW116103   0.887   0.176   4.988  0.1051  0.5514  0.2222
 1548SOL    HW216104   0.998   0.193   5.082  0.9323 -0.2492 -0.0409
 1549SOL     OW16105   2.557   3.980   6.993  0.2496 -0.3323  0.0428
 1549SOL    HW116106   2.591   3.890   6.999 -0.9801 -0.7808  0.1190
 1549SOL    HW216107   2.569   4.007   7.084  3.6809  0.6893 -0.7027
 1550SOL     OW16108   4.310   1.304   8.577 -0.1776  0.2230  0.1238
 1550SOL    HW116109   4.274   1.234   8.522 -0.4485 -0.0954  0.7040
 1550SOL    HW216110   4.320   1.256   8.659  2.0508  0.7604  0.1734
 1551SOL     OW16111   2.130   4.115  12.193 -0.1274  0.0503 -0.1102
 1551SOL    HW116112   2.118   4.067  12.275 -0.7873 -1.3559 -1.0419
 1551SOL    HW216113   2.044   4.120  12.151 -1.3482 -1.6948  2.1665
 1552SOL     OW16114   4.354   2.173   0.141 -0.1709 -0.1905  0.3713
 1552SOL    HW116115   4.417   2.106   0.113 -0.9157 -0.8609  0.2883
 1552SOL    HW216116   4.344   2.218   0.057  3.0502 -0.6165 -0.2373
 1553SOL     OW16117   2.921   3.315  10.635 -0.0545  0.0143 -0.1760
 1553SOL    HW116118   2.946   3.228  10.604  1.9195  0.5077  0.0257
 1553SOL    HW216119   2.958   3.316  10.724  2.8493 -0.6096 -1.3552
 1554SOL     OW16120   1.044   3.848   8.367  0.5518 -0.3616  0.4583
 1554SOL    HW116121   1.041   3.752   8.372 -0.7136 -0.3172  0.5130
 1554SOL    HW216122   0.984   3.871   8.437 -0.6479 -0.5925 -0.4931
 1555SOL     OW16123   1.387   0.603   7.551  0.6204  0.4705  0.0055
 1555SOL    HW116124   1.392   0.534   7.618 -0.0987 -0.2479 -0.6701
 1555SOL    HW216125   1.352   0.558   7.474  0.1595 -0.1173  0.5514
 1556SOL     OW16126   2.580   0.306  11.382 -0.2339 -0.4569 -0.3146
 1556SOL    HW116127   2.659   0.338  11.339  0.2269 -2.2522 -0.8290
 1556SOL    HW216128   2.509   0.334  11.323  1.0859  1.9905 -0.7080
 1557SOL     OW16129   2.888   2.761   3.792 -0.3238 -0.5624 -0.0839
 1557SOL    HW116130   2.812   2.710   3.821 -0.6316  1.0809  2.0365
 1557SOL    HW216131   2.944   2.759   3.870 -1.3546  0.5364  0.6830
 1558SOL     OW16132   2.908   1.114  10.399 -0.1534 -0.1509 -0.1662
 1558SOL    HW116133   2.863   1.193  10.369 -0.0786  0.1980  0.6410
 1558SOL    HW216134   2.897   1.045  10.333 -1.4609  0.0735 -0.1900
 1559SOL     OW16135   3.311   1.404   3.485  0.4679 -0.2753 -0.5509
 1559SOL    HW116136   3.291   1.431   3.575 -0.9604  1.4290 -1.3806
 1559SOL    HW216137   3.376   1.336   3.502  1.8898  0.9881 -0.9414
 1560SOL     OW16138   0.130   1.417   3.979  0.2964 -0.6473  0.1374
 1560SOL    HW116139   0.114   1.439   3.887  0.4504  0.0457  0.2788
 1560SOL    HW216140   0.105   1.499   4.021  1.3565  0.1085 -0.7222
 1561SOL     OW16141   2.970   3.304   3.811 -0.2347  1.1655 -0.2783
 1561SOL    HW116142   2.952   3.379   3.755 -1.6279  2.1801  1.5631
 1561SOL    HW216143   2.894   3.249   3.795  0.7212 -0.5994  1.2181
 1562SOL     OW16144   0.457   1.306   8.634  0.2924 -0.0997 -0.4687
 1562SOL    HW116145   0.544   1.307   8.595 -0.7234  0.3764 -2.7015
 1562SOL    HW216146   0.423   1.396   8.635 -0.3519 -0.3492  0.0760
 1563SOL     OW16147   3.311   0.463   3.058  0.2073  0.1358 -0.3438
 1563SOL    HW116148   3.242   0.429   3.116  0.7605 -0.0124  0.2290
 1563SOL    HW216149   3.330   0.384   3.007  0.4211 -1.0291  1.5418
 1564SOL     OW16150   4.570   3.620   9.058  0.2654  0.8274 -0.3426
 1564SOL    HW116151   4.554   3.708   9.025 -1.5535  0.4304 -0.4913
 1564SOL    HW216152   4.545   3.631   9.149  2.6104 -0.5880  0.4632
 1565SOL     OW16153   1.592   4.615   4.991 -0.3653  0.3853 -0.2671
 1565SOL    HW116154   1.535   4.680   4.951  0.4747  1.4293  0.2540
 1565SOL    HW216155   1.569   4.646   5.078 -1.6402 -1.9722  0.2368
 1566SOL     OW16156   2.192   2.194   6.024  0.2451 -0.5219 -0.4487
 1566SOL    HW116157   2.150   2.278   6.004 -1.4790 -1.1553  0.5128
 1566SOL    HW216158   2.189   2.201   6.120  1.8991  0.0210 -0.4248
 1567SOL     OW16159   4.503   2.295   3.105 -0.0221 -0.1843 -0.5374
 1567SOL    HW116160   4.441   2.281   3.034 -1.4850 -0.2561  0.7498
 1567SOL    HW216161   4.468   2.375   3.146  0.4319 -1.0698  1.6036
 1568SOL     OW16162   1.062   0.163   2.716  0.2085 -0.9116  0.3287
 1568SOL    HW116163   1.151   0.191   2.695  0.3114 -1.2027  0.3848
 1568SOL    HW216164   1.027   0.252   2.710  1.6150 -0.3684  0.1974
 1569SOL     OW16165   0.890   2.196   5.803 -0.2362  0.5080  0.2837
 1569SOL    HW116166   0.905   2.192   5.708 -0.1864  1.0347  0.2723
 1569SOL    HW216167   0.794   2.201   5.808 -0.3462 -0.0526 -1.2013
 1570SOL     OW16168   1.738   0.545   2.777  0.4321  0.3790 -0.1657
 1570SOL    HW116169   1.738   0.590   2.693 -1.0398 -4.5385 -2.7839
 1570SOL    HW216170   1.649   0.566   2.805  0.4172 -1.6744  1.3099
 1571SOL     OW16171   2.847   0.540  12.159  0.2977  0.3044  0.2369
 1571SOL    HW116172   2.873   0.589  12.080  1.2835  2.1555  1.7132
 1571SOL    HW216173   2.814   0.462  12.115  0.7112  0.1507  0.1996
 1572SOL     OW16174   3.692   4.544   9.196  0.1871 -0.1886 -0.4297
 1572SOL    HW116175   3.692   4.468   9.138 -2.1654  0.1832 -0.9239
 1572SOL    HW216176   3.741   4.500   9.265 -0.1910  0.4898  0.2702
 1573SOL     OW16177   0.344   4.305   1.206 -0.1034  0.0288  0.0655
 1573SOL    HW116178   0.377   4.330   1.119  2.5105  0.5542  1.2197
 1573SOL    HW216179   0.338   4.391   1.248 -2.5416  0.6274 -1.4553
 1574SOL     OW16180   0.125   2.788   6.611 -0.2796  0.5492 -0.1510
 1574SOL    HW116181   0.127   2.803   6.516  2.5810 -0.0106 -0.1766
 1574SOL    HW216182   0.032   2.809   6.621 -0.4121 -0.7518  1.4312
 1575SOL     OW16183   1.028   2.917  16.446  0.0830 -0.1108 -0.5508
 1575SOL    HW116184   0.936   2.890  16.443  0.4938 -1.4939 -0.3675
 1575SOL    HW216185   1.026   2.987  16.380  0.1898 -1.3413 -1.8784
 1576SOL     OW16186   1.795   3.019  10.760 -0.3930  0.3761  0.3654
 1576SOL    HW116187   1.700   3.012  10.768 -0.3307  1.4504  2.1193
 1576SOL    HW216188   1.822   3.057  10.844  0.9194 -0.5433  0.3688
 1577SOL     OW16189   0.100   4.307  13.687 -0.4253 -0.3500  0.0235
 1577SOL    HW116190   0.164   4.345  13.627 -0.0735  0.9174  1.1952
 1577SOL    HW216191   0.040   4.376  13.713  0.2910  0.5136 -0.6055
 1578SOL     OW16192   4.446   2.854  10.019 -0.1056  0.9893 -0.0320
 1578SOL    HW116193   4.472   2.794   9.950  1.1083  0.4221  0.9267
 1578SOL    HW216194   4.467   2.938   9.978 -1.1779  1.6180  0.6958
 1579SOL     OW16195   0.694   2.621  11.910 -0.1245  0.8537  0.3817
 1579SOL    HW116196   0.707   2.563  11.835 -2.2938  1.8413 -0.7706
 1579SOL    HW216197   0.695   2.710  11.873  0.0960  0.8011  0.2591
 1580SOL     OW16198   2.498   3.385  10.238  0.1706 -0.2473  0.3310
 1580SOL    HW116199   2.459   3.444  10.303  0.0074  1.4063 -1.2626
 1580SOL    HW216200   2.576   3.430  10.204 -0.4901  0.8426  0.2459
 1581SOL     OW16201   3.366   2.340  17.146 -0.3636 -0.1957 -0.4222
 1581SOL    HW116202   3.439   2.401  17.140 -0.3128 -0.2404 -0.2459
 1581SOL    HW216203   3.288   2.383  17.110 -0.5622 -0.4744 -0.3227
 1582SOL     OW16204   4.346   0.466   6.588  0.2899 -0.3853  0.1660
 1582SOL    HW116205   4.431   0.470   6.631  0.1982  3.5601 -0.0431
 1582SOL    HW216206   4.310   0.552   6.608 -0.6318 -0.5443 -0.7659
 1583SOL     OW16207   0.806   3.584  10.284 -0.5719  0.5498  0.1906
 1583SOL    HW116208   0.756   3.567  10.363  2.1080 -2.7400  1.1612
 1583SOL    HW216209   0.775   3.517  10.224  0.3951 -1.6842  2.1996
 1584SOL     OW16210   2.193   1.018   3.547  0.4807  0.1847  0.2464
 1584SOL    HW116211   2.212   1.039   3.638 -1.2464 -0.0428  0.6640
 1584SOL    HW216212   2.136   1.088   3.513  0.6367 -0.3275 -1.0784
 1585SOL     OW16213   3.487   0.654  10.744 -0.2085 -0.8802  0.4789
 1585SOL    HW116214   3.544   0.726  10.770  0.7930 -1.1184 -1.0726
 1585SOL    HW216215   3.404   0.667  10.790 -0.7937  1.7377 -1.3193
 1586SOL     OW16216   0.120   2.452   2.224  0.3540  0.0934 -0.1934
 1586SOL    HW116217   0.183   2.451   2.152  0.4942 -1.0951 -0.0525
 1586SOL    HW216218   0.061   2.519   2.188 -0.8056 -0.5033  0.5938
 1587SOL     OW16219   4.629   3.353   7.211 -0.4306  0.5514  0.1378
 1587SOL    HW116220   4.666   3.322   7.294  1.2204 -0.2200 -0.8808
 1587SOL    HW216221   4.656   3.444   7.220  0.1759  0.3509  0.3341
 1588SOL     OW16222   1.620   3.083   3.501  0.5492  0.0773 -0.1196
 1588SOL    HW116223   1.625   3.002   3.449  1.3976 -0.4029  0.7066
 1588SOL    HW216224   1.547   3.123   3.454  0.7302 -1.6126 -1.8409
 1589SOL     OW16225   0.539   0.184   7.908  0.2008  0.1281  0.4320
 1589SOL    HW116226   0.593   0.107   7.922  1.3890  0.9377  0.3393
 1589SOL    HW216227   0.542   0.187   7.812  1.5999 -1.1026  0.4324
 1590SOL     OW16228   0.494   1.798   6.980 -0.2581  0.3320  0.9101
 1590SOL    HW116229   0.585   1.770   6.970 -0.6896 -0.7468  0.1401
 1590SOL    HW216230   0.473   1.731   7.045  1.4369 -1.6946 -0.6305
 1591SOL     OW16231   4.266   2.410   6.787  0.1856  0.2962  0.2380
 1591SOL    HW116232   4.325   2.404   6.862  1.7267 -2.9932 -1.2053
 1591SOL    HW216233   4.187   2.382   6.833  0.1188 -0.4996 -0.3408
 1592SOL     OW16234   4.092   1.966   1.781 -0.2240  0.0088 -0.4621
 1592SOL    HW116235   4.086   1.888   1.725 -2.7126  0.5122 -0.8803
 1592SOL    HW216236   3.997   1.969   1.793  0.0014 -0.2697  1.3310
 1593SOL     OW16237   0.067   0.926   6.291  0.3363 -0.1433  0.5317
 1593SOL    HW116238   0.133   0.964   6.348 -1.7487  2.7980  0.9839
 1593SOL    HW216239   0.028   1.008   6.261 -1.0258 -1.6495 -1.8477
 1594SOL     OW16240   0.079   0.774   2.856  0.0074 -0.0754 -0.4622
 1594SOL    HW116241   0.119   0.691   2.884 -0.4584 -0.2934 -0.4426
 1594SOL    HW216242   0.099   0.772   2.763  0.8252 -0.0724 -0.2881
 1595SOL     OW16243   3.027   0.345   3.194 -0.0262  0.4997  0.4422
 1595SOL    HW116244   2.999   0.435   3.211 -0.6130  0.7149 -1.6705
 1595SOL    HW216245   2.966   0.312   3.127  1.4007 -2.1669  0.4534
 1596SOL     OW16246   3.162   4.671   3.047 -0.1296 -0.2225  0.2170
 1596SOL    HW116247   3.145   4.619   3.125 -0.8462 -1.1611 -0.5717
 1596SOL    HW216248   3.238   4.617   3.026 -0.9592 -0.5038 -2.1471
 1597SOL     OW16249   2.082   0.964   3.033 -0.0107  0.5433  0.6484
 1597SOL    HW116250   2.031   0.960   3.114 -1.1492  1.1911 -0.0406
 1597SOL    HW216251   2.026   0.926   2.965  1.1216  2.7516 -1.5493
 1598SOL     OW16252   3.802   1.096   8.939  0.6576  0.3289 -0.1876
 1598SOL    HW116253   3.806   1.024   8.876 -1.9762 -0.9721  1.1263
 1598SOL    HW216254   3.710   1.100   8.965  1.5479  0.4401  2.8970
 1599SOL     OW16255   4.265   2.806   1.583 -0.4386  0.0462 -0.1470
 1599SOL    HW116256   4.213   2.774   1.657 -1.8427  1.5133 -0.5070
 1599SOL    HW216257   4.249   2.733   1.524 -2.2006 -0.5939  1.1519
 1600SOL     OW16258   1.074   4.549   7.902 -0.0452  0.0083  0.2912
 1600SOL    HW116259   1.053   4.627   7.851 -2.8241 -0.9283 -0.0043
 1600SOL    HW216260   1.007   4.494   7.862 -0.4343  1.7183 -1.3926
 1601SOL     OW16261   2.904   3.281   8.242 -0.2258 -0.2294 -0.2853
 1601SOL    HW116262   2.907   3.238   8.328  0.1428 -1.3392 -0.8586
 1601SOL    HW216263   2.833   3.235   8.199 -0.3095 -0.1663 -0.2151
 1602SOL     OW16264   0.473   2.064   3.973 -0.3584  0.3799  0.0193
 1602SOL    HW116265   0.514   2.041   3.890 -1.7296  0.3649 -0.6629
 1602SOL    HW216266   0.545   2.101   4.025  1.7791 -1.0544 -1.9515
 1603SOL     OW16267   3.639   4.078   8.741  0.3752 -0.5440  0.0801
 1603SOL    HW116268   3.582   4.146   8.777  1.1128  0.4144 -0.5617
 1603SOL    HW216269   3.614   4.073   8.649  0.3257 -1.1951  0.1310
 1604SOL     OW16270   3.438   1.517   1.198 -0.2102  0.0690 -0.1383
 1604SOL    HW116271   3.514   1.565   1.232 -0.3391 -1.3155  2.1337
 1604SOL    HW216272   3.437   1.544   1.106 -2.3428 -1.0624 -0.4466
 1605SOL     OW16273   3.834   3.672   6.829  0.9006 -0.1596 -0.3256
 1605SOL    HW116274   3.886   3.723   6.891 -0.2245 -0.2671  0.6956
 1605SOL    HW216275   3.830   3.732   6.755 -1.1620  0.2890  0.1566
 1606SOL     OW16276   0.543   2.481   3.911 -0.3337  0.0107 -0.4242
 1606SOL    HW116277   0.596   2.417   3.959 -0.4155  0.3468  0.1135
 1606SOL    HW216278   0.455   2.461   3.943  0.4766 -1.2157  1.0385
 1607SOL     OW16279   2.088   4.415   8.151 -0.5667 -0.3389  0.2142
 1607SOL    HW116280   2.042   4.406   8.068  0.1337 -0.7317 -0.1282
 1607SOL    HW216281   2.171   4.371   8.130  0.2272 -0.2777  3.1769
 1608SOL     OW16282   3.830   4.091  13.148  0.0423  0.3460  0.3778
 1608SOL    HW116283   3.782   4.173  13.137  1.3075  1.3532  2.3394
 1608SOL    HW216284   3.853   4.095  13.241 -1.4370  1.5527  0.7011
 1609SOL     OW16285   1.151   0.653   8.080 -0.1835 -0.0144  0.3960
 1609SOL    HW116286   1.125   0.689   7.995 -0.1286  1.4591  1.0031
 1609SOL    HW216287   1.081   0.594   8.106 -0.8820  1.4125  1.7298
 1610SOL     OW16288   3.300   1.156   9.309 -0.6978  0.1300 -0.0000
 1610SOL    HW116289   3.284   1.203   9.392  0.5817  0.7746 -0.1173
 1610SOL    HW216290   3.390   1.185   9.296 -0.5291  0.3410  1.6462
 1611SOL     OW16291   4.270   4.057  14.103  0.4244 -0.0760 -0.0309
 1611SOL    HW116292   4.360   4.084  14.085  0.6298  0.2909  1.5753
 1611SOL    HW216293   4.233   4.048  14.015 -0.4065  1.4279  0.1724
 1612SOL     OW16294   0.315   2.778  11.377 -0.4248 -0.0107  0.0968
 1612SOL    HW116295   0.334   2.792  11.284  2.8201  1.6413  0.9906
 1612SOL    HW216296   0.349   2.847  11.434  0.1236 -0.5187  0.3906
 1613SOL     OW16297   1.941   1.428   0.404 -0.3980  0.4662  0.3449
 1613SOL    HW116298   1.876   1.365   0.373  1.7724 -2.4710  1.8531
 1613SOL    HW216299   1.900   1.447   0.489  1.4353  0.6738  1.1677
 1614SOL     OW16300   4.017   2.894   7.225  0.5285  0.2639 -0.2049
 1614SOL    HW116301   4.095   2.910   7.278  0.8477 -0.6143 -0.4122
 1614SOL    HW216302   3.966   2.971   7.252  0.1069  0.0508 -0.3994
 1615SOL     OW16303   3.578   0.830  11.068 -0.1115  0.1238  0.1328
 1615SOL    HW116304   3.582   0.837  10.973 -1.5373  0.7551  0.1239
 1615SOL    HW216305   3.484   0.832  11.085 -0.1563 -2.6189  0.1800
 1616SOL     OW16306   3.745   0.274  12.932 -0.1557  0.1733 -0.1909
 1616SOL    HW116307   3.693   0.296  12.854 -2.3551 -0.8793  0.9615
 1616SOL    HW216308   3.830   0.250  12.896 -0.6467 -1.0460 -0.5477
 1617SOL     OW16309   0.060   4.450   6.038  0.5277 -0.6472  0.3077
 1617SOL    HW116310   0.074   4.488   6.125 -0.3533 -1.5273  0.8435
 1617SOL    HW216311   0.064   4.534   5.993  0.9260 -0.9761 -0.2629
 1618SOL     OW16312   1.821   2.824  14.412 -0.1357 -0.7915 -0.4234
 1618SOL    HW116313   1.766   2.804  14.337 -0.6899  0.3689 -0.3279
 1618SOL    HW216314   1.851   2.913  14.391 -2.6815  0.3045  0.6179
 1619SOL     OW16315   3.204   2.622   6.373  0.4702  0.2427  0.0079
 1619SOL    HW116316   3.142   2.645   6.442 -1.5736  0.6214 -1.9186
 1619SOL    HW216317   3.271   2.574   6.421  1.6408  1.6663 -0.2207
 1620SOL     OW16318   1.929   2.959   4.921 -0.0969  0.0364 -0.0316
 1620SOL    HW116319   1.889   2.873   4.912 -1.5007  0.7182 -0.3624
 1620SOL    HW216320   2.009   2.943   4.970 -0.8738 -2.0663  0.5318
 1621SOL     OW16321   2.108   1.021   8.497 -0.0464 -0.7349  0.2061
 1621SOL    HW116322   2.090   0.934   8.533 -0.3103 -1.6924 -2.2231
 1621SOL    HW216323   2.023   1.065   8.507 -0.0094 -0.7148  0.4351
 1622SOL     OW16324   3.057   1.821   1.778  0.1633  0.3544  0.3103
 1622SOL    HW116325   3.083   1.824   1.686 -0.7356 -0.1453  0.0305
 1622SOL    HW216326   3.042   1.726   1.780  0.6843  0.2542 -0.7295
 1623SOL     OW16327   1.362   2.571   4.520  0.7413  0.0413 -0.1040
 1623SOL    HW116328   1.442   2.559   4.571  0.6805 -0.5793 -0.1466
 1623SOL    HW216329   1.316   2.490   4.542 -0.4854  0.4795 -1.0562
 1624SOL     OW16330   0.539   4.227   8.280 -0.2547 -0.1122  0.2891
 1624SOL    HW116331   0.485   4.163   8.326 -0.1858  0.3914  1.0653
 1624SOL    HW216332   0.623   4.227   8.326 -0.6687  0.1222  1.0471
 1625SOL     OW16333   3.041   0.683   3.734 -0.0764  0.6469  0.4997
 1625SOL    HW116334   3.097   0.608   3.715 -0.9872  0.8716 -3.0656
 1625SOL    HW216335   2.980   0.642   3.796  3.4497 -0.9084  2.8935
 1626SOL     OW16336   3.892   2.784  10.508 -0.4458 -0.4978  0.2188
 1626SOL    HW116337   3.983   2.803  10.483 -0.2657  0.0138  1.2681
 1626SOL    HW216338   3.850   2.773  10.423  2.1538  1.7760 -1.3908
 1627SOL     OW16339   0.229   4.104   5.714  0.6721  0.0094  0.4773
 1627SOL    HW116340   0.301   4.071   5.767  0.9046 -1.0986 -0.5279
 1627SOL    HW216341   0.165   4.132   5.779  0.3104 -3.0182  1.4285
 1628SOL     OW16342   0.348   1.232   9.280  0.1888  0.3028  0.2519
 1628SOL    HW116343   0.383   1.157   9.232 -0.7603  1.1888 -1.8502
 1628SOL    HW216344   0.431   1.273   9.304  0.4090 -0.1525  0.2620
 1629SOL     OW16345   0.619   1.247  15.234  1.0050  0.4622 -0.4477
 1629SOL    HW116346   0.647   1.320  15.289  1.2900  0.8420 -1.0988
 1629SOL    HW216347   0.568   1.297  15.170 -0.9041 -1.5088 -0.4817
 1630SOL     OW16348   2.999   0.237   3.634  0.0019 -0.3957 -0.6327
 1630SOL    HW116349   3.068   0.297   3.663  1.8700 -2.1758 -1.4832
 1630SOL    HW216350   2.955   0.291   3.568  0.7741  2.0434  0.8564
 1631SOL     OW16351   1.300   4.668  11.861 -0.0715  0.2860 -0.6024
 1631SOL    HW116352   1.303   0.018  11.920 -3.1539  1.0731 -1.4416
 1631SOL    HW216353   1.239   4.694  11.792  1.8419  0.9073 -2.0852
 1632SOL     OW16354   2.839   2.457   5.432  0.3403  0.2633  0.8600
 1632SOL    HW116355   2.848   2.537   5.484  0.0637  0.7745  0.1345
 1632SOL    HW216356   2.784   2.479   5.356  0.2545 -1.6589  0.3644
 1633SOL     OW16357   3.968   0.180   6.231 -0.3000 -0.1520  0.4820
 1633SOL    HW116358   4.046   0.130   6.207  0.6332  0.6485  1.8063
 1633SOL    HW216359   3.923   0.133   6.301 -3.3475  0.0026 -1.3831
 1634SOL     OW16360   0.956   1.744  12.288  0.0244  0.0483  0.6206
 1634SOL    HW116361   1.044   1.708  12.293  0.0828 -0.1177 -1.7395
 1634SOL    HW216362   0.921   1.700  12.211 -1.5205 -0.1035  1.3992
 1635SOL     OW16363   1.347   0.454   2.554 -0.4529 -0.5741 -0.3688
 1635SOL    HW116364   1.352   0.446   2.459  0.5155 -1.1788 -0.2693
 1635SOL    HW216365   1.322   0.366   2.582 -1.5692 -0.0473  0.2820
 1636SOL     OW16366   4.101   1.737  17.577 -0.1632  0.2975 -0.0952
 1636SOL    HW116367   4.119   1.831  17.569 -1.9745  0.6426 -0.2274
 1636SOL    HW216368   4.138   1.706  17.494 -0.5928  1.1169 -0.5960
 1637SOL     OW16369   0.678   3.354   9.268  0.4546 -0.2002 -0.0361
 1637SOL    HW116370   0.668   3.311   9.352 -0.0810 -1.1006 -0.5660
 1637SOL    HW216371   0.587   3.380   9.253  1.0389  1.8539 -0.1088
 1638SOL     OW16372   1.212   3.978   1.937 -0.0499 -0.5049 -0.1465
 1638SOL    HW116373   1.302   4.000   1.960 -1.1426 -0.1207  3.7522
 1638SOL    HW216374   1.230   3.898   1.888  0.8002 -0.0791 -0.5116
 1639SOL     OW16375   1.866   3.856  17.318  0.2445 -0.1562  0.0993
 1639SOL    HW116376   1.785   3.905  17.307 -0.0711 -1.0223 -1.4051
 1639SOL    HW216377   1.843   3.796  17.388 -0.3879 -1.0626 -0.8925
 1640SOL     OW16378   2.335   2.302   7.549 -0.3851 -0.0926  0.4325
 1640SOL    HW116379   2.316   2.395   7.533 -1.1102 -0.1916  0.7321
 1640SOL    HW216380   2.404   2.292   7.484 -1.9733  1.4237 -1.4829
 1641SOL     OW16381   0.530   0.274   2.578  0.7267  0.5719  0.3558
 1641SOL    HW116382   0.563   0.252   2.491  0.9648  2.2971  0.0178
 1641SOL    HW216383   0.577   0.211   2.632 -0.8335 -1.1644 -0.2961
 1642SOL     OW16384   2.619   2.518   4.042  0.1166  0.2333  0.1051
 1642SOL    HW116385   2.691   2.484   4.095 -1.1469 -0.6514  1.2428
 1642SOL    HW216386   2.584   2.582   4.103 -1.9621 -0.7247 -0.0776
 1643SOL     OW16387   1.103   1.920   3.818 -0.0172 -0.4432 -0.0669
 1643SOL    HW116388   1.108   2.013   3.842 -0.4181 -0.4918  0.2100
 1643SOL    HW216389   1.019   1.906   3.862 -0.8255 -0.7160 -1.7208
 1644SOL     OW16390   2.221   1.401  17.575 -0.1863  0.8984  0.2635
 1644SOL    HW116391   2.135   1.360  17.568 -0.2210  1.2695 -1.3481
 1644SOL    HW216392   2.272   1.357  17.508 -1.0703  1.3865 -0.7310
 1645SOL     OW16393   0.056   4.568   2.180 -0.4045 -0.4341  0.2470
 1645SOL    HW116394   0.088   4.483   2.213 -0.9674 -0.9637 -0.5676
 1645SOL    HW216395   4.699   4.543   2.140 -1.9960  0.2582  3.0985
 1646SOL     OW16396   0.329   2.828  10.892  0.1893  0.6850  0.4031
 1646SOL    HW116397   0.278   2.747  10.891  2.4484 -0.7331 -1.0776
 1646SOL    HW216398   0.331   2.848  10.798 -1.3456  4.0802  1.0744
 1647SOL     OW16399   0.630   2.655   6.508 -0.0183 -0.4388  0.0904
 1647SOL    HW116400   0.573   2.707   6.564  0.4328 -0.3507  0.4666
 1647SOL    HW216401   0.708   2.632   6.559  0.4133  2.4450  0.7431
 1648SOL     OW16402   3.910   4.095   8.479  0.5528  0.3707  0.8589
 1648SOL    HW116403   3.883   4.176   8.436 -0.1938  0.2187  1.0398
 1648SOL    HW216404   3.925   4.121   8.570 -0.4225  0.9486  0.8617
 1649SOL     OW16405   4.183   3.550   8.446  0.2518 -0.2018 -0.2856
 1649SOL    HW116406   4.193   3.640   8.477  0.5720 -0.2073 -0.3749
 1649SOL    HW216407   4.215   3.498   8.520 -0.0271 -0.2984 -0.2333
 1650SOL     OW16408   4.268   4.586   4.314  0.1970  0.2462 -0.1228
 1650SOL    HW116409   4.314   4.653   4.364  2.1979 -0.0011 -1.6297
 1650SOL    HW216410   4.316   4.575   4.232  0.1856  0.2163 -0.1255
 1651SOL     OW16411   3.333   0.890   5.865  0.0886  0.1257 -0.4316
 1651SOL    HW116412   3.357   0.827   5.798  1.6182  0.5836 -0.3003
 1651SOL    HW216413   3.289   0.829   5.924  2.5716  0.5623  1.8449
 1652SOL     OW16414   1.770   2.420   8.243  0.0977 -0.3579 -0.4738
 1652SOL    HW116415   1.710   2.418   8.318 -1.1136  1.4806 -1.3916
 1652SOL    HW216416   1.706   2.437   8.174 -1.1108 -1.4188  0.3925
 1653SOL     OW16417   3.019   4.324  17.350 -0.0284 -0.4391  0.2109
 1653SOL    HW116418   3.062   4.407  17.328 -0.8507 -0.1815 -0.4348
 1653SOL    HW216419   2.930   4.356  17.366  1.1480  1.9089  2.1192
 1654SOL     OW16420   3.569   0.634   7.534  0.3246  0.1068 -0.0593
 1654SOL    HW116421   3.501   0.644   7.467  1.2981 -0.5210 -1.1498
 1654SOL    HW216422   3.598   0.543   7.528 -0.0671  0.0214 -0.7791
 1655SOL     OW16423   4.012   4.648   3.470  0.2315 -0.6178 -0.0722
 1655SOL    HW116424   3.995   4.636   3.376  0.5123 -0.3437 -0.1592
 1655SOL    HW216425   3.925   4.628   3.506  0.2674 -1.0092 -0.2028
 1656SOL     OW16426   2.007   2.429   6.039 -0.4508  0.4343 -0.6693
 1656SOL    HW116427   2.013   2.448   6.133  0.9498  0.8815 -0.8456
 1656SOL    HW216428   2.035   2.508   5.993 -0.3333  0.2467 -0.9206
 1657SOL     OW16429   0.981   4.650   7.046  0.4235 -0.1751 -0.0835
 1657SOL    HW116430   0.897   4.606   7.037  1.4380 -2.2416  0.5382
 1657SOL    HW216431   1.043   4.577   7.039 -0.1316 -0.4499 -2.0395
 1658SOL     OW16432   4.681   4.071  10.351  0.5060 -0.6479  0.1011
 1658SOL    HW116433   4.723   4.115  10.277  1.4578  0.4734  1.3072
 1658SOL    HW216434   4.598   4.120  10.350  0.1581 -1.1904  1.6256
 1659SOL     OW16435   0.398   2.953   5.605  0.6088 -0.5884 -0.1968
 1659SOL    HW116436   0.371   3.033   5.649 -0.5255 -1.6385  1.0321
 1659SOL    HW216437   0.354   2.895   5.668  0.2218 -0.9035 -0.7583
 1660SOL     OW16438   1.209   0.225   0.813 -0.1937  0.2849 -0.2899
 1660SOL    HW116439   1.180   0.142   0.850  0.7181 -0.2449 -0.7710
 1660SOL    HW216440   1.145   0.236   0.743  0.3961 -1.8969 -1.1717
 1661SOL     OW16441   3.116   0.093  11.200 -0.0291 -0.3460 -0.1349
 1661SOL    HW116442   3.088   0.153  11.131  2.7459  1.8021  0.6230
 1661SOL    HW216443   3.197   0.053  11.167 -0.1600 -0.5898 -0.1641
 1662SOL     OW16444   0.977   3.664  14.215 -0.0616  0.0321  0.0349
 1662SOL    HW116445   0.968   3.633  14.125 -0.8464  1.4667 -0.3847
 1662SOL    HW216446   0.888   3.646  14.246 -0.6784 -3.4789 -3.8186
 1663SOL     OW16447   4.257   2.563   3.103  0.3002  0.0257  0.4038
 1663SOL    HW116448   4.211   2.633   3.055  2.9283 -0.0020 -2.1718
 1663SOL    HW216449   4.196   2.489   3.095 -2.5260  2.2267  1.4943
 1664SOL     OW16450   4.221   3.109   4.835 -0.1044  0.2006 -0.2616
 1664SOL    HW116451   4.252   3.164   4.763 -0.2715 -0.8020 -1.0968
 1664SOL    HW216452   4.136   3.151   4.845 -0.5953 -0.7049 -0.5882
 1665SOL     OW16453   0.463   4.640   7.652  1.1584 -0.4357 -0.1873
 1665SOL    HW116454   0.463   4.576   7.722  0.3187  0.3495  0.5247
 1665SOL    HW216455   0.557   4.660   7.647  1.1577 -0.4544 -0.2933
 1666SOL     OW16456   4.076   2.689   7.043  0.1780  0.4391 -0.5676
 1666SOL    HW116457   4.023   2.752   7.091  1.0259 -0.1258  1.1076
 1666SOL    HW216458   4.113   2.644   7.119  1.5672  0.3285 -1.3029
 1667SOL     OW16459   3.447   0.264   8.043  0.1205 -0.1907  0.3412
 1667SOL    HW116460   3.440   0.312   7.960  1.5267 -1.0617 -0.2761
 1667SOL    HW216461   3.448   0.176   8.004  2.5472  0.1074 -0.2704
 1668SOL     OW16462   1.145   2.649   2.949 -0.3250  0.6964 -0.0102
 1668SOL    HW116463   1.209   2.619   2.885 -0.7130 -0.4882  0.1696
 1668SOL    HW216464   1.060   2.623   2.914 -0.5674  2.5089 -0.7640
 1669SOL     OW16465   1.198   0.721  12.777  0.1601  0.5606  0.3141
 1669SOL    HW116466   1.187   0.795  12.717 -2.2835 -2.0668 -2.4581
 1669SOL    HW216467   1.293   0.710  12.770  0.0837  0.6144 -0.7753
 1670SOL     OW16468   3.149   3.090  13.025  0.2048  0.2132 -0.1563
 1670SOL    HW116469   3.211   3.101  13.097 -3.5085 -0.6549  3.1566
 1670SOL    HW216470   3.069   3.130  13.060  1.3561 -0.1410  2.9039
 1671SOL     OW16471   2.526   0.895   6.818  0.2883 -0.6874  0.2959
 1671SOL    HW116472   2.467   0.917   6.890  0.4772 -2.4155  0.9805
 1671SOL    HW216473   2.489   0.949   6.748 -0.7638  0.1808  1.5173
 1672SOL     OW16474   2.822   0.121   2.494 -0.7377 -0.1951 -0.3664
 1672SOL    HW116475   2.904   0.087   2.530 -0.4683  0.6404 -0.1989
 1672SOL    HW216476   2.761   0.059   2.534 -1.7258  0.9938 -0.0560
 1673SOL     OW16477   0.065   4.344  14.425  0.1752  0.1388 -0.1596
 1673SOL    HW116478   4.703   4.380  14.411  0.5320  1.0370 -0.0400
 1673SOL    HW216479   0.030   4.259  14.452  1.7017 -0.0549  1.1857
 1674SOL     OW16480   2.722   0.061   2.025  0.3322  0.1501 -0.0309
 1674SOL    HW116481   2.714   4.695   1.999  0.0088  0.4991 -1.1517
 1674SOL    HW216482   2.754   0.101   1.944 -1.8748  1.4067 -0.3069
 1675SOL     OW16483   3.937   2.105   8.338 -0.1742 -0.4639 -0.6090
 1675SOL    HW116484   3.887   2.057   8.404 -1.1314  1.3883  0.0041
 1675SOL    HW216485   4.025   2.104   8.375 -0.4766  1.9612  0.1725
 1676SOL     OW16486   3.205   1.239   4.532 -0.0136  0.6506  0.7098
 1676SOL    HW116487   3.134   1.267   4.589 -1.0148 -3.0368  1.2642
 1676SOL    HW216488   3.233   1.151   4.559  1.4907  1.1671  0.8468
 1677SOL     OW16489   3.645   3.307   2.093  0.6333 -0.0754  0.0094
 1677SOL    HW116490   3.560   3.314   2.051 -0.0036  0.9789  1.4584
 1677SOL    HW216491   3.671   3.396   2.117  0.9246 -0.2132  0.2148
 1678SOL     OW16492   0.728   4.649  17.355  0.5511 -0.0290 -0.6714
 1678SOL    HW116493   0.792   4.684  17.417  0.6026 -0.3345 -0.5513
 1678SOL    HW216494   0.746   4.698  17.275 -0.0965  0.3458 -0.5856
 1679SOL     OW16495   4.696   2.033  14.420 -0.0585  0.1243 -0.0798
 1679SOL    HW116496   0.043   2.082  14.459  1.1414 -2.0220  0.3423
 1679SOL    HW216497   4.710   1.949  14.463 -1.2193 -1.2049 -2.3304
 1680SOL     OW16498   0.393   4.034  12.623 -0.3700 -0.3959  0.6411
 1680SOL    HW116499   0.390   3.995  12.536 -0.4395  0.9081  0.0541
 1680SOL    HW216500   0.419   3.958  12.675 -0.4844  0.2181  1.6180
 1681SOL     OW16501   3.810   1.595   7.205  0.2413 -0.5008  0.2672
 1681SOL    HW116502   3.739   1.657   7.190  0.6167  0.0312  0.6969
 1681SOL    HW216503   3.878   1.644   7.252  1.5477 -0.8344 -1.2891
 1682SOL     OW16504   0.350   2.484  13.222  0.3997  0.3748 -0.4493
 1682SOL    HW116505   0.302   2.520  13.148  1.1311  1.9336 -0.1601
 1682SOL    HW216506   0.289   2.437  13.280 -0.1004  1.3485 -0.1929
 1683SOL     OW16507   3.507   0.010   2.586  0.3498  0.6790  0.0858
 1683SOL    HW116508   3.480   4.653   2.625  1.1737  0.6206  0.5303
 1683SOL    HW216509   3.601   0.001   2.572  0.1511  0.1175 -0.9152
 1684SOL     OW16510   0.334   2.078   8.720  0.2680  0.0966 -0.7039
 1684SOL    HW116511   0.294   2.016   8.782  2.6961  1.0394  1.8018
 1684SOL    HW216512   0.263   2.089   8.657 -0.5764  0.2799  0.2614
 1685SOL     OW16513   3.569   0.075  10.998  0.2094 -0.4602 -0.5599
 1685SOL    HW116514   3.502   0.009  11.011  1.1291 -0.8366  2.1915
 1685SOL    HW216515   3.514   0.147  10.966  0.8551  0.4537  0.4077
 1686SOL     OW16516   4.480   3.658   6.174  0.4911  0.3546 -0.1353
 1686SOL    HW116517   4.496   3.750   6.155  2.4011  0.0730  0.1165
 1686SOL    HW216518   4.438   3.665   6.260 -0.9304 -1.3063 -0.6822
 1687SOL     OW16519   1.761   2.350  17.271  0.1430 -0.5899  0.0733
 1687SOL    HW116520   1.743   2.382  17.182 -0.7765  1.4357  0.9780
 1687SOL    HW216521   1.844   2.385  17.302 -1.2330  0.8728  2.1070
 1688SOL     OW16522   2.753   0.787   2.257  0.0252  0.6872  0.0950
 1688SOL    HW116523   2.689   0.727   2.220 -1.1688  2.3885 -0.5920
 1688SOL    HW216524   2.758   0.767   2.351 -0.3883  3.2222  0.6490
 1689SOL     OW16525   2.786   2.231   6.769  0.7432 -0.1650  0.4850
 1689SOL    HW116526   2.749   2.208   6.854 -1.6291 -4.1634 -1.5990
 1689SOL    HW216527   2.875   2.197   6.771  0.7201 -0.3005 -0.6697
 1690SOL     OW16528   0.477   1.685   6.263  0.3425 -0.1785  0.5409
 1690SOL    HW116529   0.513   1.612   6.314 -0.2582 -0.3367  0.7397
 1690SOL    HW216530   0.475   1.643   6.177  1.1557  2.5481 -0.7990
 1691SOL     OW16531   1.086   4.386   3.789  0.2680  0.8826 -0.1417
 1691SOL    HW116532   0.994   4.364   3.799  1.0527 -3.3929 -2.1025
 1691SOL    HW216533   1.129   4.328   3.852 -2.1889 -1.0332 -0.2351
 1692SOL     OW16534   1.119   0.114   2.986  0.2416 -0.0848 -0.0683
 1692SOL    HW116535   1.110   0.109   2.891  0.1727  1.6636 -0.1497
 1692SOL    HW216536   1.039   0.064   3.002  1.2496 -1.8633 -0.6542
 1693SOL     OW16537   3.026   0.459  12.358  0.4133  0.9127 -0.9325
 1693SOL    HW116538   2.941   0.457  12.314  0.2517  0.5182 -0.6014
 1693SOL    HW216539   3.002   0.488  12.446  0.5746  2.4392 -1.3776
 1694SOL     OW16540   2.091   2.629  11.241 -0.0043  0.0188  0.6119
 1694SOL    HW116541   2.027   2.631  11.170  2.2538  0.1435 -1.3880
 1694SOL    HW216542   2.070   2.707  11.293 -3.6114  1.0261 -2.3789
 1695SOL     OW16543   3.255   0.536   4.058  0.1156  0.1083 -0.1703
 1695SOL    HW116544   3.302   0.565   3.981  0.2114  0.0003 -0.1531
 1695SOL    HW216545   3.250   0.618   4.107  2.1809 -0.2320  0.6176
 1696SOL     OW16546   3.027   2.940   7.205 -0.1437 -0.1091  0.1063
 1696SOL    HW116547   3.095   2.962   7.142  0.3805 -2.0501 -0.0002
 1696SOL    HW216548   3.013   3.028   7.239 -0.7465 -0.6580  1.2857
 1697SOL     OW16549   4.167   3.275   6.065 -0.6520  0.3426 -0.0058
 1697SOL    HW116550   4.079   3.261   6.099 -0.7960  0.8509 -0.1656
 1697SOL    HW216551   4.172   3.370   6.078  1.6619 -0.0055  1.5714
 1698SOL     OW16552   0.529   0.636   2.351 -0.3218  0.3119  0.3068
 1698SOL    HW116553   0.488   0.597   2.274  0.2696 -1.3059  0.8308
 1698SOL    HW216554   0.484   0.584   2.417  0.3935  0.7259  1.1159
 1699SOL     OW16555   1.837   4.503   0.549 -0.0503  0.1152  0.6465
 1699SOL    HW116556   1.835   4.492   0.644  1.7441 -0.6891  0.5966
 1699SOL    HW216557   1.777   4.435   0.518  1.1776 -0.8635  0.3804
 1700SOL     OW16558   0.205   2.500   4.705 -0.4719 -0.0797  0.0707
 1700SOL    HW116559   0.139   2.525   4.770 -0.8410 -2.9238  0.8157
 1700SOL    HW216560   0.256   2.437   4.757  1.1844  1.9433  0.8822
 1701SOL     OW16561   1.832   0.391  12.496  0.6490  0.4745  0.0234
 1701SOL    HW116562   1.917   0.393  12.452  0.6018 -1.6792 -0.1841
 1701SOL    HW216563   1.791   0.307  12.474  1.9295 -0.4315  1.0930
 1702SOL     OW16564   0.207   0.743   5.968 -0.3353  0.0153 -0.2976
 1702SOL    HW116565   0.132   0.713   6.020  0.0257  0.6488  0.5796
 1702SOL    HW216566   0.257   0.663   5.986 -0.5803  0.0309  0.4644
 1703SOL     OW16567   4.165   0.702   2.448 -0.1091 -0.0414  0.1967
 1703SOL    HW116568   4.086   0.653   2.472  0.5049  0.4301  3.1702
 1703SOL    HW216569   4.145   0.741   2.363 -0.7833  0.3197  0.5319
 1704SOL     OW16570   4.009   1.100   3.810 -0.1731  0.3940  0.3533
 1704SOL    HW116571   3.966   1.184   3.825  1.4198  1.6231 -1.9315
 1704SOL    HW216572   3.936   1.049   3.777 -1.5160  0.5346  3.1173
 1705SOL     OW16573   1.892   2.505   2.580 -0.0924  0.4517 -0.1864
 1705SOL    HW116574   1.935   2.471   2.659  0.3190 -0.7684 -0.9286
 1705SOL    HW216575   1.945   2.456   2.517  0.5748  1.0045 -0.0626
 1706SOL     OW16576   4.441   0.788   2.188  0.0031 -0.1461 -0.2812
 1706SOL    HW116577   4.478   0.819   2.105 -2.2956 -1.2243 -1.7092
 1706SOL    HW216578   4.427   0.697   2.163  0.9759 -0.5336  0.5913
 1707SOL     OW16579   2.102   1.051  17.186 -0.4321  0.7004  0.2946
 1707SOL    HW116580   2.076   0.961  17.206 -1.9928  1.0544 -0.0907
 1707SOL    HW216581   2.107   1.057  17.090  0.4257 -0.0790  0.2920
 1708SOL     OW16582   3.865   3.145  12.142 -0.6803 -0.4769 -0.2452
 1708SOL    HW116583   3.789   3.140  12.083 -0.8648 -0.7580  0.0179
 1708SOL    HW216584   3.853   3.237  12.166  0.1023 -0.5872  0.5735
 1709SOL     OW16585   4.623   1.943  14.093 -0.1015 -1.0733  0.4105
 1709SOL    HW116586   4.561   1.987  14.152 -0.3166 -2.1930  1.0235
 1709SOL    HW216587   4.572   1.863  14.080  1.7944 -2.3369  0.6643
 1710SOL     OW16588   3.808   2.422   2.450 -0.2182 -0.1458  0.4803
 1710SOL    HW116589   3.777   2.331   2.454 -1.5554  0.2998  0.2746
 1710SOL    HW216590   3.903   2.413   2.452 -0.1175 -0.1672 -3.8472
 1711SOL     OW16591   3.028   0.779  12.960 -0.0897  0.0177  0.3261
 1711SOL    HW116592   3.040   0.861  12.911 -0.4366 -1.8115 -2.8202
 1711SOL    HW216593   3.069   0.715  12.902  1.0531  0.3862  0.7327
 1712SOL     OW16594   0.137   0.498   8.029  0.0119 -0.6468 -0.9822
 1712SOL    HW116595   0.060   0.553   8.015 -0.8553 -1.6831 -0.3335
 1712SOL    HW216596   0.134   0.439   7.954 -0.7460 -0.7269 -0.8906
 1713SOL     OW16597   2.977   3.303  15.930 -0.1510 -0.6344 -0.2148
 1713SOL    HW116598   2.967   3.322  15.837  3.0160  1.0637 -0.1936
 1713SOL    HW216599   2.912   3.365  15.964  0.1879  0.8797 -2.3498
 1714SOL     OW16600   0.840   0.532   3.971  0.2133  0.3177 -0.4559
 1714SOL    HW116601   0.930   0.500   3.975 -0.3896 -1.3164 -0.0008
 1714SOL    HW216602   0.782   0.474   4.020  0.8968  0.0421  0.0338
 1715SOL     OW16603   1.480   3.455  15.029 -0.1558  0.0714 -0.2868
 1715SOL    HW116604   1.424   3.532  15.039 -0.0263  0.6521 -3.9648
 1715SOL    HW216605   1.558   3.489  15.073 -0.7705  0.0245  0.8334
 1716SOL     OW16606   3.378   4.190   5.459 -0.0480  0.1716 -0.8444
 1716SOL    HW116607   3.347   4.126   5.523  2.2998  1.4016  1.5328
 1716SOL    HW216608   3.353   4.263   5.515  0.0032 -0.9662  0.6712
 1717SOL     OW16609   0.823   1.502   4.891  0.5106  0.0100 -0.0498
 1717SOL    HW116610   0.888   1.546   4.836 -0.6858  0.7146 -0.9078
 1717SOL    HW216611   0.778   1.452   4.823  0.6048 -1.0328  0.6474
 1718SOL     OW16612   0.087   2.186   2.339  0.0101 -0.2636  0.1762
 1718SOL    HW116613   4.724   2.173   2.304 -1.1681  0.7565  2.7985
 1718SOL    HW216614   0.085   2.277   2.307  0.7212 -0.6398 -0.9623
 1719SOL     OW16615   3.462   3.567   5.831  0.3931 -0.1539  0.2300
 1719SOL    HW116616   3.498   3.488   5.872  1.1819  0.0896  0.0052
 1719SOL    HW216617   3.380   3.564   5.881  0.1201 -0.1800 -0.2241
 1720SOL     OW16618   3.288   3.647   8.206  0.0398 -0.4946  0.1058
 1720SOL    HW116619   3.211   3.685   8.163 -0.2184  0.4987  1.4529
 1720SOL    HW216620   3.345   3.648   8.129  3.9559 -0.5212  3.0130
 1721SOL     OW16621   1.260   4.639   3.805 -0.1199  0.4320  0.4564
 1721SOL    HW116622   1.205   4.570   3.767 -0.0783  0.9047 -0.4722
 1721SOL    HW216623   1.297   4.681   3.727 -2.8324  1.2824 -0.3707
 1722SOL     OW16624   1.358   2.445   7.623 -0.1229 -0.3440 -0.3703
 1722SOL    HW116625   1.431   2.407   7.575 -0.0063  0.0178 -0.4825
 1722SOL    HW216626   1.298   2.371   7.630 -0.7968  0.0926 -1.6176
 1723SOL     OW16627   1.493   2.814  11.654 -0.1703  0.6524  0.0358
 1723SOL    HW116628   1.421   2.860  11.698  0.0610  1.9223 -0.9027
 1723SOL    HW216629   1.551   2.788  11.726  0.2377 -0.6579 -0.7726
 1724SOL     OW16630   2.920   4.496   0.043 -0.5582 -0.1522  0.1046
 1724SOL    HW116631   2.963   4.447   0.114 -2.0544 -0.3086  0.8977
 1724SOL    HW216632   2.934   4.431  17.678 -1.9923  1.7670 -2.0205
 1725SOL     OW16633   1.783   1.599   7.189  0.0208  0.2101 -0.1694
 1725SOL    HW116634   1.747   1.515   7.216 -1.5662  0.3333 -1.8504
 1725SOL    HW216635   1.811   1.578   7.100  2.1797 -1.2120  0.8646
 1726SOL     OW16636   3.494   0.459   0.113  0.3352  0.3998  0.2023
 1726SOL    HW116637   3.547   0.450   0.193  0.1754 -1.0656  0.1435
 1726SOL    HW216638   3.412   0.484   0.155 -1.6416 -0.6457 -3.0230
 1727SOL     OW16639   0.858   4.401   7.794 -0.1852  0.1069 -0.0168
 1727SOL    HW116640   0.819   4.436   7.714  0.5873 -0.8049 -0.7812
 1727SOL    HW216641   0.792   4.413   7.863  0.4524  1.9548  0.2763
 1728SOL     OW16642   0.714   1.641   8.452  0.2507  0.0794  0.8720
 1728SOL    HW116643   0.767   1.635   8.531 -1.1167 -0.3168  1.7477
 1728SOL    HW216644   0.636   1.684   8.485  1.0428  0.6537  1.9943
 1729SOL     OW16645   1.018   1.417   4.241  0.6575 -0.8747 -0.0223
 1729SOL    HW116646   0.944   1.368   4.277 -1.2419  2.2760  0.3313
 1729SOL    HW216647   1.071   1.425   4.320  3.0445  1.0851 -1.8322
 1730SOL     OW16648   4.192   4.068   4.580 -0.6819 -0.4905 -0.4780
 1730SOL    HW116649   4.230   4.156   4.576 -0.6464 -0.5517 -1.4738
 1730SOL    HW216650   4.206   4.057   4.674  0.0139 -0.5985 -0.5937
 1731SOL     OW16651   1.042   1.833  14.133  0.3322 -0.0073  0.1344
 1731SOL    HW116652   1.031   1.903  14.069 -0.0869  0.5316  0.7914
 1731SOL    HW216653   1.134   1.848  14.153  0.1118  1.0286  0.3776
 1732SOL     OW16654   1.108   1.130   6.594 -0.6137 -0.1178 -0.5651
 1732SOL    HW116655   1.074   1.057   6.646 -0.7680 -0.4556 -1.1292
 1732SOL    HW216656   1.097   1.098   6.504  1.1230 -0.1449 -0.7572
 1733SOL     OW16657   2.162   2.647   7.870 -0.2222  0.3162  0.0774
 1733SOL    HW116658   2.156   2.644   7.774 -2.6539  0.3200  0.2339
 1733SOL    HW216659   2.077   2.619   7.903 -0.0016 -1.2656 -0.6905
 1734SOL     OW16660   3.173   1.172   7.078 -0.3363  0.2540  0.0664
 1734SOL    HW116661   3.122   1.097   7.108  1.5333 -1.2480 -0.5282
 1734SOL    HW216662   3.114   1.246   7.097  0.2557  0.4531  1.1079
 1735SOL     OW16663   1.296   2.847   3.076  0.0405 -0.3520  0.0746
 1735SOL    HW116664   1.373   2.796   3.102  0.0779 -1.0942 -1.4726
 1735SOL    HW216665   1.241   2.794   3.019 -0.3367  0.2274 -0.1041
 1736SOL     OW16666   0.735   2.734  16.669 -0.7342 -0.9802  0.1253
 1736SOL    HW116667   0.698   2.721  16.582 -0.2759  0.1048 -0.2278
 1736SOL    HW216668   0.681   2.688  16.733 -1.5573  2.1158  1.6549
 1737SOL     OW16669   0.555   2.806   6.304 -0.3751 -0.7502  0.1656
 1737SOL    HW116670   0.595   2.738   6.358 -0.3540 -1.1749 -0.3840
 1737SOL    HW216671   0.472   2.800   6.352  0.3951  1.2482  1.7372
 1738SOL     OW16672   3.045   1.243  16.795  0.4787  0.3694  0.3642
 1738SOL    HW116673   3.094   1.211  16.870 -3.8975 -3.5248  1.6264
 1738SOL    HW216674   3.115   1.240  16.730  0.2133  0.4196  0.0733
 1739SOL     OW16675   2.593   3.088   5.626  0.2847  0.0070 -0.1644
 1739SOL    HW116676   2.573   3.108   5.535 -3.4084  1.9019  1.0317
 1739SOL    HW216677   2.626   3.171   5.661 -2.0075  0.4195  1.0949
 1740SOL     OW16678   2.339   4.022   2.211 -0.3657  0.5367 -0.2120
 1740SOL    HW116679   2.288   4.047   2.288 -2.6980 -0.6421 -1.3752
 1740SOL    HW216680   2.338   3.927   2.222  2.1373  0.3736 -1.3377
 1741SOL     OW16681   1.581   2.783   8.981 -0.0108 -0.2955 -0.3517
 1741SOL    HW116682   1.583   2.740   9.067 -0.4839  0.4805  0.0457
 1741SOL    HW216683   1.522   2.722   8.937 -0.2316 -0.6366  0.4110
 1742SOL     OW16684   2.977   3.703   6.920 -0.1553  0.1323 -0.1251
 1742SOL    HW116685   3.021   3.619   6.930  0.6209  0.6230  0.5242
 1742SOL    HW216686   3.035   3.752   6.862 -1.5623  0.7404 -1.0370
 1743SOL     OW16687   0.706   4.329   4.696  0.4160 -0.1943  0.4865
 1743SOL    HW116688   0.641   4.399   4.700 -0.3795 -0.8692 -0.6774
 1743SOL    HW216689   0.652   4.253   4.674 -0.4698 -0.1247  2.4049
 1744SOL     OW16690   4.518   0.309  13.098  0.3074 -0.5459 -0.0228
 1744SOL    HW116691   4.610   0.334  13.090  0.3790 -0.4225  1.1740
 1744SOL    HW216692   4.476   0.322  13.013 -0.7151  1.0039  0.7093
 1745SOL     OW16693   3.699   2.743  11.255 -0.1116  0.3295 -0.0081
 1745SOL    HW116694   3.711   2.676  11.187 -0.8487  1.4261 -1.2373
 1745SOL    HW216695   3.786   2.781  11.246 -0.3019  0.3307 -2.0382
 1746SOL     OW16696   2.923   3.706  17.647 -0.7216 -0.4164  0.4029
 1746SOL    HW116697   2.919   3.732  17.555  0.5190  0.6886  0.6610
 1746SOL    HW216698   2.832   3.681  17.664 -0.6615 -0.5208  0.5777
 1747SOL     OW16699   1.205   2.651   2.378  0.2048 -0.1693 -0.7186
 1747SOL    HW116700   1.245   2.737   2.391 -0.0408 -0.3147  1.1143
 1747SOL    HW216701   1.115   2.662   2.347  0.9967  2.1548 -2.1829
 1748SOL     OW16702   0.214   2.172   0.527  0.2545  0.5345 -0.2862
 1748SOL    HW116703   0.298   2.126   0.522  0.4623  0.8238  0.7355
 1748SOL    HW216704   0.166   2.131   0.454 -1.0523  1.5541 -0.0051
 1749SOL     OW16705   0.634   3.671   2.701  0.4445  0.4607 -0.1501
 1749SOL    HW116706   0.613   3.727   2.775 -0.7212 -1.1847  0.7676
 1749SOL    HW216707   0.664   3.741   2.644 -0.0275  0.5048 -0.3407
 1750SOL     OW16708   4.536   0.967   0.540 -0.1103  0.0670 -0.1072
 1750SOL    HW116709   4.527   0.920   0.456  1.2664 -1.2490  0.4814
 1750SOL    HW216710   4.556   1.057   0.513  0.8221 -0.0092  0.3246
 1751SOL     OW16711   4.263   4.501   5.410  0.2985  0.2213 -0.5898
 1751SOL    HW116712   4.353   4.523   5.385  0.5276  1.7921  1.6726
 1751SOL    HW216713   4.251   4.406   5.406  2.3313 -0.0789  0.3787
 1752SOL     OW16714   1.767   3.625   0.487 -0.4797  0.1014  0.6663
 1752SOL    HW116715   1.846   3.642   0.539 -0.5341 -0.5591  0.9680
 1752SOL    HW216716   1.773   3.531   0.473  0.0404  0.5028 -1.7439
 1753SOL     OW16717   4.345   3.915   8.260  0.5267  0.1682 -0.4138
 1753SOL    HW116718   4.298   3.964   8.193  2.0125  0.4455 -1.2538
 1753SOL    HW216719   4.428   3.892   8.217  0.2109 -0.0004 -0.9246
 1754SOL     OW16720   0.181   1.721   4.427  0.2521 -0.8419 -0.0659
 1754SOL    HW116721   0.187   1.659   4.499 -2.3906 -1.3427 -0.2983
 1754SOL    HW216722   0.128   1.678   4.360  0.9305  0.2433 -1.3035
 1755SOL     OW16723   1.752   3.746   3.692 -0.4153  0.1103  0.4073
 1755SOL    HW116724   1.809   3.800   3.638 -1.4323  0.4377 -0.3377
 1755SOL    HW216725   1.691   3.712   3.626 -0.3406 -1.6462  1.2395
 1756SOL     OW16726   2.082   1.976  15.599 -0.3403 -0.2776  0.3794
 1756SOL    HW116727   2.131   1.926  15.664  3.6897  2.3040 -0.6616
 1756SOL    HW216728   2.124   1.960  15.514 -0.6211  2.0661 -0.2053
 1757SOL     OW16729   4.209   0.221  10.540 -0.1509 -0.3387  0.0979
 1757SOL    HW116730   4.159   0.211  10.621 -2.2254  1.0376 -0.9987
 1757SOL    HW216731   4.295   0.206  10.580  0.2145  1.4896 -0.0179
 1758SOL     OW16732   2.499   1.271  16.547  0.2443 -0.5347 -0.1202
 1758SOL    HW116733   2.546   1.283  16.464  2.8628  0.7277  1.5241
 1758SOL    HW216734   2.555   1.322  16.605 -1.7696  1.7816 -0.2194
 1759SOL     OW16735   0.720   2.751  11.353  0.3209 -0.0711 -0.2821
 1759SOL    HW116736   0.755   2.759  11.442  0.3738 -1.4354 -0.1893
 1759SOL    HW216737   0.798   2.762  11.298  1.8650  2.4203  2.3603
 1760SOL     OW16738   4.683   3.944   5.054  0.4828 -0.1222  0.5269
 1760SOL    HW116739   4.616   3.934   4.987 -0.1718  2.0797  0.8488
 1760SOL    HW216740   0.013   4.011   5.015 -1.2833  0.6684 -0.6133
 1761SOL     OW16741   1.515   2.153   4.732 -0.0864 -0.4574 -0.0607
 1761SOL    HW116742   1.563   2.098   4.793 -1.5768  0.0089  1.5437
 1761SOL    HW216743   1.529   2.089   4.662 -2.6658 -0.7080 -0.3724
 1762SOL     OW16744   1.340   3.001  11.854  0.4855  0.0749 -0.6607
 1762SOL    HW116745   1.330   3.016  11.948  2.7956  1.3941 -0.6146
 1762SOL    HW216746   1.401   3.070  11.828  0.3363 -0.4463 -2.3387
 1763SOL     OW16747   0.519   4.026  11.249  0.6987  0.0643  0.3377
 1763SOL    HW116748   0.462   4.026  11.172  0.8249 -2.7896  0.2346
 1763SOL    HW216749   0.585   3.964  11.218  1.9188  1.2757  0.5140
 1764SOL     OW16750   4.016   2.340   5.841 -0.0228  0.3171 -0.2108
 1764SOL    HW116751   4.051   2.262   5.798  0.9006  0.5029  0.1945
 1764SOL    HW216752   3.933   2.316   5.880  1.1250 -1.9065  0.8250
 1765SOL     OW16753   4.713   0.900  12.157  0.6224 -0.1634 -0.0776
 1765SOL    HW116754   4.694   0.886  12.250  0.9138 -0.3423 -0.0450
 1765SOL    HW216755   0.021   0.990  12.154  0.7895 -0.1278  2.2123
 1766SOL     OW16756   0.912   0.962   4.212 -0.3425 -0.3636 -0.6671
 1766SOL    HW116757   0.970   1.014   4.156  0.5934 -0.4533  0.2197
 1766SOL    HW216758   0.868   0.907   4.147 -0.2811  0.3703 -1.3393
 1767SOL     OW16759   0.175   0.911   5.095  0.5783  0.1752 -0.5733
 1767SOL    HW116760   0.204   0.842   5.036  1.7838  0.1194  0.0743
 1767SOL    HW216761   0.090   0.871   5.111 -0.0618  1.0964 -1.6222
 1768SOL     OW16762   3.984   4.301   5.313 -0.0018 -0.0769 -0.2103
 1768SOL    HW116763   3.960   4.374   5.370  0.5578  0.9029 -1.2361
 1768SOL    HW216764   4.075   4.282   5.335  0.7692  1.5821 -1.9382
 1769SOL     OW16765   2.118   3.040   9.953  0.6402 -0.1759 -0.5560
 1769SOL    HW116766   2.042   3.098   9.943  1.7563  1.5719  1.0967
 1769SOL    HW216767   2.074   2.958   9.931  0.0145 -0.3932  1.5797
 1770SOL     OW16768   2.385   4.648  16.677  0.2818 -0.5028  0.4270
 1770SOL    HW116769   2.311   4.674  16.732 -0.6533  0.9869 -1.4965
 1770SOL    HW216770   2.415   4.570  16.722  1.4244 -0.2599  0.1013
 1771SOL     OW16771   0.395   0.881   3.200  0.0284 -0.7909  0.4279
 1771SOL    HW116772   0.490   0.882   3.211 -0.0426 -0.4582  0.9850
 1771SOL    HW216773   0.358   0.920   3.280 -0.9939 -1.5300  0.3217
 1772SOL     OW16774   4.216   4.351   4.033 -0.5539  0.1282 -0.7210
 1772SOL    HW116775   4.221   4.436   3.990 -0.5452 -0.2953 -1.5455
 1772SOL    HW216776   4.123   4.346   4.054  0.3326  0.0525  3.1875
 1773SOL     OW16777   1.889   1.394   4.240  0.1327  0.3722 -0.3767
 1773SOL    HW116778   1.802   1.412   4.276 -0.2971  1.5834 -2.0418
 1773SOL    HW216779   1.944   1.384   4.318  0.1828  1.4355 -0.2867
 1774SOL     OW16780   4.667   1.806   6.590  0.1042  0.1651  0.0401
 1774SOL    HW116781   4.699   1.774   6.506  3.2294 -1.3289  1.8129
 1774SOL    HW216782   4.572   1.808   6.578 -0.0012 -1.3066  0.6544
 1775SOL     OW16783   1.114   2.823   6.247  0.7554 -0.8921  0.4476
 1775SOL    HW116784   1.110   2.870   6.330  0.4302 -1.0467  0.5197
 1775SOL    HW216785   1.209   2.818   6.235  0.9695 -2.5403  2.7150
 1776SOL     OW16786   0.206   4.617   8.233 -0.3741 -0.0972  0.3088
 1776SOL    HW116787   0.191   4.692   8.290 -2.1902 -0.9167  0.9153
 1776SOL    HW216788   0.265   4.565   8.286 -0.3805 -1.6257 -1.1790
 1777SOL     OW16789   3.123   0.558  10.454 -0.7437  0.2328  0.6353
 1777SOL    HW116790   3.109   0.467  10.428  0.0814 -0.5378  2.9478
 1777SOL    HW216791   3.206   0.550  10.501  0.6139 -0.2048 -1.8283
 1778SOL     OW16792   2.236   2.711   9.839  0.3909  0.0256 -0.0090
 1778SOL    HW116793   2.147   2.747   9.851 -0.0735 -0.6245 -1.5292
 1778SOL    HW216794   2.268   2.769   9.770 -0.5628  0.0630 -0.4273
 1779SOL     OW16795   1.992   2.952   7.282  0.9122 -0.1251  0.1052
 1779SOL    HW116796   2.048   2.989   7.350  2.3170 -1.4185 -0.3358
 1779SOL    HW216797   2.056   2.909   7.225 -1.5390 -4.3785  0.6024
 1780SOL     OW16798   4.504   3.602  15.077 -0.0306  0.1013  0.0313
 1780SOL    HW116799   4.423   3.628  15.033  0.1836 -1.1309 -1.0966
 1780SOL    HW216800   4.574   3.657  15.041  0.1048  0.7022  1.2039
 1781SOL     OW16801   0.729   1.328   2.594  0.2098  0.2431  0.4791
 1781SOL    HW116802   0.782   1.405   2.571 -1.4599  1.3880  0.4428
 1781SOL    HW216803   0.641   1.366   2.602  0.5498  1.0498  0.4051
 1782SOL     OW16804   2.476   1.074  14.776 -0.2251 -0.0111 -0.8534
 1782SOL    HW116805   2.549   1.132  14.796 -0.0864 -0.2103 -0.7743
 1782SOL    HW216806   2.450   1.092  14.686  2.0339 -0.0475 -1.5065
 1783SOL     OW16807   4.553   0.952   1.208  0.1013  0.1989 -0.0309
 1783SOL    HW116808   4.496   0.937   1.133  1.4604  0.3760 -1.1129
 1783SOL    HW216809   4.567   1.045   1.224  0.0802  0.5724 -2.2322
 1784SOL     OW16810   3.396   0.796   4.645  0.1683  0.0795 -0.6328
 1784SOL    HW116811   3.393   0.824   4.553  3.5026  1.1704 -0.4319
 1784SOL    HW216812   3.486   0.817   4.673  0.6116 -0.1970 -1.8493
 1785SOL     OW16813   3.840   4.694  10.979  0.1509  0.4065 -0.2977
 1785SOL    HW116814   3.817   4.683  10.887 -0.1267 -0.8188 -0.0781
 1785SOL    HW216815   3.756   4.719  11.017  1.5840  0.9074  2.5730
 1786SOL     OW16816   2.830   1.016   7.372  0.4783  1.2959  0.2841
 1786SOL    HW116817   2.822   0.970   7.456  1.0281 -0.8856 -0.8563
 1786SOL    HW216818   2.772   0.962   7.319  3.5506  0.8159 -2.5818
 1787SOL     OW16819   0.033   2.273   0.810  0.2081 -0.0498  0.5766
 1787SOL    HW116820   0.071   2.349   0.853 -1.3893  0.6683  0.7091
 1787SOL    HW216821   4.724   2.229   0.888 -1.3520  1.6091  0.8026
 1788SOL     OW16822   3.513   0.381   4.662  0.2429 -0.1555  0.0535
 1788SOL    HW116823   3.527   0.298   4.617 -0.2398 -0.4389  0.4283
 1788SOL    HW216824   3.578   0.443   4.628 -1.9976  0.2667 -3.3716
 1789SOL     OW16825   1.766   1.508  14.916 -0.5819  0.1462 -0.5645
 1789SOL    HW116826   1.833   1.527  14.982 -0.6592 -1.2663 -0.0881
 1789SOL    HW216827   1.788   1.569  14.846 -1.9985  2.8464  1.3093
 1790SOL     OW16828   0.091   2.992   4.407  0.5969 -0.3546  0.1220
 1790SOL    HW116829   0.169   3.043   4.383 -0.1140 -0.3073 -2.0799
 1790SOL    HW216830   0.126   2.910   4.373 -0.2462 -0.1982 -1.1395
 1791SOL     OW16831   1.260   2.185   8.550  0.4668 -0.0905 -0.6405
 1791SOL    HW116832   1.287   2.173   8.641 -1.4384  2.2301  0.2150
 1791SOL    HW216833   1.195   2.251   8.572 -1.0144 -1.8250  0.1510
 1792SOL     OW16834   1.120   2.078  11.321 -0.1700 -0.6249  0.0985
 1792SOL    HW116835   1.174   2.049  11.394  0.9487 -0.7798 -0.8060
 1792SOL    HW216836   1.157   2.160  11.288 -2.4701 -0.3961 -1.9649
 1793SOL     OW16837   2.401   3.150  10.629 -0.3885  0.3988  0.4894
 1793SOL    HW116838   2.469   3.217  10.640  0.2257 -0.4637  1.9355
 1793SOL    HW216839   2.372   3.167  10.539 -0.8070 -2.3729  0.0863
 1794SOL     OW16840   1.990   4.143   3.749 -0.5932  0.0918  0.0783
 1794SOL    HW116841   1.921   4.143   3.682 -2.1002  2.0158  1.6528
 1794SOL    HW216842   2.067   4.179   3.705 -0.4544  1.0889  1.1570
 1795SOL     OW16843   1.860   3.436   9.048  0.2807  0.4677 -0.0671
 1795SOL    HW116844   1.931   3.406   9.105  0.1844 -0.2900 -0.3461
 1795SOL    HW216845   1.791   3.440   9.114  0.1341  0.3384 -0.2133
 1796SOL     OW16846   1.032   2.615  15.457 -0.3607  0.6804  0.1758
 1796SOL    HW116847   1.126   2.600  15.467 -0.5089  0.8662  1.8076
 1796SOL    HW216848   1.010   2.708  15.460 -0.1032  0.7810 -1.3348
 1797SOL     OW16849   2.952   1.597   8.507  0.1806  0.2201 -0.4988
 1797SOL    HW116850   2.923   1.567   8.593 -0.3372  1.6548 -0.1717
 1797SOL    HW216851   2.967   1.512   8.466 -0.0425 -0.6429  1.2164
 1798SOL     OW16852   4.086   1.780   1.583 -0.1366  0.2885 -0.0288
 1798SOL    HW116853   4.125   1.751   1.501  0.2573  0.4571  0.0989
 1798SOL    HW216854   4.000   1.809   1.555  0.4825  2.5520  0.4519
 1799SOL     OW16855   3.670   3.031   2.777 -0.1420 -0.3575  0.2243
 1799SOL    HW116856   3.598   2.996   2.829  0.2690 -0.8274  0.4815
 1799SOL    HW216857   3.698   3.112   2.820 -2.6727 -0.4289  1.9411
 1800SOL     OW16858   1.926   0.637   8.926 -0.7257 -0.0842  0.3172
 1800SOL    HW116859   1.994   0.571   8.913  0.1774  0.7766  0.6744
 1800SOL    HW216860   1.891   0.647   8.837  1.0531 -0.0435 -0.3857
 1801SOL     OW16861   0.078   2.581  17.121 -0.4317  0.3390  0.1792
 1801SOL    HW116862   0.022   2.507  17.144 -0.9982  0.5390 -0.5464
 1801SOL    HW216863   0.082   2.623  17.206 -0.7910 -1.5034  1.1024
 1802SOL     OW16864   0.464   1.889   8.268  0.2463  0.3656  0.4800
 1802SOL    HW116865   0.450   1.863   8.359 -0.6861  2.2524  0.8910
 1802SOL    HW216866   0.407   1.966   8.260  0.6691  0.5173 -0.9951
 1803SOL     OW16867   0.830   2.246   7.297  0.1805  0.0964  0.2979
 1803SOL    HW116868   0.786   2.162   7.284 -2.0097  1.5366 -1.6186
 1803SOL    HW216869   0.916   2.219   7.264 -1.5825 -2.2535 -2.3846
 1804SOL     OW16870   2.875   2.707   5.559  0.3419 -0.1009 -0.0597
 1804SOL    HW116871   2.930   2.729   5.634  1.2082 -0.0669 -0.7023
 1804SOL    HW216872   2.934   2.746   5.494 -0.1253  0.0279 -0.4115
 1805SOL     OW16873   2.997   3.002   9.632 -0.1456  0.0224  0.1261
 1805SOL    HW116874   2.995   2.916   9.673  0.9136 -0.8506 -1.6398
 1805SOL    HW216875   2.963   3.057   9.703 -2.1605 -1.4233  0.2933
 1806SOL     OW16876   0.531   4.351   2.565 -0.1408  0.0651 -0.3578
 1806SOL    HW116877   0.526   4.445   2.548  2.4163  0.2079 -0.4159
 1806SOL    HW216878   0.447   4.323   2.531  0.5791 -2.5554  0.0161
 1807SOL     OW16879   2.999   2.222   5.417  0.2424  0.3361  0.7871
 1807SOL    HW116880   3.065   2.286   5.392 -1.3002  1.0769 -1.3824
 1807SOL    HW216881   2.935   2.290   5.438 -0.6653 -0.2720 -0.0005
 1808SOL     OW16882   2.751   0.157   8.107 -0.3522 -0.8630 -0.4176
 1808SOL    HW116883   2.777   0.205   8.028  0.5502 -1.2559 -0.3603
 1808SOL    HW216884   2.724   0.233   8.159 -0.8760 -0.6729 -0.9625
 1809SOL     OW16885   4.069   1.581   2.776  0.0866  0.2906  0.1632
 1809SOL    HW116886   4.057   1.644   2.704  1.5585  0.3530 -0.0241
 1809SOL    HW216887   4.063   1.496   2.731 -1.0229 -0.8283  2.4447
 1810SOL     OW16888   2.567   3.270   6.412  0.2144 -0.7189 -0.6457
 1810SOL    HW116889   2.513   3.347   6.394  0.0360 -0.9742 -1.2073
 1810SOL    HW216890   2.510   3.195   6.400 -1.3243  0.3323  0.0952
 1811SOL     OW16891   4.115   3.251   6.718 -0.1957  0.9280  0.0040
 1811SOL    HW116892   4.030   3.213   6.741 -1.3971  2.8214 -1.4108
 1811SOL    HW216893   4.145   3.294   6.798  1.1828 -2.2594  1.2159
 1812SOL     OW16894   3.826   0.799  11.186 -0.2509 -0.5271  0.1141
 1812SOL    HW116895   3.733   0.816  11.170  0.0267  1.4294  0.6206
 1812SOL    HW216896   3.861   0.832  11.103 -0.2491 -0.7418  0.0308
 1813SOL     OW16897   3.099   0.919   7.289 -0.2559  0.6839  0.1836
 1813SOL    HW116898   3.067   0.897   7.201 -0.2979 -0.5324  0.5091
 1813SOL    HW216899   3.018   0.958   7.322  0.1411  1.6939 -0.0099
 1814SOL     OW16900   0.800   2.813   8.241  0.3238 -0.4625 -0.6440
 1814SOL    HW116901   0.808   2.791   8.334  0.1084  1.6467 -0.1234
 1814SOL    HW216902   0.714   2.776   8.220  0.4619 -1.1110 -0.0868
 1815SOL     OW16903   1.851   3.289   2.344  0.4581 -0.8109 -0.1049
 1815SOL    HW116904   1.861   3.290   2.439 -0.4112  1.9890 -0.0521
 1815SOL    HW216905   1.941   3.312   2.320  0.3407 -1.8473 -1.5264
 1816SOL     OW16906   4.417   0.904   3.854 -0.8974  0.0781  0.0198
 1816SOL    HW116907   4.414   0.972   3.786  1.4926  1.3008  1.1300
 1816SOL    HW216908   4.351   0.938   3.914 -1.1555  1.0952 -0.8442
 1817SOL     OW16909   4.037   1.781   2.341 -0.1435 -0.6283  0.0343
 1817SOL    HW116910   4.064   1.835   2.266 -0.4431 -3.4837 -2.1190
 1817SOL    HW216911   3.942   1.776   2.333 -0.1105  0.2099 -0.9376
 1818SOL     OW16912   4.468   4.088   8.448 -0.0750 -0.1724  0.7493
 1818SOL    HW116913   4.405   4.154   8.419  0.2470  0.0808  0.6304
 1818SOL    HW216914   4.468   4.027   8.374 -0.9333 -0.6162  1.1127
 1819SOL     OW16915   4.199   1.512   1.271  0.0101  0.8971  0.0052
 1819SOL    HW116916   4.266   1.498   1.338 -0.6123  0.8762  0.6220
 1819SOL    HW216917   4.225   1.469   1.189 -2.4408 -1.0431  0.2513
 1820SOL     OW16918   1.329   1.273  12.301  0.1152  0.3192 -0.5533
 1820SOL    HW116919   1.395   1.334  12.334  1.3035 -1.3811  0.1992
 1820SOL    HW216920   1.291   1.319  12.226  1.8226  2.7672  0.0615
 1821SOL     OW16921   1.219   2.505   4.997  0.1378  0.1256 -0.4816
 1821SOL    HW116922   1.223   2.581   5.056 -0.4528  0.4162 -0.8068
 1821SOL    HW216923   1.154   2.539   4.935 -0.8060  2.3619  1.7615
 1822SOL     OW16924   1.418   2.757   8.173  0.0649 -0.3888 -0.1024
 1822SOL    HW116925   1.328   2.753   8.205 -0.2787 -0.9650 -1.1699
 1822SOL    HW216926   1.462   2.816   8.235 -2.7252  2.0315 -0.4220
 1823SOL     OW16927   0.823   2.458  10.058 -0.0881  0.3973 -0.1480
 1823SOL    HW116928   0.913   2.427  10.061  0.0755  0.8988  0.1360
 1823SOL    HW216929   0.829   2.553  10.071  0.5500  0.2951  0.2630
 1824SOL     OW16930   4.314   2.064   2.274  0.0117 -0.4340 -0.2788
 1824SOL    HW116931   4.304   2.033   2.184  0.0439  1.8773 -1.0757
 1824SOL    HW216932   4.222   2.088   2.287 -0.1392 -1.2979  0.2215
 1825SOL     OW16933   0.321   3.426   7.065  0.2701 -0.3937  0.2570
 1825SOL    HW116934   0.270   3.504   7.044  0.2751 -0.3048  0.5753
 1825SOL    HW216935   0.307   3.432   7.159  0.4485  0.7106  0.2124
 1826SOL     OW16936   4.723   2.102  12.569 -0.6519 -0.0921 -0.1315
 1826SOL    HW116937   4.673   2.038  12.621  3.8072 -3.1132  0.5034
 1826SOL    HW216938   4.656   2.125  12.504  1.8416  1.1633 -2.2471
 1827SOL     OW16939   3.229   3.840   9.083  0.0129 -0.2193 -0.1023
 1827SOL    HW116940   3.178   3.793   9.149  2.4136  0.8627  2.5257
 1827SOL    HW216941   3.159   3.850   9.018 -2.0047 -0.4278  2.0481
 1828SOL     OW16942   3.582   2.827   2.518  0.0564 -0.6285  0.4126
 1828SOL    HW116943   3.609   2.741   2.552 -1.7378 -2.0889 -1.8425
 1828SOL    HW216944   3.584   2.878   2.598  0.2355 -1.3882  0.8954
 1829SOL     OW16945   2.854   1.592  16.259 -0.7095 -0.0399  0.1774
 1829SOL    HW116946   2.843   1.563  16.168 -0.2301  1.9621 -0.5307
 1829SOL    HW216947   2.908   1.670  16.249 -1.1082  0.3517  1.0734
 1830SOL     OW16948   4.285   0.567  12.641  0.4550 -0.1731  0.3889
 1830SOL    HW116949   4.339   0.626  12.588 -0.8484  0.3509 -0.3610
 1830SOL    HW216950   4.255   0.516  12.565 -1.6431 -0.3145  1.3004
 1831SOL     OW16951   1.067   2.760  13.658 -0.5379  0.4773  0.0937
 1831SOL    HW116952   0.994   2.792  13.605 -1.8081 -2.4775  0.0888
 1831SOL    HW216953   1.040   2.803  13.739 -2.2262 -0.4123  0.0066
 1832SOL     OW16954   2.096   2.991   2.306  0.0309 -0.2108  0.2565
 1832SOL    HW116955   2.034   2.953   2.244  0.0378  1.7510 -0.9279
 1832SOL    HW216956   2.135   3.059   2.251  1.2318 -0.6851  0.5048
 1833SOL     OW16957   0.054   4.110   4.321  0.4756 -0.1581  0.5265
 1833SOL    HW116958   4.692   4.094   4.286 -0.7409  1.1568  3.0098
 1833SOL    HW216959   0.030   4.093   4.412  0.8689  0.4371  0.7426
 1834SOL     OW16960   3.492   3.218   5.707 -0.0002 -0.3780  0.8940
 1834SOL    HW116961   3.516   3.253   5.792 -0.3073 -1.4743  1.4254
 1834SOL    HW216962   3.431   3.283   5.671  2.5651  0.5075 -1.8839
 1835SOL     OW16963   0.955   1.531  17.444  0.4085  0.2741 -0.5011
 1835SOL    HW116964   0.914   1.536  17.530  1.0376  0.6380 -0.2217
 1835SOL    HW216965   0.876   1.549  17.393  0.7603  0.1509 -1.0856
 1836SOL     OW16966   1.949   0.990   0.882 -0.1866  0.0230 -0.1290
 1836SOL    HW116967   1.982   0.959   0.966 -2.0989  0.6196  0.8335
 1836SOL    HW216968   1.998   0.936   0.820 -1.4347 -0.5007 -0.6606
 1837SOL     OW16969   1.676   2.513  14.114 -0.0767 -0.4104 -0.4110
 1837SOL    HW116970   1.708   2.486  14.200 -2.0465 -2.7047 -0.3842
 1837SOL    HW216971   1.689   2.435  14.060  0.4107  0.0854 -0.9972
 1838SOL     OW16972   3.827   4.103   1.607  0.4058  0.1215  1.0576
 1838SOL    HW116973   3.853   4.047   1.680  0.1263 -1.8981 -0.3872
 1838SOL    HW216974   3.766   4.043   1.563  1.0124  1.1825 -1.2598
 1839SOL     OW16975   0.425   0.560   3.772 -0.2912 -0.0411  0.2417
 1839SOL    HW116976   0.440   0.471   3.803  0.4493 -0.5207 -1.4923
 1839SOL    HW216977   0.433   0.540   3.679  0.1405  1.6308 -0.0881
 1840SOL     OW16978   1.553   4.183   3.478  0.2553  0.2248 -0.4082
 1840SOL    HW116979   1.479   4.232   3.443 -2.2087 -3.0551  0.2498
 1840SOL    HW216980   1.541   4.094   3.446 -1.8820 -0.4964  2.3833
 1841SOL     OW16981   4.542   2.215  14.820  0.3025  0.0137 -0.2281
 1841SOL    HW116982   4.600   2.190  14.891  3.4085  1.7753 -2.1436
 1841SOL    HW216983   4.485   2.280  14.861 -0.0425  0.3247 -1.1811
 1842SOL     OW16984   4.088   2.392   2.966  0.4971  0.1502 -0.3208
 1842SOL    HW116985   4.084   2.314   3.021  1.1991 -0.1944 -0.7580
 1842SOL    HW216986   4.137   2.376   2.885  0.3470 -0.7746 -0.2256
 1843SOL     OW16987   0.167   0.671   4.591 -0.2442 -0.0381 -0.4326
 1843SOL    HW116988   0.158   0.579   4.613  2.3245 -0.8561 -2.8010
 1843SOL    HW216989   0.194   0.709   4.675  1.5055 -2.9647  0.3084
 1844SOL     OW16990   4.538   1.043   4.155 -0.0682 -0.3087 -0.1160
 1844SOL    HW116991   4.561   1.130   4.121 -2.2399 -0.4604 -1.9171
 1844SOL    HW216992   4.595   0.988   4.101 -0.0636 -0.7280  0.3168
 1845SOL     OW16993   2.108   2.321   5.661  0.2169  0.4959  0.0246
 1845SOL    HW116994   2.182   2.294   5.714  0.5503  0.4827 -0.4532
 1845SOL    HW216995   2.081   2.241   5.616 -1.9753  1.2105  0.0492
 1846SOL     OW16996   2.247   1.740   9.224  0.4850  0.5414  0.2292
 1846SOL    HW116997   2.190   1.768   9.152 -0.4014 -1.9718 -0.0500
 1846SOL    HW216998   2.292   1.663   9.189 -1.3943 -0.1330 -0.7216
 1847SOL     OW16999   3.273   3.951   7.988  0.0883  0.1033  0.3189
 1847SOL    HW117000   3.265   3.931   7.895 -0.7581  0.3077  0.3487
 1847SOL    HW217001   3.202   3.900   8.025 -0.6505 -1.7531 -3.6798
 1848SOL     OW17002   3.612   4.042   8.477 -0.0308  0.0649  0.0864
 1848SOL    HW117003   3.672   4.025   8.404  1.5387  1.9283  0.9345
 1848SOL    HW217004   3.578   3.957   8.507 -0.4929  0.3654  0.4158
 1849SOL     OW17005   1.938   2.092  13.002  0.1675  0.0382 -0.4166
 1849SOL    HW117006   1.920   2.120  12.912 -1.5070  0.3196  0.0023
 1849SOL    HW217007   1.908   2.002  12.990 -0.9475  0.0872  2.0248
 1850SOL     OW17008   1.983   1.724   0.438 -0.1956 -0.5754 -0.2323
 1850SOL    HW117009   1.983   1.628   0.436 -0.1190 -0.5682 -0.5587
 1850SOL    HW217010   1.910   1.731   0.377 -0.1145 -2.4865 -0.5715
 1851SOL     OW17011   2.816   3.886   7.410  0.1607 -0.6359 -0.6578
 1851SOL    HW117012   2.794   3.950   7.343 -0.2288 -0.8479 -0.7336
 1851SOL    HW217013   2.802   3.811   7.352  0.1124  1.6093 -3.5435
 1852SOL     OW17014   3.700   1.089   3.265  0.0293  0.0411  0.2320
 1852SOL    HW117015   3.627   1.145   3.238  1.5647  1.3259 -1.1948
 1852SOL    HW217016   3.701   1.032   3.188 -0.8039 -0.9678  0.9618
 1853SOL     OW17017   0.068   2.045   1.836 -0.0747 -0.2755  0.4356
 1853SOL    HW117018   0.031   2.078   1.755 -0.6010  0.2487  0.8874
 1853SOL    HW217019   0.157   2.081   1.840 -1.0628  2.2720 -0.6259
 1854SOL     OW17020   1.098   2.375   9.502  0.5127 -0.0293  0.1926
 1854SOL    HW117021   1.047   2.449   9.533 -1.8308 -1.2410 -0.8078
 1854SOL    HW217022   1.085   2.307   9.568 -1.5974  0.3417  0.1639
 1855SOL     OW17023   4.631   3.444   1.224  0.6576 -0.3290  0.0451
 1855SOL    HW117024   4.584   3.513   1.178  1.9561  0.0543 -0.7003
 1855SOL    HW217025   4.582   3.442   1.306 -0.7055 -0.6567 -0.7783
 1856SOL     OW17026   0.056   4.674   1.780 -0.3204  0.6193  0.1266
 1856SOL    HW117027   0.107   4.725   1.843  2.1033 -1.9305  0.2300
 1856SOL    HW217028   4.719   0.016   1.754  0.0165  1.7840  2.3606
 1857SOL     OW17029   3.474   1.266   8.630  0.5747 -0.2476  0.8437
 1857SOL    HW117030   3.435   1.315   8.558  0.6053  1.1665  1.7879
 1857SOL    HW217031   3.435   1.312   8.704  0.3055 -0.3303  0.7522
 1858SOL     OW17032   3.568   4.256   8.150  0.5216 -0.4383 -0.2881
 1858SOL    HW117033   3.559   4.170   8.109  1.1774 -1.0798  0.8716
 1858SOL    HW217034   3.479   4.288   8.164  0.8563  0.5851 -0.4896
 1859SOL     OW17035   4.688   2.646   8.946 -0.5438 -0.0324  0.3998
 1859SOL    HW117036   4.663   2.735   8.970 -0.5176 -0.0306  0.4206
 1859SOL    HW217037   4.638   2.592   9.007 -0.5293  0.3948  0.7860
 1860SOL     OW17038   2.129   4.162  15.542  0.0025 -0.2411 -0.1566
 1860SOL    HW117039   2.046   4.208  15.550 -0.0870 -0.0879 -2.0063
 1860SOL    HW217040   2.191   4.221  15.586 -1.2812 -1.1536  2.8868
 1861SOL     OW17041   4.174   3.375   2.507 -0.0432  0.0718 -0.5782
 1861SOL    HW117042   4.228   3.350   2.582 -1.0979  0.6519  0.3833
 1861SOL    HW217043   4.168   3.469   2.522  1.0781  0.3532 -1.9683
 1862SOL     OW17044   3.018   3.058  10.540 -0.5092 -0.0080  0.1545
 1862SOL    HW117045   3.064   2.995  10.595 -0.5978 -0.5263 -0.3660
 1862SOL    HW217046   2.933   3.014  10.531 -0.3083 -0.5209  0.7648
 1863SOL     OW17047   1.366   1.800   2.209  0.1425 -0.3116  0.0140
 1863SOL    HW117048   1.370   1.743   2.133  1.4192 -1.6417  1.0640
 1863SOL    HW217049   1.307   1.865   2.171 -0.8488 -0.1011  1.8926
 1864SOL     OW17050   3.599   1.032   0.022 -0.2049  0.2861 -0.1211
 1864SOL    HW117051   3.589   1.072  17.640 -1.1856 -3.4577 -1.7582
 1864SOL    HW217052   3.686   1.055   0.055  0.7136 -1.4400 -1.3737
 1865SOL     OW17053   1.111   3.588   4.771 -0.0128  0.1639  0.2452
 1865SOL    HW117054   1.155   3.664   4.734 -0.3047  0.8843  1.3924
 1865SOL    HW217055   1.020   3.595   4.742  0.1527  0.1878 -0.2758
 1866SOL     OW17056   0.209   1.147   2.180 -0.2721  0.0743 -0.0886
 1866SOL    HW117057   0.281   1.116   2.235 -0.7022 -1.3006 -0.2765
 1866SOL    HW217058   0.242   1.115   2.095 -0.3883  0.7945 -0.4047
 1867SOL     OW17059   0.702   1.035  15.793  0.1432  0.1383 -0.0602
 1867SOL    HW117060   0.626   0.976  15.791 -0.0508  0.3725  0.3815
 1867SOL    HW217061   0.658   1.119  15.805  0.3631  0.2267  0.1141
 1868SOL     OW17062   0.682   0.304   2.959  0.2377 -0.1876  0.3534
 1868SOL    HW117063   0.726   0.261   2.885 -0.8074  2.2845 -1.6756
 1868SOL    HW217064   0.599   0.258   2.969 -0.1759  0.6018  0.4988
 1869SOL     OW17065   2.266   4.429  15.912  0.4246 -0.3389  0.0903
 1869SOL    HW117066   2.328   4.487  15.956  1.0409  0.6606 -2.1023
 1869SOL    HW217067   2.206   4.502  15.894  0.1174 -0.2985  1.2177
 1870SOL     OW17068   3.431   4.027   0.525  0.2018  0.1231  0.1904
 1870SOL    HW117069   3.487   4.054   0.598  1.4206 -0.0675 -0.6798
 1870SOL    HW217070   3.391   4.111   0.502  0.9164  0.2934 -0.4417
 1871SOL     OW17071   3.897   2.924   2.461  0.1718 -0.3482  0.4344
 1871SOL    HW117072   3.801   2.926   2.468  0.2442  1.0784  1.1063
 1871SOL    HW217073   3.919   2.903   2.370  0.3611  0.9134  0.1894
 1872SOL     OW17074   3.376   3.639   4.850 -0.2179 -0.3384 -0.3267
 1872SOL    HW117075   3.387   3.735   4.846  4.5816 -0.9048 -0.6263
 1872SOL    HW217076   3.457   3.607   4.810  1.1602  1.9043  0.6686
 1873SOL     OW17077   1.985   2.171   8.348 -0.3933 -0.0080  0.2665
 1873SOL    HW117078   2.014   2.111   8.416 -1.6837 -1.6706 -0.6216
 1873SOL    HW217079   1.893   2.144   8.341  0.0584 -1.1138 -1.5070
 1874SOL     OW17080   2.269   4.607   2.143 -0.2069  0.2020  0.1845
 1874SOL    HW117081   2.199   4.606   2.078  2.1546 -1.3695 -2.3476
 1874SOL    HW217082   2.286   4.514   2.159  1.4553  0.5316  0.4203
 1875SOL     OW17083   3.581   2.934  12.862 -0.1900 -0.0732  0.7472
 1875SOL    HW117084   3.647   3.004  12.860 -1.3392  0.9933  0.1195
 1875SOL    HW217085   3.624   2.858  12.902  0.2549  0.2388  0.8727
 1876SOL     OW17086   3.443   3.207   2.590 -0.3528  0.1821 -0.0629
 1876SOL    HW117087   3.529   3.166   2.577  0.6352  2.1423  0.3767
 1876SOL    HW217088   3.451   3.242   2.679 -1.9825 -1.9059  0.9369
 1877SOL     OW17089   2.399   3.818   4.038  0.3123  0.3162 -0.1549
 1877SOL    HW117090   2.364   3.903   4.067 -0.6213  0.2664 -1.1691
 1877SOL    HW217091   2.339   3.751   4.070  0.1287  0.9051  0.7405
 1878SOL     OW17092   3.767   0.729   2.842  0.6075 -0.4325 -0.2185
 1878SOL    HW117093   3.703   0.715   2.772 -2.3853  0.0696  2.4166
 1878SOL    HW217094   3.841   0.776   2.804  0.1846  1.2922  1.1356
 1879SOL     OW17095   1.783   0.964  11.894  0.2831 -0.2815  0.0412
 1879SOL    HW117096   1.724   0.933  11.826 -0.6716  1.9149 -0.1287
 1879SOL    HW217097   1.834   1.026  11.842  0.2771 -0.6930 -0.4441
 1880SOL     OW17098   0.691   2.996  11.028 -0.1122  0.1230  0.2046
 1880SOL    HW117099   0.756   2.934  10.996 -1.2882 -0.9539 -0.0662
 1880SOL    HW217100   0.645   3.030  10.951 -1.0994  0.6346  1.0176
 1881SOL     OW17101   1.308   2.638  13.664  0.1358 -0.5636 -0.5452
 1881SOL    HW117102   1.217   2.662  13.685 -0.1076  0.3050 -2.5597
 1881SOL    HW217103   1.328   2.585  13.741  0.9865 -1.9469 -1.7173
 1882SOL     OW17104   4.001   0.569   4.003 -0.1121 -0.3861  0.1102
 1882SOL    HW117105   4.073   0.557   3.941 -0.4935  0.4722 -0.5025
 1882SOL    HW217106   4.027   0.643   4.058 -1.3875 -1.1905  1.7795
 1883SOL     OW17107   0.909   3.590   5.298  0.2442  0.1478 -0.1117
 1883SOL    HW117108   0.924   3.666   5.355  1.2952  0.1929 -0.4477
 1883SOL    HW217109   0.985   3.609   5.244 -0.4229 -1.2047 -1.5368
 1884SOL     OW17110   2.269   0.286   8.766 -0.2029  0.2145 -0.4925
 1884SOL    HW117111   2.214   0.348   8.814  0.2359 -0.0361  0.3400
 1884SOL    HW217112   2.354   0.293   8.810 -0.3340  1.4246 -0.4237
 1885SOL     OW17113   0.007   1.736   5.684 -0.4355 -0.7703 -0.0916
 1885SOL    HW117114   4.667   1.725   5.754  1.0266 -0.8767  1.2615
 1885SOL    HW217115   0.014   1.831   5.691 -0.5193 -0.5967 -2.4401
 1886SOL     OW17116   4.281   4.296   9.625 -0.5418  0.0413  0.0866
 1886SOL    HW117117   4.331   4.216   9.610  2.5308  1.5804  2.1889
 1886SOL    HW217118   4.310   4.351   9.551 -0.1849  0.6248  0.6650
 1887SOL     OW17119   1.178   3.898  17.018  0.4442  0.4095 -0.5161
 1887SOL    HW117120   1.140   3.933  17.099  1.8798 -1.3823  0.9402
 1887SOL    HW217121   1.239   3.969  16.998 -0.7292  2.0171  1.5829
 1888SOL     OW17122   2.449   3.871   3.241  0.0911  0.3331 -0.4514
 1888SOL    HW117123   2.382   3.869   3.172 -2.0307  0.8216  1.6024
 1888SOL    HW217124   2.429   3.946   3.297 -1.5099  0.7719 -1.6105
 1889SOL     OW17125   3.516   0.021   7.866  0.3418 -0.0968 -0.1466
 1889SOL    HW117126   3.610   0.039   7.877  0.1707  0.4421  0.4311
 1889SOL    HW217127   3.512   4.678   7.799  1.2187  0.8426 -1.1844
 1890SOL     OW17128   3.887   3.424   7.533 -0.3715  0.2136 -0.1515
 1890SOL    HW117129   3.888   3.454   7.624  0.8621  0.6645 -0.3120
 1890SOL    HW217130   3.960   3.362   7.534  0.1892  0.8811 -0.8703
 1891SOL     OW17131   3.818   0.839   1.035 -0.8023 -0.1133  0.4179
 1891SOL    HW117132   3.814   0.784   0.957 -1.5042  0.4894  0.0296
 1891SOL    HW217133   3.767   0.792   1.101 -1.7740  1.8137  1.0345
 1892SOL     OW17134   2.652   2.137   3.078  0.3365  0.1252 -0.0837
 1892SOL    HW117135   2.652   2.232   3.064 -1.0776  0.0800 -0.4595
 1892SOL    HW217136   2.704   2.110   3.002  1.8054  3.7919 -0.3960
 1893SOL     OW17137   0.601   3.206   7.203 -0.0244  0.2955  0.0217
 1893SOL    HW117138   0.585   3.180   7.112  1.2734 -0.9820  0.1578
 1893SOL    HW217139   0.644   3.292   7.196 -0.3688  0.4823  0.2056
 1894SOL     OW17140   3.550   0.532   3.174 -0.5846 -0.1802  0.0551
 1894SOL    HW117141   3.527   0.622   3.152 -1.3173 -0.6777 -1.1525
 1894SOL    HW217142   3.469   0.487   3.151  0.4838 -2.2617  0.3195
 1895SOL     OW17143   3.661   1.743   5.134  0.5292 -0.3582 -0.2398
 1895SOL    HW117144   3.629   1.746   5.044 -1.5574 -0.4677  0.4973
 1895SOL    HW217145   3.739   1.689   5.119  0.6883 -0.1555 -0.1415
 1896SOL     OW17146   1.705   3.024  12.967 -0.8143  0.3242 -0.0881
 1896SOL    HW117147   1.699   3.039  13.061 -0.9336 -3.3679  0.5166
 1896SOL    HW217148   1.791   2.982  12.962 -1.1895 -0.4777  0.2224
 1897SOL     OW17149   1.341   1.831   7.489  0.0298  0.0427  0.2540
 1897SOL    HW117150   1.414   1.881   7.452  1.1683 -2.2525 -0.5616
 1897SOL    HW217151   1.263   1.861   7.442 -0.9633 -1.3566  0.9997
 1898SOL     OW17152   3.030   2.287   0.055  0.5135 -0.2610  0.3055
 1898SOL    HW117153   3.011   2.367   0.006 -0.9534  0.5563  2.1539
 1898SOL    HW217154   3.038   2.323   0.144  0.0784 -2.6127  1.2929
 1899SOL     OW17155   3.272   2.622   7.371  0.3028 -0.3139 -0.0486
 1899SOL    HW117156   3.196   2.659   7.417 -1.2507 -1.1766 -1.9275
 1899SOL    HW217157   3.288   2.536   7.409  0.9297 -0.1883 -0.0259
 1900SOL     OW17158   3.406   0.123   5.949 -0.2342 -0.2025  0.6375
 1900SOL    HW117159   3.428   0.160   6.034  2.6326 -3.3059  1.2223
 1900SOL    HW217160   3.320   0.158   5.926 -0.0793 -0.3126 -0.1160
 1901SOL     OW17161   1.630   3.577   2.025  0.0763  0.3848  0.1752
 1901SOL    HW117162   1.721   3.598   2.047  0.6306  1.5883 -3.3571
 1901SOL    HW217163   1.607   3.531   2.106  2.1846  2.7110  2.1189
 1902SOL     OW17164   0.242   2.991   7.969 -0.0922  0.0730 -0.3763
 1902SOL    HW117165   0.220   3.038   7.888  0.2845 -0.5837 -0.8642
 1902SOL    HW217166   0.316   2.936   7.943 -0.4883 -2.5896  4.1997
 1903SOL     OW17167   3.477   2.147  16.980  0.7159  0.1056 -0.2567
 1903SOL    HW117168   3.465   2.214  16.913  1.8065 -0.1070 -0.6711
 1903SOL    HW217169   3.448   2.199  17.055  0.8141  0.1643 -0.2597
 1904SOL     OW17170   4.029   2.241  17.540  0.2427  0.7283  0.0103
 1904SOL    HW117171   3.947   2.262  17.585  1.1910  2.8807  0.6906
 1904SOL    HW217172   4.035   2.303  17.468  0.7331 -1.1246 -1.5477
 1905SOL     OW17173   4.237   2.368   8.456 -0.1414  0.7178  0.2952
 1905SOL    HW117174   4.241   2.297   8.520  0.2066  0.5394  0.0757
 1905SOL    HW217175   4.304   2.428   8.490 -0.9496  1.0235  1.3354
 1906SOL     OW17176   3.353   2.975   7.500 -0.0710 -0.8244 -0.9534
 1906SOL    HW117177   3.431   2.951   7.450 -0.0325 -1.1233 -0.7504
 1906SOL    HW217178   3.381   2.927   7.578 -2.1696  0.0841  0.3480
 1907SOL     OW17179   1.556   3.378  10.163  0.1277  0.2668 -0.1011
 1907SOL    HW117180   1.469   3.362  10.125 -0.6053 -0.2358  1.7880
 1907SOL    HW217181   1.556   3.464  10.121 -1.6859  0.9923  1.3529
 1908SOL     OW17182   3.139   1.460   5.905 -0.0900  0.0276 -0.1967
 1908SOL    HW117183   3.183   1.441   5.822  0.6072  2.1415 -0.3344
 1908SOL    HW217184   3.049   1.442   5.879 -0.5177 -0.0661  1.3525
 1909SOL     OW17185   3.030   0.051   8.463  0.3805  0.4084  0.3936
 1909SOL    HW117186   3.018   0.146   8.459  1.2871  0.5575  1.2491
 1909SOL    HW217187   2.941   0.026   8.438  1.3934 -1.1701 -1.5860
 1910SOL     OW17188   3.141   3.356  11.241 -0.0834  0.1599  0.0674
 1910SOL    HW117189   3.146   3.451  11.230  0.2423  0.3325  1.6565
 1910SOL    HW217190   3.051   3.348  11.212 -0.2679  2.2475  0.0528
 1911SOL     OW17191   1.379   2.824   0.927  0.1774 -0.0624 -0.8873
 1911SOL    HW117192   1.328   2.803   0.849  0.6204  1.0443 -1.4709
 1911SOL    HW217193   1.312   2.869   0.978  2.5781 -0.2350  2.4430
 1912SOL     OW17194   3.418   2.253   9.011  0.1881  0.0626 -0.0128
 1912SOL    HW117195   3.378   2.325   9.061 -0.1635  1.0138 -1.6540
 1912SOL    HW217196   3.511   2.248   9.030 -0.1971 -0.3206  1.8182
 1913SOL     OW17197   2.748   3.259  15.227 -0.5553 -0.0032  0.6026
 1913SOL    HW117198   2.702   3.261  15.143  0.9843 -2.4901 -0.2963
 1913SOL    HW217199   2.682   3.238  15.293 -0.1304  1.3559  1.4669
 1914SOL     OW17200   1.336   4.300   4.049  0.0303  0.3575 -0.3246
 1914SOL    HW117201   1.279   4.357   4.101 -0.5068  0.9213 -1.5339
 1914SOL    HW217202   1.277   4.239   4.005  2.2685 -1.1683 -1.2155
 1915SOL     OW17203   1.244   4.016   8.325 -0.2529 -0.3700 -0.4932
 1915SOL    HW117204   1.174   3.952   8.311 -0.5317 -0.2355  0.2888
 1915SOL    HW217205   1.276   4.003   8.414 -0.1154  0.4972 -0.4163
 1916SOL     OW17206   0.130   2.468   7.137  0.5800 -0.2138 -0.2833
 1916SOL    HW117207   0.035   2.465   7.139  0.6483 -1.6889  0.6796
 1916SOL    HW217208   0.131   2.554   7.095  0.7102 -0.0372  0.0769
 1917SOL     OW17209   4.199   4.603   5.640 -0.2289 -0.0484 -0.7256
 1917SOL    HW117210   4.241   4.565   5.563 -1.7983 -0.2102 -1.4997
 1917SOL    HW217211   4.133   4.659   5.597  0.4520 -0.0252 -1.7321
 1918SOL     OW17212   3.691   4.542   1.481 -0.2008  0.1907 -0.1843
 1918SOL    HW117213   3.670   4.501   1.564  0.3389 -0.9055 -0.5809
 1918SOL    HW217214   3.707   4.635   1.497  0.6434  0.4065 -2.2258
 1919SOL     OW17215   2.454   4.648   7.681  0.1525  0.0864  0.2405
 1919SOL    HW117216   2.536   4.696   7.690  0.9031 -1.3923  1.2577
 1919SOL    HW217217   2.407   4.681   7.758  1.9216 -0.3240  1.4837
 1920SOL     OW17218   3.012   0.351   6.725  0.5804 -0.2403 -0.0487
 1920SOL    HW117219   3.061   0.270   6.713  0.6344 -0.0639 -1.0233
 1920SOL    HW217220   2.930   0.333   6.680 -0.1758 -0.6096  1.4548
 1921SOL     OW17221   2.477   3.744  15.025 -0.1830 -0.2983  0.2524
 1921SOL    HW117222   2.476   3.833  14.989  0.8597 -1.0112 -1.5466
 1921SOL    HW217223   2.465   3.764  15.118 -2.1967  0.8544 -0.2511
 1922SOL     OW17224   1.869   3.966   1.646  0.0269 -0.3861  0.4747
 1922SOL    HW117225   1.959   3.937   1.629  0.0921 -0.3632  0.7804
 1922SOL    HW217226   1.898   4.035   1.705  0.6414  0.8939 -1.3371
 1923SOL     OW17227   2.310   0.917   3.220 -0.4767  0.3879  0.0718
 1923SOL    HW117228   2.287   0.890   3.309  2.0442 -0.4803  0.4590
 1923SOL    HW217229   2.223   0.926   3.180 -1.0016  0.5282  1.2526
 1924SOL     OW17230   3.767   4.658   0.290  0.3857  0.6195  0.1534
 1924SOL    HW117231   3.696   4.722   0.284  1.0195  1.2532 -0.8273
 1924SOL    HW217232   3.748   4.624   0.377  0.8862  0.5693  0.2468
 1925SOL     OW17233   3.149   4.408   0.613  0.4573 -0.0563  0.2630
 1925SOL    HW117234   3.120   4.327   0.656  0.2322  1.7723  3.5120
 1925SOL    HW217235   3.229   4.376   0.571  1.3844  1.7928  0.6150
 1926SOL     OW17236   3.696   0.763  14.761 -0.1304 -0.0922  0.8521
 1926SOL    HW117237   3.759   0.725  14.700 -2.8849  1.3268 -2.8626
 1926SOL    HW217238   3.671   0.688  14.815 -1.5760 -0.1443  0.1149
 1927SOL     OW17239   0.464   1.629   7.195 -0.1991  0.1325  0.1059
 1927SOL    HW117240   0.438   1.674   7.276 -2.2267 -1.9616  0.6153
 1927SOL    HW217241   0.525   1.563   7.227 -3.6434 -2.3633  1.6075
 1928SOL     OW17242   1.036   0.565  12.913 -0.1480 -0.5720 -0.6323
 1928SOL    HW117243   1.097   0.613  12.858  0.5927 -0.1078  0.5947
 1928SOL    HW217244   0.988   0.521  12.843 -1.9035  0.2643  0.0243
 1929SOL     OW17245   0.763   2.750   9.814  0.0456  0.3617  0.4233
 1929SOL    HW117246   0.702   2.715   9.878  1.5304  0.0773  1.6953
 1929SOL    HW217247   0.799   2.825   9.863 -0.2324  0.6151  0.2373
 1930SOL     OW17248   0.316   3.575   0.504  0.0340 -0.1021  0.5869
 1930SOL    HW117249   0.229   3.601   0.537  0.4312  1.4189  0.4198
 1930SOL    HW217250   0.357   3.660   0.488  2.0759 -0.2809  4.7592
 1931SOL     OW17251   2.186   1.847  17.596 -0.2236  0.2864 -0.2663
 1931SOL    HW117252   2.246   1.774  17.612  1.4210  2.0913  1.8111
 1931SOL    HW217253   2.107   1.801  17.625  1.1432  0.3077  3.5619
 1932SOL     OW17254   1.554   1.683   5.380 -0.0715 -0.0756 -0.4225
 1932SOL    HW117255   1.644   1.703   5.408  0.4329 -1.0377 -1.3682
 1932SOL    HW217256   1.517   1.664   5.466  1.1564 -0.7233 -0.0248
 1933SOL     OW17257   1.079   1.123   0.966  0.1212 -0.2785  0.3452
 1933SOL    HW117258   1.134   1.051   0.936 -1.7690 -2.1262  1.3333
 1933SOL    HW217259   1.067   1.102   1.058  3.0243  1.1494  1.0475
 1934SOL     OW17260   4.283   0.431   6.318  0.2403 -0.2306  0.2089
 1934SOL    HW117261   4.310   0.427   6.410 -1.0589  0.8069  0.6450
 1934SOL    HW217262   4.289   0.338   6.295 -0.7954 -0.1605 -0.3397
 1935SOL     OW17263   4.693   0.690  13.757  0.2985  0.4441  0.1487
 1935SOL    HW117264   4.656   0.671  13.843  1.3278  1.0113  0.7178
 1935SOL    HW217265   4.673   0.604  13.719 -1.8955 -0.6545  3.7909
 1936SOL     OW17266   2.402   3.569   8.175  0.4298  0.2452  0.3788
 1936SOL    HW117267   2.316   3.527   8.170  0.6105 -0.1940  0.9896
 1936SOL    HW217268   2.442   3.531   8.253  2.2123  2.2102  0.4014
 1937SOL     OW17269   0.669   0.503  14.473 -0.4707  0.0325 -0.0093
 1937SOL    HW117270   0.711   0.534  14.393 -0.7923 -1.0368 -0.5776
 1937SOL    HW217271   0.629   0.421  14.447  1.6680 -1.2099  0.6427
 1938SOL     OW17272   0.474   3.303   6.871  0.5841  0.0464 -0.1048
 1938SOL    HW117273   0.405   3.245   6.840 -0.0555  0.0666  1.2844
 1938SOL    HW217274   0.419   3.348   6.935 -0.9390  1.8334 -2.6557
 1939SOL     OW17275   3.654   2.261  16.652 -0.3048  0.0668  0.1699
 1939SOL    HW117276   3.624   2.318  16.722 -0.9371  0.3738 -0.3436
 1939SOL    HW217277   3.570   2.253  16.605  0.2015  1.7673 -1.0572
 1940SOL     OW17278   2.265   0.676   9.233  0.2999  0.5690 -0.0940
 1940SOL    HW117279   2.184   0.728   9.236  0.8488  1.2595  2.1930
 1940SOL    HW217280   2.267   0.649   9.141 -2.1209  3.1759 -0.9242
 1941SOL     OW17281   3.829   0.076   5.445  0.0524  0.1976  0.3764
 1941SOL    HW117282   3.757   0.105   5.500  0.3205 -2.7871  2.3089
 1941SOL    HW217283   3.823   0.132   5.368  2.5621 -0.3724 -0.2434
 1942SOL     OW17284   1.572   1.907  15.714  0.0444 -0.0921 -0.2147
 1942SOL    HW117285   1.663   1.937  15.707 -0.2788  0.6233 -1.4264
 1942SOL    HW217286   1.565   1.838  15.649  1.8029 -0.5968  0.1312
 1943SOL     OW17287   3.610   3.139  16.240  0.1860 -0.1919 -0.3605
 1943SOL    HW117288   3.517   3.136  16.266  0.6028  0.3367  1.1864
 1943SOL    HW217289   3.604   3.061  16.185 -0.2486 -0.2617 -0.2205
 1944SOL     OW17290   4.600   2.981   0.205  0.3053 -0.0617 -0.4715
 1944SOL    HW117291   4.516   3.027   0.200 -0.5756 -1.8101 -1.7599
 1944SOL    HW217292   4.638   3.032   0.277  0.6749 -0.3397 -0.4724
 1945SOL     OW17293   4.001   2.690   4.269  0.9065  0.2316  0.0203
 1945SOL    HW117294   3.918   2.724   4.235  0.4736  0.9853  1.8000
 1945SOL    HW217295   4.032   2.760   4.327  0.6730 -0.3716  0.8627
 1946SOL     OW17296   0.665   2.023   3.764  0.3028 -0.5845  0.0121
 1946SOL    HW117297   0.678   2.092   3.700 -0.6003 -0.5762 -0.1638
 1946SOL    HW217298   0.618   1.957   3.714 -1.3502  0.6638 -0.0742
 1947SOL     OW17299   2.439   3.418   6.890 -0.0255 -0.0275  0.2764
 1947SOL    HW117300   2.533   3.425   6.905  0.2837 -1.7333 -1.0124
 1947SOL    HW217301   2.421   3.327   6.867 -1.5677  0.4820 -0.5358
 1948SOL     OW17302   1.446   4.458   8.497  0.1209  0.1653  0.2777
 1948SOL    HW117303   1.522   4.462   8.556 -0.3649  0.6194  0.8722
 1948SOL    HW217304   1.489   4.497   8.421 -1.2623 -1.9132 -1.5449
 1949SOL     OW17305   3.898   2.983  16.260  0.8438  0.1394  0.3905
 1949SOL    HW117306   3.977   3.025  16.293  1.6922 -1.6325  0.5904
 1949SOL    HW217307   3.852   2.950  16.337 -0.1527 -0.7851 -0.6012
 1950SOL     OW17308   4.271   4.050   5.124 -0.7887  0.1828  0.0216
 1950SOL    HW117309   4.191   4.006   5.098  0.5761 -1.4639 -1.4000
 1950SOL    HW217310   4.296   4.093   5.043 -0.0383  0.2783  0.3023
 1951SOL     OW17311   2.424   1.995   8.591 -0.2784  0.0432  0.0493
 1951SOL    HW117312   2.474   2.077   8.586  0.6157 -0.5287 -0.4907
 1951SOL    HW217313   2.495   1.933   8.574  0.5915  0.8553  0.6712
 1952SOL     OW17314   3.896   2.495  11.262  0.1446  0.0184  1.0703
 1952SOL    HW117315   3.858   2.530  11.182  1.5105 -0.5327  0.1847
 1952SOL    HW217316   3.937   2.567  11.311 -0.2029  1.0661 -0.1829
 1953SOL     OW17317   2.013   0.891   5.288  0.7601  0.2862 -0.1953
 1953SOL    HW117318   2.011   0.873   5.382  0.8500  0.1040 -0.2281
 1953SOL    HW217319   2.010   0.987   5.296 -0.8328  0.2869 -0.6682
 1954SOL     OW17320   0.778   3.447   8.305 -0.0907 -0.0908  0.2456
 1954SOL    HW117321   0.736   3.387   8.367 -0.3540 -1.6849 -1.4805
 1954SOL    HW217322   0.719   3.522   8.306  0.5672  0.4172  1.8450
 1955SOL     OW17323   3.490   0.871   3.508 -0.1240 -0.2557 -0.3772
 1955SOL    HW117324   3.577   0.841   3.481 -0.3513  0.0212 -1.4195
 1955SOL    HW217325   3.443   0.800   3.465 -1.7485  1.5987 -1.6555
 1956SOL     OW17326   2.382   4.013   5.179 -0.1114 -0.7241 -0.1676
 1956SOL    HW117327   2.426   3.969   5.251 -0.0154  0.3755  0.4546
 1956SOL    HW217328   2.290   4.006   5.204 -0.7035  0.5776 -2.0292
 1957SOL     OW17329   3.392   3.981  10.047  0.0550  0.2890 -0.2383
 1957SOL    HW117330   3.484   4.002  10.063 -0.6648  2.8492  0.5251
 1957SOL    HW217331   3.396   3.890  10.018 -0.8596  0.0041  0.5277
 1958SOL     OW17332   4.725   1.583  15.347 -0.4692 -0.2598  0.0852
 1958SOL    HW117333   4.665   1.602  15.419 -0.2593  1.8656 -0.3212
 1958SOL    HW217334   0.020   1.492  15.369  0.5647  0.4870  2.2090
 1959SOL     OW17335   4.206   1.849  13.811  0.1152 -0.5498 -0.1876
 1959SOL    HW117336   4.247   1.851  13.725 -1.4972 -3.9352 -1.0323
 1959SOL    HW217337   4.127   1.794  13.803 -0.2389 -0.1198  0.3889
 1960SOL     OW17338   2.529   3.614   2.082  0.4528 -0.1364  0.2094
 1960SOL    HW117339   2.595   3.670   2.040 -1.0919  1.9232  0.5143
 1960SOL    HW217340   2.593   3.549   2.109 -1.5561 -1.7660  1.0322
 1961SOL     OW17341   1.294   0.990   6.804  0.2034  0.5329 -0.0714
 1961SOL    HW117342   1.219   0.946   6.845  0.5458  2.6547  2.8323
 1961SOL    HW217343   1.251   1.074   6.790 -0.3575  0.4788  1.2403
 1962SOL     OW17344   0.603   3.319   8.000 -0.0224 -0.2095  0.2659
 1962SOL    HW117345   0.523   3.370   8.015  1.1001  1.9654 -1.0977
 1962SOL    HW217346   0.622   3.282   8.086 -1.0422 -0.6823  0.2891
 1963SOL     OW17347   2.284   0.535  16.308  0.5507 -0.5818  0.6066
 1963SOL    HW117348   2.291   0.630  16.304 -0.7969 -0.6142 -2.5616
 1963SOL    HW217349   2.372   0.526  16.345  0.8407  0.2573  0.1251
 1964SOL     OW17350   0.679   4.356   9.153 -0.9144  0.1022  0.4787
 1964SOL    HW117351   0.704   4.331   9.242  0.5598 -1.3950 -0.3789
 1964SOL    HW217352   0.633   4.281   9.116 -1.7049  0.8232 -0.0126
 1965SOL     OW17353   0.391   1.023   7.803  0.5201  0.0315  0.4808
 1965SOL    HW117354   0.335   1.021   7.726  2.3231  0.8214 -0.8494
 1965SOL    HW217355   0.464   0.971   7.767 -1.6372 -0.8158 -2.6526
 1966SOL     OW17356   3.009   3.234   7.814  0.4914 -0.1075 -0.2299
 1966SOL    HW117357   2.930   3.283   7.833  0.8135  0.3010  0.0407
 1966SOL    HW217358   2.973   3.169   7.753  1.5014 -0.2682 -0.6649
 1967SOL     OW17359   0.317   0.286  15.381  0.4928 -0.1817  0.0853
 1967SOL    HW117360   0.232   0.323  15.404 -0.3485 -2.1084  0.0227
 1967SOL    HW217361   0.318   0.288  15.285  3.6684  1.9085  0.1711
 1968SOL     OW17362   3.506   2.619   0.930 -0.8148 -0.4173 -0.1120
 1968SOL    HW117363   3.446   2.669   0.875 -1.5930 -0.4193  0.7390
 1968SOL    HW217364   3.543   2.565   0.860 -0.6635 -0.1283 -0.2525
 1969SOL     OW17365   3.600   1.091   2.182 -0.1616  0.2110  0.2038
 1969SOL    HW117366   3.518   1.097   2.133  0.1207 -0.4097 -0.3410
 1969SOL    HW217367   3.661   1.149   2.137 -1.3562 -0.0408 -1.7735
 1970SOL     OW17368   3.449   3.997  17.610  0.2241 -0.1922  0.4935
 1970SOL    HW117369   3.471   4.075  17.559  0.4928 -0.8962 -0.4676
 1970SOL    HW217370   3.528   3.943  17.619  0.4560  0.2014  0.8355
 1971SOL     OW17371   2.128   2.662  15.178  0.2615 -0.5448 -0.0459
 1971SOL    HW117372   2.077   2.713  15.241 -1.7392 -0.0584 -2.0484
 1971SOL    HW217373   2.071   2.585  15.173 -2.8560  1.6577  1.3174
 1972SOL     OW17374   4.136   0.563   7.761  0.1429  0.1235  0.2196
 1972SOL    HW117375   4.202   0.610   7.812 -0.0553  0.6951 -0.0599
 1972SOL    HW217376   4.174   0.576   7.674 -0.0634  1.7137  0.3733
 1973SOL     OW17377   1.540   4.228   1.190 -0.3358  0.6592  0.0313
 1973SOL    HW117378   1.504   4.317   1.183  1.8787  1.3974 -1.9327
 1973SOL    HW217379   1.497   4.194   1.268 -1.4707 -0.3972 -1.0438
 1974SOL     OW17380   2.565   4.718   2.351 -0.3471 -0.0412  0.8530
 1974SOL    HW117381   2.476   4.704   2.383  0.5292 -1.2563  2.7277
 1974SOL    HW217382   2.563   0.074   2.300 -1.5681  0.6794  2.0570
 1975SOL     OW17383   4.300   1.336   3.375  0.1267  0.3336  0.0883
 1975SOL    HW117384   4.248   1.339   3.456 -0.2108  3.6250 -0.2461
 1975SOL    HW217385   4.315   1.246   3.348  0.9566  0.9010 -1.3082
 1976SOL     OW17386   4.260   2.911   7.352 -0.1146 -0.3257  0.0521
 1976SOL    HW117387   4.280   2.823   7.319  1.3651  0.2543 -0.5897
 1976SOL    HW217388   4.327   2.957   7.302  0.0139  0.4483  0.9361
 1977SOL     OW17389   4.603   2.265   9.061 -0.3724 -0.5731 -0.3030
 1977SOL    HW117390   4.586   2.173   9.080  1.6534 -1.1353 -1.2008
 1977SOL    HW217391   4.697   2.263   9.044  0.0093  0.2473  1.6635
 1978SOL     OW17392   0.128   2.238   8.336 -0.4135  0.6766  0.0274
 1978SOL    HW117393   0.035   2.221   8.326 -0.7458  1.8036  1.2251
 1978SOL    HW217394   0.142   2.332   8.348 -0.1418  0.6429 -0.0223
 1979SOL     OW17395   2.759   2.071   8.328  0.2358  0.1411  0.1232
 1979SOL    HW117396   2.806   1.990   8.350 -0.3459  0.7677  3.6559
 1979SOL    HW217397   2.675   2.042   8.362  0.4838  0.0120  0.6355
 1980SOL     OW17398   3.584   1.060   7.596  0.2752 -0.5235  0.4863
 1980SOL    HW117399   3.653   1.044   7.532 -1.0614  1.7282 -1.5077
 1980SOL    HW217400   3.616   1.141   7.636 -0.3398 -0.0611  0.0506
 1981SOL     OW17401   2.852   0.855   1.857 -0.4477 -0.6774  0.2295
 1981SOL    HW117402   2.758   0.864   1.842 -0.0527 -1.1056 -2.5086
 1981SOL    HW217403   2.850   0.841   1.952  0.5815 -2.6932 -0.0315
 1982SOL     OW17404   3.707   2.526   3.117 -0.1620 -0.4249 -0.1227
 1982SOL    HW117405   3.757   2.594   3.072 -0.7035  0.5703  0.7779
 1982SOL    HW217406   3.619   2.563   3.124  0.5858  0.9856  1.6426
 1983SOL     OW17407   4.009   1.637   6.640 -0.1548  0.0070  0.0824
 1983SOL    HW117408   4.081   1.593   6.595  0.1498  0.8505 -0.2689
 1983SOL    HW217409   3.970   1.571   6.698  0.3465 -0.3984 -0.0386
 1984SOL     OW17410   4.695   2.268   6.274 -0.3125 -0.3050 -0.4853
 1984SOL    HW117411   4.632   2.333   6.244 -0.1069  1.5183  3.1797
 1984SOL    HW217412   0.035   2.319   6.321  0.6945 -1.5394 -0.5446
 1985SOL     OW17413   1.459   0.573   2.873 -0.6114  0.0374  0.3741
 1985SOL    HW117414   1.384   0.514   2.869 -0.7373  0.0847  1.9671
 1985SOL    HW217415   1.444   0.613   2.959 -0.9092  0.0789  0.3016
 1986SOL     OW17416   3.538   1.946   5.596  0.4685  0.6002 -0.5044
 1986SOL    HW117417   3.448   1.948   5.565  0.5837 -2.0672 -1.0168
 1986SOL    HW217418   3.555   1.855   5.623  1.8181  0.4455 -1.8728
 1987SOL     OW17419   1.926   2.635  11.030 -0.0902 -0.1736  0.5060
 1987SOL    HW117420   1.846   2.662  10.986  1.1407  2.3839 -0.1718
 1987SOL    HW217421   1.965   2.569  10.972 -1.3141  0.2009 -0.7431
 1988SOL     OW17422   1.482   0.808  10.144  0.1881 -0.2439  0.2189
 1988SOL    HW117423   1.521   0.895  10.140 -1.0679  0.2586 -1.3416
 1988SOL    HW217424   1.390   0.835  10.133  0.8542  0.3045 -3.9269
 1989SOL     OW17425   2.942   0.382   7.405  0.5430 -0.3145 -0.8167
 1989SOL    HW117426   2.874   0.405   7.467  0.4172 -1.5623 -0.4930
 1989SOL    HW217427   2.923   0.451   7.341 -0.6930  0.3507  0.2814
 1990SOL     OW17428   4.062   2.225  14.566  0.1613  0.4785  0.2084
 1990SOL    HW117429   4.106   2.164  14.626 -1.3305 -0.7411  0.0458
 1990SOL    HW217430   4.066   2.176  14.484  0.1247  0.9806 -0.0937
 1991SOL     OW17431   1.059   2.462   4.283 -0.1144  0.0318 -0.1039
 1991SOL    HW117432   0.987   2.412   4.323  0.5891  1.6480  3.1770
 1991SOL    HW217433   1.127   2.426   4.340 -2.5677 -2.0638  1.5225
 1992SOL     OW17434   2.771   0.821   9.219 -0.1280  0.1176  0.0936
 1992SOL    HW117435   2.687   0.845   9.256 -0.5621  0.0854 -0.8757
 1992SOL    HW217436   2.783   0.883   9.147  0.5540 -0.7486 -0.5395
 1993SOL     OW17437   2.087   2.054  15.096  0.3863 -0.7769  0.3586
 1993SOL    HW117438   2.139   1.999  15.155  0.6505  1.2738  2.0363
 1993SOL    HW217439   2.022   2.094  15.153  1.1070 -2.1390  2.1296
 1994SOL     OW17440   2.536   0.919  16.700 -0.2754 -0.3759  0.3055
 1994SOL    HW117441   2.607   0.972  16.736 -0.8191 -0.0132  0.8303
 1994SOL    HW217442   2.490   0.919  16.784 -1.1498 -0.6740 -0.1672
 1995SOL     OW17443   0.304   3.552   5.849  0.1318  0.8196 -0.1534
 1995SOL    HW117444   0.391   3.577   5.879  0.3892 -0.4565  0.1505
 1995SOL    HW217445   0.312   3.587   5.760 -1.1739  1.7786  0.0959
 1996SOL     OW17446   4.098   0.195   2.932 -0.1194 -0.3830 -0.4636
 1996SOL    HW117447   4.109   0.113   2.884  3.3772 -0.1871  0.0034
 1996SOL    HW217448   4.025   0.168   2.988 -0.1792 -0.7648 -0.7241
 1997SOL     OW17449   2.244   1.770   0.179 -0.0307 -0.3056  0.3865
 1997SOL    HW117450   2.246   1.689   0.128 -0.4836 -0.1341  0.0988
 1997SOL    HW217451   2.298   1.745   0.254  0.5472 -1.0488 -0.2867
 1998SOL     OW17452   0.315   4.694   7.933 -0.4578  0.0800 -0.0070
 1998SOL    HW117453   0.246   4.635   7.903 -0.0530  0.1515 -1.0871
 1998SOL    HW217454   0.294   0.051   7.888  1.7693 -0.5312 -2.1558
 1999SOL     OW17455   4.544   4.558   7.518 -0.5938  0.4780 -0.0151
 1999SOL    HW117456   4.461   4.517   7.492 -0.6706 -0.0880  1.0913
 1999SOL    HW217457   4.508   4.647   7.515  1.2323  1.2068  0.0968
 2000SOL     OW17458   0.504   2.248  11.928  0.4230  0.1829  0.7410
 2000SOL    HW117459   0.527   2.223  11.838 -2.0339 -2.1197  0.7446
 2000SOL    HW217460   0.536   2.172  11.977  2.1929 -0.6265 -1.6351
 2001SOL     OW17461   1.107   0.295   8.397 -0.1102  0.1265 -0.0698
 2001SOL    HW117462   1.067   0.380   8.383 -2.6938 -0.8544  1.2765
 2001SOL    HW217463   1.029   0.241   8.404  0.0260 -0.1164 -0.4254
 2002SOL     OW17464   0.835   4.532   2.419 -0.2018 -0.1010 -0.7376
 2002SOL    HW117465   0.833   4.580   2.502  0.5993  1.9043 -1.8710
 2002SOL    HW217466   0.835   4.445   2.459  0.2745  0.1715 -0.1457
 2003SOL     OW17467   3.340   2.822   8.576 -0.4519 -0.8093  0.2557
 2003SOL    HW117468   3.283   2.863   8.641 -1.5638  1.6994 -2.2868
 2003SOL    HW217469   3.273   2.781   8.522  1.2325 -2.2525 -0.7652
 2004SOL     OW17470   3.388   2.227   7.609  0.2450 -0.0561 -0.1399
 2004SOL    HW117471   3.437   2.247   7.689  0.5335  0.9701 -0.5768
 2004SOL    HW217472   3.337   2.307   7.594 -1.0312 -0.8943 -0.2799
 2005SOL     OW17473   1.510   4.676  12.995 -0.0587 -0.1980 -0.2214
 2005SOL    HW117474   1.463   0.030  13.021  0.9776 -0.1021  1.3656
 2005SOL    HW217475   1.470   4.614  13.055  0.1202 -0.0588  0.0408
 2006SOL     OW17476   1.655   2.555  10.597  0.4490 -0.9962 -0.0977
 2006SOL    HW117477   1.594   2.620  10.631  0.1615 -0.4685 -1.6137
 2006SOL    HW217478   1.650   2.488  10.665 -2.2457 -1.8392 -1.1155
 2007SOL     OW17479   2.758   2.769   6.891 -0.0508  0.0346 -0.6210
 2007SOL    HW117480   2.798   2.685   6.869 -1.9599 -1.3211  1.0579
 2007SOL    HW217481   2.723   2.748   6.977  1.3447 -0.8654 -0.2627
 2008SOL     OW17482   1.040   2.044   5.969  0.0699  0.1374  0.2923
 2008SOL    HW117483   0.989   2.085   5.899 -0.6230 -1.8713 -0.3721
 2008SOL    HW217484   1.067   2.122   6.016 -1.2721  1.5168 -1.2069
 2009SOL     OW17485   1.625   0.187  11.719 -0.2065  0.1152 -0.4186
 2009SOL    HW117486   1.573   0.249  11.667  1.3860  1.6277 -0.2327
 2009SOL    HW217487   1.710   0.197  11.675 -0.9966  2.5247 -1.4021
 2010SOL     OW17488   4.020   4.379   8.586 -0.1099 -0.1557 -0.6190
 2010SOL    HW117489   3.954   4.338   8.531 -0.4714  0.1892 -0.4397
 2010SOL    HW217490   4.050   4.446   8.524 -0.6581  0.6387 -0.0289
 2011SOL     OW17491   3.114   0.837   9.073 -0.4506 -0.3805 -0.6128
 2011SOL    HW117492   3.176   0.880   9.132 -0.5572  1.2856 -1.7287
 2011SOL    HW217493   3.050   0.804   9.137  0.1280 -0.1294  0.1027
 2012SOL     OW17494   0.252   4.680   8.579  0.0510 -0.1813  0.4032
 2012SOL    HW117495   0.329   4.663   8.633 -0.9943 -0.8067  1.6820
 2012SOL    HW217496   0.277   0.032   8.530  0.6080 -0.2224  0.6185
 2013SOL     OW17497   3.663   2.588   2.599  0.4159 -0.2218 -1.0456
 2013SOL    HW117498   3.714   2.565   2.677 -0.8670  0.2004 -0.0937
 2013SOL    HW217499   3.708   2.538   2.531  0.5060 -0.0887 -1.0844
 2014SOL     OW17500   0.514   4.590   2.230 -0.0820  0.2927 -0.0226
 2014SOL    HW117501   0.552   4.501   2.229  1.2204  0.8352  1.0164
 2014SOL    HW217502   0.589   4.646   2.211  1.2646 -1.8713 -1.1183
 2015SOL     OW17503   3.687   2.919  11.527  0.3637  0.4028 -0.3223
 2015SOL    HW117504   3.716   2.944  11.440  1.5520  0.2370  0.0246
 2015SOL    HW217505   3.630   2.993  11.548  2.9286  1.7839  1.8030
 2016SOL     OW17506   0.551   3.220   2.669 -0.3460 -0.0994  0.3974
 2016SOL    HW117507   0.633   3.268   2.679  0.1930 -1.0272  0.4621
 2016SOL    HW217508   0.492   3.284   2.709 -1.1408 -1.2076  1.0018
 2017SOL     OW17509   0.439   3.118   4.544  0.2224  0.5365  0.2881
 2017SOL    HW117510   0.503   3.158   4.485  0.9194 -1.2752 -0.1829
 2017SOL    HW217511   0.357   3.159   4.515  0.7020  1.8474  0.7721
 2018SOL     OW17512   2.101   0.534   3.119 -0.0708  0.1222 -0.3578
 2018SOL    HW117513   2.173   0.507   3.175  2.0617  1.9767 -2.1978
 2018SOL    HW217514   2.155   0.548   3.041  2.5819  0.1719  1.5181
 2019SOL     OW17515   2.942   3.531   8.127  0.0482 -0.1730  0.2471
 2019SOL    HW117516   2.923   3.458   8.186 -1.1130 -1.8480 -2.1984
 2019SOL    HW217517   2.905   3.499   8.045 -0.6235  0.1939  0.4110
 2020SOL     OW17518   1.319   4.524   2.289 -0.6390 -0.2080  0.3529
 2020SOL    HW117519   1.264   4.590   2.331 -2.1616 -0.9504 -0.4679
 2020SOL    HW217520   1.391   4.509   2.351 -0.4768  0.0259  0.2241
 2021SOL     OW17521   0.608   0.120   8.360 -0.2095  0.0703  0.0848
 2021SOL    HW117522   0.653   0.134   8.277  0.3180  2.9629  0.8366
 2021SOL    HW217523   0.515   0.142   8.349 -0.3432 -0.4530  0.1852
 2022SOL     OW17524   2.504   2.513  17.516 -0.0979 -0.1250 -0.8805
 2022SOL    HW117525   2.555   2.480  17.590 -1.4798  0.0480  0.1623
 2022SOL    HW217526   2.565   2.548  17.451  0.1179 -0.7216 -1.0014
 2023SOL     OW17527   0.436   1.336   7.271  0.7451  0.1888  0.4067
 2023SOL    HW117528   0.490   1.367   7.344 -0.3204 -0.1571  1.3366
 2023SOL    HW217529   0.356   1.319   7.320  0.4488  2.1266  0.5949
 2024SOL     OW17530   3.200   4.357  15.527 -0.7542 -0.0213  0.2381
 2024SOL    HW117531   3.143   4.280  15.525  0.4695 -0.9194  0.0703
 2024SOL    HW217532   3.143   4.418  15.480  2.4999  2.2269 -0.8343
 2025SOL     OW17533   4.542   1.978   8.986  0.8101 -0.0833  0.4294
 2025SOL    HW117534   4.598   2.007   8.914  0.0274  1.4233  0.4313
 2025SOL    HW217535   4.593   1.906   9.022  0.0794 -0.2869  1.0482
 2026SOL     OW17536   4.532   4.132  10.722 -0.2553 -0.0637  0.2362
 2026SOL    HW117537   4.514   4.083  10.802 -0.4016 -0.7183 -0.1952
 2026SOL    HW217538   4.512   4.220  10.754 -1.5298 -0.1348 -0.3573
 2027SOL     OW17539   3.233   3.788   5.400  0.3122 -0.0271  0.6832
 2027SOL    HW117540   3.275   3.746   5.475 -0.1517 -0.6208  0.6103
 2027SOL    HW217541   3.140   3.768   5.413  0.6507 -2.1819 -0.1244
 2028SOL     OW17542   1.473   2.597  16.855  0.3013 -0.3030  0.3155
 2028SOL    HW117543   1.551   2.609  16.909 -0.3812  2.4419  0.6508
 2028SOL    HW217544   1.461   2.682  16.813  2.6857 -0.4540 -0.6809
 2029SOL     OW17545   1.506   4.233   3.767  0.3086  0.9337  0.1410
 2029SOL    HW117546   1.483   4.317   3.728  0.2672  0.7224 -0.2989
 2029SOL    HW217547   1.523   4.182   3.687 -0.3431 -1.0453  1.2578
 2030SOL     OW17548   1.446   0.603   4.993 -0.2001 -0.3319  0.0948
 2030SOL    HW117549   1.357   0.621   4.960  0.2072 -0.8504 -1.2818
 2030SOL    HW217550   1.441   0.670   5.061  0.3119  1.1136 -1.2898
 2031SOL     OW17551   2.496   3.591   3.054  0.3396 -0.6186 -0.9794
 2031SOL    HW117552   2.512   3.549   3.139  0.9028  1.4346 -0.0874
 2031SOL    HW217553   2.552   3.668   3.050 -1.9514  1.1254  0.5473
 2032SOL     OW17554   3.419   0.768   7.145 -0.0654  0.0014  0.1743
 2032SOL    HW117555   3.366   0.830   7.095 -1.1424 -1.0268  0.0418
 2032SOL    HW217556   3.504   0.810   7.129  0.8369 -1.1569  1.9697
 2033SOL     OW17557   0.900   3.901  15.135 -0.5234  0.3191  0.3707
 2033SOL    HW117558   0.926   3.989  15.160 -2.8970  0.4197  2.4804
 2033SOL    HW217559   0.877   3.866  15.221 -0.9862  4.4808  1.9608
 2034SOL     OW17560   4.313   4.442  12.637 -0.1690  0.3967  0.0338
 2034SOL    HW117561   4.356   4.365  12.675 -1.0398  0.0543  0.3386
 2034SOL    HW217562   4.368   4.509  12.676 -0.2353 -0.4733  1.6289
 2035SOL     OW17563   0.835   2.385   8.004 -0.0371  0.3179 -0.2285
 2035SOL    HW117564   0.769   2.316   8.008  1.4395 -0.9631  1.6814
 2035SOL    HW217565   0.789   2.448   7.948 -1.6331 -2.2383 -1.7740
 2036SOL     OW17566   4.519   4.525   5.346 -0.4653 -0.2648  0.5631
 2036SOL    HW117567   4.508   4.469   5.270  0.7035  1.2511 -0.7181
 2036SOL    HW217568   4.596   4.481   5.382  0.7909  0.0590 -1.7586
 2037SOL     OW17569   1.663   0.837   4.928  0.5363 -0.3962 -0.1693
 2037SOL    HW117570   1.754   0.813   4.911  0.8693  0.1052  0.9696
 2037SOL    HW217571   1.638   0.763   4.983 -0.6618  0.9699  1.1106
 2038SOL     OW17572   4.170   1.678  17.270 -0.3241 -0.3030  0.2285
 2038SOL    HW117573   4.168   1.591  17.311 -1.1229 -0.6811 -0.6101
 2038SOL    HW217574   4.090   1.676  17.217  0.0010 -2.9798 -0.2017
 2039SOL     OW17575   4.428   3.231  12.391  0.3563 -0.4339 -0.4763
 2039SOL    HW117576   4.337   3.241  12.420  0.9758  1.0282  0.9307
 2039SOL    HW217577   4.454   3.319  12.417  2.7654 -0.9709 -1.0569
 2040SOL     OW17578   0.333   2.364   3.234  0.5079  0.1853  0.0957
 2040SOL    HW117579   0.286   2.283   3.215  1.8150 -0.3038 -1.0822
 2040SOL    HW217580   0.396   2.380   3.163 -0.5959  0.2915 -0.8506
 2041SOL     OW17581   1.342   3.694   1.239  0.4814  0.0296  0.2362
 2041SOL    HW117582   1.347   3.743   1.157 -1.2802 -0.4694 -0.1631
 2041SOL    HW217583   1.422   3.729   1.278  0.2219  0.7440  0.1381
 2042SOL     OW17584   4.717   0.623  16.619  0.0407  0.0029 -0.4298
 2042SOL    HW117585   0.036   0.587  16.542 -1.6300  0.2498 -1.5192
 2042SOL    HW217586   4.658   0.689  16.583  0.4024  0.2635 -0.5383
 2043SOL     OW17587   2.077   1.199   4.743 -0.6209 -0.6190  0.2775
 2043SOL    HW117588   1.989   1.231   4.765  1.3189  4.1686  0.8594
 2043SOL    HW217589   2.126   1.250   4.807  0.2156 -0.2871 -0.6419
 2044SOL     OW17590   2.340   2.633   6.450  0.0613 -0.2016 -0.1011
 2044SOL    HW117591   2.425   2.629   6.493  0.1280 -0.2971 -0.2419
 2044SOL    HW217592   2.317   2.543   6.471 -1.6519  0.4374  0.7082
 2045SOL     OW17593   3.204   3.306   2.898  0.5158 -0.2824 -0.2562
 2045SOL    HW117594   3.203   3.360   2.819  1.1394 -0.4231 -0.3558
 2045SOL    HW217595   3.204   3.215   2.870 -2.1982  0.4387 -2.6561
 2046SOL     OW17596   3.288   2.203   8.788  0.3648  0.1076  0.8470
 2046SOL    HW117597   3.364   2.183   8.734 -1.1325 -0.5652 -0.9906
 2046SOL    HW217598   3.333   2.214   8.872  0.2247  2.0354  0.6750
 2047SOL     OW17599   4.436   3.063   2.717  0.2244 -0.1768  1.0376
 2047SOL    HW117600   4.521   3.073   2.761 -0.6788  2.3254  2.2191
 2047SOL    HW217601   4.463   3.083   2.627 -2.2837 -0.3069  0.2819
 2048SOL     OW17602   2.815   4.393   6.693 -0.0657  0.1522 -0.2842
 2048SOL    HW117603   2.774   4.473   6.726 -1.3830 -0.6451  0.0530
 2048SOL    HW217604   2.756   4.326   6.728 -0.4986  0.1592 -1.0199
 2049SOL     OW17605   0.108   2.696   6.994  0.3173 -0.3214 -0.2578
 2049SOL    HW117606   0.021   2.729   7.017  0.6350 -0.7996  1.6040
 2049SOL    HW217607   0.148   2.782   6.989 -0.5470  0.2005  1.8631
 2050SOL     OW17608   1.710   3.484   3.336 -0.0247  0.5273  0.2822
 2050SOL    HW117609   1.627   3.461   3.294 -0.6486  1.8138  0.8012
 2050SOL    HW217610   1.707   3.427   3.413 -0.3433  1.6966  1.1494
 2051SOL     OW17611   2.438   2.352  15.012  0.1837  0.4552 -0.0942
 2051SOL    HW117612   2.522   2.310  15.028 -0.6885 -1.4841 -0.6819
 2051SOL    HW217613   2.453   2.445  15.030 -0.6220  0.8634 -1.5584
 2052SOL     OW17614   3.349   1.032   7.749 -0.0112  0.1393  0.0454
 2052SOL    HW117615   3.421   1.052   7.690 -0.0708 -1.6471 -0.6361
 2052SOL    HW217616   3.375   0.943   7.773  1.5372  0.6220  0.1334
 2053SOL     OW17617   0.721   3.311  11.099 -0.3430 -0.0885 -0.6276
 2053SOL    HW117618   0.814   3.307  11.122  0.2201  1.0619 -2.7240
 2053SOL    HW217619   0.709   3.258  11.020  2.1370 -0.1908 -0.9577
 2054SOL     OW17620   4.252   4.603   9.864  0.1940  0.1618  0.1356
 2054SOL    HW117621   4.171   4.553   9.872  1.5405 -1.8626  1.1522
 2054SOL    HW217622   4.233   4.674   9.925 -3.3855  0.5842 -1.5249
 2055SOL     OW17623   0.363   2.179  10.485 -0.0449  0.1837  0.3228
 2055SOL    HW117624   0.347   2.087  10.461 -1.1633  0.5445 -0.3135
 2055SOL    HW217625   0.384   2.224  10.403  3.1210 -3.0464 -0.6295
 2056SOL     OW17626   2.575   0.068   4.617  0.0981 -0.0089 -0.1752
 2056SOL    HW117627   2.600   4.702   4.603 -0.3769 -0.1057 -0.3865
 2056SOL    HW217628   2.656   0.092   4.662 -0.0908  0.0154  0.1516
 2057SOL     OW17629   2.225   0.694  17.591 -0.0250 -0.0051  0.3015
 2057SOL    HW117630   2.293   0.722  17.529 -1.4812  0.7607 -0.9322
 2057SOL    HW217631   2.277   0.624  17.630  0.2830 -0.3283 -0.6836
 2058SOL     OW17632   1.756   1.008   5.708 -0.1820  0.1847  0.2117
 2058SOL    HW117633   1.807   1.081   5.671 -1.1944  0.6586 -0.2523
 2058SOL    HW217634   1.664   1.024   5.691 -0.2233  1.8820  2.0909
 2059SOL     OW17635   2.939   3.549   3.697 -0.3483 -0.8774 -0.4740
 2059SOL    HW117636   2.863   3.605   3.712  1.2378  1.4811 -1.0776
 2059SOL    HW217637   2.996   3.577   3.769 -0.5688  0.7305 -0.9068
 2060SOL     OW17638   1.248   2.223   2.234 -0.4675  0.0069 -0.3807
 2060SOL    HW117639   1.184   2.290   2.261 -2.9511 -1.6631 -2.1200
 2060SOL    HW217640   1.282   2.205   2.321 -2.5296 -0.5861  0.2906
 2061SOL     OW17641   4.263   0.594   3.711  0.7194  0.3175 -0.1095
 2061SOL    HW117642   4.293   0.621   3.798  0.4744 -0.5743  0.2526
 2061SOL    HW217643   4.341   0.615   3.660  0.7105 -1.0237 -0.6849
 2062SOL     OW17644   3.408   3.299   6.184 -0.0708  0.5118  0.3597
 2062SOL    HW117645   3.329   3.246   6.195 -0.3529  0.8950  0.1769
 2062SOL    HW217646   3.403   3.356   6.261  1.0468 -1.3638  1.8287
 2063SOL     OW17647   4.049   4.531  17.589 -0.3462 -0.0257  0.0356
 2063SOL    HW117648   4.128   4.580  17.569 -0.4652  0.7994  1.6009
 2063SOL    HW217649   4.016   4.564  17.673  0.3520  2.7335 -0.7990
 2064SOL     OW17650   2.418   0.116   2.113 -0.1393  0.0915  0.1438
 2064SOL    HW117651   2.382   0.029   2.129  1.8487 -0.7191  0.2848
 2064SOL    HW217652   2.497   0.105   2.060 -0.4631 -1.1307 -0.1000
 2065SOL     OW17653   2.788   2.547   8.628 -0.3132  0.0980 -0.3081
 2065SOL    HW117654   2.752   2.536   8.539  2.4073 -0.8457 -1.2855
 2065SOL    HW217655   2.877   2.574   8.605  0.0003 -0.4412  0.2956
 2066SOL     OW17656   4.274   2.214   8.700 -0.1344  0.5275  0.0913
 2066SOL    HW117657   4.208   2.248   8.761 -0.5402  1.7013 -0.9944
 2066SOL    HW217658   4.354   2.236   8.747  0.3611  2.9327 -1.8840
 2067SOL     OW17659   1.424   0.709  15.823  0.2953 -0.3706  0.5655
 2067SOL    HW117660   1.448   0.786  15.874  0.6402  0.1609 -0.3941
 2067SOL    HW217661   1.374   0.660  15.888  0.2750 -1.5475 -0.3371
 2068SOL     OW17662   1.214   1.566   7.183 -0.0218 -0.4563  0.3307
 2068SOL    HW117663   1.249   1.647   7.147 -0.6074 -0.3689 -0.0367
 2068SOL    HW217664   1.289   1.531   7.231 -2.3300 -4.2316  1.1530
 2069SOL     OW17665   0.488   3.931   1.643 -0.2684 -0.3872  0.1450
 2069SOL    HW117666   0.563   3.982   1.612  0.4531 -1.8553 -0.5202
 2069SOL    HW217667   0.422   3.999   1.629 -0.5838 -0.4090  1.5600
 2070SOL     OW17668   2.441   3.945   2.481  0.0126 -0.3256 -0.1546
 2070SOL    HW117669   2.351   3.979   2.477  0.0675 -0.2329 -0.6709
 2070SOL    HW217670   2.433   3.854   2.452 -0.7168 -0.5296  0.7065
 2071SOL     OW17671   1.114   0.106   5.539 -0.2071  0.0066  0.6586
 2071SOL    HW117672   1.204   0.074   5.547  0.4571  1.6439 -0.3822
 2071SOL    HW217673   1.120   0.183   5.483 -0.3885 -1.2544 -1.0934
 2072SOL     OW17674   1.421   0.689  13.023 -0.4277 -0.1221 -0.1649
 2072SOL    HW117675   1.336   0.732  13.039 -0.7112 -0.0153 -1.9252
 2072SOL    HW217676   1.405   0.599  13.053  1.8733  0.0580  1.5361
 2073SOL     OW17677   1.519   0.719   3.285 -0.6666 -0.0725  0.1568
 2073SOL    HW117678   1.464   0.654   3.241 -2.3079  0.0537  2.0466
 2073SOL    HW217679   1.464   0.744   3.359 -0.9462 -0.0120 -0.0701
 2074SOL     OW17680   3.932   2.391   4.382  0.0692 -0.1803  0.0401
 2074SOL    HW117681   4.016   2.426   4.413  0.1881 -0.8677  0.5058
 2074SOL    HW217682   3.941   2.389   4.287 -1.1086  0.3766 -0.0774
 2075SOL     OW17683   3.314   4.417  12.535 -0.1864  0.0425  0.6471
 2075SOL    HW117684   3.265   4.437  12.455  2.2544 -0.8616 -1.1237
 2075SOL    HW217685   3.399   4.395  12.495 -0.0089  0.0705  1.0133
 2076SOL     OW17686   3.842   4.130  16.958  0.8505 -0.7198 -0.1760
 2076SOL    HW117687   3.874   4.155  17.045  1.6014  0.8981 -0.9351
 2076SOL    HW217688   3.826   4.037  16.976 -1.3985 -0.4807 -0.9859
 2077SOL     OW17689   2.970   2.683   6.668 -0.1559  0.4324 -0.1501
 2077SOL    HW117690   3.063   2.680   6.688  0.4791  1.7899 -2.8193
 2077SOL    HW217691   2.960   2.775   6.695  1.7076  0.5711  0.0625
 2078SOL     OW17692   2.358   4.269  11.406  0.0451 -0.0945 -0.0045
 2078SOL    HW117693   2.268   4.238  11.409  0.0783 -0.1284  0.6070
 2078SOL    HW217694   2.371   4.294  11.497 -1.4082  4.2758 -1.0217
 2079SOL     OW17695   4.107   0.658  10.268 -0.1738 -0.4182 -0.1980
 2079SOL    HW117696   4.198   0.682  10.285 -0.6842  0.6269  1.1232
 2079SOL    HW217697   4.086   0.731  10.209  0.3032  0.2766  0.4807
 2080SOL     OW17698   4.158   3.148  12.725  0.3803  0.1053 -0.1019
 2080SOL    HW117699   4.216   3.076  12.749 -0.9013 -1.3100 -1.2765
 2080SOL    HW217700   4.197   3.223  12.770  0.6567  0.1142 -0.3558
 2081SOL     OW17701   4.105   2.792   5.096 -0.0754 -0.4202 -0.4809
 2081SOL    HW117702   4.155   2.788   5.014  1.0781  0.1335  0.2001
 2081SOL    HW217703   4.155   2.862   5.139 -2.0617 -0.1105  1.3146
 2082SOL     OW17704   3.665   4.244   6.239 -0.0768 -0.2082 -0.3058
 2082SOL    HW117705   3.691   4.322   6.287 -0.5968  0.4927 -1.1662
 2082SOL    HW217706   3.744   4.190   6.241 -0.1576 -0.2655  1.1354
 2083SOL     OW17707   4.453   3.920  10.585  0.0013  0.2015  0.0461
 2083SOL    HW117708   4.388   3.882  10.643  0.9011  0.2457  1.0730
 2083SOL    HW217709   4.476   3.998  10.636 -0.8021  0.9501 -0.7242
 2084SOL     OW17710   4.355   2.234   6.526 -0.0108  0.5858  0.1349
 2084SOL    HW117711   4.371   2.191   6.442  0.3638  2.0992 -0.5515
 2084SOL    HW217712   4.342   2.325   6.501 -3.5518  0.0999  0.1622
 2085SOL     OW17713   3.655   0.742   5.199 -0.0829 -0.3115 -0.0425
 2085SOL    HW117714   3.673   0.690   5.120 -0.5432  0.3820 -0.6067
 2085SOL    HW217715   3.582   0.792   5.162  0.2801 -0.3639 -0.8312
 2086SOL     OW17716   1.618   4.323   0.504  0.3843 -0.4553 -0.2839
 2086SOL    HW117717   1.598   4.385   0.434 -0.7462 -2.3414 -1.6370
 2086SOL    HW217718   1.535   4.275   0.500  0.8061 -1.3595  1.8722
 2087SOL     OW17719   4.582   3.963   3.449 -0.2783  0.5211  0.1093
 2087SOL    HW117720   4.518   3.900   3.483 -0.0932  0.8433  1.0423
 2087SOL    HW217721   4.520   3.996   3.383  0.3640 -1.2045 -1.3542
 2088SOL     OW17722   4.287   2.056   3.872  0.2361 -0.1983  0.1351
 2088SOL    HW117723   4.263   1.984   3.814 -3.0746  1.0351  0.0124
 2088SOL    HW217724   4.324   2.009   3.947  1.0201 -0.9921 -0.7513
 2089SOL     OW17725   3.278   0.824  15.667  0.9840 -0.0003 -0.4277
 2089SOL    HW117726   3.348   0.853  15.725 -0.9136 -1.1112  2.4209
 2089SOL    HW217727   3.225   0.903  15.661 -1.5147 -1.6464  0.3481
 2090SOL     OW17728   0.705   0.806   4.918  0.7652 -0.3692 -0.4703
 2090SOL    HW117729   0.795   0.775   4.919  1.1411  0.5929 -3.2048
 2090SOL    HW217730   0.664   0.743   4.860 -0.3020  0.9470 -1.1494
 2091SOL     OW17731   2.446   2.859  17.440  0.3932  1.0611  0.3888
 2091SOL    HW117732   2.393   2.932  17.408 -1.5781 -0.8669 -0.7537
 2091SOL    HW217733   2.380   2.791  17.425 -0.6493  2.3562 -0.8505
 2092SOL     OW17734   2.509   1.102   0.189 -0.5742 -0.2436 -0.3766
 2092SOL    HW117735   2.441   1.112   0.255  0.8922  0.1648  1.0495
 2092SOL    HW217736   2.483   1.018   0.150  1.1378 -0.3440 -1.3062
 2093SOL     OW17737   3.268   0.619   6.917 -0.1242 -0.0296 -0.1672
 2093SOL    HW117738   3.282   0.583   6.830  1.2087 -0.7594  0.3394
 2093SOL    HW217739   3.353   0.598   6.956 -0.8621 -0.6600  1.1068
 2094SOL     OW17740   3.963   4.156   6.971 -0.3066  0.0267  0.0474
 2094SOL    HW117741   3.884   4.147   7.025  1.3440 -0.1043  2.4289
 2094SOL    HW217742   4.014   4.203   7.036  1.1007 -0.0086 -1.0341
 2095SOL     OW17743   0.989   4.093   8.674  0.5242 -0.4747  0.1768
 2095SOL    HW117744   1.031   4.118   8.592  0.3890  1.2478  0.6296
 2095SOL    HW217745   0.939   4.019   8.638 -1.5275  0.5252  0.9819
 2096SOL     OW17746   0.301   3.871   3.847  0.6804  0.2350  0.6016
 2096SOL    HW117747   0.237   3.940   3.830  0.1672 -0.3398  0.1895
 2096SOL    HW217748   0.342   3.856   3.762  0.2124  0.2381  0.3790
 2097SOL     OW17749   0.208   2.857   5.758  0.3612 -0.1714  0.0266
 2097SOL    HW117750   0.141   2.861   5.690  1.1652  0.5822 -0.7320
 2097SOL    HW217751   0.153   2.851   5.836  0.9490  1.1066  0.5388
 2098SOL     OW17752   4.021   1.098   2.862  0.5889 -0.0219  0.3166
 2098SOL    HW117753   4.072   1.179   2.870  1.0158 -0.1917 -0.7434
 2098SOL    HW217754   3.934   1.130   2.837  0.7739  0.0763 -0.1844
 2099SOL     OW17755   0.603   4.232   0.524 -0.5557  0.2495  0.4581
 2099SOL    HW117756   0.647   4.151   0.547 -0.7242 -0.0440 -0.2530
 2099SOL    HW217757   0.576   4.216   0.433  0.1929  0.5702  0.1751
 2100SOL     OW17758   0.534   3.242   2.324  0.5140  0.1203 -0.5296
 2100SOL    HW117759   0.503   3.187   2.397  0.9583 -0.6050 -0.8856
 2100SOL    HW217760   0.580   3.315   2.365  1.5739 -1.8106  1.7537
 2101SOL     OW17761   3.496   1.208   0.604  0.8844 -0.0490  0.1419
 2101SOL    HW117762   3.445   1.132   0.632  1.3561 -0.1077  0.8230
 2101SOL    HW217763   3.423   1.260   0.571  1.6093  1.7006  1.3086
 2102SOL     OW17764   0.863   3.746   4.668 -0.2385  0.2565 -0.0357
 2102SOL    HW117765   0.786   3.740   4.726 -1.2675 -3.3180 -1.7587
 2102SOL    HW217766   0.865   3.664   4.619 -0.9835  1.0407 -1.3671
 2103SOL     OW17767   0.181   3.748   7.257 -0.4456  0.6355  0.0405
 2103SOL    HW117768   0.209   3.839   7.247  0.0754  0.4467 -0.2367
 2103SOL    HW217769   0.253   3.704   7.303 -0.4587  1.2893  0.6788
 2104SOL     OW17770   2.818   3.527   2.477 -0.2970 -0.4185  0.4947
 2104SOL    HW117771   2.887   3.464   2.456 -0.4455  0.0365 -1.3974
 2104SOL    HW217772   2.742   3.473   2.452 -0.1908  0.6249 -2.1059
 2105SOL     OW17773   3.140   3.457   6.570  0.2416 -0.1416 -0.0873
 2105SOL    HW117774   3.147   3.535   6.625 -1.2720 -0.7620  1.0091
 2105SOL    HW217775   3.224   3.465   6.526  0.3926 -0.6699  0.0982
 2106SOL     OW17776   0.384   4.585   4.186  0.4189 -0.0302  0.0556
 2106SOL    HW117777   0.410   4.503   4.144 -2.3189 -1.6010  1.4011
 2106SOL    HW217778   0.469   4.607   4.224 -0.6964  2.2854  1.2322
 2107SOL     OW17779   2.032   3.558  17.406 -0.6084  0.0496 -0.2632
 2107SOL    HW117780   1.952   3.610  17.414 -0.2077  1.0534 -2.8974
 2107SOL    HW217781   2.101   3.622  17.388 -0.8599  0.2422 -0.5390
 2108SOL     OW17782   0.209   3.737   1.934  0.7191  0.5461 -0.1549
 2108SOL    HW117783   0.168   3.747   1.848  0.7183 -1.4783 -0.3919
 2108SOL    HW217784   0.139   3.750   1.998  0.3721  0.2104 -0.4625
 2109SOL     OW17785   3.186   1.612   2.920 -0.1295 -0.1527 -0.4088
 2109SOL    HW117786   3.165   1.588   3.010 -0.1446 -0.7612 -0.5728
 2109SOL    HW217787   3.277   1.580   2.916 -0.0339  0.1728 -0.8439
 2110SOL     OW17788   3.619   2.883  13.889  0.2970 -0.3226 -0.4858
 2110SOL    HW117789   3.637   2.835  13.809  2.6113  0.3393 -0.3711
 2110SOL    HW217790   3.638   2.970  13.853  1.4364 -0.5479 -0.4334
 2111SOL     OW17791   3.453   1.746   4.417 -0.2678  0.1944  0.2076
 2111SOL    HW117792   3.481   1.654   4.423 -0.3221  0.2090  0.6853
 2111SOL    HW217793   3.429   1.766   4.507 -0.9279  1.4150 -0.2361
 2112SOL     OW17794   4.545   4.720   6.965  0.4726 -0.4308 -0.0977
 2112SOL    HW117795   4.484   4.661   6.922 -0.4492  2.8700 -3.3239
 2112SOL    HW217796   4.531   0.083   6.930  0.2771  0.1222  1.3627
 2113SOL     OW17797   2.201   0.644   3.944  0.2286  0.3656  0.4756
 2113SOL    HW117798   2.166   0.564   3.983 -1.9947  2.2778  2.3978
 2113SOL    HW217799   2.220   0.697   4.021  2.4322  0.7442 -0.3201
 2114SOL     OW17800   4.213   1.092   9.026  0.0974  0.0665  0.3274
 2114SOL    HW117801   4.136   1.133   8.985 -0.8642 -1.0337  1.0432
 2114SOL    HW217802   4.173   1.032   9.089 -0.7201 -0.4228 -0.6438
 2115SOL     OW17803   3.901   3.820  17.516  0.1353 -0.0908  0.8592
 2115SOL    HW117804   3.918   3.770  17.436 -0.1984 -1.2794  1.5279
 2115SOL    HW217805   3.888   3.745  17.574  0.0742 -1.6025 -1.0757
 2116SOL     OW17806   2.030   2.594   8.346  0.1119  0.2686 -0.3429
 2116SOL    HW117807   2.041   2.654   8.273 -0.3557  0.7790  0.0048
 2116SOL    HW217808   1.949   2.554   8.313  1.2212 -3.3386  1.2824
 2117SOL     OW17809   4.461   0.613   5.075  0.3290 -0.5574 -0.0579
 2117SOL    HW117810   4.375   0.655   5.075  0.8627  0.5250  0.4482
 2117SOL    HW217811   4.453   0.576   4.987 -2.4244  0.6979 -0.3399
 2118SOL     OW17812   1.187   4.294  13.796 -0.3568 -0.1365  0.1642
 2118SOL    HW117813   1.121   4.226  13.781 -0.4969  0.2693 -1.0595
 2118SOL    HW217814   1.263   4.241  13.821  0.1412  0.1921 -0.6581
 2119SOL     OW17815   0.633   3.667   4.850 -0.2764 -0.2409 -0.5420
 2119SOL    HW117816   0.690   3.606   4.898 -0.5289  1.6339  2.1663
 2119SOL    HW217817   0.563   3.668   4.916 -1.6413  1.6998 -2.0223
 2120SOL     OW17818   0.154   1.022  13.851  0.0316 -0.2614 -0.2876
 2120SOL    HW117819   0.221   1.074  13.897  0.8652 -2.1186  0.5957
 2120SOL    HW217820   0.118   1.088  13.792 -3.6205 -2.0713 -0.0366
 2121SOL     OW17821   3.233   3.404  16.180 -0.4462 -0.7975  0.3416
 2121SOL    HW117822   3.288   3.330  16.207  0.3869 -0.4796 -0.4908
 2121SOL    HW217823   3.157   3.358  16.146 -2.0812  2.7374 -0.7521
 2122SOL     OW17824   0.257   1.223   1.911  0.5849  0.7794 -0.1131
 2122SOL    HW117825   0.187   1.288   1.906 -0.3199 -0.0251  1.9970
 2122SOL    HW217826   0.215   1.143   1.880 -0.5025  1.5126 -0.4947
 2123SOL     OW17827   3.772   0.834   4.213 -0.2704 -0.3766 -0.1056
 2123SOL    HW117828   3.733   0.753   4.178  2.1053 -0.7343 -1.8917
 2123SOL    HW217829   3.696   0.892   4.200 -0.4861 -0.5513  0.3653
 2124SOL     OW17830   3.641   0.983   7.149  0.1715 -0.0169 -0.3992
 2124SOL    HW117831   3.562   1.037   7.155 -0.8578 -1.6440  0.6991
 2124SOL    HW217832   3.701   1.033   7.204 -1.0316 -0.9723  1.7624
 2125SOL     OW17833   4.625   0.552   2.775  0.0694  0.1738  0.0331
 2125SOL    HW117834   4.637   0.463   2.808 -1.1364  0.1771  0.4744
 2125SOL    HW217835   4.627   0.539   2.681  2.5086 -0.5788  0.1843
 2126SOL     OW17836   2.774   0.600   8.215  0.4241 -0.4990 -0.5017
 2126SOL    HW117837   2.816   0.592   8.130  2.0333 -0.9153  0.3194
 2126SOL    HW217838   2.823   0.550   8.281  0.7590  2.4121  1.4332
 2127SOL     OW17839   0.408   2.650   7.995 -0.1617  0.1609  0.8292
 2127SOL    HW117840   0.331   2.671   8.047  0.4810  3.3343  0.4548
 2127SOL    HW217841   0.425   2.732   7.949 -1.6211 -1.2364 -2.2299
 2128SOL     OW17842   0.491   3.857   8.240 -0.3506 -0.1559 -0.5571
 2128SOL    HW117843   0.468   3.892   8.326 -0.3466 -0.0697 -0.5910
 2128SOL    HW217844   0.586   3.860   8.249 -0.2859 -0.8821 -1.0070
 2129SOL     OW17845   4.442   0.141   6.436 -0.3934  0.1052 -0.4524
 2129SOL    HW117846   4.381   0.071   6.415 -0.0506 -0.2117 -0.4000
 2129SOL    HW217847   4.488   0.108   6.513  2.1628  0.7786 -1.6828
 2130SOL     OW17848   1.396   4.171   6.891 -0.1043  0.0306  0.1011
 2130SOL    HW117849   1.350   4.198   6.970 -2.4943 -0.4236 -1.1544
 2130SOL    HW217850   1.411   4.078   6.901 -0.4829 -0.2328 -1.7501
 2131SOL     OW17851   2.400   1.631   0.350 -0.1665 -0.6945 -0.2311
 2131SOL    HW117852   2.469   1.574   0.315  0.0276 -0.7852  0.2962
 2131SOL    HW217853   2.342   1.564   0.387 -1.0079  0.4067  0.4497
 2132SOL     OW17854   2.527   1.144  15.806 -0.2767 -0.0328  0.3366
 2132SOL    HW117855   2.595   1.196  15.763  1.8086 -1.1574  2.2764
 2132SOL    HW217856   2.473   1.123  15.730 -1.0083 -1.5823  1.2935
 2133SOL     OW17857   2.011   2.547   5.776  0.0969 -0.1466  0.4144
 2133SOL    HW117858   2.085   2.606   5.761 -0.4043  1.0624  2.7990
 2133SOL    HW217859   2.050   2.460   5.759  2.0306  1.2274 -2.2684
 2134SOL     OW17860   3.778   1.842   7.841  0.0566  0.0886  0.0048
 2134SOL    HW117861   3.703   1.877   7.889  0.1136  1.3148 -0.7996
 2134SOL    HW217862   3.833   1.818   7.915 -0.2022 -0.8713 -0.1127
 2135SOL     OW17863   2.171   0.964  14.297 -0.6910 -0.2108 -0.3903
 2135SOL    HW117864   2.189   0.885  14.246 -0.4019 -1.0319  0.9724
 2135SOL    HW217865   2.129   1.028  14.240 -0.3840  0.9584  0.6895
 2136SOL     OW17866   2.585   2.394   5.249 -0.5166  0.5620 -0.3297
 2136SOL    HW117867   2.540   2.454   5.190  0.3149  0.8393 -0.6820
 2136SOL    HW217868   2.515   2.384   5.313  0.4449  0.1899  0.6704
 2137SOL     OW17869   1.038   1.862  15.192  0.8424  0.0161 -0.2691
 2137SOL    HW117870   1.040   1.898  15.103 -0.3030 -0.5549 -0.5264
 2137SOL    HW217871   0.961   1.912  15.218  1.0700 -0.5370  1.4598
 2138SOL     OW17872   2.417   3.242   2.672 -0.4841  0.1165  0.3797
 2138SOL    HW117873   2.352   3.276   2.734 -0.9249  2.0662 -1.1716
 2138SOL    HW217874   2.435   3.165   2.726  1.5023 -0.0051 -0.4648
 2139SOL     OW17875   1.005   0.120   5.823 -0.0738  0.5584 -0.4499
 2139SOL    HW117876   1.041   0.145   5.738  2.0861  2.3198  0.9850
 2139SOL    HW217877   1.080   0.097   5.878 -0.0953 -1.3247 -1.1951
 2140SOL     OW17878   3.503   3.377   8.271 -0.1260 -0.3230 -0.1371
 2140SOL    HW117879   3.432   3.441   8.281 -0.2889 -0.6859  1.1100
 2140SOL    HW217880   3.572   3.431   8.232 -0.6504  0.8218  0.4907
 2141SOL     OW17881   4.230   3.545   4.529 -0.6297  0.5488 -0.3874
 2141SOL    HW117882   4.171   3.567   4.601 -0.1512 -0.6048  0.3453
 2141SOL    HW217883   4.168   3.556   4.456  0.3496 -1.3491 -1.5008
 2142SOL     OW17884   0.829   3.191  15.926 -0.1958  0.4983 -0.3608
 2142SOL    HW117885   0.833   3.287  15.917  3.0415  0.3263 -0.5285
 2142SOL    HW217886   0.919   3.166  15.944  0.0214  1.1113 -0.5979
 2143SOL     OW17887   0.623   0.048   6.253 -0.6923  0.4232  0.3170
 2143SOL    HW117888   0.645   0.112   6.320  0.4429 -0.7545  1.0739
 2143SOL    HW217889   0.711   0.041   6.214 -1.8853 -2.0984 -1.9638
 2144SOL     OW17890   4.706   2.597   1.708 -0.0865  0.2779 -0.2225
 2144SOL    HW117891   0.022   2.665   1.655  0.6825 -2.0648 -2.6091
 2144SOL    HW217892   4.682   2.649   1.785 -0.2749 -0.7280  0.4100
 2145SOL     OW17893   1.124   3.451  16.950  0.0547  0.4001  0.2730
 2145SOL    HW117894   1.122   3.395  16.872 -0.5978 -2.2496  2.1815
 2145SOL    HW217895   1.033   3.454  16.980  0.5037 -4.1531  2.0834
 2146SOL     OW17896   3.452   1.696   8.391  0.4039 -0.3926  0.0469
 2146SOL    HW117897   3.525   1.744   8.351  1.2042 -0.8067  1.0031
 2146SOL    HW217898   3.386   1.688   8.322 -1.7406  0.2134  2.0473
 2147SOL     OW17899   3.250   2.340   1.443  0.5426  0.4875  0.2055
 2147SOL    HW117900   3.272   2.406   1.378  2.5857  1.1480  1.5950
 2147SOL    HW217901   3.196   2.401   1.494 -1.4216 -0.8143 -0.3163
 2148SOL     OW17902   0.782   0.572   2.439  0.2782  0.0854 -0.0471
 2148SOL    HW117903   0.699   0.617   2.420  0.1021  0.1832  0.9056
 2148SOL    HW217904   0.751   0.483   2.453  2.6509 -0.9894 -1.8595
 2149SOL     OW17905   3.163   0.254   5.898  0.3028  0.2796 -0.2425
 2149SOL    HW117906   3.138   0.344   5.880  0.4053  0.4004  0.2276
 2149SOL    HW217907   3.190   0.223   5.811  0.1294  0.2882 -0.2979
 2150SOL     OW17908   0.470   4.275   1.744  0.6109 -0.2403 -0.1938
 2150SOL    HW117909   0.400   4.225   1.703  0.6015  1.6751 -2.5434
 2150SOL    HW217910   0.428   4.355   1.778 -0.0422 -0.3544 -0.7320
 2151SOL     OW17911   0.079   2.749   3.401  0.0903  0.5824  0.3699
 2151SOL    HW117912   4.710   2.753   3.415 -0.4414 -0.9631 -2.9797
 2151SOL    HW217913   0.104   2.693   3.328 -0.8073  0.2617  0.3090
 2152SOL     OW17914   3.890   3.388   4.157  0.3100 -0.1188  0.6684
 2152SOL    HW117915   3.877   3.305   4.202 -1.6080 -1.2168 -1.9074
 2152SOL    HW217916   3.985   3.387   4.148  0.3503  1.5838  0.9491
 2153SOL     OW17917   2.592   0.178   7.142 -0.5299 -0.1647 -0.2106
 2153SOL    HW117918   2.645   0.252   7.112 -1.1453 -0.2680 -1.5309
 2153SOL    HW217919   2.523   0.235   7.176 -0.8702  0.0586 -1.2775
 2154SOL     OW17920   4.514   0.982  15.976  0.2020 -0.2753 -0.4629
 2154SOL    HW117921   4.495   0.889  15.964 -1.1327 -0.0203 -0.3001
 2154SOL    HW217922   4.456   1.013  15.907  0.3542  1.0953  0.0278
 2155SOL     OW17923   1.687   1.687   8.917  0.8004 -0.1308 -0.8042
 2155SOL    HW117924   1.735   1.755   8.964  0.7338 -1.1997  0.8116
 2155SOL    HW217925   1.746   1.678   8.842 -0.0451  1.3309 -1.6534
 2156SOL     OW17926   1.535   0.010   3.872 -0.7771 -0.0388  0.8527
 2156SOL    HW117927   1.482   4.661   3.897 -0.2955 -0.5458  0.3789
 2156SOL    HW217928   1.485   0.042   3.797  3.3494  1.7418 -1.1666
 2157SOL     OW17929   4.341   0.182   0.785 -0.0944 -0.3642  0.3931
 2157SOL    HW117930   4.412   0.246   0.782  0.7477 -1.2386  1.7231
 2157SOL    HW217931   4.374   0.113   0.728  0.8057 -1.5959  2.4234
 2158SOL     OW17932   0.094   1.527   2.622  0.4320  0.7373  0.1327
 2158SOL    HW117933   0.144   1.453   2.658  1.5762  1.1442 -0.5926
 2158SOL    HW217934   0.171   1.580   2.600  0.3482  0.4372 -0.9108
 2159SOL     OW17935   3.172   0.248   8.872  0.1439 -0.3818 -0.1731
 2159SOL    HW117936   3.205   0.296   8.948  0.1463 -0.8544  0.1232
 2159SOL    HW217937   3.217   0.166   8.890 -1.3448 -1.0256  0.6756
 2160SOL     OW17938   1.005   3.707   7.839  0.4305  0.4800 -0.0700
 2160SOL    HW117939   0.988   3.741   7.927 -1.7177  2.0797 -1.0868
 2160SOL    HW217940   0.924   3.716   7.790  1.5705 -0.8801 -2.1824
 2161SOL     OW17941   3.123   2.892   5.102  0.1209  0.2351 -0.4300
 2161SOL    HW117942   3.197   2.899   5.041  0.2367  2.5755 -0.0180
 2161SOL    HW217943   3.060   2.841   5.051 -0.7537  0.8706  0.0230
 2162SOL     OW17944   3.754   0.493  10.030  0.0622 -0.0334  0.2957
 2162SOL    HW117945   3.683   0.557  10.032 -1.2404 -1.4138 -1.8123
 2162SOL    HW217946   3.807   0.535   9.962  1.3108 -0.7746  0.8044
 2163SOL     OW17947   1.890   0.210  17.633  0.2226 -0.1389  0.4111
 2163SOL    HW117948   1.810   0.194  17.684 -0.4226  1.0053 -0.2600
 2163SOL    HW217949   1.925   0.121  17.641 -0.0767  0.0327  3.5632
 2164SOL     OW17950   3.466   0.164   4.221 -0.1608 -0.3207 -0.6610
 2164SOL    HW117951   3.506   0.216   4.152 -3.4923  2.0460 -0.7882
 2164SOL    HW217952   3.397   0.223   4.253  0.7902  0.6118 -0.3488
 2165SOL     OW17953   3.901   0.596   9.850 -0.2263 -0.0774 -0.1811
 2165SOL    HW117954   3.979   0.597   9.907 -0.1176 -0.5885 -0.3202
 2165SOL    HW217955   3.931   0.531   9.787 -0.1632 -0.4068  0.1926
 2166SOL     OW17956   1.287   0.531   6.222  0.2266 -0.3834  0.4857
 2166SOL    HW117957   1.210   0.474   6.217  0.7615 -0.8284 -2.4947
 2166SOL    HW217958   1.276   0.554   6.314  1.3102 -1.3324  0.8516
 2167SOL     OW17959   3.606   3.820  17.198  0.2014 -0.0395  0.3125
 2167SOL    HW117960   3.625   3.787  17.286 -0.3463 -0.5772  0.2236
 2167SOL    HW217961   3.575   3.908  17.219  0.1605  0.3215 -1.2312
 2168SOL     OW17962   3.359   2.174   0.868  0.2053  0.3458  0.1873
 2168SOL    HW117963   3.431   2.112   0.863 -0.2240 -0.1959  0.6957
 2168SOL    HW217964   3.377   2.223   0.948  0.4126 -0.7936  0.8341
 2169SOL     OW17965   3.568   1.817   7.178 -0.5765  0.3617 -0.3343
 2169SOL    HW117966   3.543   1.861   7.259  1.6487  0.7910  0.1193
 2169SOL    HW217967   3.632   1.876   7.138 -2.8382  1.5238 -2.2680
 2170SOL     OW17968   3.038   2.273   8.558  0.8609 -0.1045  0.3170
 2170SOL    HW117969   2.950   2.259   8.594  0.0432  0.6958 -1.3789
 2170SOL    HW217970   3.080   2.302   8.639 -1.6051  1.1387  1.1537
 2171SOL     OW17971   3.306   2.194   6.075 -0.5120 -0.0701 -0.6459
 2171SOL    HW117972   3.226   2.145   6.096 -0.6510  0.9262  1.1357
 2171SOL    HW217973   3.277   2.285   6.083 -0.6862 -0.2558  0.7934
 2172SOL     OW17974   0.946   4.651   3.963 -0.0614  0.4297  0.3326
 2172SOL    HW117975   0.943   4.578   4.024  1.9720  0.5314  0.5404
 2172SOL    HW217976   1.027   4.639   3.914  0.7506 -0.9160  2.0377
 2173SOL     OW17977   0.488   0.001   3.020 -0.2973 -0.8454  0.5354
 2173SOL    HW117978   0.464   0.052   2.942  0.0718 -0.5399  0.6231
 2173SOL    HW217979   0.477   0.073   3.081 -0.8021  1.0820 -1.8029
 2174SOL     OW17980   2.172   4.602   3.178  0.0477 -0.2162 -0.1941
 2174SOL    HW117981   2.193   4.622   3.087 -1.3854 -1.7850 -0.8690
 2174SOL    HW217982   2.222   4.671   3.222  1.0014 -0.4228 -0.9771
 2175SOL     OW17983   1.997   1.814   4.022 -0.6850 -0.2028  0.8950
 2175SOL    HW117984   1.995   1.852   3.934  1.3269 -1.1785  0.4394
 2175SOL    HW217985   1.905   1.834   4.039 -0.9794  0.9798 -2.1806
 2176SOL     OW17986   0.155   2.561   9.216  0.5987 -0.1063  0.5323
 2176SOL    HW117987   0.126   2.493   9.278  0.5153  0.8467  1.5397
 2176SOL    HW217988   0.075   2.613   9.210  1.3462  0.4702 -4.0595
 2177SOL     OW17989   3.941   1.142   2.051  0.7073 -0.1228 -0.6727
 2177SOL    HW117990   3.914   1.085   1.979 -1.2982 -1.8876  1.4461
 2177SOL    HW217991   3.873   1.209   2.060 -0.3753 -1.2594 -0.3631
 2178SOL     OW17992   1.026   4.485   1.061 -0.1958  0.1048 -0.2366
 2178SOL    HW117993   1.023   4.540   1.140 -0.2117 -0.1772 -0.0438
 2178SOL    HW217994   0.972   4.411   1.086 -0.7540  0.4228 -0.5120
 2179SOL     OW17995   2.310   0.070  13.561 -0.6667 -0.4165  0.2682
 2179SOL    HW117996   2.263   0.136  13.510  0.9057  0.9415  0.5848
 2179SOL    HW217997   2.335   0.127  13.634 -0.6270  0.4097 -0.3939
 2180SOL     OW17998   4.664   1.158   2.237  0.6114 -0.6395  0.4168
 2180SOL    HW117999   0.030   1.132   2.228  0.4374 -1.0726 -0.0843
 2180SOL    HW218000   4.657   1.245   2.195 -0.3108 -0.5227  0.8181
 2181SOL     OW18001   4.580   1.779   3.941  0.0230  0.1710  0.0757
 2181SOL    HW118002   4.499   1.794   3.990 -0.4531 -2.3075  0.0351
 2181SOL    HW218003   4.614   1.868   3.932  1.7856 -0.4432  0.5296
 2182SOL     OW18004   3.288   2.408   0.775 -0.0920 -0.9822  0.6036
 2182SOL    HW118005   3.371   2.455   0.771  0.6225 -2.5891 -3.5024
 2182SOL    HW218006   3.303   2.319   0.805 -1.7827 -2.2977 -2.3890
 2183SOL     OW18007   4.248   3.647   3.952 -0.1506  0.5924  0.0589
 2183SOL    HW118008   4.173   3.594   3.924 -0.7074  1.4445 -0.1095
 2183SOL    HW218009   4.235   3.737   3.922 -1.5494  0.1705 -0.6073
 2184SOL     OW18010   2.461   1.930   0.321 -0.1458  0.2497 -0.2947
 2184SOL    HW118011   2.473   1.837   0.339  1.6460  0.7611  1.2241
 2184SOL    HW218012   2.372   1.943   0.355  1.0515 -0.8697  3.2904
 2185SOL     OW18013   0.688   3.907   6.616 -0.4907 -0.0603  0.1387
 2185SOL    HW118014   0.708   3.828   6.666 -1.1513  0.8735  1.8723
 2185SOL    HW218015   0.655   3.968   6.682 -1.5931 -0.4973 -0.0210
 2186SOL     OW18016   2.349   1.275   2.538 -0.2244 -0.3315  0.7103
 2186SOL    HW118017   2.396   1.213   2.593  2.1699  0.4851 -0.3677
 2186SOL    HW218018   2.335   1.357   2.586 -1.3625  0.6330 -1.2594
 2187SOL     OW18019   1.591   1.378  16.777  0.5440  0.1779  0.1691
 2187SOL    HW118020   1.624   1.288  16.774  1.6139  0.5638 -0.0135
 2187SOL    HW218021   1.671   1.430  16.768  0.2619  0.7631  1.1177
 2188SOL     OW18022   3.290   0.713   3.379  1.4062  0.0032  0.7221
 2188SOL    HW118023   3.240   0.736   3.301 -2.2214 -2.7418  2.1741
 2188SOL    HW218024   3.304   0.619   3.368  1.5812  0.5784 -3.6445
 2189SOL     OW18025   0.875   3.008   6.859 -0.5176 -0.0262  0.1762
 2189SOL    HW118026   0.801   2.948   6.866 -1.5640  1.2168 -0.3578
 2189SOL    HW218027   0.825   3.089   6.860 -0.1284  0.2081  0.3145
 2190SOL     OW18028   2.173   3.123   6.848  0.0562 -0.1829  0.0513
 2190SOL    HW118029   2.181   3.056   6.916  1.8048  0.7133  0.7225
 2190SOL    HW218030   2.113   3.088   6.781 -0.2417 -0.3163  0.3884
 2191SOL     OW18031   3.970   2.252   1.455 -0.6354  0.1992 -0.4874
 2191SOL    HW118032   4.018   2.227   1.376  0.5893 -0.2867  0.4085
 2191SOL    HW218033   3.946   2.339   1.423  0.9206  0.7589 -0.1373
 2192SOL     OW18034   0.015   2.340   5.049 -0.3035  0.1449 -0.4345
 2192SOL    HW118035   4.689   2.276   4.999  2.0154 -1.9370 -0.1373
 2192SOL    HW218036   4.681   2.339   5.124  0.1662  2.7993 -0.0213
 2193SOL     OW18037   2.980   0.253   8.690 -0.0965  0.3099 -0.1510
 2193SOL    HW118038   3.050   0.256   8.755 -1.9090  1.5762  1.7339
 2193SOL    HW218039   3.011   0.327   8.637  0.1737 -0.5157 -1.1333
 2194SOL     OW18040   0.913   1.534   2.471 -0.0256 -0.5724 -0.0190
 2194SOL    HW118041   0.948   1.611   2.516  1.0117 -0.0111 -1.7834
 2194SOL    HW218042   0.891   1.571   2.385 -3.0760  1.2799  1.5663
 2195SOL     OW18043   3.715   1.134   6.790 -0.0383  0.6223 -0.0304
 2195SOL    HW118044   3.622   1.143   6.769 -0.2402  1.0516  1.0016
 2195SOL    HW218045   3.720   1.181   6.874  0.7986  1.4180 -0.5300
 2196SOL     OW18046   1.454   3.986   8.889 -0.8921  0.8712 -1.1626
 2196SOL    HW118047   1.383   3.972   8.952 -0.8912  0.2915 -1.2887
 2196SOL    HW218048   1.485   4.067   8.929 -0.4399  0.3851 -0.5316
 2197SOL     OW18049   1.833   0.576   3.919 -0.3131 -0.2030  0.3779
 2197SOL    HW118050   1.834   0.585   3.824  0.9059  0.7537  0.4790
 2197SOL    HW218051   1.900   0.508   3.927  1.0599  1.0430 -0.5910
 2198SOL     OW18052   4.657   1.757   8.470 -0.1907  0.0558 -0.6029
 2198SOL    HW118053   0.010   1.760   8.525 -2.6619  1.2567  2.9009
 2198SOL    HW218054   4.608   1.821   8.521 -0.9190 -1.3544  0.4971
 2199SOL     OW18055   0.707   0.052  11.578  0.2631 -0.3793 -0.1795
 2199SOL    HW118056   0.684   0.142  11.601 -0.6456 -0.0763 -2.3061
 2199SOL    HW218057   0.776   0.066  11.513 -1.6900 -0.8518 -2.3310
 2200SOL     OW18058   2.799   4.164   3.573 -0.1222  0.2335  0.3200
 2200SOL    HW118059   2.797   4.072   3.546 -0.0391  0.5942 -0.9215
 2200SOL    HW218060   2.879   4.174   3.624  0.6690  1.7480 -1.2155
 2201SOL     OW18061   0.833   4.279   2.654 -0.1717 -0.0126  0.1103
 2201SOL    HW118062   0.900   4.225   2.695 -1.1650 -0.7891  0.7126
 2201SOL    HW218063   0.787   4.215   2.599  1.6583  1.3907 -2.9837
 2202SOL     OW18064   0.742   4.062   3.977  0.0816  0.0574  0.2740
 2202SOL    HW118065   0.825   4.041   3.933  0.2877  2.1095 -0.2771
 2202SOL    HW218066   0.777   4.079   4.065  0.0735  0.8554  0.1148
 2203SOL     OW18067   1.865   0.816   4.086  0.4105 -0.1671  0.0914
 2203SOL    HW118068   1.896   0.776   4.168 -0.1431 -0.7529  0.0143
 2203SOL    HW218069   1.859   0.734   4.036 -1.2552 -0.1009  0.1849
 2204SOL     OW18070   4.255   3.573   1.736 -0.2962  0.0053  0.9745
 2204SOL    HW118071   4.187   3.638   1.717  0.1056  0.5772  1.5143
 2204SOL    HW218072   4.326   3.633   1.757 -0.0100 -0.0594  0.2064
 2205SOL     OW18073   0.175   3.296   3.878  0.3085 -0.3231 -0.5524
 2205SOL    HW118074   0.220   3.359   3.935 -0.9860 -0.2704  0.4057
 2205SOL    HW218075   0.248   3.238   3.858  0.4564 -0.5442  0.6275
 2206SOL     OW18076   4.565   3.389   2.118  0.7288 -0.7659 -0.3348
 2206SOL    HW118077   4.574   3.349   2.205  2.4450 -0.4379 -0.3493
 2206SOL    HW218078   4.512   3.462   2.149  0.7736 -0.8432 -0.0715
 2207SOL     OW18079   0.413   4.052   0.907  0.1452  0.3943 -0.4610
 2207SOL    HW118080   0.331   4.004   0.891  0.1894  0.8221 -1.9522
 2207SOL    HW218081   0.416   4.113   0.833  2.7781  0.0382 -0.6442
 2208SOL     OW18082   3.479   2.230   1.894 -0.1118  0.1691  0.0865
 2208SOL    HW118083   3.564   2.186   1.891 -0.1547 -0.0172  1.6425
 2208SOL    HW218084   3.501   2.321   1.917  0.8813  0.2175 -1.0722
 2209SOL     OW18085   2.165   2.622  17.210  0.3934 -0.4943  0.2000
 2209SOL    HW118086   2.222   2.551  17.180  2.9067  1.3267  0.6857
 2209SOL    HW218087   2.132   2.661  17.129  0.1246 -1.9028 -0.3621
 2210SOL     OW18088   1.616   4.685   6.903  1.0494 -0.4903 -0.3027
 2210SOL    HW118089   1.626   4.599   6.944  2.2686  0.0956  0.6206
 2210SOL    HW218090   1.707   4.701   6.881  0.6561  1.4157 -0.5340
 2211SOL     OW18091   3.198   0.378   3.404  0.1420  0.6575 -0.4255
 2211SOL    HW118092   3.153   0.340   3.329 -1.1385 -0.4964  0.9471
 2211SOL    HW218093   3.123   0.422   3.443  0.1813 -1.0050  1.5067
 2212SOL     OW18094   4.490   3.503   5.696 -0.8928 -0.8033  0.0189
 2212SOL    HW118095   4.528   3.471   5.614 -0.6323  0.3988 -0.3313
 2212SOL    HW218096   4.568   3.533   5.744 -0.1588 -0.7837 -1.1952
 2213SOL     OW18097   0.333   0.012  13.998 -0.1404 -0.1266  0.1257
 2213SOL    HW118098   0.367   4.701  14.080 -1.5706  1.1694  1.2845
 2213SOL    HW218099   0.409   0.062  13.966  0.0223 -1.7434 -2.0191
 2214SOL     OW18100   0.391   4.202   8.058  0.1714  0.5212  0.1814
 2214SOL    HW118101   0.439   4.196   8.140  0.3382 -2.1501 -0.1213
 2214SOL    HW218102   0.386   4.298   8.058 -0.0207  0.5118  1.4238
 2215SOL     OW18103   2.968   0.876   9.415  0.1535  0.3262 -0.0967
 2215SOL    HW118104   3.002   0.964   9.432  0.4065  0.2851 -0.3857
 2215SOL    HW218105   2.907   0.901   9.346 -0.5858  0.5217  0.6427
 2216SOL     OW18106   1.370   0.566  12.149  0.3511 -0.0339 -0.1594
 2216SOL    HW118107   1.441   0.552  12.212  0.8626 -0.0837 -0.7414
 2216SOL    HW218108   1.314   0.590  12.223 -0.5586 -1.0386 -0.5300
 2217SOL     OW18109   0.286   3.482   8.350  0.0314 -0.2001  0.0854
 2217SOL    HW118110   0.262   3.445   8.434  0.9350  2.4830  1.5142
 2217SOL    HW218111   0.254   3.571   8.358 -3.0582 -1.4278  1.2855
 2218SOL     OW18112   1.335   3.297   2.775  0.0497 -0.1349 -0.3327
 2218SOL    HW118113   1.262   3.255   2.819 -1.5538  4.1060  1.0792
 2218SOL    HW218114   1.406   3.242   2.807  0.7601  1.7120  1.2972
 2219SOL     OW18115   1.082   0.270  13.298  0.1133  0.2751  0.1160
 2219SOL    HW118116   1.162   0.217  13.288 -2.3204 -3.1924 -0.7235
 2219SOL    HW218117   1.076   0.282  13.393  1.1566 -1.1406  0.3560
 2220SOL     OW18118   4.131   4.268   0.644  0.1063 -0.1563  0.6042
 2220SOL    HW118119   4.089   4.289   0.560  0.9928  0.6325  0.3572
 2220SOL    HW218120   4.172   4.186   0.618  2.5692  0.9676  0.9494
 2221SOL     OW18121   2.858   1.187   7.703 -0.1656  0.1411 -0.7888
 2221SOL    HW118122   2.881   1.270   7.661  0.3378  1.0063  1.1822
 2221SOL    HW218123   2.794   1.209   7.770  1.1514 -0.2279  0.6036
 2222SOL     OW18124   2.821   2.618  13.190 -0.3063 -0.4759 -0.2115
 2222SOL    HW118125   2.804   2.589  13.280  1.8835  0.3340  0.4631
 2222SOL    HW218126   2.851   2.708  13.203 -0.6840 -0.0872 -1.9816
 2223SOL     OW18127   0.885   4.333   4.419 -0.2997  0.6626  0.7597
 2223SOL    HW118128   0.841   4.324   4.503 -2.3691  1.5480 -0.2175
 2223SOL    HW218129   0.975   4.335   4.451  0.2348 -2.1148 -0.5987
 2224SOL     OW18130   0.345   2.873   5.008  0.2799  0.4283 -0.1695
 2224SOL    HW118131   0.279   2.933   5.044 -0.0349 -0.8346  1.3751
 2224SOL    HW218132   0.312   2.851   4.921 -1.9564  0.6723  0.6236
 2225SOL     OW18133   0.582   0.921   5.116 -0.1796  0.5071 -0.1135
 2225SOL    HW118134   0.619   0.889   5.034  2.8119  2.2069  0.5992
 2225SOL    HW218135   0.520   0.850   5.132  2.5161 -2.6951 -3.8858
 2226SOL     OW18136   1.621   3.384   6.684 -0.3539 -0.1030  0.7957
 2226SOL    HW118137   1.613   3.378   6.780 -0.8330 -0.2471  0.7505
 2226SOL    HW218138   1.540   3.338   6.659 -1.4349  0.8509  2.4759
 2227SOL     OW18139   0.620   2.410   1.531  0.1124 -0.0485  0.3668
 2227SOL    HW118140   0.711   2.390   1.553  0.0457  0.1019  0.7826
 2227SOL    HW218141   0.632   2.444   1.442 -1.5363  0.0317  0.1777
 2228SOL     OW18142   4.323   4.513   6.243 -0.3035  0.0067 -0.2753
 2228SOL    HW118143   4.403   4.473   6.275 -1.8724 -1.4609  1.8417
 2228SOL    HW218144   4.327   4.499   6.149  1.4763 -0.0180 -0.1981
 2229SOL     OW18145   3.909   1.658  15.301  0.3994  0.0376 -0.3152
 2229SOL    HW118146   3.915   1.707  15.219  1.7342  1.3551  0.5794
 2229SOL    HW218147   3.837   1.695  15.352  0.9449  0.2784  0.2755
 2230SOL     OW18148   0.097   0.553   7.023 -0.0600  0.0870  0.4597
 2230SOL    HW118149   0.054   0.620   6.970  1.0969  0.8207  0.4383
 2230SOL    HW218150   0.026   0.518   7.077 -2.9823  1.5811 -2.3961
 2231SOL     OW18151   4.128   1.449   8.229 -0.1841 -0.4567  0.0359
 2231SOL    HW118152   4.124   1.539   8.197 -0.2661  0.0696  1.5113
 2231SOL    HW218153   4.119   1.458   8.324  1.5945 -0.5412  0.1965
 2232SOL     OW18154   3.964   4.199  14.163  0.3090 -0.1977 -0.2249
 2232SOL    HW118155   3.972   4.288  14.197 -0.7420  0.7036 -2.3454
 2232SOL    HW218156   3.947   4.220  14.071 -1.6877 -0.7699  0.0091
 2233SOL     OW18157   3.799   0.196   0.486 -0.1249  0.2592  1.1267
 2233SOL    HW118158   3.865   0.127   0.489 -0.6334 -0.2603  0.4074
 2233SOL    HW218159   3.749   0.166   0.410  2.1037 -0.5596 -0.0297
 2234SOL     OW18160   3.563   0.757  13.674  0.5002  0.8398  0.8900
 2234SOL    HW118161   3.493   0.822  13.678 -1.1445 -0.7289 -2.8015
 2234SOL    HW218162   3.520   0.672  13.683  1.3964  0.3494  0.5612
 2235SOL     OW18163   3.863   0.219   5.025  0.4767 -0.1520 -0.4702
 2235SOL    HW118164   3.845   0.294   5.081  1.7838 -1.1776  1.3093
 2235SOL    HW218165   3.931   0.247   4.964  0.8938  0.9960  0.5423
 2236SOL     OW18166   2.258   2.355  15.233  0.5759 -0.6715 -0.3860
 2236SOL    HW118167   2.317   2.421  15.269 -1.2790  0.4138  0.6257
 2236SOL    HW218168   2.295   2.340  15.146  1.2998 -1.9401  0.1265
 2237SOL     OW18169   1.207   4.390   4.948  0.5325  0.6965 -0.0689
 2237SOL    HW118170   1.255   4.334   4.888 -2.1881 -1.5383 -0.1066
 2237SOL    HW218171   1.122   4.416   4.912 -0.7594 -2.6838  0.6108
 2238SOL     OW18172   2.880   4.288   6.208 -0.0242 -0.3986  0.0517
 2238SOL    HW118173   2.845   4.208   6.248 -1.3610 -0.0488 -0.4164
 2238SOL    HW218174   2.888   4.337   6.290  0.7756  1.6563 -1.2746
 2239SOL     OW18175   1.345   3.183  10.038  0.2219 -0.2126 -0.0831
 2239SOL    HW118176   1.300   3.156   9.957  0.4381 -0.5499 -0.0876
 2239SOL    HW218177   1.316   3.126  10.109  1.4217  0.5083  0.9753
 2240SOL     OW18178   0.328   4.458   8.430  0.4105 -0.0395  0.2785
 2240SOL    HW118179   0.316   4.526   8.496 -1.0007  0.5696 -0.5906
 2240SOL    HW218180   0.406   4.420   8.471 -0.2383 -1.3690  0.2670
 2241SOL     OW18181   4.159   1.856   3.713 -0.1648 -0.5288 -0.2367
 2241SOL    HW118182   4.080   1.822   3.754  1.0945 -4.0465 -0.7582
 2241SOL    HW218183   4.130   1.879   3.624 -0.5944 -0.5661 -0.1052
 2242SOL     OW18184   1.980   1.852   2.113  0.2307 -0.4744  1.2501
 2242SOL    HW118185   2.074   1.834   2.107  0.5703  1.0647  1.8801
 2242SOL    HW218186   1.984   1.940   2.075 -1.9719 -0.6126  0.7304
 2243SOL     OW18187   4.222   4.468   3.501  0.3855  0.1785  0.1374
 2243SOL    HW118188   4.270   4.510   3.429  1.6088 -0.1456  0.7669
 2243SOL    HW218189   4.145   4.523   3.513  0.7688  0.5048  1.1382
 2244SOL     OW18190   4.358   4.048   3.293  0.1610 -0.5701 -0.5348
 2244SOL    HW118191   4.268   4.037   3.263  0.3184 -2.2197 -0.4122
 2244SOL    HW218192   4.364   4.143   3.287 -0.5095 -0.6376 -2.5269
 2245SOL     OW18193   2.347   3.379  15.002 -0.3743 -0.7202  0.8260
 2245SOL    HW118194   2.322   3.299  14.955  1.0952 -0.5388 -0.2457
 2245SOL    HW218195   2.323   3.352  15.091  1.2899 -0.5272  1.3338
 2246SOL     OW18196   0.331   3.259   5.930  0.2193  0.3795  0.1877
 2246SOL    HW118197   0.302   3.350   5.934 -1.8157 -0.3994  3.2992
 2246SOL    HW218198   0.296   3.233   5.845  0.9645  0.7356 -0.2195
 2247SOL     OW18199   4.554   0.679  16.230  0.3227  0.3245 -0.2430
 2247SOL    HW118200   4.532   0.717  16.145 -2.1510  0.0050  0.2755
 2247SOL    HW218201   4.530   0.749  16.290  0.1287 -0.3015  0.4116
 2248SOL     OW18202   3.412   2.939   8.331 -0.0532  0.0604 -0.8051
 2248SOL    HW118203   3.330   2.980   8.305 -0.1391  0.1472 -0.3905
 2248SOL    HW218204   3.401   2.918   8.424  2.8405  1.5147 -0.1196
 2249SOL     OW18205   0.023   0.228   9.478  0.1274  0.2349 -0.2420
 2249SOL    HW118206   4.677   0.198   9.422  1.7232  1.2261 -2.7928
 2249SOL    HW218207   4.723   0.319   9.495  2.0340  0.5704  0.8098
 2250SOL     OW18208   4.177   1.032   8.209 -0.2436 -0.5486 -0.1922
 2250SOL    HW118209   4.098   1.086   8.201 -1.6524 -2.4363  0.9436
 2250SOL    HW218210   4.212   1.072   8.288 -0.5713  0.3286 -0.4969
 2251SOL     OW18211   4.136   1.748   4.182 -0.1340  0.0869  0.1897
 2251SOL    HW118212   4.068   1.797   4.135  3.1309  2.6181 -1.8671
 2251SOL    HW218213   4.083   1.723   4.258 -0.5697  0.0904 -0.1103
 2252SOL     OW18214   4.457   2.397  11.354 -0.2636 -0.0243 -0.2197
 2252SOL    HW118215   4.422   2.310  11.372 -2.7229  1.3218  1.5533
 2252SOL    HW218216   4.517   2.371  11.284  0.1386 -1.4904  0.6941
 2253SOL     OW18217   4.215   1.174  16.519 -0.0031 -0.0366  0.3265
 2253SOL    HW118218   4.287   1.120  16.488 -1.1979 -1.0297 -0.7469
 2253SOL    HW218219   4.219   1.244  16.454 -0.4831  0.0533  0.3884
 2254SOL     OW18220   3.168   1.053  15.772 -0.1172 -0.1436  0.4725
 2254SOL    HW118221   3.100   1.026  15.834  0.2025  1.1675  1.4052
 2254SOL    HW218222   3.131   1.130  15.729 -1.8353 -2.4269 -2.1280
 2255SOL     OW18223   3.632   1.361   8.156 -0.4426  0.2525 -0.5430
 2255SOL    HW118224   3.598   1.274   8.177 -1.2924  0.6002 -0.4427
 2255SOL    HW218225   3.575   1.382   8.081  1.5476 -0.9079 -2.3708
 2256SOL     OW18226   1.981   2.058   5.611  0.0746 -0.4277  0.3429
 2256SOL    HW118227   1.897   2.102   5.601 -0.6600 -2.4089 -2.1418
 2256SOL    HW218228   1.968   2.019   5.697 -2.0092  0.8235  0.5915
 2257SOL     OW18229   4.550   0.086   5.412  0.2360 -0.5766 -0.1280
 2257SOL    HW118230   4.519   0.107   5.324 -2.7469 -1.1823  0.7673
 2257SOL    HW218231   4.558   4.717   5.397  1.4303 -0.2400 -1.6292
 2258SOL     OW18232   0.757   2.035   2.726 -0.8613 -0.2186 -0.1672
 2258SOL    HW118233   0.844   2.015   2.762 -0.7240  1.1147  0.2600
 2258SOL    HW218234   0.744   1.975   2.653  0.1039  2.2269 -2.3432
 2259SOL     OW18235   0.757   4.411   8.132  0.0052 -0.9292  0.2289
 2259SOL    HW118236   0.726   4.459   8.209  2.3662 -1.4046  1.4858
 2259SOL    HW218237   0.674   4.381   8.096 -0.0795  0.7696 -1.0028
 2260SOL     OW18238   3.985   2.347   7.276  0.0417 -0.8216  0.2664
 2260SOL    HW118239   3.999   2.335   7.370 -2.4910 -0.6618  0.6783
 2260SOL    HW218240   3.973   2.257   7.245  0.2828 -1.3049  1.5802
 2261SOL     OW18241   1.105   0.076   4.222  0.0502 -0.4900  0.1246
 2261SOL    HW118242   1.142   0.109   4.141 -1.0710  2.5284  0.7925
 2261SOL    HW218243   1.184   0.042   4.262  0.4834  0.4071  0.0311
 2262SOL     OW18244   2.751   1.307   8.275  0.0960 -0.5626  0.0219
 2262SOL    HW118245   2.722   1.221   8.243 -1.6923  0.2321 -0.4711
 2262SOL    HW218246   2.683   1.366   8.244  1.5378  1.1138  0.0188
 2263SOL     OW18247   0.182   4.598   8.994 -0.5437  0.3468 -0.2016
 2263SOL    HW118248   0.265   4.557   9.020 -0.7827  1.0059  1.5748
 2263SOL    HW218249   0.218   4.682   8.965  2.1657 -0.3272  1.1587
 2264SOL     OW18250   3.878   0.093  11.749  0.7655 -0.0659 -0.6043
 2264SOL    HW118251   3.862   0.163  11.686  1.2766  0.4096 -0.2049
 2264SOL    HW218252   3.792   0.052  11.758  0.3332  1.4968  2.1382
 2265SOL     OW18253   4.425   3.804   9.753  0.4936  0.4244 -0.5742
 2265SOL    HW118254   4.332   3.824   9.744  0.3026 -0.5514 -0.7315
 2265SOL    HW218255   4.435   3.770   9.842  1.1480  0.2519 -0.7099
 2266SOL     OW18256   1.726   2.588   5.162 -0.3082  0.2211  0.0283
 2266SOL    HW118257   1.726   2.678   5.129  0.3682 -0.1014 -0.8401
 2266SOL    HW218258   1.762   2.547   5.083 -0.4713 -0.7947  0.4952
 2267SOL     OW18259   4.347   2.661  11.150  0.2307  0.3144 -0.4902
 2267SOL    HW118260   4.411   2.593  11.169  0.3835  0.9035  1.0855
 2267SOL    HW218261   4.380   2.720  11.217  0.7137 -1.5937  0.9629
 2268SOL     OW18262   1.091   0.379   5.773  0.1298 -0.6538  0.0405
 2268SOL    HW118263   1.022   0.442   5.792 -2.6023 -4.5216  2.9323
 2268SOL    HW218264   1.087   0.322   5.850  1.1238 -2.5783 -1.3208
 2269SOL     OW18265   3.542   0.623  16.303 -0.1946  0.3014  0.2508
 2269SOL    HW118266   3.452   0.646  16.327 -1.3092 -1.0468 -2.5716
 2269SOL    HW218267   3.544   0.528  16.291  0.6848  0.4937 -1.1106
 2270SOL     OW18268   4.558   4.138   6.362 -0.3189  0.2118  0.3367
 2270SOL    HW118269   4.531   4.229   6.378  1.6952  0.9469 -0.4479
 2270SOL    HW218270   4.562   4.110   6.453  1.1278 -2.6455 -0.6216
 2271SOL     OW18271   0.807   1.565   8.747  0.2986  0.1605 -0.0331
 2271SOL    HW118272   0.881   1.595   8.695 -0.1494  0.8404 -0.2766
 2271SOL    HW218273   0.846   1.570   8.834 -2.8486  5.0882  1.0467
 2272SOL     OW18274   3.740   0.993   7.935 -0.4314  0.7821  0.1647
 2272SOL    HW118275   3.676   1.007   8.004 -0.8979 -0.6558  0.0148
 2272SOL    HW218276   3.799   1.069   7.939 -1.8780  1.9257 -0.0301
 2273SOL     OW18277   0.761   3.795  14.890  0.2385  0.2382 -0.1511
 2273SOL    HW118278   0.799   3.851  14.822  1.2615  1.5800  1.5263
 2273SOL    HW218279   0.777   3.846  14.969 -0.2610 -0.5110  0.4304
 2274SOL     OW18280   2.957   3.746   2.893  0.2890  0.1910 -0.8392
 2274SOL    HW118281   2.930   3.681   2.958 -0.0614  2.1038  0.8933
 2274SOL    HW218282   2.881   3.744   2.836 -0.3511 -0.7749  0.0446
 2275SOL     OW18283   4.487   0.519   2.153  0.1521 -0.5086  0.4030
 2275SOL    HW118284   4.575   0.520   2.116  0.1202 -0.9814  0.3203
 2275SOL    HW218285   4.430   0.516   2.076 -0.9865  0.8382  1.1782
 2276SOL     OW18286   0.003   1.809   7.606 -0.3364 -0.2999  0.0784
 2276SOL    HW118287   4.636   1.825   7.625  0.0472  1.8335  0.0901
 2276SOL    HW218288   4.713   1.763   7.524  0.6789  0.4137 -0.5044
 2277SOL     OW18289   3.636   4.583  15.700  0.0698 -0.0169 -0.4036
 2277SOL    HW118290   3.625   4.666  15.654 -5.3461  0.1917  1.1669
 2277SOL    HW218291   3.583   4.525  15.645  1.2238 -2.5895  1.2290
 2278SOL     OW18292   3.018   2.644   3.069  0.0184  0.3399  0.3344
 2278SOL    HW118293   2.928   2.625   3.094 -0.7093 -1.1947 -3.4466
 2278SOL    HW218294   3.070   2.567   3.091 -0.1369  0.5006  1.2591
 2279SOL     OW18295   3.801   0.775   2.504 -0.1649 -0.7510  0.3369
 2279SOL    HW118296   3.708   0.767   2.527  0.1853 -2.7705  0.9560
 2279SOL    HW218297   3.822   0.865   2.528 -1.8228  0.1438 -1.5006
 2280SOL     OW18298   2.578   2.476   0.447 -0.3307 -0.2265  0.1327
 2280SOL    HW118299   2.524   2.555   0.440  2.3908  1.5918 -0.7782
 2280SOL    HW218300   2.593   2.467   0.541 -1.7775 -0.9976  0.2774
 2281SOL     OW18301   4.241   2.763   9.194 -0.1624 -0.3855  0.6703
 2281SOL    HW118302   4.184   2.691   9.221  0.6277 -1.2784 -0.0646
 2281SOL    HW218303   4.317   2.740   9.247  0.1604  0.6587  0.6628
 2282SOL     OW18304   2.955   3.131   5.846  0.4011 -0.4282  0.3468
 2282SOL    HW118305   2.887   3.174   5.898  1.7837  2.0693  0.0792
 2282SOL    HW218306   2.920   3.044   5.828  0.5342 -0.5922  0.8604
 2283SOL     OW18307   4.126   1.513  11.771 -0.5742 -0.0794  0.6357
 2283SOL    HW118308   4.141   1.458  11.694 -1.2260 -2.7415  2.3932
 2283SOL    HW218309   4.070   1.582  11.735 -0.7913 -1.1159 -0.9909
 2284SOL     OW18310   0.470   3.941   6.419  0.0159  0.3098 -0.2993
 2284SOL    HW118311   0.525   4.017   6.400  0.1799 -0.3193 -2.3451
 2284SOL    HW218312   0.526   3.904   6.487  0.0152 -2.0388 -1.5954
 2285SOL     OW18313   2.198   3.811   7.512  0.4298 -0.9783  0.3072
 2285SOL    HW118314   2.135   3.774   7.574  1.6683 -2.0375  0.9393
 2285SOL    HW218315   2.176   3.766   7.430  0.4930 -0.1721 -0.1500
 2286SOL     OW18316   3.893   4.458   1.319  0.4263 -0.4929  0.1372
 2286SOL    HW118317   3.818   4.485   1.373 -0.7996  0.0463 -1.8683
 2286SOL    HW218318   3.951   4.412   1.380  1.9744  0.9236 -0.2594
 2287SOL     OW18319   4.329   4.517  15.544  0.0905  0.1696  0.2575
 2287SOL    HW118320   4.280   4.539  15.624  1.4585 -0.5576  1.3014
 2287SOL    HW218321   4.397   4.459  15.577  1.1826  1.8129  0.9405
 2288SOL     OW18322   1.345   4.512  14.633  0.1211  0.2270  0.3158
 2288SOL    HW118323   1.266   4.555  14.600 -0.0857  1.4808  2.4117
 2288SOL    HW218324   1.363   4.449  14.564 -2.1069  0.2320 -0.2684
 2289SOL     OW18325   3.314   0.735   0.442 -0.7680  0.2784 -0.1798
 2289SOL    HW118326   3.240   0.732   0.381 -0.3703  0.4968 -0.6768
 2289SOL    HW218327   3.276   0.688   0.517  0.0017  0.8818  0.5772
 2290SOL     OW18328   0.617   1.390   3.778  1.1277  0.2565 -0.1738
 2290SOL    HW118329   0.657   1.469   3.814 -1.0556  1.0253  0.5374
 2290SOL    HW218330   0.538   1.431   3.742  1.2191 -0.1752 -0.8697
 2291SOL     OW18331   4.692   3.257  17.275  0.1018  0.8632  0.1376
 2291SOL    HW118332   4.665   3.341  17.312  2.2450  1.6176 -0.0071
 2291SOL    HW218333   4.669   3.273  17.183 -0.8039 -2.7319 -0.2592
 2292SOL     OW18334   2.404   4.588   9.715 -0.0265 -0.2622  0.1523
 2292SOL    HW118335   2.333   4.589   9.779  0.1893  1.9373  0.3730
 2292SOL    HW218336   2.481   4.613   9.767  1.4412  1.6047 -2.9021
 2293SOL     OW18337   4.313   3.679   7.019  0.1634 -0.3628 -0.4233
 2293SOL    HW118338   4.367   3.643   7.089  0.6540 -0.6664 -0.9605
 2293SOL    HW218339   4.333   3.618   6.949  0.1016  0.9371 -1.5828
 2294SOL     OW18340   0.832   0.582  14.703  0.6218  0.5915 -0.2345
 2294SOL    HW118341   0.864   0.557  14.616  0.0774  2.6511 -1.0261
 2294SOL    HW218342   0.740   0.584  14.675  1.1330  3.6199 -1.6984
 2295SOL     OW18343   1.446   1.713   6.570  0.4378 -0.4632  0.3451
 2295SOL    HW118344   1.354   1.741   6.561  0.8358  1.1370  1.1966
 2295SOL    HW218345   1.444   1.681   6.660 -0.2172  1.2928  0.9782
 2296SOL     OW18346   3.709   2.382   4.528  0.2526 -0.6710  0.2565
 2296SOL    HW118347   3.746   2.427   4.604  2.2250 -2.5055  0.3807
 2296SOL    HW218348   3.782   2.385   4.466 -1.2258 -0.5581 -1.4970
 2297SOL     OW18349   3.774   4.507  10.751  0.9265 -0.1266  0.2581
 2297SOL    HW118350   3.837   4.514  10.679 -1.2192 -0.6238 -1.6844
 2297SOL    HW218351   3.817   4.432  10.790 -1.3984 -2.9304 -2.6159
 2298SOL     OW18352   0.163   4.554   5.633 -0.6170 -0.1570 -0.2913
 2298SOL    HW118353   0.225   4.496   5.677 -1.2965 -1.4906 -1.0789
 2298SOL    HW218354   0.194   4.643   5.652 -0.8911  0.0309 -0.7117
 2299SOL     OW18355   1.771   0.048  14.245 -0.1918  0.4213  0.2190
 2299SOL    HW118356   1.685   0.089  14.257  0.4027  1.0212  2.4217
 2299SOL    HW218357   1.802   0.074  14.158  1.7698 -0.9274  0.5156
 2300SOL     OW18358   4.703   0.719   6.107  0.1644 -0.0397  0.9404
 2300SOL    HW118359   0.021   0.781   6.166  0.6943  1.0536 -0.6191
 2300SOL    HW218360   4.644   0.676   6.169  0.0456 -0.5548  0.4696
 2301SOL     OW18361   1.841   0.389   7.315  0.2558 -0.0812  0.0561
 2301SOL    HW118362   1.774   0.365   7.379 -1.6517  0.3519 -1.7623
 2301SOL    HW218363   1.915   0.341   7.351  1.6521  1.2748 -0.9723
 2302SOL     OW18364   3.070   2.400   6.869 -0.4476 -0.0478  0.3272
 2302SOL    HW118365   3.057   2.483   6.914  0.3027  0.8547 -1.1112
 2302SOL    HW218366   3.165   2.400   6.885  0.0727 -0.4696 -2.6946
 2303SOL     OW18367   0.230   4.587  12.850 -0.1370  0.4968  0.1713
 2303SOL    HW118368   0.283   4.621  12.922  1.5300  0.0542 -0.8423
 2303SOL    HW218369   0.299   4.584  12.784 -0.0164  1.7327  0.2294
 2304SOL     OW18370   0.328   0.230   2.247 -0.5360  0.4002  0.2317
 2304SOL    HW118371   0.264   0.160   2.261  0.9666 -0.9112  0.5850
 2304SOL    HW218372   0.395   0.209   2.313 -0.0992  2.7978  0.5468
 2305SOL     OW18373   2.989   2.094  15.786 -0.6806  0.2185  0.1153
 2305SOL    HW118374   2.979   2.126  15.875  0.7867 -0.3051  0.4620
 2305SOL    HW218375   3.026   2.172  15.744 -0.3005  0.8075  1.5795
 2306SOL     OW18376   3.315   2.720   0.721  0.3169 -0.0701 -0.5535
 2306SOL    HW118377   3.234   2.744   0.676  0.1861 -4.6488 -2.6660
 2306SOL    HW218378   3.271   2.705   0.805  0.3005 -1.1016 -0.7487
 2307SOL     OW18379   3.750   3.766   3.140  0.1268  0.0019 -0.1760
 2307SOL    HW118380   3.770   3.741   3.230  1.1624  0.9792 -0.1363
 2307SOL    HW218381   3.701   3.688   3.112  1.2968 -0.7126 -0.2227
 2308SOL     OW18382   2.182   4.573  15.065 -0.0746  0.3198 -0.8189
 2308SOL    HW118383   2.207   4.660  15.097  1.4112 -0.5620  0.3942
 2308SOL    HW218384   2.197   4.516  15.140 -0.1960 -0.9469 -1.7702
 2309SOL     OW18385   0.535   0.189  15.536  0.6685 -0.7596  0.3579
 2309SOL    HW118386   0.480   0.167  15.611 -1.1477 -1.3409 -1.1656
 2309SOL    HW218387   0.462   0.219  15.482  1.7756 -0.1742 -0.8300
 2310SOL     OW18388   2.949   0.639   9.207 -1.0512  0.3179  0.0897
 2310SOL    HW118389   2.969   0.627   9.299 -1.0687 -1.7536 -0.1836
 2310SOL    HW218390   2.871   0.694   9.210 -0.3639  1.1959  1.8291
 2311SOL     OW18391   3.464   0.156   3.280  0.3295  0.1755  0.0689
 2311SOL    HW118392   3.406   0.184   3.209 -2.1768 -1.6073  1.4099
 2311SOL    HW218393   3.421   0.071   3.292 -2.1774  1.3473 -0.7181
 2312SOL     OW18394   4.002   0.136   2.634 -0.5193  0.1042  0.1428
 2312SOL    HW118395   4.039   0.048   2.644 -1.4731 -0.1476  1.3948
 2312SOL    HW218396   4.078   0.178   2.593 -0.2264  0.4407  1.0324
 2313SOL     OW18397   0.927   2.813   3.440 -0.0834 -0.3019 -0.2660
 2313SOL    HW118398   0.906   2.726   3.406 -1.3990 -1.0449  2.4724
 2313SOL    HW218399   0.971   2.784   3.520 -1.2470  4.5473  2.1528
 2314SOL     OW18400   1.535   4.113   8.071 -0.2963 -0.1788 -0.2013
 2314SOL    HW118401   1.460   4.167   8.097 -0.8391 -0.5211 -1.0488
 2314SOL    HW218402   1.527   4.126   7.976  0.6280  1.3761 -0.0730
 2315SOL     OW18403   4.228   1.135   0.495  0.9383 -0.1750 -0.3189
 2315SOL    HW118404   4.304   1.122   0.437  0.6135 -0.9179 -0.5852
 2315SOL    HW218405   4.179   1.054   0.481 -0.3082  0.5446 -0.1097
 2316SOL     OW18406   0.036   0.291   8.423  0.1121 -0.4175  0.1797
 2316SOL    HW118407   0.004   0.375   8.457 -1.8453 -0.8116 -0.7133
 2316SOL    HW218408   0.037   0.316   8.330 -0.2029 -1.6905 -0.1702
 2317SOL     OW18409   4.463   4.366   5.129  0.1650  0.7924 -0.0297
 2317SOL    HW118410   4.550   4.397   5.102 -0.3344 -0.4084 -2.9805
 2317SOL    HW218411   4.407   4.442   5.113  0.5306  0.7850 -1.3804
 2318SOL     OW18412   1.040   1.849   4.137 -0.2613  0.2039  0.6163
 2318SOL    HW118413   0.957   1.866   4.093  0.7333  1.6781 -0.7500
 2318SOL    HW218414   1.079   1.936   4.122 -2.6741  1.3066  0.7762
 2319SOL     OW18415   3.159   1.225   1.884 -0.4929  0.0929 -0.1338
 2319SOL    HW118416   3.067   1.250   1.891 -0.1631  1.9174 -2.1068
 2319SOL    HW218417   3.156   1.199   1.792  0.2917 -1.7819  0.3788
 2320SOL     OW18418   1.221   1.827  15.733 -0.0173 -0.4167  0.2793
 2320SOL    HW118419   1.231   1.886  15.658  0.1654 -1.1065 -0.2437
 2320SOL    HW218420   1.262   1.874  15.805 -0.7070  0.1070  0.3308
 2321SOL     OW18421   1.940   4.103  15.959  0.4938 -0.2479  0.0169
 2321SOL    HW118422   1.880   4.177  15.972  1.0510  0.6623 -2.7472
 2321SOL    HW218423   2.024   4.148  15.972 -0.9061  2.5703 -0.6891
 2322SOL     OW18424   3.118   0.724   5.423  0.3132  0.1721  0.0690
 2322SOL    HW118425   3.075   0.680   5.349  0.6413  0.8973 -0.5492
 2322SOL    HW218426   3.045   0.732   5.485  0.2680  0.6704 -0.0486
 2323SOL     OW18427   4.154   2.247   9.425 -0.6536 -0.0597 -0.0931
 2323SOL    HW118428   4.082   2.293   9.383  0.1643 -0.2525 -1.7125
 2323SOL    HW218429   4.149   2.267   9.519  0.5841 -1.0998  0.2074
 2324SOL     OW18430   2.798   4.194   0.193  0.4092 -0.2600  0.0048
 2324SOL    HW118431   2.828   4.103   0.191  1.3609  0.0506  0.1730
 2324SOL    HW218432   2.816   4.217   0.102  0.7986 -0.7312 -0.0383
 2325SOL     OW18433   2.019   2.282   1.726  0.2025 -0.1009 -0.1627
 2325SOL    HW118434   2.036   2.294   1.632  0.1402 -1.2327 -0.3223
 2325SOL    HW218435   2.058   2.358   1.769 -0.4730 -1.3492  2.6480
 2326SOL     OW18436   1.085   3.819  17.409 -0.7740  0.0785 -0.2919
 2326SOL    HW118437   1.003   3.865  17.394 -0.4842 -0.1032 -2.4736
 2326SOL    HW218438   1.148   3.882  17.374  2.0078 -0.3245  3.9233
 2327SOL     OW18439   2.105   0.957   5.564 -0.1442 -0.2423  0.2528
 2327SOL    HW118440   2.199   0.948   5.553 -0.4115  0.1053 -2.2475
 2327SOL    HW218441   2.102   0.981   5.657  0.6693 -2.7860  0.9168
 2328SOL     OW18442   1.197   2.858   5.955 -0.3135  0.3754 -0.3524
 2328SOL    HW118443   1.191   2.848   6.050 -1.5553 -3.5032 -0.8507
 2328SOL    HW218444   1.288   2.888   5.955 -0.9520  2.3425  2.1828
 2329SOL     OW18445   1.909   3.875  15.798  0.1148 -0.1593 -0.4445
 2329SOL    HW118446   1.939   3.945  15.855  1.1983 -0.9679 -0.0324
 2329SOL    HW218447   1.986   3.846  15.750  0.3109 -0.1075 -0.1588
 2330SOL     OW18448   2.890   3.880   0.218  0.9463  0.3585 -0.7845
 2330SOL    HW118449   2.976   3.860   0.255  0.8191  1.0469 -0.1295
 2330SOL    HW218450   2.894   3.820   0.144 -1.6678 -0.9998  0.1844
 2331SOL     OW18451   2.234   2.905  11.354 -0.7739  0.2704 -0.6312
 2331SOL    HW118452   2.248   2.932  11.263  0.6259  0.2515 -0.4170
 2331SOL    HW218453   2.322   2.890  11.389 -1.2440 -0.1588  0.3629
 2332SOL     OW18454   4.555   0.862   8.246 -0.6098  0.4323 -0.3022
 2332SOL    HW118455   4.508   0.872   8.329  0.7392 -1.6425  0.6948
 2332SOL    HW218456   4.560   0.950   8.208  1.2740  0.4576  0.0141
 2333SOL     OW18457   4.255   4.713   2.767 -0.3403 -0.0341  0.3557
 2333SOL    HW118458   4.243   4.711   2.672  1.0337  0.1344  0.1706
 2333SOL    HW218459   4.348   0.009   2.781  0.0404 -1.8459  0.5595
 2334SOL     OW18460   2.750   0.733  14.414  0.1256  0.4870  0.5964
 2334SOL    HW118461   2.744   0.640  14.433  3.5183 -0.2702 -2.0676
 2334SOL    HW218462   2.680   0.749  14.350  0.6943  0.3757 -0.0558
 2335SOL     OW18463   0.020   0.584  16.878 -0.4056  0.4510  0.4117
 2335SOL    HW118464   0.015   0.610  16.786  1.6109 -2.2178 -0.4314
 2335SOL    HW218465   0.087   0.517  16.867 -1.4977 -0.3662 -1.1498
 2336SOL     OW18466   3.673   0.055   5.899  0.0612 -0.4242  0.1999
 2336SOL    HW118467   3.703   0.146   5.892  0.0138 -0.2693  1.9125
 2336SOL    HW218468   3.582   0.078   5.918  0.5480  2.3812 -0.7301
 2337SOL     OW18469   0.098   4.268   4.705 -0.0126 -0.6691  0.4671
 2337SOL    HW118470   0.107   4.279   4.610  1.0733 -1.3967  0.4887
 2337SOL    HW218471   0.113   4.355   4.740 -0.3769 -0.2813 -0.3245
 2338SOL     OW18472   1.954   3.012   9.112  0.6690  0.0809 -0.0041
 2338SOL    HW118473   1.974   3.069   9.038 -3.2152  0.1707 -0.9865
 2338SOL    HW218474   1.863   2.985   9.098  1.2306  0.3329 -3.9809
 2339SOL     OW18475   2.490   3.668   3.848  0.1112 -0.3969 -0.4303
 2339SOL    HW118476   2.473   3.738   3.911 -3.0821  0.1239 -1.8568
 2339SOL    HW218477   2.438   3.596   3.884  0.3467 -1.3892 -2.1027
 2340SOL     OW18478   0.868   1.767  14.683  0.0387  0.5188  1.1480
 2340SOL    HW118479   0.781   1.788  14.649  0.5360 -2.2520 -1.8670
 2340SOL    HW218480   0.930   1.820  14.633  0.9400 -0.5721  1.1250
 2341SOL     OW18481   2.549   2.863   1.921 -0.7021  0.1934  0.1402
 2341SOL    HW118482   2.552   2.817   2.005 -1.5743  1.8158  1.0463
 2341SOL    HW218483   2.595   2.945   1.936 -2.2700  1.0439  0.2709
 2342SOL     OW18484   2.488   2.601   7.361  0.4715 -0.5764  0.1925
 2342SOL    HW118485   2.444   2.591   7.445 -0.5521  1.0239 -0.1477
 2342SOL    HW218486   2.580   2.577   7.375  0.9678  1.2080  0.0484
 2343SOL     OW18487   2.088   4.547   1.336 -0.6264 -0.4107 -0.3447
 2343SOL    HW118488   2.009   4.503   1.305  0.1520 -0.8939 -1.6256
 2343SOL    HW218489   2.070   4.641   1.324  2.9147  0.5058  1.7324
 2344SOL     OW18490   0.004   3.223  13.244  0.1650  0.0907 -0.7397
 2344SOL    HW118491   0.001   3.317  13.225 -1.9905 -0.1864 -1.7033
 2344SOL    HW218492   4.640   3.197  13.262  0.6063 -1.1055 -0.2695
 2345SOL     OW18493   4.037   3.656   4.386 -0.6239  0.2253 -0.2577
 2345SOL    HW118494   4.073   3.705   4.312  1.9536 -0.6040  0.4322
 2345SOL    HW218495   3.943   3.665   4.373 -0.4967 -0.2855 -1.5916
 2346SOL     OW18496   4.046   4.631  12.681 -0.3510  0.4305  0.2987
 2346SOL    HW118497   4.093   4.698  12.632  3.3730  0.0916  3.4063
 2346SOL    HW218498   4.116   4.566  12.688 -0.7046 -0.2663 -2.8019
 2347SOL     OW18499   4.331   1.895  14.951 -0.2812  0.4804 -0.0364
 2347SOL    HW118500   4.408   1.855  14.911  1.2836  2.5078  0.9692
 2347SOL    HW218501   4.368   1.927  15.033  0.5287 -0.0800 -0.1901
 2348SOL     OW18502   0.839   4.302   1.825 -0.5281  0.7180 -0.1570
 2348SOL    HW118503   0.905   4.286   1.892 -3.0551 -3.1805  1.4322
 2348SOL    HW218504   0.806   4.213   1.810  0.7751 -0.3016  2.9632
 2349SOL     OW18505   1.656   4.352  14.546 -0.1165  0.0837  0.2055
 2349SOL    HW118506   1.694   4.377  14.461  1.2117  1.1396  1.1200
 2349SOL    HW218507   1.627   4.436  14.580  0.1807  0.6697 -0.9681
 2350SOL     OW18508   0.270   1.835  10.253 -0.3751 -0.1802 -0.2400
 2350SOL    HW118509   0.268   1.745  10.221  0.6644  0.4431 -2.0221
 2350SOL    HW218510   0.355   1.843  10.296  1.3314 -3.2654 -3.1091
 2351SOL     OW18511   1.662   1.170   7.695  0.1135 -0.2141 -0.6041
 2351SOL    HW118512   1.577   1.206   7.670  0.0787  0.2744  0.2193
 2351SOL    HW218513   1.687   1.124   7.615  0.4519 -1.5103  0.2506
 2352SOL     OW18514   3.735   3.497   6.166  0.1959  0.4711 -0.3673
 2352SOL    HW118515   3.651   3.540   6.187 -1.2027 -1.6340 -1.7069
 2352SOL    HW218516   3.797   3.555   6.210 -0.9861  1.2560  0.2986
 2353SOL     OW18517   3.447   4.525   4.907 -0.3825  0.9054 -0.1205
 2353SOL    HW118518   3.521   4.508   4.849  0.2914  1.5171  0.5726
 2353SOL    HW218519   3.416   4.605   4.864 -2.5546  0.4898  0.6574
 2354SOL     OW18520   3.325   1.701   2.513  0.2985 -0.3492 -0.0068
 2354SOL    HW118521   3.334   1.724   2.421  0.3504 -0.7011 -0.0896
 2354SOL    HW218522   3.253   1.638   2.513 -1.4287  1.6224 -2.3252
 2355SOL     OW18523   0.205   4.135  14.826 -0.4013  0.0397  0.7776
 2355SOL    HW118524   0.225   4.164  14.915 -0.0091  2.5137 -0.1000
 2355SOL    HW218525   0.237   4.046  14.813 -0.5228  0.1376 -0.2371
 2356SOL     OW18526   1.393   1.011  13.606 -0.2725 -0.2699  0.0683
 2356SOL    HW118527   1.421   0.989  13.517 -2.5402  2.2346 -1.2745
 2356SOL    HW218528   1.469   1.061  13.635 -0.4559 -1.0792  1.9192
 2357SOL     OW18529   3.326   1.144   5.792 -0.4808 -0.6005  0.9725
 2357SOL    HW118530   3.349   1.053   5.811  1.2400  0.2492  3.0021
 2357SOL    HW218531   3.375   1.199   5.854  0.5889 -0.5487  0.0726
 2358SOL     OW18532   1.602   0.819  16.682 -0.2533  0.2826 -0.4860
 2358SOL    HW118533   1.687   0.859  16.663 -0.5464 -0.3204 -3.0874
 2358SOL    HW218534   1.617   0.783  16.770 -0.1905  1.3843 -0.0451
 2359SOL     OW18535   4.361   1.109   2.856  0.3196 -0.2980 -0.7788
 2359SOL    HW118536   4.305   1.169   2.904  0.8750 -2.5023  2.6169
 2359SOL    HW218537   4.290   1.063   2.811  0.8825 -1.7847 -0.1491
 2360SOL     OW18538   3.195   2.717   4.847  0.1986 -0.2050 -0.6053
 2360SOL    HW118539   3.208   2.635   4.895 -3.8400  0.6102  1.7962
 2360SOL    HW218540   3.261   2.779   4.877  0.8151 -0.0192 -2.3051
 2361SOL     OW18541   1.636   0.010   5.509 -0.0597 -0.3408  0.0099
 2361SOL    HW118542   1.708   0.030   5.568 -0.1596 -0.1269  0.0579
 2361SOL    HW218543   1.619   0.098   5.476 -0.4457  0.0637  1.3171
 2362SOL     OW18544   3.259   4.432   8.156  0.0402  0.3200  0.4141
 2362SOL    HW118545   3.176   4.401   8.120  0.9630 -0.1428 -1.3110
 2362SOL    HW218546   3.297   4.483   8.085  0.3784 -1.5312 -0.7166
 2363SOL     OW18547   0.725   1.489   4.624  0.3911 -0.0313  0.5787
 2363SOL    HW118548   0.697   1.580   4.615 -1.5762 -0.5554  1.2165
 2363SOL    HW218549   0.638   1.447   4.625 -0.2084  1.1869 -2.0770
 2364SOL     OW18550   2.133   0.352   9.205 -0.4410 -0.1277 -0.2428
 2364SOL    HW118551   2.211   0.297   9.208 -0.4054 -0.0782 -0.2668
 2364SOL    HW218552   2.088   0.313   9.280  0.1207  2.5696  1.5129
 2365SOL     OW18553   1.926   0.078   5.293  0.5064  0.1979 -0.4702
 2365SOL    HW118554   2.005   0.066   5.241 -0.5000 -2.6124 -1.3064
 2365SOL    HW218555   1.862   0.034   5.237 -2.3252  3.4904  0.1520
 2366SOL     OW18556   3.022   0.870  13.249  0.3295  0.4618  0.0850
 2366SOL    HW118557   3.052   0.843  13.162 -0.8062 -1.6988  0.3777
 2366SOL    HW218558   2.928   0.864  13.232  0.6600 -2.5799 -0.7229
 2367SOL     OW18559   0.600   0.158   0.164 -0.3926  0.0798  0.4944
 2367SOL    HW118560   0.585   0.189   0.253 -1.1143  1.7755 -0.2064
 2367SOL    HW218561   0.620   0.067   0.185 -2.5727 -0.6065 -0.3992
 2368SOL     OW18562   0.515   1.367  16.307 -0.2669 -0.2057  0.6058
 2368SOL    HW118563   0.603   1.335  16.287  0.0982  1.1308  0.0603
 2368SOL    HW218564   0.522   1.455  16.270  0.1144 -0.6940 -0.4694
 2369SOL     OW18565   4.488   0.227   8.729 -0.4971 -0.0143  0.2790
 2369SOL    HW118566   4.463   0.225   8.821 -2.8432  3.5855 -0.2652
 2369SOL    HW218567   4.502   0.322   8.719  4.4680 -0.8485 -0.6831
 2370SOL     OW18568   1.109   3.371   3.449  0.8995  0.0064  0.0352
 2370SOL    HW118569   1.140   3.334   3.367  0.8708 -0.1419  0.0923
 2370SOL    HW218570   1.188   3.353   3.499  0.7636 -2.7755 -0.7579
 2371SOL     OW18571   4.057   3.414   8.843 -0.3431  0.2828 -0.4866
 2371SOL    HW118572   3.979   3.396   8.897  1.4510 -1.4547  1.5471
 2371SOL    HW218573   4.074   3.500   8.881  1.9368 -0.2927 -0.2381
 2372SOL     OW18574   3.220   0.401  10.858  0.4141  0.9015  0.3005
 2372SOL    HW118575   3.200   0.344  10.784  1.4244  1.1538 -0.1552
 2372SOL    HW218576   3.309   0.372  10.877  0.0903 -0.6151 -0.4397
 2373SOL     OW18577   0.463   3.341  17.648  0.0595  0.3284  0.7490
 2373SOL    HW118578   0.411   3.364  17.571 -0.5376 -0.6762  0.8487
 2373SOL    HW218579   0.400   3.327   0.016 -0.6652 -0.2355  0.0069
 2374SOL     OW18580   0.595   2.203  15.751 -0.1874 -0.0133 -0.3094
 2374SOL    HW118581   0.685   2.230  15.769 -0.3411  0.4198 -0.2056
 2374SOL    HW218582   0.550   2.287  15.754 -0.0146  0.1189 -1.5953
 2375SOL     OW18583   0.942   3.083  15.609 -0.4775  0.3908  0.1603
 2375SOL    HW118584   1.035   3.081  15.632 -1.1832  2.9671  3.1001
 2375SOL    HW218585   0.928   3.172  15.640 -1.1735  0.0815  0.7250
 2376SOL     OW18586   2.400   4.027  13.245 -0.0665  0.1678  0.5170
 2376SOL    HW118587   2.454   4.101  13.273 -0.8865  0.5026  1.2240
 2376SOL    HW218588   2.457   3.953  13.224  0.1059  0.9802 -1.8200
 2377SOL     OW18589   4.404   1.601   2.843  0.6415  0.2461  0.0190
 2377SOL    HW118590   4.408   1.659   2.768 -0.9186 -2.1594 -1.9277
 2377SOL    HW218591   4.496   1.577   2.856  0.8962  0.2589 -1.8393
 2378SOL     OW18592   0.038   2.340  11.914 -0.2613 -0.4049 -0.1976
 2378SOL    HW118593   4.683   2.387  11.937 -0.2488 -0.2213 -0.5374
 2378SOL    HW218594   0.004   2.278  11.850  1.4721  0.0118 -1.5085
 2379SOL     OW18595   4.385   3.127   6.726 -0.2634  0.0348 -0.0989
 2379SOL    HW118596   4.308   3.176   6.696 -0.7261  1.4052  3.3107
 2379SOL    HW218597   4.329   3.050   6.731 -1.0773  0.6468  0.3533
 2380SOL     OW18598   2.548   0.350   5.807 -0.4477  0.1955 -0.6675
 2380SOL    HW118599   2.600   0.393   5.876 -0.3514 -1.9183  0.5866
 2380SOL    HW218600   2.483   0.304   5.860  0.5523  1.0017  1.2615
 2381SOL     OW18601   1.655   3.191  10.011  0.2588  0.5232  0.0134
 2381SOL    HW118602   1.653   3.260  10.078  0.8769 -1.3420  1.9504
 2381SOL    HW218603   1.604   3.123  10.054 -0.9218 -0.0957 -2.3725
 2382SOL     OW18604   1.999   4.433   9.657 -0.1976 -1.2209 -0.0497
 2382SOL    HW118605   1.949   4.367   9.705 -0.8772  0.4989  1.5901
 2382SOL    HW218606   2.063   4.454   9.724 -1.6106  4.3659 -0.4723
 2383SOL     OW18607   3.862   4.621   3.808 -0.0011 -0.2923  0.2492
 2383SOL    HW118608   3.812   4.641   3.729 -0.7392  1.1933  1.1031
 2383SOL    HW218609   3.941   4.673   3.792 -0.0455  0.3591  2.1375
 2384SOL     OW18610   4.115   4.205   7.421  0.7590  0.0187  0.3528
 2384SOL    HW118611   4.184   4.140   7.434 -1.0361 -1.8968  0.4503
 2384SOL    HW218612   4.167   4.280   7.394 -2.1345  1.3539 -1.5577
 2385SOL     OW18613   1.815   0.369   7.032 -0.6792 -1.0878  0.4243
 2385SOL    HW118614   1.865   0.425   6.972 -0.7333  0.8586  2.2012
 2385SOL    HW218615   1.859   0.390   7.114 -0.0617  0.3107 -0.2562
 2386SOL     OW18616   2.678   2.388   2.970  0.2630 -0.3096  0.4400
 2386SOL    HW118617   2.683   2.369   2.876 -1.2062  1.1066  0.0698
 2386SOL    HW218618   2.712   2.476   2.982 -0.2402  0.2000 -1.7768
 2387SOL     OW18619   0.915   2.537   1.549  0.8065 -0.0074  0.5020
 2387SOL    HW118620   0.853   2.610   1.544  0.5985 -0.2441 -0.3579
 2387SOL    HW218621   0.922   2.513   1.457  2.3936  0.8275  0.4073
 2388SOL     OW18622   1.630   3.499   9.464  0.1925  0.3528  0.1509
 2388SOL    HW118623   1.537   3.486   9.447  0.2178 -1.5702  1.5182
 2388SOL    HW218624   1.667   3.420   9.425 -0.1623 -0.4181  1.3946
 2389SOL     OW18625   0.528   3.248  16.231 -0.0361 -0.2073 -0.3482
 2389SOL    HW118626   0.501   3.328  16.275  0.1130 -0.9775  1.1680
 2389SOL    HW218627   0.483   3.263  16.148  0.7019  3.5878 -0.0692
 2390SOL     OW18628   1.020   2.084   5.304  0.2966 -0.5215 -0.0922
 2390SOL    HW118629   1.066   2.149   5.251  0.2385  0.1377  0.6639
 2390SOL    HW218630   0.977   2.031   5.237 -0.9199 -0.7434  0.8670
 2391SOL     OW18631   2.732   1.329   9.765 -0.2809 -0.0239 -0.4450
 2391SOL    HW118632   2.817   1.284   9.770  0.2172  1.2191  2.1415
 2391SOL    HW218633   2.669   1.262   9.737 -0.7498  0.6195 -0.9356
 2392SOL     OW18634   0.383   3.103  10.832 -0.1750  0.6085 -0.4796
 2392SOL    HW118635   0.349   3.018  10.859 -1.9815  0.9662 -1.6177
 2392SOL    HW218636   0.358   3.161  10.904  0.9008  1.3051 -0.6679
 2393SOL     OW18637   0.777   4.164  13.790  0.2696  0.4222  0.0756
 2393SOL    HW118638   0.685   4.145  13.768  0.3080  1.1560 -0.7410
 2393SOL    HW218639   0.805   4.228  13.723 -1.0543  0.1715 -0.7214
 2394SOL     OW18640   1.392   0.707   8.211  0.1630  0.6867  0.3513
 2394SOL    HW118641   1.423   0.617   8.221  1.2964  0.8240 -1.9406
 2394SOL    HW218642   1.309   0.687   8.168  0.0001 -1.0188  1.4591
 2395SOL     OW18643   2.849   2.335   3.232  0.6667 -0.2966  0.4748
 2395SOL    HW118644   2.773   2.322   3.289  1.5382  0.0215  1.7026
 2395SOL    HW218645   2.832   2.421   3.193 -1.4159 -0.7322  0.3849
 2396SOL     OW18646   1.831   4.635   7.272  0.0548 -0.4615 -0.0741
 2396SOL    HW118647   1.792   4.563   7.323  0.1440  0.0097  0.6711
 2396SOL    HW218648   1.796   4.713   7.317 -0.6852 -1.4430  1.0552
 2397SOL     OW18649   4.155   1.987   9.364  0.1520 -0.1953 -0.3085
 2397SOL    HW118650   4.120   1.987   9.274 -2.5455  1.8849  0.7359
 2397SOL    HW218651   4.178   2.079   9.367 -2.9294  0.5845 -0.9295
 2398SOL     OW18652   2.727   3.447  16.673 -0.0560  0.8685 -0.9252
 2398SOL    HW118653   2.660   3.423  16.609 -1.8775  1.3708  0.7895
 2398SOL    HW218654   2.705   3.541  16.669 -1.7226  0.5721  1.7420
 2399SOL     OW18655   1.144   3.832   3.278 -0.5429 -0.9689 -0.5572
 2399SOL    HW118656   1.134   3.917   3.236 -0.4570  0.0952  1.5584
 2399SOL    HW218657   1.092   3.836   3.359  0.3449 -0.3346 -0.0275
 2400SOL     OW18658   4.145   3.971   7.654 -0.4080  0.0975 -0.5019
 2400SOL    HW118659   4.149   3.972   7.750  1.1328  0.8676 -0.5618
 2400SOL    HW218660   4.214   4.037   7.642 -1.3845  1.6327  2.1813
 2401SOL     OW18661   4.509   1.508   7.806  0.2518  0.4177 -0.3566
 2401SOL    HW118662   4.559   1.427   7.810  0.6294  0.5981 -1.4307
 2401SOL    HW218663   4.513   1.543   7.717 -0.1385  0.4753 -0.3547
 2402SOL     OW18664   3.417   2.189   3.871 -0.2765  0.0765 -0.0952
 2402SOL    HW118665   3.381   2.131   3.804  0.5382 -0.7395  0.1710
 2402SOL    HW218666   3.464   2.126   3.925 -0.0958 -2.4030 -3.1048
 2403SOL     OW18667   3.544   2.960   5.792  0.0339  0.4520 -0.1745
 2403SOL    HW118668   3.468   2.903   5.794 -0.4780  1.1162 -0.7393
 2403SOL    HW218669   3.489   3.038   5.782 -0.1383  0.4077  0.4542
 2404SOL     OW18670   4.661   1.058   9.344 -0.1712  0.1328  0.2582
 2404SOL    HW118671   4.645   1.127   9.408 -1.1642 -2.2584  2.5895
 2404SOL    HW218672   0.019   1.025   9.375 -0.8096  0.4119  2.2811
 2405SOL     OW18673   2.468   3.154   4.772  0.3036 -0.3494 -0.8172
 2405SOL    HW118674   2.450   3.210   4.697  0.5003 -1.2203 -1.5098
 2405SOL    HW218675   2.381   3.160   4.812  0.2807  1.9878 -1.2350
 2406SOL     OW18676   0.531   2.695   1.397  0.4195  0.7846  0.2911
 2406SOL    HW118677   0.551   2.656   1.312  0.5498  1.6714 -0.0882
 2406SOL    HW218678   0.441   2.665   1.412  0.6174  0.2538  0.4099
 2407SOL     OW18679   0.848   1.721  10.625 -0.4269  0.1723  0.4553
 2407SOL    HW118680   0.926   1.720  10.681  0.4950  0.4926 -0.8363
 2407SOL    HW218681   0.783   1.663  10.665 -0.2779 -0.6707 -0.5282
 2408SOL     OW18682   4.140   1.287   8.014  0.3473  0.2277 -0.0787
 2408SOL    HW118683   4.125   1.327   8.099 -2.2090 -0.7463 -0.0721
 2408SOL    HW218684   4.196   1.357   7.980 -0.1095  0.1295 -1.0266
 2409SOL     OW18685   1.536   1.118   6.530 -0.5270  0.1655 -0.7432
 2409SOL    HW118686   1.514   1.025   6.539  1.8061 -0.0991  2.2288
 2409SOL    HW218687   1.465   1.170   6.567 -1.1537 -1.5234  0.4516
 2410SOL     OW18688   0.136   0.922   4.203  0.1540 -0.3475  0.0972
 2410SOL    HW118689   0.137   1.012   4.236 -1.0118 -0.0804 -0.6153
 2410SOL    HW218690   0.084   0.874   4.266 -2.1228  0.2616 -1.3279
 2411SOL     OW18691   2.905   0.774  12.576  0.1636  0.5368 -0.4848
 2411SOL    HW118692   2.931   0.849  12.630 -1.3456 -0.7168  1.9935
 2411SOL    HW218693   2.813   0.750  12.589  0.1688 -0.6397 -2.6276
 2412SOL     OW18694   2.568   2.032   2.586 -0.1617 -0.3479  0.0418
 2412SOL    HW118695   2.511   1.961   2.617 -1.2247  2.1053  3.6973
 2412SOL    HW218696   2.638   1.972   2.561 -0.1442 -1.2030  2.1757
 2413SOL     OW18697   3.801   3.337  11.883 -0.4325  0.2750 -0.3225
 2413SOL    HW118698   3.744   3.266  11.913  1.2435 -1.0696 -0.2864
 2413SOL    HW218699   3.807   3.312  11.791  0.0030 -2.5780  0.4597
 2414SOL     OW18700   1.972   2.725  15.388  0.4253  0.5533  0.2917
 2414SOL    HW118701   1.904   2.793  15.392 -0.0119  0.2405 -1.5811
 2414SOL    HW218702   1.917   2.647  15.396 -1.3396  1.7978  0.2757
 2415SOL     OW18703   0.014   4.426   4.240 -0.4156 -0.0218 -0.0611
 2415SOL    HW118704   0.086   4.376   4.202 -2.4290 -1.3232 -2.1700
 2415SOL    HW218705   4.680   4.419   4.165  1.2124 -1.1622 -1.2482
 2416SOL     OW18706   1.540   1.607  10.921  0.2332  0.4151 -0.1741
 2416SOL    HW118707   1.589   1.526  10.932 -1.8804 -0.9260 -0.6786
 2416SOL    HW218708   1.554   1.636  11.011  1.6555  1.4997 -0.7360
 2417SOL     OW18709   4.131   4.438  13.201  0.2561  0.2606 -0.0549
 2417SOL    HW118710   4.168   4.436  13.113  1.4908  0.5072  0.4574
 2417SOL    HW218711   4.038   4.433  13.180  0.4609  1.4267 -1.2324
 2418SOL     OW18712   1.488   4.007   2.736 -0.7121 -0.0504 -0.7293
 2418SOL    HW118713   1.456   4.070   2.671 -0.7999  1.1624  0.5024
 2418SOL    HW218714   1.468   3.921   2.697  1.0036 -0.8850  0.2458
 2419SOL     OW18715   1.070   2.306  17.421  0.2194  0.2403  0.4649
 2419SOL    HW118716   1.113   2.294  17.506  1.8563  0.4955 -0.3457
 2419SOL    HW218717   0.991   2.355  17.445 -0.7767 -0.3203 -1.6293
 2420SOL     OW18718   3.712   3.719   4.768 -0.0467 -0.0762 -0.2607
 2420SOL    HW118719   3.780   3.764   4.819 -0.9898  0.9042  0.1306
 2420SOL    HW218720   3.683   3.663   4.840 -0.5684 -0.3756 -0.7058
 2421SOL     OW18721   4.425   3.634   7.918  0.2920 -0.3230  0.7573
 2421SOL    HW118722   4.519   3.632   7.897 -0.4947  0.2138 -2.8305
 2421SOL    HW218723   4.424   3.563   7.982  2.1966 -1.5594 -0.5802
 2422SOL     OW18724   0.315   2.380   4.019  0.0094 -0.4147 -0.1003
 2422SOL    HW118725   0.328   2.310   4.084 -3.6684 -2.7145 -1.8300
 2422SOL    HW218726   0.220   2.380   4.013 -0.0361 -3.6535  0.3911
 2423SOL     OW18727   1.586   2.378  16.389  0.4843  0.2332 -0.1169
 2423SOL    HW118728   1.521   2.423  16.335 -0.3309 -1.7564 -0.8106
 2423SOL    HW218729   1.533   2.353  16.464  1.0531  2.0173  0.8769
 2424SOL     OW18730   4.617   2.492   5.644 -0.1369 -0.0644 -0.0320
 2424SOL    HW118731   4.684   2.441   5.689 -0.2396 -1.2885 -1.2387
 2424SOL    HW218732   4.677   2.527   5.577 -0.4596 -2.0068 -1.3455
 2425SOL     OW18733   0.153   4.484   6.309  0.0904 -0.5570 -0.4421
 2425SOL    HW118734   0.187   4.412   6.361  1.6891  0.3681 -0.2135
 2425SOL    HW218735   0.222   4.549   6.324 -0.3911 -0.0509 -0.4374
 2426SOL     OW18736   3.612   4.076  16.163  0.3409  0.0802  0.5654
 2426SOL    HW118737   3.647   4.051  16.078  2.0660 -0.3219  1.3836
 2426SOL    HW218738   3.597   4.170  16.154 -1.9355 -0.2755  0.5675
 2427SOL     OW18739   2.675   1.380  15.316 -0.5445 -0.0072  0.0468
 2427SOL    HW118740   2.748   1.319  15.315 -0.1578  0.4590  0.0495
 2427SOL    HW218741   2.682   1.411  15.226 -0.7687 -2.5815 -0.8581
 2428SOL     OW18742   4.208   2.912   2.836 -0.0948 -0.4550  0.3449
 2428SOL    HW118743   4.285   2.938   2.785  1.1432 -0.7584  2.0396
 2428SOL    HW218744   4.140   2.939   2.775  0.4704  1.2524  0.4590
 2429SOL     OW18745   0.666   3.098  11.660  0.0992  0.1213  0.2806
 2429SOL    HW118746   0.748   3.138  11.688 -1.3951  1.2485  3.0739
 2429SOL    HW218747   0.660   3.026  11.723 -0.7268 -0.8026 -0.8408
 2430SOL     OW18748   2.101   3.666   8.696  0.4263 -0.4400  0.0354
 2430SOL    HW118749   2.023   3.671   8.752  0.3691  2.2068 -0.2629
 2430SOL    HW218750   2.159   3.622   8.758  2.0235 -0.1007 -1.2446
 2431SOL     OW18751   3.468   4.211  14.359 -0.4236  0.0510 -0.7206
 2431SOL    HW118752   3.539   4.169  14.310 -0.8218 -1.3009 -0.1272
 2431SOL    HW218753   3.426   4.254  14.285 -2.6483  0.2595  0.6907
 2432SOL     OW18754   2.550   1.651   4.656  0.5886  0.0282 -0.3078
 2432SOL    HW118755   2.455   1.653   4.664  0.3220 -4.2870 -2.1026
 2432SOL    HW218756   2.555   1.559   4.681 -0.9962  0.3571  1.2172
 2433SOL     OW18757   1.259   2.956   1.986 -0.6383 -0.7150  0.5815
 2433SOL    HW118758   1.317   3.012   2.037  2.3640 -2.5262 -0.7702
 2433SOL    HW218759   1.329   2.894   1.964  0.3009  0.8116 -0.6858
 2434SOL     OW18760   2.362   2.308   9.146 -0.5439 -0.0116  0.5438
 2434SOL    HW118761   2.398   2.330   9.232 -0.4996 -1.1775  0.8308
 2434SOL    HW218762   2.355   2.393   9.102 -0.5134 -0.2349  0.1009
 2435SOL     OW18763   1.703   4.069  16.760 -0.0818 -0.1825 -0.3472
 2435SOL    HW118764   1.721   3.981  16.793  1.8380  0.0110 -0.9121
 2435SOL    HW218765   1.773   4.096  16.701  0.0147 -1.9137 -1.0265
 2436SOL     OW18766   3.201   4.560   5.289 -0.0552 -0.2054  0.1928
 2436SOL    HW118767   3.129   4.609   5.328  0.7033  2.0851 -1.2854
 2436SOL    HW218768   3.143   4.509   5.233  1.9454  0.1823 -2.2770
 2437SOL     OW18769   3.487   3.659  16.327 -0.5509  0.0240  0.1258
 2437SOL    HW118770   3.491   3.749  16.295 -0.9550  0.6938  2.0033
 2437SOL    HW218771   3.567   3.618  16.294 -0.5480  0.2479 -0.1504
 2438SOL     OW18772   2.865   3.694   8.314  0.5351 -0.3205 -0.4890
 2438SOL    HW118773   2.809   3.633   8.363  2.8365 -0.4281  2.0104
 2438SOL    HW218774   2.891   3.641   8.240  1.7188 -0.7298  0.2246
 2439SOL     OW18775   3.167   4.539   9.231 -0.5926 -0.0270 -0.3977
 2439SOL    HW118776   3.231   4.469   9.244 -0.2338  0.5703  1.0646
 2439SOL    HW218777   3.189   4.590   9.309 -0.4118  1.1383 -1.2129
 2440SOL     OW18778   2.599   1.325  14.771  0.3637  0.0652 -0.3760
 2440SOL    HW118779   2.575   1.329  14.678  2.9821 -0.0778 -1.0622
 2440SOL    HW218780   2.679   1.375  14.756  0.5556 -0.2497 -0.4100
 2441SOL     OW18781   3.454   1.259   3.228 -0.1622  0.0673 -0.8131
 2441SOL    HW118782   3.465   1.348   3.195 -2.6176  0.5350 -0.3486
 2441SOL    HW218783   3.378   1.221   3.182 -1.1314  2.5956 -1.2761
 2442SOL     OW18784   1.731   2.722   9.223 -0.4028 -0.5777 -0.3934
 2442SOL    HW118785   1.681   2.670   9.285  0.0212 -0.3282  0.1575
 2442SOL    HW218786   1.796   2.664   9.182  0.9585  0.3930  0.3999
 2443SOL     OW18787   3.899   1.315   7.028 -0.2646  0.3228  0.2997
 2443SOL    HW118788   3.940   1.285   7.109  1.6090  3.4339  0.4837
 2443SOL    HW218789   3.807   1.325   7.054 -0.4962  2.1420 -1.2300
 2444SOL     OW18790   3.755   4.356   7.428  0.4502  0.2025 -0.0950
 2444SOL    HW118791   3.779   4.274   7.471  2.2266  0.6815 -0.1558
 2444SOL    HW218792   3.780   4.428   7.487 -2.5928  1.3025 -0.1245
 2445SOL     OW18793   1.463   3.108   2.286 -0.4329 -0.4683  0.2092
 2445SOL    HW118794   1.373   3.140   2.299  0.1658  0.9010  0.9206
 2445SOL    HW218795   1.502   3.121   2.373 -1.4786 -1.0655  0.7715
 2446SOL     OW18796   4.105   0.977   2.219  0.9981  0.5699 -0.1217
 2446SOL    HW118797   4.087   0.902   2.164 -1.1707  1.5871 -0.8016
 2446SOL    HW218798   4.045   1.047   2.191 -1.7553 -1.6887  0.1091
 2447SOL     OW18799   1.014   4.143   2.796 -0.0053  0.1033  0.4277
 2447SOL    HW118800   1.108   4.157   2.803  0.0824  0.3361 -1.4424
 2447SOL    HW218801   1.015   4.069   2.736 -0.2479  1.3425 -1.0797
 2448SOL     OW18802   2.859   4.240   2.943  0.0686  0.2066 -0.0828
 2448SOL    HW118803   2.818   4.244   3.029  0.0399  1.4211 -0.1564
 2448SOL    HW218804   2.884   4.148   2.927  2.5731  1.2733 -2.3799
 2449SOL     OW18805   4.389   1.963   1.417  0.3741  0.0284  0.3404
 2449SOL    HW118806   4.334   1.890   1.390 -1.4762  1.0407  1.3643
 2449SOL    HW218807   4.321   2.006   1.469 -0.1404 -0.0053 -0.3036
 2450SOL     OW18808   4.536   1.272  15.663  0.1413  0.4829  0.0855
 2450SOL    HW118809   4.570   1.184  15.650 -0.0059  0.2063  1.5806
 2450SOL    HW218810   4.620   1.317  15.659  0.5823 -0.0248  3.9384
 2451SOL     OW18811   1.938   0.315   3.293  0.1493  0.4555  0.2506
 2451SOL    HW118812   1.859   0.264   3.312  0.5161  0.1801  1.0352
 2451SOL    HW218813   1.990   0.279   3.365 -1.6187 -0.5148  1.0488
 2452SOL     OW18814   0.995   1.812   8.296  0.0969  0.1238  0.2803
 2452SOL    HW118815   0.985   1.886   8.355 -1.9075  1.0638 -1.2513
 2452SOL    HW218816   0.908   1.822   8.257 -0.2051  2.6473  1.6150
 2453SOL     OW18817   1.964   1.138   5.070 -0.7546  0.9436 -0.0533
 2453SOL    HW118818   1.877   1.104   5.093 -1.0843  1.5102 -0.4595
 2453SOL    HW218819   1.938   1.193   4.995  0.3528  0.6761 -0.6233
 2454SOL     OW18820   2.799   1.226  15.781 -0.3795  0.5782  0.7174
 2454SOL    HW118821   2.848   1.153  15.819  0.2674 -0.1686 -1.5469
 2454SOL    HW218822   2.851   1.249  15.704 -0.5297 -0.5938  0.2738
 2455SOL     OW18823   0.685   0.116   6.585 -0.1574  0.5874 -0.5842
 2455SOL    HW118824   0.638   0.034   6.565  0.6323  0.3885 -1.6508
 2455SOL    HW218825   0.612   0.173   6.610 -0.1887 -0.0095  0.6885
 2456SOL     OW18826   2.100   3.139  10.843 -0.6104  0.2028 -0.2590
 2456SOL    HW118827   2.069   3.054  10.877  1.2477 -0.7732 -1.0224
 2456SOL    HW218828   2.089   3.127  10.749  0.1480  2.9545 -0.6900
 2457SOL     OW18829   4.070   0.711   2.124  0.1317 -0.1156  0.0920
 2457SOL    HW118830   4.047   0.741   2.036  0.1814  1.3527  0.5785
 2457SOL    HW218831   4.127   0.637   2.108 -0.0863 -0.1012 -0.7345
 2458SOL     OW18832   0.206   4.285   9.780 -0.5518 -0.3452 -0.6524
 2458SOL    HW118833   0.225   4.378   9.764 -2.5464  0.3751  1.1520
 2458SOL    HW218834   0.177   4.263   9.691 -0.5429  2.5808 -1.3995
 2459SOL     OW18835   0.732   1.312   4.036  0.2692  0.2566 -0.0878
 2459SOL    HW118836   0.794   1.313   4.109 -0.1363 -0.7649  0.2532
 2459SOL    HW218837   0.791   1.346   3.968 -1.3435  0.9436 -1.1399
 2460SOL     OW18838   1.342   0.410   8.235  0.0194  0.3269 -0.2123
 2460SOL    HW118839   1.287   0.410   8.157  1.3226 -2.4948 -1.1232
 2460SOL    HW218840   1.288   0.443   8.307 -0.0300  0.7124 -0.4268
 2461SOL     OW18841   3.560   1.002  14.544 -0.2280  0.1539 -0.3490
 2461SOL    HW118842   3.575   0.976  14.635 -3.0843 -1.0886 -0.2403
 2461SOL    HW218843   3.551   0.918  14.499 -1.7579 -0.4746  1.0993
 2462SOL     OW18844   4.553   2.674   2.825  0.5957 -0.3964 -0.0315
 2462SOL    HW118845   4.506   2.693   2.744  0.4401  1.7539  0.5465
 2462SOL    HW218846   4.568   2.580   2.829 -0.6791 -0.6118 -0.5616
 2463SOL     OW18847   1.201   4.054  13.566  0.4716 -0.0539  0.0635
 2463SOL    HW118848   1.141   4.071  13.640 -1.5941 -4.3686 -0.6186
 2463SOL    HW218849   1.141   4.026  13.497  0.3273  2.2268 -0.7098
 2464SOL     OW18850   3.946   3.441  14.156  0.2152  0.1726  0.1866
 2464SOL    HW118851   4.032   3.453  14.195  0.1223 -3.1231  1.4424
 2464SOL    HW218852   3.896   3.509  14.201  0.8177  0.8859 -0.2241
 2465SOL     OW18853   3.365   3.536   0.266 -0.2046 -0.1197 -0.1518
 2465SOL    HW118854   3.428   3.608   0.268 -0.6116  0.2019  2.0477
 2465SOL    HW218855   3.411   3.483   0.201  0.5513 -1.2407  1.2829
 2466SOL     OW18856   1.160   3.229  12.475 -0.0954  0.1467  0.0367
 2466SOL    HW118857   1.130   3.287  12.545 -1.3625  2.4597 -2.4384
 2466SOL    HW218858   1.251   3.217  12.502 -0.5525 -1.2828  0.9811
 2467SOL     OW18859   2.037   1.766   6.755 -0.4227 -0.3924  0.1178
 2467SOL    HW118860   1.963   1.822   6.730  1.0178  0.8517 -1.3366
 2467SOL    HW218861   2.061   1.782   6.846 -0.4579 -0.0163  0.0627
 2468SOL     OW18862   4.724   0.981   8.001 -0.2972  0.4901 -0.5141
 2468SOL    HW118863   0.086   1.021   8.006 -1.5927  2.9955  2.3013
 2468SOL    HW218864   4.662   1.052   8.019 -2.0244 -0.9028 -1.0153
 2469SOL     OW18865   1.147   3.878   2.840  0.1122  0.1231 -0.9409
 2469SOL    HW118866   1.137   3.793   2.797  0.7509  0.1661 -1.1787
 2469SOL    HW218867   1.106   3.853   2.923  3.7066 -0.9985  0.5492
 2470SOL     OW18868   0.379   0.531   2.157 -0.0107 -0.4981 -0.2123
 2470SOL    HW118869   0.361   0.444   2.192  1.6924 -0.9703 -0.5318
 2470SOL    HW218870   0.423   0.508   2.075  0.4204 -0.8870  0.1292
 2471SOL     OW18871   0.567   1.223  13.169 -0.3598 -0.1523 -0.0322
 2471SOL    HW118872   0.511   1.248  13.243  2.1946 -1.2279  2.2681
 2471SOL    HW218873   0.541   1.288  13.104 -0.3092  2.1548  2.2939
 2472SOL     OW18874   0.595   0.886   8.454  0.1662  0.2036 -0.0923
 2472SOL    HW118875   0.584   0.937   8.534 -3.3484 -0.2088 -0.3139
 2472SOL    HW218876   0.519   0.916   8.404 -0.3118 -1.4615 -0.3679
 2473SOL     OW18877   2.265   2.792  13.874  0.6084  0.1283 -0.1637
 2473SOL    HW118878   2.311   2.709  13.864 -0.6386 -0.7489  1.5263
 2473SOL    HW218879   2.266   2.804  13.969  1.1468 -1.0462 -0.0166
 2474SOL     OW18880   0.690   1.744   5.697  0.1325 -0.3976  0.0987
 2474SOL    HW118881   0.643   1.815   5.652 -1.7129 -2.0580 -0.6056
 2474SOL    HW218882   0.694   1.782   5.785  0.7339  2.6250 -1.2257
 2475SOL     OW18883   0.240   2.412   6.894  0.1903  0.1112  0.0010
 2475SOL    HW118884   0.292   2.350   6.945  0.3581  0.2567  0.0067
 2475SOL    HW218885   0.161   2.421   6.948 -1.1872 -0.6125 -1.9044
 2476SOL     OW18886   0.780   4.103  13.416 -0.6318  0.4550 -0.6226
 2476SOL    HW118887   0.771   4.020  13.369 -1.1077  0.2884 -0.2315
 2476SOL    HW218888   0.856   4.088  13.472 -1.3804  4.1215  1.3620
 2477SOL     OW18889   3.872   3.957   7.973  0.6552  0.2790 -0.1782
 2477SOL    HW118890   3.796   3.935   7.919 -0.9503  2.3524  1.2412
 2477SOL    HW218891   3.888   3.871   8.012 -1.7535 -0.7881 -1.5235
 2478SOL     OW18892   3.516   3.156  10.762 -0.1232 -0.4562 -0.3375
 2478SOL    HW118893   3.516   3.143  10.856 -1.4031 -0.9477 -0.4090
 2478SOL    HW218894   3.578   3.087  10.737 -2.9643 -2.0399 -3.0182
 2479SOL     OW18895   4.461   0.077   5.151  1.5527  0.6177  0.4530
 2479SOL    HW118896   4.529   0.070   5.084 -0.9382  0.4587 -2.0584
 2479SOL    HW218897   4.401   0.003   5.139  0.1709  2.0085 -1.3115
 2480SOL     OW18898   3.915   1.678   6.334 -0.1835 -0.6296 -0.0031
 2480SOL    HW118899   3.840   1.716   6.288 -1.6206 -1.5292  1.6014
 2480SOL    HW218900   3.882   1.639   6.415 -0.5600 -0.7147 -0.2028
 2481SOL     OW18901   0.687   2.982   8.057  0.2136  0.2986  0.0318
 2481SOL    HW118902   0.748   2.942   8.118  1.0332 -0.0641 -1.0269
 2481SOL    HW218903   0.650   3.055   8.107 -1.4487 -0.7142  0.2721
 2482SOL     OW18904   0.341   3.816   6.608 -0.4521  0.3459  0.4269
 2482SOL    HW118905   0.375   3.868   6.535 -0.1101  1.4297  1.3533
 2482SOL    HW218906   0.309   3.748   6.550  1.5216 -1.4057  1.4154
 2483SOL     OW18907   3.642   0.895   9.349 -0.0169 -0.2491  0.5653
 2483SOL    HW118908   3.719   0.945   9.324 -0.4130 -0.0465 -0.2402
 2483SOL    HW218909   3.643   0.824   9.285 -3.5198  1.5519 -1.5005
 2484SOL     OW18910   0.933   2.798  11.205 -0.1723 -0.3569  0.3430
 2484SOL    HW118911   0.944   2.839  11.119 -1.3937 -0.5042  0.1174
 2484SOL    HW218912   0.950   2.705  11.195 -0.1918 -0.4013  0.6975
 2485SOL     OW18913   1.967   3.337   3.945  0.4192  0.1979 -0.2793
 2485SOL    HW118914   2.030   3.295   3.887 -0.8837 -3.3647  0.8590
 2485SOL    HW218915   1.973   3.428   3.919  1.1879  0.2588  0.1171
 2486SOL     OW18916   2.751   1.162   5.642 -0.2944 -0.7395  0.5596
 2486SOL    HW118917   2.709   1.248   5.648  1.3629  0.0224  1.0388
 2486SOL    HW218918   2.818   1.187   5.580 -1.3275 -1.2579 -0.7671
 2487SOL     OW18919   0.507   3.877   3.137  0.0824  0.2669  0.2978
 2487SOL    HW118920   0.429   3.828   3.163 -0.5619  0.7034 -0.8493
 2487SOL    HW218921   0.538   3.917   3.218  1.7182  0.5482 -0.4696
 2488SOL     OW18922   4.722   3.689   6.388 -0.5125 -0.1441  0.0918
 2488SOL    HW118923   4.722   3.639   6.306 -0.3458 -0.3857  0.2406
 2488SOL    HW218924   4.639   3.663   6.428 -0.4772 -1.3955 -0.6197
 2489SOL     OW18925   0.013   3.666   3.292  0.3407 -0.5597 -0.8217
 2489SOL    HW118926   4.684   3.733   3.252  0.2790  0.3483  0.7828
 2489SOL    HW218927   4.664   3.610   3.316 -1.3740  0.0710 -4.7743
 2490SOL     OW18928   0.811   0.673   9.062  0.6823 -0.1326  0.0938
 2490SOL    HW118929   0.842   0.737   9.127 -0.3402 -0.3579  0.8024
 2490SOL    HW218930   0.796   0.602   9.124  0.7252  0.1080  0.3852
 2491SOL     OW18931   3.793   2.040   5.488 -0.1956  0.0021 -0.2580
 2491SOL    HW118932   3.785   2.121   5.539 -1.4213 -1.5327  1.9738
 2491SOL    HW218933   3.714   1.996   5.519  0.0436  0.6594  1.3248
 2492SOL     OW18934   0.275   4.377   5.792  0.6360 -0.0077 -0.0380
 2492SOL    HW118935   0.335   4.394   5.865  0.9541 -0.3759 -0.2137
 2492SOL    HW218936   0.201   4.345   5.843  0.5437 -1.0973 -0.8674
 2493SOL     OW18937   2.843   1.176   6.305  0.1178 -0.5338 -0.1279
 2493SOL    HW118938   2.834   1.221   6.221  0.3450 -1.4658 -0.6490
 2493SOL    HW218939   2.936   1.190   6.325  0.0314 -1.6299  1.0526
 2494SOL     OW18940   1.704   4.409  15.475  0.6834  0.3605 -0.7982
 2494SOL    HW118941   1.696   4.501  15.501 -2.0930 -0.1884  0.2350
 2494SOL    HW218942   1.612   4.390  15.456  1.0398  0.2220 -2.4334
 2495SOL     OW18943   2.731   1.225   0.195  0.4241 -0.4359  0.6265
 2495SOL    HW118944   2.643   1.187   0.188  0.1922  0.2927 -0.4979
 2495SOL    HW218945   2.725   1.301   0.254 -0.9194 -0.3498  0.3788
 2496SOL     OW18946   3.448   1.349   4.611 -0.5540  0.4710  0.5734
 2496SOL    HW118947   3.418   1.258   4.603  1.4301  0.0635 -2.5731
 2496SOL    HW218948   3.404   1.370   4.693 -0.0621 -0.4861  1.0914
 2497SOL     OW18949   0.164   1.779   6.108  0.5671  0.5256 -0.3760
 2497SOL    HW118950   0.169   1.772   6.013 -0.7318 -0.1617 -0.3935
 2497SOL    HW218951   0.254   1.761   6.136  0.7220 -0.8647 -1.7749
 2498SOL     OW18952   4.015   2.116   6.348 -0.5187 -0.1663 -0.0011
 2498SOL    HW118953   3.993   2.116   6.255  0.9049  1.4863 -0.3394
 2498SOL    HW218954   4.090   2.057   6.354  1.3563  2.3181  1.1663
 2499SOL     OW18955   1.270   3.745  10.116 -0.2372 -0.9709 -0.6797
 2499SOL    HW118956   1.353   3.697  10.119  1.0763  1.3214 -0.6752
 2499SOL    HW218957   1.292   3.829  10.157  1.2343 -2.4561  1.5568
 2500SOL     OW18958   3.064   3.246   6.764 -0.0750  0.1493  0.1003
 2500SOL    HW118959   3.089   3.329   6.725 -0.4844  0.7078  1.0249
 2500SOL    HW218960   2.970   3.256   6.779 -0.4765 -1.6443 -1.2278
 2501SOL     OW18961   3.062   2.532  14.737 -0.3043  0.2280  0.0279
 2501SOL    HW118962   2.986   2.476  14.747  0.7234 -1.1804 -0.0385
 2501SOL    HW218963   3.111   2.485  14.669 -0.3803  0.4717 -0.1986
 2502SOL     OW18964   3.954   1.058  16.458 -0.0222 -0.2257  0.4327
 2502SOL    HW118965   3.918   1.146  16.464  0.1885 -0.1154  0.1088
 2502SOL    HW218966   4.045   1.079  16.480 -0.3260  2.0135 -0.4121
 2503SOL     OW18967   2.722   1.756   5.736 -0.1065 -0.3461 -0.3642
 2503SOL    HW118968   2.754   1.824   5.678  3.0112 -1.5151  0.0006
 2503SOL    HW218969   2.627   1.762   5.724  0.0536  0.8779 -1.0114
 2504SOL     OW18970   2.993   0.532   6.410  0.1705 -0.6862  0.3269
 2504SOL    HW118971   3.036   0.449   6.431  1.9327  0.1782  0.1325
 2504SOL    HW218972   2.921   0.533   6.473 -1.0235  1.0683 -1.0655
 2505SOL     OW18973   0.836   3.365   5.961 -0.3488 -0.2408 -0.3612
 2505SOL    HW118974   0.854   3.316   6.041 -0.8264 -0.7083 -0.5380
 2505SOL    HW218975   0.784   3.304   5.909 -2.3234 -0.5798  2.0212
 2506SOL     OW18976   0.205   0.620  13.349 -0.0598 -0.3093  0.7831
 2506SOL    HW118977   0.272   0.570  13.303  0.6878 -0.4130  1.9855
 2506SOL    HW218978   0.249   0.690  13.396 -1.3829  0.7337  0.4814
 2507SOL     OW18979   4.092   2.597  12.870 -0.2946  0.4397  0.6620
 2507SOL    HW118980   4.044   2.596  12.787 -1.5878 -0.8060  1.4064
 2507SOL    HW218981   4.053   2.530  12.927  0.3135 -0.4187  0.0736
 2508SOL     OW18982   2.455   3.217   7.499 -0.0802 -0.7972 -0.2230
 2508SOL    HW118983   2.372   3.226   7.545  0.6191 -1.3869  1.1548
 2508SOL    HW218984   2.462   3.121   7.499 -1.7488 -0.9140  0.8935
 2509SOL     OW18985   0.727   1.945   9.009  0.2756 -0.5442 -0.3231
 2509SOL    HW118986   0.654   1.894   8.974  0.4879 -1.0425 -0.0481
 2509SOL    HW218987   0.795   1.878   8.997 -0.6821 -1.0818 -2.8380
 2510SOL     OW18988   3.835   3.872  17.066  0.6213  0.0839  0.6880
 2510SOL    HW118989   3.906   3.809  17.072 -0.0543 -0.6481  0.9443
 2510SOL    HW218990   3.764   3.833  17.117 -0.4867 -0.9469 -1.6496
 2511SOL     OW18991   3.331   0.508   8.770 -0.3484  0.6231 -0.1706
 2511SOL    HW118992   3.411   0.552   8.741 -0.0683 -0.3401 -0.8738
 2511SOL    HW218993   3.317   0.544   8.857 -1.4474  0.8692 -0.4480
 2512SOL     OW18994   4.231   1.884   2.877  0.4147  0.3302 -0.2329
 2512SOL    HW118995   4.147   1.910   2.839  0.4953 -1.4426 -1.5597
 2512SOL    HW218996   4.242   1.799   2.835  2.8738  0.8903 -0.7230
 2513SOL     OW18997   1.797   4.401   0.797 -0.1874 -0.5996  0.0745
 2513SOL    HW118998   1.803   4.458   0.874  0.6321  1.4291 -1.4848
 2513SOL    HW218999   1.824   4.315   0.828  1.7609  0.2286  0.6658
 2514SOL     OW19000   2.792   3.753   6.177  0.0663 -0.2466  0.6426
 2514SOL    HW119001   2.762   3.668   6.145  0.4334  0.6162 -2.0290
 2514SOL    HW219002   2.816   3.731   6.267 -2.9744 -0.3634  1.4264
 2515SOL     OW19003   2.343   1.651   4.980 -0.6032 -0.7901 -0.4876
 2515SOL    HW119004   2.275   1.673   4.917  0.3568 -0.3841 -1.3764
 2515SOL    HW219005   2.282   1.648   5.054  1.2071 -0.7661  1.0114
 2516SOL     OW19006   0.464   3.328   3.106 -0.1338  0.8306  0.1749
 2516SOL    HW119007   0.423   3.271   3.041 -0.6532  1.2508  0.1231
 2516SOL    HW219008   0.385   3.361   3.150 -0.1528 -1.3016  1.6999
 2517SOL     OW19009   0.270   2.613   8.662 -0.3988 -0.1463  0.0743
 2517SOL    HW119010   0.285   2.602   8.756 -2.0973  0.3152  0.3923
 2517SOL    HW219011   0.226   2.698   8.660 -0.1318  0.0117  1.0779
 2518SOL     OW19012   2.980   4.516   0.451 -0.2580 -0.7642  0.0265
 2518SOL    HW119013   3.004   4.451   0.385 -1.5177  0.0655 -1.2471
 2518SOL    HW219014   3.052   4.493   0.509 -0.6225 -2.2090 -0.1072
 2519SOL     OW19015   2.777   1.853   2.956 -0.2832 -0.2275 -0.2029
 2519SOL    HW119016   2.759   1.921   2.891  1.1575  0.9418  0.6014
 2519SOL    HW219017   2.873   1.849   2.951 -0.4393 -1.8609 -1.8124
 2520SOL     OW19018   3.713   3.658   3.383 -0.3276 -0.4938 -0.0012
 2520SOL    HW119019   3.633   3.710   3.390 -0.9512 -2.0348  4.0192
 2520SOL    HW219020   3.739   3.656   3.475  1.0056  1.5659 -0.3275
 2521SOL     OW19021   1.826   3.694   0.230 -0.1962 -0.0171  0.0453
 2521SOL    HW119022   1.748   3.746   0.214 -0.2859 -0.5487 -1.2677
 2521SOL    HW219023   1.816   3.686   0.325 -0.1551  3.3508  0.3277
 2522SOL     OW19024   3.646   3.327   4.401 -0.1170  0.3770 -0.6066
 2522SOL    HW119025   3.578   3.297   4.341 -1.9039  0.7143  1.2573
 2522SOL    HW219026   3.681   3.243   4.430 -0.8340  0.2445 -0.1307
 2523SOL     OW19027   0.119   2.188   5.999 -0.2059  0.1193  0.1670
 2523SOL    HW119028   0.150   2.221   6.083  1.5174 -0.4467 -0.2468
 2523SOL    HW219029   0.025   2.201   6.010 -0.3731 -0.2440 -0.7775
 2524SOL     OW19030   2.038   2.650   9.528 -0.1530 -0.4089  0.0382
 2524SOL    HW119031   2.027   2.722   9.466 -0.0682 -0.8178 -0.4538
 2524SOL    HW219032   1.954   2.658   9.573 -0.6924  1.5475 -1.3348
 2525SOL     OW19033   3.107   0.780   8.199 -0.3331  0.2909 -0.0738
 2525SOL    HW119034   3.164   0.790   8.123  2.6610 -3.2525  1.7311
 2525SOL    HW219035   3.033   0.834   8.172 -0.1087  0.3407 -0.5833
 2526SOL     OW19036   3.596   0.170   0.314 -0.2447 -0.3878  0.4067
 2526SOL    HW119037   3.568   0.184   0.404  1.2767 -0.4176  0.8865
 2526SOL    HW219038   3.516   0.124   0.287 -0.2571  0.5352 -1.1593
 2527SOL     OW19039   0.698   2.123   4.146  0.1313 -0.1340 -0.1581
 2527SOL    HW119040   0.699   2.089   4.236  0.8451 -1.3733 -0.6279
 2527SOL    HW219041   0.724   2.213   4.165  0.9635 -0.4468  0.1856
 2528SOL     OW19042   0.788   2.600   6.774  0.2366  0.2292 -0.6782
 2528SOL    HW119043   0.780   2.552   6.856 -1.2261  0.4298 -0.7012
 2528SOL    HW219044   0.732   2.676   6.786 -0.9283 -0.2744 -2.8758
 2529SOL     OW19045   1.430   3.486   7.564  0.4896 -0.3956  0.0588
 2529SOL    HW119046   1.487   3.409   7.559  0.9201 -0.0093 -1.0689
 2529SOL    HW219047   1.441   3.497   7.658 -1.3187  0.3979  0.1644
 2530SOL     OW19048   4.136   1.994  17.614  0.8559 -0.2912 -0.2929
 2530SOL    HW119049   4.124   1.984   0.005 -0.2295  0.4526 -0.3518
 2530SOL    HW219050   4.099   2.082  17.604 -0.0846 -0.5666  0.7336
 2531SOL     OW19051   4.161   0.781   9.817  0.0511  0.1149 -0.6032
 2531SOL    HW119052   4.121   0.835   9.749  0.1049  1.2211  0.2485
 2531SOL    HW219053   4.213   0.718   9.767  2.5712  0.4370  1.6201
 2532SOL     OW19054   1.138   2.113   8.944 -0.1645 -0.2098  0.3486
 2532SOL    HW119055   1.161   2.034   8.895 -1.3886 -0.5580  0.3324
 2532SOL    HW219056   1.062   2.141   8.894 -1.0149 -2.2299  0.5226
 2533SOL     OW19057   0.306   3.738   8.829 -0.2212 -0.4023  0.2509
 2533SOL    HW119058   0.240   3.717   8.896 -1.8083  1.5358 -0.6940
 2533SOL    HW219059   0.239   3.772   8.770 -0.2009 -1.0619 -0.1505
 2534SOL     OW19060   3.404   3.802  14.112 -0.6315 -0.6713 -0.3345
 2534SOL    HW119061   3.325   3.844  14.146  2.3630  2.4457  2.7750
 2534SOL    HW219062   3.366   3.748  14.043 -0.9115 -0.8577 -0.0357
 2535SOL     OW19063   2.549   4.175   4.772  0.7706  0.1332  0.4486
 2535SOL    HW119064   2.601   4.096   4.761  0.0696 -0.4578  1.3484
 2535SOL    HW219065   2.488   4.180   4.698  0.7414  0.1084  0.4711
 2536SOL     OW19066   4.624   0.897   3.265  0.7512  0.0307  0.1288
 2536SOL    HW119067   4.706   0.900   3.215  2.1273  2.4784  2.5438
 2536SOL    HW219068   4.577   0.828   3.218  1.5801  1.1474 -2.3346
 2537SOL     OW19069   0.025   4.025   4.592  0.3358 -0.3272  0.6857
 2537SOL    HW119070   0.004   4.082   4.666  0.2767  1.2222 -0.5267
 2537SOL    HW219071   4.708   3.943   4.617 -2.4769  1.6845  2.6336
 2538SOL     OW19072   3.446   1.584  11.151  0.0031  0.8308 -0.7046
 2538SOL    HW119073   3.542   1.587  11.148  0.1381 -0.1669  2.2393
 2538SOL    HW219074   3.433   1.498  11.111  1.7818  1.0758 -1.8142
 2539SOL     OW19075   4.306   2.425  10.294 -0.3480 -0.0860  0.0697
 2539SOL    HW119076   4.233   2.388  10.344  0.6841  0.2912  1.8253
 2539SOL    HW219077   4.326   2.352  10.235  3.4117  0.3530  0.8664
 2540SOL     OW19078   2.925   0.528  10.657 -0.4259  0.2071  0.6337
 2540SOL    HW119079   2.876   0.448  10.637  1.1442 -0.3945 -0.7665
 2540SOL    HW219080   3.003   0.526  10.601 -0.9953 -1.0965 -0.1042
 2541SOL     OW19081   1.313   3.784  16.399 -0.0586 -0.2555 -0.2074
 2541SOL    HW119082   1.329   3.877  16.414 -1.9308 -0.0076  0.3561
 2541SOL    HW219083   1.363   3.764  16.320  0.1160 -2.3263  0.4327
 2542SOL     OW19084   0.182   3.076   7.700  0.6293  0.7004  0.1994
 2542SOL    HW119085   0.237   3.025   7.641 -1.5868 -1.0205 -0.4221
 2542SOL    HW219086   0.181   3.163   7.659  1.5807  0.4244 -0.3988
 2543SOL     OW19087   1.063   3.374  17.372 -0.8736 -0.1972 -0.7773
 2543SOL    HW119088   0.982   3.335  17.340 -1.5051  1.2173 -0.9209
 2543SOL    HW219089   1.050   3.401  17.463  1.9507  0.0386 -0.4659
 2544SOL     OW19090   4.298   2.764  16.546 -0.2284  0.4458 -0.3747
 2544SOL    HW119091   4.304   2.711  16.625 -0.7757 -1.6564 -1.7504
 2544SOL    HW219092   4.390   2.786  16.533 -0.2417 -0.3710 -1.8671
 2545SOL     OW19093   0.951   2.353  15.071  0.1571  0.3917  0.4939
 2545SOL    HW119094   0.956   2.349  14.976 -0.0558  0.1761  0.4905
 2545SOL    HW219095   1.033   2.310  15.094  1.0616  1.4242 -0.7914
 2546SOL     OW19096   2.754   4.606   7.447 -0.1129  0.1664 -0.6621
 2546SOL    HW119097   2.718   4.575   7.364 -1.1785 -0.5702  0.0826
 2546SOL    HW219098   2.834   4.640   7.406  0.2948 -1.0728 -0.8766
 2547SOL     OW19099   2.474   3.821   0.567  0.1709  0.1209  0.1999
 2547SOL    HW119100   2.419   3.809   0.490 -0.5344  0.3632  0.6717
 2547SOL    HW219101   2.440   3.757   0.630 -1.0544 -1.4239 -2.0159
 2548SOL     OW19102   0.281   1.788   5.740 -0.9856 -0.0018  0.2277
 2548SOL    HW119103   0.201   1.752   5.704  0.2962 -0.4849 -2.1436
 2548SOL    HW219104   0.336   1.710   5.732  1.2672  1.5817  0.3241
 2549SOL     OW19105   3.439   0.228   6.194  0.4844 -0.0388 -0.4794
 2549SOL    HW119106   3.483   0.309   6.220  0.2031 -0.3169  0.8434
 2549SOL    HW219107   3.465   0.173   6.267 -0.4277 -0.4903 -0.4878
 2550SOL     OW19108   2.460   3.412   8.415  0.5893  0.0857 -0.1913
 2550SOL    HW119109   2.506   3.328   8.425 -0.2652  0.0290  3.3708
 2550SOL    HW219110   2.391   3.401   8.479  1.6245  1.6623  1.1919
 2551SOL     OW19111   0.836   0.473   5.568  0.7905 -0.3664 -0.1265
 2551SOL    HW119112   0.866   0.513   5.650  1.3172 -0.4484 -0.2769
 2551SOL    HW219113   0.912   0.419   5.548  1.1214  1.4432 -3.6655
 2552SOL     OW19114   3.249   2.245   2.603 -0.1859 -0.2188 -0.0751
 2552SOL    HW119115   3.277   2.294   2.526  0.2877  1.5627  1.2356
 2552SOL    HW219116   3.261   2.151   2.586  2.4079  0.0178  0.4405
 2553SOL     OW19117   1.198   2.566  14.639  0.4088 -0.4896 -0.7874
 2553SOL    HW119118   1.221   2.658  14.626 -0.6157 -0.0697  0.4463
 2553SOL    HW219119   1.103   2.572  14.648  0.1572 -0.9232 -3.0333
 2554SOL     OW19120   3.916   4.102   8.736 -0.0834  0.0832 -0.3463
 2554SOL    HW119121   3.944   4.057   8.816  0.2383  2.4870  0.9101
 2554SOL    HW219122   3.821   4.111   8.744 -0.1527  0.1305 -1.2699
 2555SOL     OW19123   2.137   1.770   8.963  0.0883  0.1011  0.5141
 2555SOL    HW119124   2.141   1.781   8.868 -1.4358  0.7285  0.5257
 2555SOL    HW219125   2.044   1.775   8.984  0.0040  1.2045 -0.1369
 2556SOL     OW19126   4.162   1.753  10.795  0.1168 -0.4488 -0.2595
 2556SOL    HW119127   4.100   1.680  10.793  1.7758 -1.9100  1.5047
 2556SOL    HW219128   4.230   1.710  10.742  0.1033  1.0508 -1.5082
 2557SOL     OW19129   2.146   2.951   3.888  0.1455 -0.2308 -0.1565
 2557SOL    HW119130   2.193   2.987   3.963  0.0296 -0.1774 -0.1090
 2557SOL    HW219131   2.200   2.877   3.861 -0.8986 -0.2632 -2.1407
 2558SOL     OW19132   0.568   1.353   5.963  0.0207 -0.0523 -0.3455
 2558SOL    HW119133   0.614   1.435   5.980  0.6980 -0.5495  0.1951
 2558SOL    HW219134   0.600   1.316   5.881  0.0631  2.0181 -1.2677
 2559SOL     OW19135   0.766   0.290   3.839 -0.4027  0.2943 -0.8241
 2559SOL    HW119136   0.744   0.281   3.932 -0.8923 -0.4061 -1.0088
 2559SOL    HW219137   0.754   0.385   3.836 -1.9545  0.1224  0.0430
 2560SOL     OW19138   3.881   0.482   2.950 -0.0738 -0.4546  0.3707
 2560SOL    HW119139   3.860   0.576   2.951  0.6656 -0.2770 -1.4491
 2560SOL    HW219140   3.969   0.493   2.915  0.0154 -1.0398  0.4205
 2561SOL     OW19141   1.212   4.391   6.181 -0.5837 -0.0086 -0.7105
 2561SOL    HW119142   1.154   4.372   6.254 -0.6474  1.9189 -0.2556
 2561SOL    HW219143   1.298   4.383   6.223 -1.2452  2.5130  1.1394
 2562SOL     OW19144   0.268   2.923   0.240 -0.1678 -0.3968 -0.2933
 2562SOL    HW119145   0.260   2.982   0.314 -2.0138 -1.6494  0.5225
 2562SOL    HW219146   0.351   2.954   0.204 -1.4781 -0.0935 -3.0405
 2563SOL     OW19147   0.025   0.956   5.603 -0.1067  0.2360  0.1766
 2563SOL    HW119148   4.718   0.923   5.687  1.4219  0.5435  0.8960
 2563SOL    HW219149   0.109   0.914   5.585  0.3350  1.1573  0.0919
 2564SOL     OW19150   2.882   4.301   4.726  0.3264 -0.2920 -1.3191
 2564SOL    HW119151   2.929   4.235   4.777 -1.5183  0.3313  1.2102
 2564SOL    HW219152   2.791   4.290   4.755  1.4045 -0.9102  1.8476
 2565SOL     OW19153   2.855   2.271   1.907 -0.4939 -0.0220  0.4370
 2565SOL    HW119154   2.850   2.200   1.971 -0.8600  0.3148  0.7852
 2565SOL    HW219155   2.813   2.335   1.965 -1.2987 -1.4542  1.4347
 2566SOL     OW19156   3.827   2.867   4.422  0.0639  0.5020  0.8205
 2566SOL    HW119157   3.767   2.797   4.444  0.4465  0.1146  0.6279
 2566SOL    HW219158   3.877   2.865   4.504 -0.6972  0.2044  1.2816
 2567SOL     OW19159   3.118   3.981   2.410 -0.1970  0.0429  0.5676
 2567SOL    HW119160   3.070   3.921   2.467 -1.0498 -1.5776 -1.8782
 2567SOL    HW219161   3.209   3.960   2.434 -0.2185  1.8328  2.1806
 2568SOL     OW19162   3.605   2.441   2.248  0.2617  0.0594  0.8428
 2568SOL    HW119163   3.692   2.474   2.268  0.8763  0.4028 -2.4653
 2568SOL    HW219164   3.630   2.364   2.198  2.5874 -0.5203  2.8860
 2569SOL     OW19165   0.159   4.252   8.374 -0.2626 -0.2209 -0.5627
 2569SOL    HW119166   0.213   4.331   8.379 -2.0386  0.9467  0.2656
 2569SOL    HW219167   0.161   4.216   8.462 -0.5147 -1.3059 -0.9984
 2570SOL     OW19168   3.717   1.613   2.168 -0.4198  0.3151 -0.4165
 2570SOL    HW119169   3.754   1.680   2.109 -1.3626 -0.7792 -2.2533
 2570SOL    HW219170   3.713   1.659   2.252 -0.4753 -0.7359  0.1514
 2571SOL     OW19171   0.299   2.380   2.900  0.4256  0.1816 -0.6099
 2571SOL    HW119172   0.220   2.372   2.953  0.8525  1.0813  0.1853
 2571SOL    HW219173   0.334   2.291   2.902  0.4352  0.1967  0.1723
 2572SOL     OW19174   0.736   3.112   5.903  0.2935 -0.7332 -0.2208
 2572SOL    HW119175   0.726   3.085   5.812 -1.7980  1.5557 -0.6520
 2572SOL    HW219176   0.803   3.054   5.940 -0.6378 -0.1637  2.4175
 2573SOL     OW19177   3.465   1.556  17.652 -0.5991 -0.2594 -0.0445
 2573SOL    HW119178   3.486   1.638  17.698  0.2796 -1.5912  1.9375
 2573SOL    HW219179   3.456   1.579  17.560  3.2486  0.4571 -0.2414
 2574SOL     OW19180   4.598   1.020  15.637 -0.0555 -0.5738 -0.4633
 2574SOL    HW119181   4.565   0.946  15.688 -0.1851 -0.2128 -0.0288
 2574SOL    HW219182   4.681   0.978  15.615 -0.1946 -2.3331  2.5023
 2575SOL     OW19183   0.293   2.720   4.576  0.0170 -0.3970  0.0184
 2575SOL    HW119184   0.270   2.632   4.603  0.7183 -0.4413  0.4669
 2575SOL    HW219185   0.275   2.723   4.482  1.9505  1.5185 -0.2905
 2576SOL     OW19186   0.488   2.990  17.348  0.2583 -0.0431 -0.0954
 2576SOL    HW119187   0.569   3.014  17.303  0.4511  0.3004  0.4374
 2576SOL    HW219188   0.510   3.026  17.434  0.7701  1.4087 -0.8438
 2577SOL     OW19189   3.526   3.164   5.107 -0.0409  0.3957 -0.2016
 2577SOL    HW119190   3.560   3.074   5.111 -0.8231  0.1308  0.3103
 2577SOL    HW219191   3.515   3.175   5.012 -0.6557 -2.6696 -0.5028
 2578SOL     OW19192   4.002   3.906   8.300 -0.6078  0.2515 -0.4357
 2578SOL    HW119193   3.960   3.946   8.376 -0.5168  1.8135 -1.2038
 2578SOL    HW219194   3.930   3.858   8.259  0.4565 -0.1240 -1.8657
 2579SOL     OW19195   4.649   2.574   2.069  0.5940 -0.1178 -0.6392
 2579SOL    HW119196   4.670   2.485   2.041  1.5245 -0.6136  1.6884
 2579SOL    HW219197   4.647   2.624   1.987  1.2938 -1.1710 -1.2992
 2580SOL     OW19198   2.821   2.950   4.008 -0.1057 -0.7068 -1.1903
 2580SOL    HW119199   2.859   2.874   4.053  0.5634 -0.3051 -1.0732
 2580SOL    HW219200   2.863   3.030   4.042 -1.1956 -0.7078  0.1620
 2581SOL     OW19201   2.016   2.244   3.756 -0.7425  0.6050 -0.2346
 2581SOL    HW119202   1.957   2.219   3.827 -0.3440  0.5315  0.0712
 2581SOL    HW219203   2.087   2.180   3.762  1.1784  2.8569  1.0597
 2582SOL     OW19204   1.892   1.179   3.630  0.2180 -0.5299  0.6998
 2582SOL    HW119205   1.946   1.214   3.559 -0.2602 -3.0834 -0.9445
 2582SOL    HW219206   1.851   1.248   3.682 -2.8002 -0.5966 -1.6063
 2583SOL     OW19207   0.020   1.782  14.504 -0.0758  0.2221 -0.6578
 2583SOL    HW119208   0.102   1.735  14.518 -0.6569  0.2815  2.7807
 2583SOL    HW219209   4.717   1.756  14.416  1.3534  0.8825 -1.3287
 2584SOL     OW19210   2.728   4.523   5.886  0.0329  0.0190  0.4094
 2584SOL    HW119211   2.674   4.599   5.909  0.6801  0.2769  1.0552
 2584SOL    HW219212   2.818   4.552   5.900  0.4148 -0.5597 -0.7956
 2585SOL     OW19213   1.532   1.262   2.635  0.5786  0.1024  0.2440
 2585SOL    HW119214   1.478   1.228   2.564  0.5556 -1.2222  0.8914
 2585SOL    HW219215   1.590   1.316   2.582 -0.5985 -0.0656 -1.1889
 2586SOL     OW19216   0.507   4.130   1.382  0.4954  0.5850 -0.5083
 2586SOL    HW119217   0.548   4.063   1.327 -0.8520 -1.7369  1.3354
 2586SOL    HW219218   0.450   4.178   1.321  0.3787  0.1964 -0.7091
 2587SOL     OW19219   4.579   4.392   7.776 -0.3377  0.0406  0.2399
 2587SOL    HW119220   4.558   4.478   7.740  2.6165  0.1853 -1.1410
 2587SOL    HW219221   4.657   4.396   7.831 -0.3798  2.6508  0.0835
 2588SOL     OW19222   4.302   1.017   5.686 -0.0493  0.2488 -0.0507
 2588SOL    HW119223   4.378   0.996   5.632  0.3826  0.3468  0.5185
 2588SOL    HW219224   4.325   1.104   5.719 -0.5314 -0.5232  2.3608
 2589SOL     OW19225   1.996   3.874   4.798 -0.0970  0.2200  0.2188
 2589SOL    HW119226   1.913   3.861   4.752 -0.2346 -0.6944  0.7423
 2589SOL    HW219227   2.055   3.919   4.737  0.0725  1.0257  0.9802
 2590SOL     OW19228   3.536   0.048   8.570  0.4829 -0.5143 -0.5540
 2590SOL    HW119229   3.488   0.115   8.618 -2.2074 -2.4941 -0.4967
 2590SOL    HW219230   3.516   0.078   8.482  0.2060  2.4911  0.5107
 2591SOL     OW19231   4.497   3.230   8.248  0.0501  0.2988  0.6203
 2591SOL    HW119232   4.590   3.241   8.269  1.0103 -2.5501 -2.1580
 2591SOL    HW219233   4.503   3.152   8.193 -2.4478 -0.2125  1.0751
 2592SOL     OW19234   1.870   0.400   4.625  0.3933 -0.0998 -0.1168
 2592SOL    HW119235   1.814   0.370   4.696  0.0258 -0.4352 -0.5450
 2592SOL    HW219236   1.936   0.331   4.623 -0.4870 -0.9454 -0.1399
 2593SOL     OW19237   0.079   1.955  10.420 -0.1300  0.1432  0.6125
 2593SOL    HW119238   0.125   1.890  10.367  0.7158 -0.3091  1.8896
 2593SOL    HW219239   4.714   1.930  10.405  0.3959 -1.3239 -0.0942
 2594SOL     OW19240   1.212   3.166   0.745 -0.4398  0.8619  0.1097
 2594SOL    HW119241   1.182   3.103   0.811  0.3023 -0.7457 -1.0892
 2594SOL    HW219242   1.285   3.121   0.704 -2.3994 -0.3187 -2.0734
 2595SOL     OW19243   1.102   0.201   6.497 -0.1365  0.2009  0.0156
 2595SOL    HW119244   1.195   0.190   6.514  0.1011  1.0212 -0.7545
 2595SOL    HW219245   1.057   0.122   6.529 -0.0454 -0.4986 -1.5500
 2596SOL     OW19246   2.365   3.600   6.006  0.2948  0.4108 -0.0144
 2596SOL    HW119247   2.361   3.667   5.939  2.1029 -1.2166 -1.7477
 2596SOL    HW219248   2.368   3.652   6.086 -0.4315  2.5339 -1.3838
 2597SOL     OW19249   2.725   0.932   2.715 -0.2359  0.0478  0.4756
 2597SOL    HW119250   2.802   0.986   2.699  0.0744 -0.7868 -0.8512
 2597SOL    HW219251   2.718   0.934   2.811 -0.4603  1.3196  0.4407
 2598SOL     OW19252   0.954   2.075   4.664  0.4210 -0.3957 -0.2821
 2598SOL    HW119253   0.961   2.170   4.653  0.3518 -0.3231  0.3150
 2598SOL    HW219254   1.018   2.044   4.600  0.7678 -2.1785  0.9271
 2599SOL     OW19255   4.009   4.352  16.857  0.0812 -0.0403  0.5705
 2599SOL    HW119256   4.094   4.351  16.900  0.7912  0.1298 -0.8364
 2599SOL    HW219257   3.960   4.285  16.905 -1.4211  1.1184  0.6427
 2600SOL     OW19258   0.638   1.289   7.075 -0.1050  0.2257  0.1437
 2600SOL    HW119259   0.569   1.320   7.134  0.7948  0.7906  0.8939
 2600SOL    HW219260   0.607   1.206   7.040 -0.8157  0.5762 -0.0524
 2601SOL     OW19261   3.029   4.523   3.247  0.8272  0.1368  0.1943
 2601SOL    HW119262   3.057   4.539   3.337  2.3404 -1.5818  0.0369
 2601SOL    HW219263   2.974   4.446   3.258  0.0126  0.8774  1.3092
 2602SOL     OW19264   3.016   2.603   1.813  0.1418  0.1975  0.0867
 2602SOL    HW119265   2.965   2.528   1.784 -0.2810  0.0480  1.2135
 2602SOL    HW219266   2.945   2.667   1.824  0.1838  0.4869 -1.3792
 2603SOL     OW19267   3.449   4.550   5.212 -0.2864 -0.1604 -0.7458
 2603SOL    HW119268   3.430   4.520   5.124  0.0102 -1.3121 -0.4189
 2603SOL    HW219269   3.360   4.569   5.244 -0.2792  0.2879 -0.9991
 2604SOL     OW19270   0.426   2.399   2.235 -0.0561  0.0435 -0.0687
 2604SOL    HW119271   0.400   2.411   2.326  0.1342 -0.0490 -0.0030
 2604SOL    HW219272   0.435   2.491   2.211  1.8152  0.3657  1.8610
 2605SOL     OW19273   2.843   3.289  16.904 -0.2708 -0.3149 -0.0835
 2605SOL    HW119274   2.863   3.324  16.817 -1.0074 -0.0280 -0.1434
 2605SOL    HW219275   2.792   3.213  16.874  1.9668 -0.8848 -2.4624
 2606SOL     OW19276   4.558   2.907   9.623 -0.1403  0.2194  0.6675
 2606SOL    HW119277   4.645   2.873   9.602 -0.5841  0.2173 -1.1825
 2606SOL    HW219278   4.539   2.842   9.691  1.3064  0.4076  1.2627
 2607SOL     OW19279   0.289   2.495   6.617  0.1839  0.1418  0.4808
 2607SOL    HW119280   0.282   2.448   6.701 -1.3883 -0.2434  0.1431
 2607SOL    HW219281   0.207   2.544   6.623  0.2029  0.3285 -0.9260
 2608SOL     OW19282   3.630   1.174   6.249  0.0087  0.3474  0.3434
 2608SOL    HW119283   3.634   1.101   6.310 -2.1801 -2.0648 -2.3764
 2608SOL    HW219284   3.561   1.231   6.283 -1.3503 -0.6773 -0.6854
 2609SOL     OW19285   3.255   0.644   7.672  0.4792 -0.2738 -0.1762
 2609SOL    HW119286   3.206   0.680   7.598 -0.1696 -0.9348 -0.0703
 2609SOL    HW219287   3.220   0.691   7.748 -1.5978  0.3428 -1.5100
 2610SOL     OW19288   0.828   3.235   5.273 -0.5577  0.0535  0.3893
 2610SOL    HW119289   0.893   3.262   5.208 -0.8071 -3.1200 -1.1512
 2610SOL    HW219290   0.797   3.312   5.320  0.1412 -1.6712  3.7145
 2611SOL     OW19291   0.858   4.610   3.675 -0.1760  0.6936 -0.3863
 2611SOL    HW119292   0.872   4.626   3.768 -0.0190 -2.3537  0.1154
 2611SOL    HW219293   0.807   4.688   3.652  0.9832  1.0225 -1.8196
 2612SOL     OW19294   0.873   4.445   4.154  0.1189 -0.3146 -0.1938
 2612SOL    HW119295   0.885   4.366   4.101  0.5885 -0.2171 -0.2267
 2612SOL    HW219296   0.859   4.406   4.240 -0.4435  2.4546  0.9465
 2613SOL     OW19297   0.182   3.222   6.554  0.3423 -0.3720 -0.3648
 2613SOL    HW119298   0.150   3.310   6.573  2.0464  0.2369 -0.3628
 2613SOL    HW219299   0.102   3.177   6.582 -0.5939  0.6218 -1.4547
 2614SOL     OW19300   3.462   2.405   7.092  0.0945  0.1154  0.3304
 2614SOL    HW119301   3.488   2.320   7.127  0.7206  1.9227  4.2113
 2614SOL    HW219302   3.547   2.447   7.099  0.7708 -0.8813 -1.9023
 2615SOL     OW19303   1.141   3.052  14.572 -0.5319 -0.1918 -0.1648
 2615SOL    HW119304   1.179   3.090  14.493 -0.2435  0.4150  0.2634
 2615SOL    HW219305   1.202   2.980  14.589 -1.0404 -1.0464 -1.8724
 2616SOL     OW19306   0.077   3.419   1.022  0.4363 -0.1240  0.5606
 2616SOL    HW119307   0.025   3.388   1.096 -2.2771 -0.6474 -1.5924
 2616SOL    HW219308   0.130   3.495   1.047 -0.3086 -0.6879  3.8335
 2617SOL     OW19309   4.098   0.651  14.540 -0.8489  0.1135  0.0296
 2617SOL    HW119310   4.004   0.661  14.525 -0.6163  0.7508 -0.9962
 2617SOL    HW219311   4.114   0.646  14.634 -0.9520 -1.9292 -0.0569
 2618SOL     OW19312   2.121   4.410   3.575 -0.0186 -0.0985 -0.2050
 2618SOL    HW119313   2.033   4.423   3.610  0.5576  4.1098 -0.2910
 2618SOL    HW219314   2.181   4.446   3.641  2.0628 -2.1453 -0.9789
 2619SOL     OW19315   4.262   1.525   7.954  0.0375  0.1718 -0.1341
 2619SOL    HW119316   4.279   1.618   7.968  0.6022 -0.0705  0.8120
 2619SOL    HW219317   4.341   1.509   7.902  0.6439  1.1712  0.4777
 2620SOL     OW19318   2.832   0.942   5.836 -0.3055  0.2015  0.0223
 2620SOL    HW119319   2.916   0.976   5.867  0.3470 -1.1781 -0.2328
 2620SOL    HW219320   2.817   1.000   5.761  0.6643  1.8660  1.1047
 2621SOL     OW19321   0.768   2.212   8.539 -0.0817  0.0012  0.2338
 2621SOL    HW119322   0.727   2.126   8.550 -0.9474  0.0828 -2.4624
 2621SOL    HW219323   0.701   2.267   8.578  1.6596  2.6318 -0.4800
 2622SOL     OW19324   3.831   2.465   7.661 -0.5409  1.0745  0.3347
 2622SOL    HW119325   3.795   2.447   7.748 -2.1473 -1.8650 -0.9587
 2622SOL    HW219326   3.756   2.517   7.633 -1.2315  0.3564  0.8380
 2623SOL     OW19327   2.869   3.021   6.580 -0.7333 -0.1365  0.1266
 2623SOL    HW119328   2.904   3.107   6.557  2.0245 -1.0846  0.8773
 2623SOL    HW219329   2.781   3.011   6.543  0.1039  1.3451 -2.2788
 2624SOL     OW19330   1.163   0.680  13.142 -0.0851  1.1193  0.1323
 2624SOL    HW119331   1.224   0.608  13.160 -0.5613  0.6773  0.0008
 2624SOL    HW219332   1.109   0.640  13.074  0.0282  1.7117 -0.3001
 2625SOL     OW19333   4.515   0.062   1.078  0.2702  0.2596  0.1982
 2625SOL    HW119334   4.544   4.715   1.024  1.2625  0.1165  0.9299
 2625SOL    HW219335   4.521   0.139   1.021  0.3716 -0.5922 -0.9376
 2626SOL     OW19336   1.005   1.647   8.601 -0.0397  0.1951  0.1332
 2626SOL    HW119337   1.079   1.643   8.662 -1.2483  1.0262  1.6435
 2626SOL    HW219338   1.044   1.654   8.513  0.2714  0.3115  0.2789
 2627SOL     OW19339   3.221   3.792  11.689 -0.3341  0.0576  0.2171
 2627SOL    HW119340   3.207   3.787  11.783 -0.8719  0.6403  0.1688
 2627SOL    HW219341   3.159   3.864  11.677 -0.8156 -0.7287 -1.9132
 2628SOL     OW19342   1.852   1.244   5.580  0.5426  0.4210 -0.0314
 2628SOL    HW119343   1.859   1.297   5.660  3.2157  1.1352 -0.7282
 2628SOL    HW219344   1.943   1.243   5.551  0.3984 -0.2087 -0.4581
 2629SOL     OW19345   0.332   2.574   0.684 -0.7388 -0.4549  0.0413
 2629SOL    HW119346   0.303   2.609   0.768  0.2111  0.6398 -0.0855
 2629SOL    HW219347   0.273   2.499   0.671  0.6729 -1.4734 -0.5174
 2630SOL     OW19348   3.200   0.426   0.134 -0.2003  0.3827  0.1194
 2630SOL    HW119349   3.171   0.336   0.115  0.0325  0.8441 -2.3918
 2630SOL    HW219350   3.200   0.418   0.229 -0.5364 -3.8346 -0.2243
 2631SOL     OW19351   0.157   0.559   7.607  0.7447  0.7473  0.1612
 2631SOL    HW119352   0.141   0.653   7.608 -2.9598  0.1537 -2.3457
 2631SOL    HW219353   0.105   0.528   7.682 -0.0887  1.7473 -0.0066
 2632SOL     OW19354   0.280   1.474   4.660 -0.1600  0.0263  0.8905
 2632SOL    HW119355   0.275   1.387   4.619 -0.2677  0.3528  0.2043
 2632SOL    HW219356   0.364   1.470   4.705 -0.9279 -2.0752  2.1759
 2633SOL     OW19357   0.598   4.316   3.455  0.5059  0.2257 -0.1865
 2633SOL    HW119358   0.601   4.380   3.526  0.0622  0.0201  0.0159
 2633SOL    HW219359   0.530   4.343   3.392  1.1584 -0.7911 -1.3298
 2634SOL     OW19360   0.295   2.584   1.531  0.5035  0.5996  0.2900
 2634SOL    HW119361   0.296   2.503   1.481 -1.4736  0.2727  0.7853
 2634SOL    HW219362   0.275   2.551   1.619  0.0955  0.4876  0.1556
 2635SOL     OW19363   1.817   1.652   1.490  0.1963  0.1716 -0.1184
 2635SOL    HW119364   1.799   1.559   1.503  0.4989  0.1570  0.1788
 2635SOL    HW219365   1.898   1.662   1.539 -0.4389  0.5293  0.8535
 2636SOL     OW19366   3.842   4.474  15.873  0.4761  0.1120  0.0056
 2636SOL    HW119367   3.775   4.488  15.805  3.4634  3.0010 -2.3037
 2636SOL    HW219368   3.878   4.561  15.886 -0.2703  0.7068 -1.8369
 2637SOL     OW19369   1.485   3.590   9.806  0.5749  0.1357 -0.3057
 2637SOL    HW119370   1.442   3.505   9.792 -0.7386  1.0585 -1.8905
 2637SOL    HW219371   1.563   3.575   9.752  0.4380  0.3177 -0.5528
 2638SOL     OW19372   2.287   2.040  16.350  0.1994 -0.4264  0.6238
 2638SOL    HW119373   2.338   2.050  16.430  0.8949 -2.8607  0.4688
 2638SOL    HW219374   2.273   1.947  16.335 -2.8470  0.2381 -0.8935
 2639SOL     OW19375   4.365   0.778   6.149  0.8192 -0.3564 -0.3246
 2639SOL    HW119376   4.450   0.790   6.193 -0.6612  0.3323  2.3224
 2639SOL    HW219377   4.318   0.823   6.218 -0.7915  0.5698 -2.0195
 2640SOL     OW19378   1.701   4.636   8.106 -0.2836 -0.0084 -0.1140
 2640SOL    HW119379   1.645   4.701   8.149  0.3975  0.1846  0.4911
 2640SOL    HW219380   1.688   4.558   8.159 -0.4026  0.7305  0.9522
 2641SOL     OW19381   4.715   0.346   1.338  0.3205  0.1541  0.2150
 2641SOL    HW119382   0.077   0.382   1.356  0.2988 -0.3368  1.3094
 2641SOL    HW219383   4.698   0.276   1.401 -0.8216  0.4645  0.2351
 2642SOL     OW19384   1.794   2.023  15.602  0.0281  0.1433 -0.3545
 2642SOL    HW119385   1.884   1.999  15.579  0.0618  1.6408 -1.8478
 2642SOL    HW219386   1.752   2.023  15.516  0.4252 -1.1886 -0.5416
 2643SOL     OW19387   2.002   3.884   6.760  0.0667  0.2451  0.2748
 2643SOL    HW119388   1.946   3.820   6.803  1.6738 -0.5610  1.1689
 2643SOL    HW219389   2.089   3.874   6.799  0.1607 -0.4729 -0.1306
 2644SOL     OW19390   4.452   0.068   4.799  0.6957 -0.5118 -0.1612
 2644SOL    HW119391   4.387   0.006   4.766  1.2116 -1.1732  0.0628
 2644SOL    HW219392   4.511   0.010   4.847  2.6028  1.2843 -0.2871
 2645SOL     OW19393   3.262   1.398   3.765  0.1837  0.5643  0.2789
 2645SOL    HW119394   3.182   1.414   3.815  0.1854  1.9956 -0.1756
 2645SOL    HW219395   3.326   1.374   3.832 -0.3762 -0.8128  0.3203
 2646SOL     OW19396   3.330   1.742  14.138  0.0935  0.7204  0.2594
 2646SOL    HW119397   3.305   1.667  14.084 -1.2216  1.0599  0.4098
 2646SOL    HW219398   3.376   1.706  14.214 -3.8600  0.9299  2.7139
 2647SOL     OW19399   2.059   4.619   6.047  0.2898 -0.0503  0.0710
 2647SOL    HW119400   2.089   4.598   6.135  0.5998  0.7844  0.1698
 2647SOL    HW219401   2.026   4.708   6.057 -0.5176 -0.2303 -0.9579
 2648SOL     OW19402   0.116   4.039   3.744 -0.0691  0.6158  0.4671
 2648SOL    HW119403   0.112   4.135   3.746 -3.0318  0.4453  1.4335
 2648SOL    HW219404   0.027   4.009   3.758  0.5701 -0.4600  2.3261
 2649SOL     OW19405   3.035   2.833  11.400 -0.1970  0.5845  0.0344
 2649SOL    HW119406   3.045   2.922  11.366 -0.7345  0.3371 -0.8033
 2649SOL    HW219407   3.119   2.821  11.444  0.1677 -1.0537 -1.0966
 2650SOL     OW19408   1.210   1.961   5.719 -0.4461 -0.3192  0.0667
 2650SOL    HW119409   1.142   2.010   5.764  0.1570  0.5614  0.0312
 2650SOL    HW219410   1.198   1.984   5.627  0.7149  0.7838  0.1936
 2651SOL     OW19411   3.341   3.733   0.865 -0.0611  0.9026  0.1485
 2651SOL    HW119412   3.403   3.778   0.924  0.6420 -1.5155  1.2647
 2651SOL    HW219413   3.395   3.742   0.787  0.6298 -0.0904  0.5043
 2652SOL     OW19414   0.974   0.620  10.698 -0.5183  0.2994 -0.3372
 2652SOL    HW119415   0.919   0.681  10.747 -0.3479  1.1319 -1.1860
 2652SOL    HW219416   0.917   0.565  10.644 -0.4368  0.6556 -0.7863
 2653SOL     OW19417   0.370   4.496   6.824  0.4105  0.0154  0.2097
 2653SOL    HW119418   0.283   4.463   6.848  0.3797 -0.0946 -0.0478
 2653SOL    HW219419   0.425   4.437   6.876 -1.4499 -0.2926  1.8204
 2654SOL     OW19420   0.032   2.013   5.722 -0.0765 -0.1789 -0.1117
 2654SOL    HW119421   4.676   2.051   5.689  0.8755 -0.2233 -2.5607
 2654SOL    HW219422   0.050   2.063   5.801 -3.0926  0.5536  0.1157
 2655SOL     OW19423   3.593   4.691   6.890  0.2368 -0.3279  0.2318
 2655SOL    HW119424   3.528   4.651   6.947 -0.8800 -3.0807 -2.9414
 2655SOL    HW219425   3.643   4.611   6.873  0.0055 -0.5425  0.5644
 2656SOL     OW19426   1.181   2.029  10.354 -0.3311 -0.1915 -0.0180
 2656SOL    HW119427   1.106   2.055  10.299  0.5014 -0.8252 -1.4444
 2656SOL    HW219428   1.172   1.936  10.373 -1.4396 -0.4700 -1.9378
 2657SOL     OW19429   4.493   1.858  14.627  0.2011 -0.3094  0.3608
 2657SOL    HW119430   4.530   1.870  14.715 -1.4189  1.1631  0.8461
 2657SOL    HW219431   4.564   1.817  14.578  0.5019 -0.8312  1.2261
 2658SOL     OW19432   1.242   3.001  16.640  0.4796  0.3394 -0.1525
 2658SOL    HW119433   1.196   3.070  16.687  1.0022  2.6160 -3.0263
 2658SOL    HW219434   1.176   2.970  16.578  0.3067  0.9251 -0.2622
 2659SOL     OW19435   3.961   1.868  14.480  0.2432  0.1992  0.0724
 2659SOL    HW119436   3.956   1.954  14.437 -1.7812  0.1525  0.1994
 2659SOL    HW219437   3.874   1.832  14.460 -0.2133  0.8370  0.9137
 2660SOL     OW19438   4.291   3.812   0.763  0.1394 -0.2365 -0.1203
 2660SOL    HW119439   4.263   3.795   0.853  0.4716 -3.5065 -0.6182
 2660SOL    HW219440   4.303   3.720   0.739 -0.8523 -0.5946  0.7459
 2661SOL     OW19441   2.572   4.563  11.883  0.0258  0.2727  0.5972
 2661SOL    HW119442   2.545   4.601  11.799  1.4761  0.0704  0.0305
 2661SOL    HW219443   2.493   4.575  11.935  0.3049  1.1706  0.8154
 2662SOL     OW19444   3.643   4.224   6.657  0.7438  0.2028  0.0753
 2662SOL    HW119445   3.640   4.315   6.688  0.9423 -0.0070  0.6874
 2662SOL    HW219446   3.735   4.206   6.637  0.0190 -2.4003 -0.7964
 2663SOL     OW19447   1.499   1.359   1.643 -0.4548  0.4479  0.5302
 2663SOL    HW119448   1.581   1.353   1.595 -0.2958  1.0344  0.7264
 2663SOL    HW219449   1.541   1.395   1.720  0.9251 -2.0757  0.9529
 2664SOL     OW19450   3.035   1.267   0.738  0.0518  0.0729  0.0330
 2664SOL    HW119451   2.983   1.307   0.808  0.8265 -0.7551  1.0886
 2664SOL    HW219452   2.980   1.292   0.664 -1.6909 -0.5901  1.0875
 2665SOL     OW19453   2.833   0.203   0.794 -0.4137  0.3355  0.6616
 2665SOL    HW119454   2.762   0.260   0.826  0.7870  0.9964  2.1245
 2665SOL    HW219455   2.880   0.273   0.749 -3.1438  0.6440 -1.7551
 2666SOL     OW19456   3.550   3.371   5.979  0.2252 -0.0211 -0.0229
 2666SOL    HW119457   3.491   3.345   6.050 -0.4281 -0.5529 -0.7615
 2666SOL    HW219458   3.610   3.424   6.032  2.5474 -2.0501 -0.6132
 2667SOL     OW19459   1.213   4.179  10.538 -0.0999  0.3032  0.6961
 2667SOL    HW119460   1.294   4.198  10.587  0.0257 -0.9318  0.9661
 2667SOL    HW219461   1.193   4.266  10.504  2.2321  0.0442 -1.2970
 2668SOL     OW19462   2.315   3.057   7.740 -0.4441 -0.3466  1.1480
 2668SOL    HW119463   2.325   3.131   7.800 -0.8136  0.4913  0.1989
 2668SOL    HW219464   2.278   2.996   7.803  0.7471  0.2344  2.4148
 2669SOL     OW19465   3.490   0.916   1.863 -0.4552  0.4665 -0.1116
 2669SOL    HW119466   3.497   0.886   1.773  0.0239  1.3361 -0.3567
 2669SOL    HW219467   3.550   0.990   1.863 -0.2102  0.2613 -1.7176
 2670SOL     OW19468   3.356   4.194   8.335  0.0792 -0.1446 -0.0696
 2670SOL    HW119469   3.439   4.196   8.383  0.8231 -3.6021 -1.1932
 2670SOL    HW219470   3.345   4.100   8.316  0.5324 -0.5759  1.8002
 2671SOL     OW19471   0.672   2.005   7.240  0.4198  0.0058  0.0161
 2671SOL    HW119472   0.587   1.992   7.282  0.1507  1.9254  0.0792
 2671SOL    HW219473   0.638   2.026   7.153 -0.8205  1.8373  0.9320
 2672SOL     OW19474   3.110   1.883   3.769  0.5676 -0.4126 -0.2513
 2672SOL    HW119475   3.035   1.831   3.800  1.7151 -2.2971 -0.6117
 2672SOL    HW219476   3.167   1.823   3.721  0.3576 -2.1272  1.5955
 2673SOL     OW19477   3.573   2.981   5.458 -0.0544  0.3301 -0.2505
 2673SOL    HW119478   3.547   3.071   5.435  0.6599  0.8100  0.8038
 2673SOL    HW219479   3.629   2.986   5.536 -0.6689  1.7243  0.1017
 2674SOL     OW19480   2.563   2.902   4.100  0.0260 -0.2316  0.2649
 2674SOL    HW119481   2.581   2.896   4.193  1.8200  0.4745 -0.0436
 2674SOL    HW219482   2.649   2.930   4.069  0.4419 -0.2088  1.4612
 2675SOL     OW19483   0.619   2.196   3.298 -0.2650 -0.1961  0.3580
 2675SOL    HW119484   0.595   2.262   3.233 -1.8899 -1.5023 -0.3973
 2675SOL    HW219485   0.653   2.251   3.368 -0.4012  3.8964 -2.7820
 2676SOL     OW19486   3.328   2.395  10.848 -0.1251 -0.4560  0.0942
 2676SOL    HW119487   3.281   2.446  10.782  2.1539 -0.4896 -1.5601
 2676SOL    HW219488   3.401   2.457  10.855 -0.5941 -0.0832  1.7175
 2677SOL     OW19489   1.717   3.254   7.276  0.1010  0.0883  0.5141
 2677SOL    HW119490   1.623   3.238   7.282  0.1782 -0.6661 -0.1531
 2677SOL    HW219491   1.738   3.228   7.186 -2.6743  0.4452 -0.2412
 2678SOL     OW19492   3.182   2.564   1.580  0.0637 -0.6982  0.8260
 2678SOL    HW119493   3.144   2.557   1.668  0.3145  1.3402  1.0986
 2678SOL    HW219494   3.130   2.633   1.538  1.1533  0.2543  1.0561
 2679SOL     OW19495   2.886   3.407   2.764 -0.1292 -0.0450  0.4905
 2679SOL    HW119496   2.904   3.441   2.676 -1.1872 -0.3753  0.1421
 2679SOL    HW219497   2.797   3.441   2.776 -1.0507 -1.4385 -2.3278
 2680SOL     OW19498   3.288   3.548   4.453  1.0596 -0.0335 -0.1936
 2680SOL    HW119499   3.272   3.618   4.515  1.8953  0.1409 -0.1766
 2680SOL    HW219500   3.204   3.502   4.448  1.1882 -0.4616  1.8409
 2681SOL     OW19501   4.151   1.484   7.414  0.4447 -0.6569 -0.4177
 2681SOL    HW119502   4.092   1.512   7.483 -2.4488  0.5941 -3.3755
 2681SOL    HW219503   4.237   1.465   7.450  1.1217  1.4489 -0.9074
 2682SOL     OW19504   0.566   1.510   3.182 -0.5404  0.2530 -0.4126
 2682SOL    HW119505   0.624   1.467   3.119 -0.6738 -1.0780  0.3646
 2682SOL    HW219506   0.531   1.586   3.136  1.0265  0.3271 -1.4941
 2683SOL     OW19507   2.232   3.985   8.476 -0.4979 -0.8188  0.1160
 2683SOL    HW119508   2.242   4.076   8.504 -0.1274 -0.8687  0.1335
 2683SOL    HW219509   2.164   3.944   8.529  0.0199 -0.6146  0.9255
 2684SOL     OW19510   2.859   2.190   5.697 -0.2052 -0.1422 -0.0952
 2684SOL    HW119511   2.934   2.217   5.750 -0.3783  0.5117 -0.1857
 2684SOL    HW219512   2.794   2.173   5.766  1.8149 -2.4135  1.2698
 2685SOL     OW19513   3.465   3.426   3.391  0.1017 -0.2182  0.1277
 2685SOL    HW119514   3.501   3.354   3.339  1.3442  0.4855  0.0188
 2685SOL    HW219515   3.371   3.417   3.404 -0.3599  3.4681 -0.4567
 2686SOL     OW19516   2.589   0.886   1.891 -0.2547  0.2608  0.4120
 2686SOL    HW119517   2.557   0.909   1.804  2.4070 -0.1297 -0.6546
 2686SOL    HW219518   2.524   0.822   1.919  0.2677  0.0006  1.0426
 2687SOL     OW19519   1.979   1.390  13.805 -0.2898 -0.0602 -0.4540
 2687SOL    HW119520   1.990   1.419  13.715  1.4119 -0.7076 -0.4485
 2687SOL    HW219521   1.907   1.327  13.803 -1.9426  1.8390 -1.4812
 2688SOL     OW19522   1.277   1.201   6.201 -0.2499  0.1726  0.1845
 2688SOL    HW119523   1.356   1.148   6.209 -0.7978 -0.0924  4.2597
 2688SOL    HW219524   1.216   1.152   6.257 -0.6084  0.0067 -0.3478
 2689SOL     OW19525   2.724   1.454  15.876  0.4068  0.2849 -0.2118
 2689SOL    HW119526   2.729   1.360  15.864  0.2054  0.1931  0.4407
 2689SOL    HW219527   2.810   1.464  15.916  1.8118 -0.8716 -2.9548
 2690SOL     OW19528   2.835   3.354   8.641 -0.0056 -0.8232  0.2373
 2690SOL    HW119529   2.771   3.287   8.664 -1.0236 -0.1983 -0.7544
 2690SOL    HW219530   2.916   3.304   8.652 -0.1871 -1.5136 -1.5526
 2691SOL     OW19531   4.208   1.078  10.301  0.1329 -0.2024 -0.0928
 2691SOL    HW119532   4.231   1.170  10.289 -0.5601 -0.0325 -0.1660
 2691SOL    HW219533   4.168   1.059  10.216 -0.3571  1.1168 -0.1670
 2692SOL     OW19534   1.509   1.248   3.756  0.6173 -0.1529 -0.0943
 2692SOL    HW119535   1.512   1.343   3.747 -3.7605 -0.0323 -0.6628
 2692SOL    HW219536   1.491   1.250   3.850 -0.2540 -0.0191 -0.2639
 2693SOL     OW19537   1.272   1.990   5.457 -0.1038 -0.2455 -0.5352
 2693SOL    HW119538   1.350   1.967   5.507 -1.3731 -2.0787  0.6011
 2693SOL    HW219539   1.271   2.086   5.452  4.3663 -0.1942  0.1493
 2694SOL     OW19540   1.127   1.534   2.139 -0.0985  0.4572 -0.0349
 2694SOL    HW119541   1.158   1.534   2.230  0.4320  1.0361 -0.2171
 2694SOL    HW219542   1.032   1.526   2.152 -0.3338  0.2786 -1.8496
 2695SOL     OW19543   0.936   0.267   9.314  0.0152 -0.1030 -0.0876
 2695SOL    HW119544   0.938   0.212   9.236 -0.8800  0.3924 -0.4524
 2695SOL    HW219545   0.968   0.348   9.274  1.5253 -0.8786 -0.4335
 2696SOL     OW19546   0.435   0.119  15.796 -0.3549 -0.2788  0.2659
 2696SOL    HW119547   0.387   0.202  15.804 -2.0742 -1.1733 -0.8640
 2696SOL    HW219548   0.364   0.056  15.790  0.8233 -1.7184  1.5099
 2697SOL     OW19549   0.823   2.017   2.197  0.5148 -0.1905  0.1930
 2697SOL    HW119550   0.819   2.037   2.103  1.2674 -2.4461 -0.3170
 2697SOL    HW219551   0.731   2.020   2.223  1.1468 -0.7807  2.4469
 2698SOL     OW19552   0.594   3.310  11.372 -0.1614  0.4963 -0.1573
 2698SOL    HW119553   0.673   3.287  11.420 -0.7097  1.3341  1.1456
 2698SOL    HW219554   0.620   3.282  11.284  2.7199  1.1722  0.4640
 2699SOL     OW19555   4.347   3.915   4.378 -0.4293  0.3171 -0.0189
 2699SOL    HW119556   4.318   3.987   4.434 -1.2737 -1.2214  1.5251
 2699SOL    HW219557   4.275   3.903   4.316  1.0899 -2.1876 -1.3029
 2700SOL     OW19558   2.429   2.127  15.942 -0.4388 -0.4750 -0.1140
 2700SOL    HW119559   2.509   2.141  15.892 -0.6027  0.3268 -0.1448
 2700SOL    HW219560   2.401   2.213  15.973 -0.4406 -0.3600 -0.4368
 2701SOL     OW19561   2.399   3.391   5.108  0.1613 -0.6560 -0.2321
 2701SOL    HW119562   2.327   3.443   5.073 -0.2693 -0.4695  0.9500
 2701SOL    HW219563   2.404   3.439   5.190  0.4321 -0.1889 -0.5253
 2702SOL     OW19564   3.913   0.040  10.011 -0.0392  0.2838 -0.0502
 2702SOL    HW119565   3.864   0.092   9.947 -1.6733  1.1549  1.8782
 2702SOL    HW219566   3.893   0.087  10.092  2.1035 -2.3940  2.0275
 2703SOL     OW19567   1.749   3.726   1.732  0.6854 -0.3437  0.0673
 2703SOL    HW119568   1.766   3.815   1.702 -0.3890 -1.2065 -3.0920
 2703SOL    HW219569   1.828   3.712   1.784  0.4916  0.4389  0.5745
 2704SOL     OW19570   4.020   3.139  14.215  0.5148  0.2274  0.0092
 2704SOL    HW119571   4.108   3.157  14.183  1.6291 -3.9689  0.7344
 2704SOL    HW219572   3.994   3.231  14.228 -1.4647  0.0474 -2.7118
 2705SOL     OW19573   1.359   3.784   2.158 -0.3933 -0.5360 -0.0705
 2705SOL    HW119574   1.330   3.694   2.140 -0.8953 -0.1586 -1.1142
 2705SOL    HW219575   1.414   3.810   2.085 -2.5517  0.3512 -1.3773
 2706SOL     OW19576   2.762   1.768  10.499 -0.5110  0.2880  0.2061
 2706SOL    HW119577   2.756   1.863  10.500 -0.7463  0.2682  2.4226
 2706SOL    HW219578   2.734   1.754  10.409  0.0166  1.7511 -0.1697
 2707SOL     OW19579   3.998   4.713   0.557 -0.0395  0.3692  0.5851
 2707SOL    HW119580   4.015   0.027   0.642  1.9371  1.2681 -0.2320
 2707SOL    HW219581   3.922   4.659   0.582  0.1677 -0.3838 -0.4019
 2708SOL     OW19582   3.576   1.195   9.261  0.7314  0.2214  0.0334
 2708SOL    HW119583   3.635   1.156   9.325 -1.7504 -0.9337  1.6094
 2708SOL    HW219584   3.576   1.135   9.186  0.0024  0.3536 -0.0742
 2709SOL     OW19585   3.973   4.229   3.428 -0.1097 -0.3218  0.1894
 2709SOL    HW119586   3.907   4.296   3.445 -0.0998 -0.6353  1.4164
 2709SOL    HW219587   4.053   4.274   3.454 -0.4610 -0.8311  2.0835
 2710SOL     OW19588   3.307   2.353   3.369 -0.1666  0.5064 -0.4139
 2710SOL    HW119589   3.235   2.411   3.394  0.7412  0.9846  1.0800
 2710SOL    HW219590   3.296   2.332   3.276  1.1575 -1.0400 -0.2108
 2711SOL     OW19591   4.303   1.901  11.661  0.4806  0.4533 -0.6292
 2711SOL    HW119592   4.245   1.906  11.585 -0.0177  1.5912 -0.1777
 2711SOL    HW219593   4.324   1.808  11.654  0.5415  0.7077 -3.7977
 2712SOL     OW19594   1.756   2.609   6.209 -0.6288 -0.5362  0.0771
 2712SOL    HW119595   1.811   2.543   6.251 -0.0285  1.1927  1.9777
 2712SOL    HW219596   1.738   2.671   6.279  0.3742 -0.6197  0.4060
 2713SOL     OW19597   3.319   3.968   5.215  0.1443 -0.2298 -0.4290
 2713SOL    HW119598   3.289   3.916   5.289 -1.8237  0.5073 -0.7010
 2713SOL    HW219599   3.402   3.923   5.198  0.0424 -0.6966  0.3133
 2714SOL     OW19600   0.597   4.012   8.714  0.3187  0.2682 -0.7259
 2714SOL    HW119601   0.539   4.083   8.740  0.4332 -1.1712  3.3957
 2714SOL    HW219602   0.600   3.969   8.799 -0.2249  2.0371  0.1905
 2715SOL     OW19603   0.778   4.619   0.761 -0.1208  0.3561  0.4107
 2715SOL    HW119604   0.838   4.622   0.835 -0.4637 -1.7346  0.7854
 2715SOL    HW219605   0.716   4.555   0.798  0.0758  0.7381  1.4004
 2716SOL     OW19606   2.082   1.638   4.693  0.4838 -0.3861 -0.7861
 2716SOL    HW119607   1.993   1.669   4.674 -1.0041 -2.3057  3.0925
 2716SOL    HW219608   2.079   1.599   4.781  1.4959  1.9347  0.2820
 2717SOL     OW19609   1.448   2.126   7.860  0.3006  0.5514 -0.5526
 2717SOL    HW119610   1.483   2.176   7.934  0.3139  1.9433 -1.5053
 2717SOL    HW219611   1.372   2.182   7.845 -0.4370 -0.5407 -0.8433
 2718SOL     OW19612   1.557   0.771   4.258 -0.1507 -0.3952  0.2508
 2718SOL    HW119613   1.520   0.841   4.312  2.4980  0.1571  1.3208
 2718SOL    HW219614   1.543   0.815   4.173  1.9385 -1.5854 -0.7013
 2719SOL     OW19615   0.978   3.344  15.667  0.2043  0.5070 -0.4740
 2719SOL    HW119616   0.937   3.409  15.724 -0.4038 -0.0918 -0.2340
 2719SOL    HW219617   1.068   3.340  15.700 -0.0862 -0.8127  0.1527
 2720SOL     OW19618   0.424   4.419   3.280 -0.3331  0.0926 -0.1487
 2720SOL    HW119619   0.337   4.401   3.315 -1.0138 -0.6620 -2.2086
 2720SOL    HW219620   0.434   4.503   3.325  1.7919  0.3490 -1.0593
 2721SOL     OW19621   2.981   1.217   9.773  0.0120  0.6074  0.2193
 2721SOL    HW119622   2.986   1.150   9.705 -1.2451 -0.4069  1.1224
 2721SOL    HW219623   3.044   1.174   9.831 -1.2631 -1.7185 -0.1374
 2722SOL     OW19624   0.631   2.819   0.091  0.6385 -0.2097 -0.1474
 2722SOL    HW119625   0.574   2.896   0.097  0.3298 -0.5661  1.5144
 2722SOL    HW219626   0.563   2.751   0.098  1.5259 -1.1686 -0.8835
 2723SOL     OW19627   3.900   0.745  15.007  0.5610  0.0347 -0.2125
 2723SOL    HW119628   3.966   0.745  14.937  0.6608  0.3187 -0.1206
 2723SOL    HW219629   3.886   0.651  15.018  2.3434 -0.0108  1.7167
 2724SOL     OW19630   1.018   1.653   1.866  0.0555 -0.6413  0.2281
 2724SOL    HW119631   0.965   1.732   1.880  0.8392 -0.2556  1.0013
 2724SOL    HW219632   1.026   1.621   1.956  1.4232 -0.2771  0.2343
 2725SOL     OW19633   0.159   4.065   7.313 -0.4137 -0.1729 -0.1121
 2725SOL    HW119634   0.106   4.128   7.265 -1.1635 -0.9695 -0.3264
 2725SOL    HW219635   0.235   4.122   7.323 -3.0160  3.1143  0.7804
 2726SOL     OW19636   4.146   4.001   7.930  0.7002 -0.6669 -0.1490
 2726SOL    HW119637   4.055   3.995   7.958  0.1149  0.3627 -1.8499
 2726SOL    HW219638   4.187   4.049   8.003  0.9320  2.0576 -2.0539
 2727SOL     OW19639   3.661   3.569   5.547 -0.3857 -0.4069  0.0176
 2727SOL    HW119640   3.677   3.495   5.605  1.8215  1.5377  1.9240
 2727SOL    HW219641   3.723   3.549   5.477 -1.1121  1.8889 -1.2919
 2728SOL     OW19642   3.687   2.288   8.387  0.2599 -0.0976  0.7406
 2728SOL    HW119643   3.693   2.328   8.474 -0.6360  0.9457  0.3369
 2728SOL    HW219644   3.778   2.266   8.368  0.5139  1.4050  0.1750
 2729SOL     OW19645   0.361   1.645   5.987  0.1655  0.2218  0.4062
 2729SOL    HW119646   0.295   1.587   5.949 -0.1658  1.9817 -1.7084
 2729SOL    HW219647   0.426   1.636   5.918 -1.9031  0.2956 -1.5457
 2730SOL     OW19648   0.907   2.510  14.657  0.2433 -0.3451  0.6247
 2730SOL    HW119649   0.902   2.491  14.563  0.0760  1.8686  0.1765
 2730SOL    HW219650   0.845   2.583  14.666  3.1665  1.8886  2.4675
 2731SOL     OW19651   0.472   2.777  11.131 -0.3250 -0.1930  0.3091
 2731SOL    HW119652   0.427   2.816  11.056  2.1972 -0.5316 -1.3614
 2731SOL    HW219653   0.474   2.684  11.109 -0.8148 -0.3067  0.7481
 2732SOL     OW19654   4.421   3.998   2.565  0.1953  0.1239 -0.2900
 2732SOL    HW119655   4.453   4.050   2.639 -2.5219  0.7946  0.4226
 2732SOL    HW219656   4.367   4.057   2.513 -1.1530 -0.7995  0.0512
 2733SOL     OW19657   2.847   2.582   2.075 -0.1293  0.1160 -0.1438
 2733SOL    HW119658   2.835   2.493   2.107 -0.1252  0.6465  1.3162
 2733SOL    HW219659   2.934   2.607   2.107  0.5213  0.5686 -2.2006
 2734SOL     OW19660   2.145   0.715  12.824 -0.2070  0.2600  0.4401
 2734SOL    HW119661   2.201   0.691  12.750 -1.6836  3.2135 -1.6085
 2734SOL    HW219662   2.069   0.672  12.785  1.8644 -1.8116 -1.2839
 2735SOL     OW19663   2.644   1.123  10.049 -0.3704 -0.3334  0.2128
 2735SOL    HW119664   2.665   1.030  10.051  0.0410 -0.1904  2.2315
 2735SOL    HW219665   2.564   1.136   9.999  0.3050  2.8091 -0.0559
 2736SOL     OW19666   3.418   1.263   2.022  0.2139 -0.1652  0.2316
 2736SOL    HW119667   3.324   1.270   2.010  0.6158  3.2882 -0.7131
 2736SOL    HW219668   3.455   1.289   1.938  1.2181  0.3107  0.8138
 2737SOL     OW19669   0.232   3.519   3.667 -0.2620  0.0873  0.5978
 2737SOL    HW119670   0.245   3.439   3.617 -2.2657 -0.8949  1.6374
 2737SOL    HW219671   0.152   3.561   3.634 -0.5565 -0.5677  0.4747
 2738SOL     OW19672   3.729   0.226   9.347  0.1500  0.3410 -0.4199
 2738SOL    HW119673   3.654   0.205   9.293 -0.2895  2.7144 -0.7473
 2738SOL    HW219674   3.696   0.277   9.421 -0.8508 -2.4341  1.0363
 2739SOL     OW19675   3.336   2.763  16.877  0.2448 -0.2082 -0.3982
 2739SOL    HW119676   3.326   2.843  16.825  2.4232  0.8317  0.8065
 2739SOL    HW219677   3.360   2.704  16.805 -2.3222 -1.0854 -0.5429
 2740SOL     OW19678   3.212   1.634   1.319 -0.3405  0.1350  0.4189
 2740SOL    HW119679   3.295   1.625   1.272 -0.4940  2.4842 -0.3455
 2740SOL    HW219680   3.147   1.646   1.249  1.2142  0.0595 -1.0355
 2741SOL     OW19681   1.738   1.228   6.223  0.2115 -0.0340  0.2028
 2741SOL    HW119682   1.817   1.264   6.185  1.9144 -1.9955  1.8727
 2741SOL    HW219683   1.770   1.221   6.313  0.5170  1.1414  0.1844
 2742SOL     OW19684   2.307   3.117   5.816  0.3467  0.4995  0.7166
 2742SOL    HW119685   2.351   3.101   5.732 -0.1415 -1.3693  0.8207
 2742SOL    HW219686   2.217   3.099   5.789  0.7810  0.4101 -0.6476
 2743SOL     OW19687   0.560   2.757   9.625 -0.0601  0.1524 -0.4924
 2743SOL    HW119688   0.615   2.754   9.703 -0.5069 -1.6780 -0.2444
 2743SOL    HW219689   0.592   2.679   9.579 -0.5805 -0.2813 -0.1111
 2744SOL     OW19690   0.785   3.309   2.117 -0.0229  0.5113  0.3565
 2744SOL    HW119691   0.722   3.302   2.045  1.7131 -2.3468 -0.9113
 2744SOL    HW219692   0.824   3.391   2.087  0.5364  0.1507  0.0920
 2745SOL     OW19693   1.555   3.426   5.642 -0.5156  0.2191 -0.5527
 2745SOL    HW119694   1.632   3.432   5.698 -1.3585  4.8517  0.0271
 2745SOL    HW219695   1.491   3.392   5.704 -1.1420  0.4680 -1.0544
 2746SOL     OW19696   2.236   0.062   5.399  0.0977  0.2861  0.2131
 2746SOL    HW119697   2.287   0.005   5.456  0.6333  0.3204 -0.2350
 2746SOL    HW219698   2.203   4.719   5.342  0.7999  0.5366 -0.4876
 2747SOL     OW19699   3.064   1.868   2.897 -0.1203  0.1112  0.3764
 2747SOL    HW119700   3.124   1.918   2.841  0.2878 -1.8808 -0.9733
 2747SOL    HW219701   3.110   1.788   2.920  2.3792  0.7452 -2.4596
 2748SOL     OW19702   2.010   1.699   8.465  0.0797 -0.0425  0.2824
 2748SOL    HW119703   2.053   1.687   8.381  0.7661 -0.5731  0.7066
 2748SOL    HW219704   1.930   1.740   8.432  1.1305  2.0261  0.2554
 2749SOL     OW19705   4.507   2.824   3.884  0.9379 -0.2984 -0.3610
 2749SOL    HW119706   4.439   2.825   3.952  0.4037 -0.1872 -0.8997
 2749SOL    HW219707   4.458   2.789   3.810 -0.1365 -0.6557  0.5072
 2750SOL     OW19708   4.235   3.768   8.058  0.2835 -0.0623 -0.3251
 2750SOL    HW119709   4.189   3.835   8.006 -1.3289 -0.3644  0.7453
 2750SOL    HW219710   4.302   3.741   7.995  1.3410  0.3701  0.6065
 2751SOL     OW19711   0.324   3.938   2.422 -0.7339  0.1284 -0.3670
 2751SOL    HW119712   0.393   3.890   2.376  1.1901 -1.2083  3.8791
 2751SOL    HW219713   0.303   3.877   2.493 -1.6306 -0.9750 -1.5795
 2752SOL     OW19714   1.607   4.295  16.853 -0.4241  0.0057 -0.3059
 2752SOL    HW119715   1.656   4.349  16.791 -0.5954  1.1284  0.5204
 2752SOL    HW219716   1.611   4.207  16.817 -1.0489  0.5651 -1.7133
 2753SOL     OW19717   0.360   0.871  15.498 -0.3683  0.0426  0.1970
 2753SOL    HW119718   0.388   0.952  15.455  0.2509  1.4037  3.1735
 2753SOL    HW219719   0.417   0.869  15.575 -0.5791 -3.2765  0.2664
 2754SOL     OW19720   2.055   0.203   4.629 -0.3124 -0.0407  0.0132
 2754SOL    HW119721   2.150   0.211   4.630 -0.2970 -0.1906 -0.9533
 2754SOL    HW219722   2.031   0.161   4.547  3.1921 -3.0498  0.5563
 2755SOL     OW19723   4.588   0.475  10.103  0.0538  0.1771 -0.4306
 2755SOL    HW119724   4.640   0.504  10.177  1.8939  0.0149 -1.6687
 2755SOL    HW219725   4.613   0.382  10.109  2.8318  0.8031 -2.4606
 2756SOL     OW19726   4.544   1.977   8.589  0.3179  0.3958 -0.4642
 2756SOL    HW119727   4.544   2.019   8.502 -0.8465 -0.9919 -1.1406
 2756SOL    HW219728   4.562   2.053   8.643 -0.2022  0.8139 -0.8723
 2757SOL     OW19729   0.039   3.999  10.602 -0.2117  0.8227 -0.0071
 2757SOL    HW119730   4.681   4.012  10.646  0.1675  0.9347  0.6875
 2757SOL    HW219731   0.010   3.991  10.511 -0.0149  2.7162 -0.2531
 2758SOL     OW19732   4.697   4.151   7.105 -0.4837 -0.7317 -0.0014
 2758SOL    HW119733   4.669   4.079   7.048  0.9758 -1.3475  0.0590
 2758SOL    HW219734   0.017   4.208   7.044  0.6393  0.9503  2.4022
 2759SOL     OW19735   0.858   2.967   9.967  0.1716 -0.3050  0.2494
 2759SOL    HW119736   0.940   3.005   9.937  0.2263 -1.0723 -0.5470
 2759SOL    HW219737   0.889   2.909  10.037  0.5961 -0.0265  0.2900
 2760SOL     OW19738   4.134   1.809   2.604  0.9253 -0.4546 -0.6174
 2760SOL    HW119739   4.116   1.798   2.511 -0.4143 -0.8182 -0.3183
 2760SOL    HW219740   4.077   1.881   2.632  1.5829  0.1006 -0.7270
 2761SOL     OW19741   3.758   2.942   3.189 -0.0957  0.6925  0.3393
 2761SOL    HW119742   3.774   2.870   3.128  2.1006  0.6064  1.0228
 2761SOL    HW219743   3.832   2.940   3.250 -0.5609 -0.9559  0.8278
 2762SOL     OW19744   2.935   3.317   6.398  0.3356  0.0584 -0.2213
 2762SOL    HW119745   2.998   3.358   6.456  0.3530  0.1630 -0.3147
 2762SOL    HW219746   2.865   3.383   6.401 -0.1052 -0.3009 -3.0187
 2763SOL     OW19747   1.276   4.216   6.601 -0.5403  0.1966  0.1652
 2763SOL    HW119748   1.327   4.137   6.619 -1.2954 -0.8998 -2.5973
 2763SOL    HW219749   1.189   4.178   6.608  0.2298 -1.8071 -1.4816
 2764SOL     OW19750   2.400   0.832   2.552 -0.0870  0.1702 -0.0553
 2764SOL    HW119751   2.363   0.745   2.563 -1.9751  0.6105 -2.9061
 2764SOL    HW219752   2.441   0.824   2.465  2.7221 -1.3547  1.4159
 2765SOL     OW19753   2.249   4.071   7.319 -0.1776  0.4027  0.0951
 2765SOL    HW119754   2.269   3.996   7.375 -0.8509 -0.2491 -0.5358
 2765SOL    HW219755   2.260   4.140   7.384 -0.2658  0.6977 -0.1989
 2766SOL     OW19756   3.853   0.708   7.532 -0.0583 -0.1266  0.6458
 2766SOL    HW119757   3.759   0.716   7.548 -0.0593  0.3284  0.4041
 2766SOL    HW219758   3.880   0.765   7.604  2.4898  1.7796 -1.8707
 2767SOL     OW19759   3.260   1.414   6.161  0.0947  0.5266  0.3429
 2767SOL    HW119760   3.263   1.443   6.070  0.1393 -2.1713 -0.5244
 2767SOL    HW219761   3.177   1.451   6.192 -0.7330 -0.2374 -0.9555
 2768SOL     OW19762   0.258   4.249   6.398  0.7736  0.1422  0.5242
 2768SOL    HW119763   0.301   4.170   6.432  1.4375 -0.4950 -1.8462
 2768SOL    HW219764   0.319   4.283   6.332  0.0599  1.7016  0.6579
 2769SOL     OW19765   1.927   0.783  17.634 -0.1287  0.4301  0.1203
 2769SOL    HW119766   1.902   0.751  17.548 -0.7183  2.2945 -0.4100
 2769SOL    HW219767   2.019   0.758  17.623 -1.1682 -3.9556  1.4543
 2770SOL     OW19768   4.191   1.855  14.078 -0.3193 -0.0469  0.2410
 2770SOL    HW119769   4.163   1.946  14.065 -1.8965 -0.4955  0.5001
 2770SOL    HW219770   4.180   1.827  13.987 -0.8481  0.8818  0.0215
 2771SOL     OW19771   1.848   2.100   4.398  0.4510 -0.1653 -0.6251
 2771SOL    HW119772   1.802   2.163   4.453 -2.2276 -0.9880 -1.9183
 2771SOL    HW219773   1.891   2.161   4.338  3.9111  0.0100  2.0009
 2772SOL     OW19774   4.059   1.562   3.307  0.2935  0.2034 -0.0261
 2772SOL    HW119775   4.022   1.613   3.379 -1.5311 -0.3599 -0.5662
 2772SOL    HW219776   4.116   1.502   3.355  0.2423  0.2589  0.1051
 2773SOL     OW19777   0.028   2.770   7.995  0.7362  0.0817  0.2071
 2773SOL    HW119778   0.087   2.717   8.047  1.6062  0.9371  0.0859
 2773SOL    HW219779   4.698   2.704   7.952 -0.5890 -0.6655  3.1062
 2774SOL     OW19780   3.933   2.937   3.796 -0.3861 -0.0632  0.0921
 2774SOL    HW119781   4.014   2.958   3.749 -0.6960  0.9006 -0.0257
 2774SOL    HW219782   3.969   2.918   3.882 -0.7416  0.3293  0.3264
 2775SOL     OW19783   2.739   3.803   5.489  0.0804 -0.0535  0.3511
 2775SOL    HW119784   2.648   3.809   5.457 -0.1642  1.2937  1.2916
 2775SOL    HW219785   2.729   3.856   5.568 -0.2556  0.4098  0.0041
 2776SOL     OW19786   3.235   4.404   3.819  0.1765 -0.0994 -0.0613
 2776SOL    HW119787   3.235   4.486   3.770 -1.1890 -0.5988 -0.8868
 2776SOL    HW219788   3.316   4.403   3.870 -0.7642  0.2264  1.4158
 2777SOL     OW19789   3.143   3.700   0.220  0.1532  0.0368 -0.0256
 2777SOL    HW119790   3.227   3.657   0.205 -0.6926 -1.4059 -0.5789
 2777SOL    HW219791   3.141   3.731   0.129 -2.1032 -1.5768 -0.5050
 2778SOL     OW19792   2.389   3.042  10.865 -0.1424  0.6420 -0.0135
 2778SOL    HW119793   2.390   3.070  10.773  3.4993  0.0872 -0.1561
 2778SOL    HW219794   2.300   3.060  10.893 -0.5236  0.5632 -1.1761
 2779SOL     OW19795   3.844   2.620  16.133 -0.0217 -0.0847 -0.3419
 2779SOL    HW119796   3.910   2.672  16.180  1.1451 -0.6126 -1.3793
 2779SOL    HW219797   3.902   2.546  16.111  2.4186  0.8596  2.8376
 2780SOL     OW19798   2.461   0.265   3.857 -0.6532  0.2031 -0.2340
 2780SOL    HW119799   2.528   0.331   3.875  0.0473 -0.9044  1.1845
 2780SOL    HW219800   2.422   0.266   3.944  1.2691  2.3528  0.5989
 2781SOL     OW19801   4.556   3.133   6.929 -0.2493  0.4535 -0.3147
 2781SOL    HW119802   4.570   3.227   6.941  1.2849  0.0734  0.9346
 2781SOL    HW219803   4.484   3.131   6.866 -0.9586  0.1255  0.5112
 2782SOL     OW19804   4.202   1.596   3.030 -0.1025  0.1153 -0.0130
 2782SOL    HW119805   4.266   1.572   2.963  0.9221  0.5951  0.7816
 2782SOL    HW219806   4.122   1.602   2.979 -0.5019 -1.5920  0.3911
 2783SOL     OW19807   2.285   2.882   2.496  0.5071  0.1771 -0.2102
 2783SOL    HW119808   2.203   2.889   2.448  0.2365 -3.6049 -0.3307
 2783SOL    HW219809   2.346   2.881   2.422  0.9524 -0.7179  0.1573
 2784SOL     OW19810   3.460   0.784   8.907  0.1685  0.0642  0.4106
 2784SOL    HW119811   3.523   0.711   8.906  1.2952  0.9961  1.9406
 2784SOL    HW219812   3.384   0.747   8.952 -1.3445  1.9745 -0.6001
 2785SOL     OW19813   1.702   2.097  12.181  0.0176 -0.4133 -0.2799
 2785SOL    HW119814   1.760   2.057  12.117  1.3883  0.3292  0.4910
 2785SOL    HW219815   1.766   2.104  12.251 -1.0743  1.1857  0.5705
 2786SOL     OW19816   0.839   1.170   5.876  0.2796  0.5065 -0.1415
 2786SOL    HW119817   0.796   1.209   5.800  1.2381  3.3928  0.7865
 2786SOL    HW219818   0.915   1.226   5.891  2.5946 -2.1242 -2.1092
 2787SOL     OW19819   3.113   1.401  10.374  0.0222  0.6497 -0.3780
 2787SOL    HW119820   3.062   1.465  10.424  2.5870  2.0534  0.4143
 2787SOL    HW219821   3.056   1.390  10.298 -0.4213 -1.6510  0.2728
 2788SOL     OW19822   2.634   0.543   6.258  0.1047  0.0562 -0.2294
 2788SOL    HW119823   2.590   0.627   6.270 -0.5261 -0.2066 -0.7623
 2788SOL    HW219824   2.581   0.480   6.305 -0.5035  0.4958 -0.3284
 2789SOL     OW19825   4.151   0.006   9.029 -0.5059  0.2983  0.2861
 2789SOL    HW119826   4.065   4.689   9.026  0.1311 -0.9839  0.0701
 2789SOL    HW219827   4.192   4.672   9.092 -1.0107 -0.2886  0.0745
 2790SOL     OW19828   4.569   1.279   8.249  0.5234 -0.2485 -0.0943
 2790SOL    HW119829   4.536   1.236   8.328 -2.9745  1.5746 -0.5879
 2790SOL    HW219830   4.605   1.359   8.286  0.0222 -0.3230  0.5440
 2791SOL     OW19831   0.124   0.441  15.146 -0.1644 -0.3183  0.1887
 2791SOL    HW119832   0.066   0.430  15.070  0.5783 -0.5188 -0.3475
 2791SOL    HW219833   0.063   0.446  15.219  1.0235 -2.7721  1.3389
 2792SOL     OW19834   2.963   0.807   8.532  0.2759 -0.1272 -0.4005
 2792SOL    HW119835   3.040   0.770   8.488 -0.4801 -0.0750 -1.7613
 2792SOL    HW219836   2.990   0.786   8.621 -0.2964  1.5048  0.1643
 2793SOL     OW19837   4.392   1.523   7.119  0.5458  0.1611 -0.1906
 2793SOL    HW119838   4.301   1.526   7.088 -0.1569 -0.2643  1.7934
 2793SOL    HW219839   4.398   1.605   7.168  0.0273 -0.1598  0.4052
 2794SOL     OW19840   2.602   3.508  11.844 -0.6476 -0.1631 -0.1516
 2794SOL    HW119841   2.614   3.602  11.835 -1.6648  0.0897  1.0801
 2794SOL    HW219842   2.688   3.466  11.836  1.3846  3.3080  3.5844
 2795SOL     OW19843   4.519   0.086  12.305  0.0113 -0.8480  0.1011
 2795SOL    HW119844   4.555   0.015  12.251  0.7011  0.7459 -1.5406
 2795SOL    HW219845   4.425   0.085  12.288 -0.2977 -0.8939  1.8499
 2796SOL     OW19846   2.263   1.964  12.643 -0.0565  0.4772  0.1640
 2796SOL    HW119847   2.216   2.023  12.702 -0.9018 -0.1155  0.0784
 2796SOL    HW219848   2.338   1.948  12.701  0.4723 -3.2785 -1.5126
 2797SOL     OW19849   0.177   3.001   1.790  0.9405  0.6079 -1.0181
 2797SOL    HW119850   0.122   3.021   1.714 -0.3192 -0.6705 -0.4488
 2797SOL    HW219851   0.259   2.985   1.745  1.0059  0.8687 -0.9899
 2798SOL     OW19852   1.349   1.040  12.475 -0.3476 -0.5086  0.0291
 2798SOL    HW119853   1.341   1.119  12.423  0.6856 -0.9109 -0.7288
 2798SOL    HW219854   1.411   0.991  12.422 -1.6331  0.8367 -2.6762
 2799SOL     OW19855   0.844   0.077   5.294 -0.0838 -0.2979 -0.7128
 2799SOL    HW119856   0.937   0.098   5.283 -0.1764 -1.4891 -3.9116
 2799SOL    HW219857   0.848   4.708   5.286 -0.5029 -0.3254 -0.6074
 2800SOL     OW19858   2.145   0.480   8.926 -0.4240 -0.6552  0.1201
 2800SOL    HW119859   2.141   0.473   9.022  0.7716 -1.3741  0.1210
 2800SOL    HW219860   2.205   0.552   8.906 -0.1812 -1.0551 -0.5755
 2801SOL     OW19861   0.366   3.005   6.860 -0.2171 -0.0054 -0.4319
 2801SOL    HW119862   0.312   3.062   6.914 -1.2849 -1.6385  0.2451
 2801SOL    HW219863   0.413   2.963   6.932 -1.1039  1.8132  1.1975
 2802SOL     OW19864   4.048   4.272   1.448  0.1775  0.2489 -0.5526
 2802SOL    HW119865   3.984   4.222   1.500 -0.8992  0.4565 -1.6706
 2802SOL    HW219866   4.121   4.271   1.510  2.0471 -2.0253 -2.8134
 2803SOL     OW19867   2.687   2.991   7.876  0.2407  0.2208 -0.5979
 2803SOL    HW119868   2.690   3.028   7.964  1.0012 -1.8125  0.2217
 2803SOL    HW219869   2.615   2.929   7.889  0.5626 -0.0402 -0.0748
 2804SOL     OW19870   2.758   1.951   1.817 -0.5471  0.3432  0.3450
 2804SOL    HW119871   2.784   1.899   1.740 -1.6897  0.0132  0.1910
 2804SOL    HW219872   2.711   2.026   1.781 -0.6857  1.2388  2.3966
 2805SOL     OW19873   2.386   4.494   5.433 -0.1588 -0.1612  0.8401
 2805SOL    HW119874   2.339   4.453   5.506 -0.3897  0.8712  1.2701
 2805SOL    HW219875   2.371   4.423   5.370 -0.1948 -1.4882  2.3452
 2806SOL     OW19876   4.180   3.960  14.712 -0.2095 -0.3850 -0.1582
 2806SOL    HW119877   4.099   3.925  14.674 -0.2866 -0.6494  0.2491
 2806SOL    HW219878   4.241   3.914  14.655  0.6892  0.1867  0.3568
 2807SOL     OW19879   0.198   0.703   2.621  0.0026 -0.0407 -0.3223
 2807SOL    HW119880   0.258   0.629   2.610 -0.4174 -0.3557 -0.5035
 2807SOL    HW219881   0.253   0.780   2.633  1.1183 -0.5462 -2.2703
 2808SOL     OW19882   3.051   4.292   6.778 -0.4027 -0.2404 -0.5919
 2808SOL    HW119883   2.977   4.343   6.744 -1.3010 -1.6480 -0.7386
 2808SOL    HW219884   3.085   4.253   6.698  0.3015 -1.2157  0.1787
 2809SOL     OW19885   0.249   4.204   6.855 -0.0827 -0.5193 -0.0292
 2809SOL    HW119886   0.182   4.195   6.787  1.1082  0.4226 -1.3231
 2809SOL    HW219887   0.193   4.240   6.924 -1.9258 -5.4758  1.0844
 2810SOL     OW19888   1.000   1.233   3.404 -0.4534 -0.0992 -0.2116
 2810SOL    HW119889   0.924   1.242   3.347  0.8759 -0.1174 -1.9733
 2810SOL    HW219890   0.956   1.258   3.486 -0.3625 -1.0322  0.1160
 2811SOL     OW19891   0.620   0.552   6.576  0.1030  0.0474  0.1865
 2811SOL    HW119892   0.559   0.614   6.537 -0.1112 -0.9332 -1.0206
 2811SOL    HW219893   0.677   0.610   6.627 -2.6878  0.5398  2.7087
 2812SOL     OW19894   3.890   2.842   2.750  0.6595  0.0833 -0.0101
 2812SOL    HW119895   3.907   2.818   2.659 -2.6269 -0.7466 -0.4117
 2812SOL    HW219896   3.815   2.900   2.737  0.9888  0.4089 -0.4370
 2813SOL     OW19897   1.006   3.572   3.903  0.0068  0.8381  0.1859
 2813SOL    HW119898   1.060   3.590   3.826 -2.3384 -0.7305 -1.7953
 2813SOL    HW219899   0.964   3.657   3.916  2.6047  2.1830 -0.1993
 2814SOL     OW19900   3.197   2.043   7.968  0.4116 -0.4270 -0.3483
 2814SOL    HW119901   3.141   1.987   8.022  1.7129 -0.4482  0.9772
 2814SOL    HW219902   3.227   2.118   8.019 -1.4644  0.7823 -0.9984
 2815SOL     OW19903   2.125   0.503   5.860 -0.4403 -0.1514 -0.3616
 2815SOL    HW119904   2.076   0.578   5.895  0.3555  0.6110 -0.8816
 2815SOL    HW219905   2.059   0.459   5.806  0.2139 -0.5004 -0.8701
 2816SOL     OW19906   3.525   0.022   9.293 -0.1581 -0.1517 -0.3799
 2816SOL    HW119907   3.574   4.673   9.258  0.7230  0.8485 -1.2643
 2816SOL    HW219908   3.451   0.024   9.231 -0.5804  2.5803  0.2364
 2817SOL     OW19909   4.604   2.621  11.101  0.5057  0.3190  0.1166
 2817SOL    HW119910   4.655   2.648  11.178 -0.5077 -1.0312  1.2605
 2817SOL    HW219911   4.628   2.529  11.095 -2.2266 -0.4645  1.3408
 2818SOL     OW19912   3.081   2.193   3.143  0.2132 -0.0320  0.2346
 2818SOL    HW119913   3.010   2.128   3.136  0.1177  0.4366 -3.3404
 2818SOL    HW219914   3.024   2.255   3.189 -0.9552  0.7306 -2.2373
 2819SOL     OW19915   1.471   3.727   0.853 -0.3648  0.1493 -0.3095
 2819SOL    HW119916   1.519   3.668   0.910  0.5982  1.2327  0.0148
 2819SOL    HW219917   1.379   3.706   0.867 -0.1800  0.0851  0.7936
 2820SOL     OW19918   3.517   1.967   5.221 -0.3924 -0.1123  0.1928
 2820SOL    HW119919   3.540   1.879   5.192 -1.7514 -0.1642 -0.7608
 2820SOL    HW219920   3.594   2.017   5.195  0.3907 -2.5266 -2.0622
 2821SOL     OW19921   3.033   4.464  15.336 -0.3980  0.4244 -0.6912
 2821SOL    HW119922   3.068   4.439  15.250 -0.3195  0.1594 -0.5836
 2821SOL    HW219923   2.971   4.527  15.299 -0.1859  0.1946 -1.4277
 2822SOL     OW19924   3.574   2.888   1.339 -0.3234 -0.6544 -0.4198
 2822SOL    HW119925   3.666   2.861   1.344  0.1883  0.6560 -2.6646
 2822SOL    HW219926   3.542   2.858   1.424 -1.1060  0.2244 -0.4080
 2823SOL     OW19927   2.870   0.560   3.225  0.1520 -0.1743 -0.1101
 2823SOL    HW119928   2.879   0.655   3.232  0.3566 -0.2321  0.3684
 2823SOL    HW219929   2.804   0.567   3.156  0.5902 -1.9501 -0.7054
 2824SOL     OW19930   2.616   4.232   8.885 -0.1240  0.3050  0.8678
 2824SOL    HW119931   2.643   4.271   8.968 -0.2757  1.8706  0.1933
 2824SOL    HW219932   2.529   4.199   8.908 -0.7403  1.5991  0.4172
 2825SOL     OW19933   0.496   1.656   2.787 -0.2585 -0.0656 -0.3306
 2825SOL    HW119934   0.552   1.686   2.858  0.1177 -1.0393 -0.2221
 2825SOL    HW219935   0.488   1.562   2.803 -0.8692  0.1550  0.6525
 2826SOL     OW19936   0.438   1.187  10.138  0.4684  0.3015 -0.3030
 2826SOL    HW119937   0.478   1.265  10.175  0.0705  0.5529 -0.4027
 2826SOL    HW219938   0.415   1.148  10.222 -0.7980  1.1373 -0.2516
 2827SOL     OW19939   4.387   2.372   2.474  0.3407  0.3685  0.7338
 2827SOL    HW119940   4.458   2.334   2.525  0.0814 -1.0142  0.0532
 2827SOL    HW219941   4.423   2.379   2.385 -0.4619  0.1440  0.3873
 2828SOL     OW19942   3.400   3.969   2.450 -0.3450  0.7005  0.0599
 2828SOL    HW119943   3.435   4.056   2.473  1.4254 -0.0368  0.1941
 2828SOL    HW219944   3.430   3.964   2.359 -1.1780 -1.7934 -0.0653
 2829SOL     OW19945   3.367   3.437  10.761  0.1372  0.2240  0.9419
 2829SOL    HW119946   3.310   3.373  10.803  2.3911 -1.9628  0.6822
 2829SOL    HW219947   3.327   3.522  10.781 -1.0253 -0.1540  0.1919
 2830SOL     OW19948   3.332   4.009   3.489 -0.6261  0.3401  0.8989
 2830SOL    HW119949   3.268   3.990   3.557 -0.2637  2.2004  1.7720
 2830SOL    HW219950   3.267   4.029   3.421 -0.2101  2.5203  1.1322
 2831SOL     OW19951   0.399   0.149   8.147 -0.1794  0.3976 -0.2313
 2831SOL    HW119952   0.442   0.170   8.064 -1.2564  1.4322 -0.5374
 2831SOL    HW219953   0.359   0.065   8.127  0.2470 -0.2968  1.8654
 2832SOL     OW19954   2.416   3.060   6.476 -0.7632 -0.3971 -0.0673
 2832SOL    HW119955   2.325   3.029   6.473 -0.2273 -1.9814  0.0759
 2832SOL    HW219956   2.456   2.986   6.521 -1.3588 -0.3526  0.5442
 2833SOL     OW19957   2.672   0.438   9.467  0.1039  0.0461  0.0787
 2833SOL    HW119958   2.611   0.501   9.428 -0.2976  0.1655  0.8887
 2833SOL    HW219959   2.742   0.496   9.496  0.8756 -0.5810 -0.5315
 2834SOL     OW19960   4.570   2.661  16.456  0.1920  0.6482  0.2079
 2834SOL    HW119961   4.639   2.645  16.391 -2.4450 -0.7000 -2.2829
 2834SOL    HW219962   4.517   2.582  16.450 -1.8356  2.1246 -1.2498
 2835SOL     OW19963   2.534   0.663  12.676 -0.0260 -0.8375  0.0297
 2835SOL    HW119964   2.610   0.701  12.720 -0.0361  1.3882 -1.8602
 2835SOL    HW219965   2.529   0.588  12.735  0.4455 -1.2692 -0.4645
 2836SOL     OW19966   3.385   2.810   5.337 -0.4223  0.6110 -0.3255
 2836SOL    HW119967   3.309   2.863   5.359 -1.1348  0.0054 -1.3290
 2836SOL    HW219968   3.455   2.852   5.385 -0.3528  0.4847 -0.3149
 2837SOL     OW19969   4.725   3.603   5.784  0.2017 -0.3353  0.7115
 2837SOL    HW119970   4.704   3.689   5.819  2.0149  0.5368 -0.3437
 2837SOL    HW219971   0.088   3.596   5.821  0.6038  0.7384 -0.0542
 2838SOL     OW19972   1.311   4.340   8.784 -0.8865 -0.7259 -0.0181
 2838SOL    HW119973   1.391   4.393   8.788  0.5342 -2.8062 -0.9010
 2838SOL    HW219974   1.268   4.364   8.866  1.4043 -0.6362  1.1626
 2839SOL     OW19975   1.301   0.862   0.175 -0.1412  0.1909  0.0826
 2839SOL    HW119976   1.383   0.912   0.179 -0.2996  0.3758  1.0458
 2839SOL    HW219977   1.304   0.776   0.216  0.5388  0.3231  0.3157
 2840SOL     OW19978   2.812   0.370   2.820 -0.3405 -0.4009  0.0096
 2840SOL    HW119979   2.820   0.457   2.861  1.4938 -0.0741 -1.0523
 2840SOL    HW219980   2.793   0.400   2.731  4.2166 -1.0071 -1.1391
 2841SOL     OW19981   1.924   4.191   7.686 -0.0686 -0.1571  0.5281
 2841SOL    HW119982   1.878   4.228   7.612 -0.6764  0.7716  1.3754
 2841SOL    HW219983   1.915   4.096   7.675  2.4467 -0.0354 -2.5587
 2842SOL     OW19984   0.235   1.057   6.453  0.0208  0.0633  0.2443
 2842SOL    HW119985   0.319   1.077   6.413 -0.9329  1.0381 -1.2305
 2842SOL    HW219986   0.211   1.144   6.484 -0.2689  0.2320 -0.4573
 2843SOL     OW19987   1.765   0.851   7.671 -0.6755  0.0445 -0.3955
 2843SOL    HW119988   1.774   0.941   7.639 -3.2694  0.3828 -0.1525
 2843SOL    HW219989   1.727   0.808   7.595 -0.5733  2.6257 -1.9290
 2844SOL     OW19990   0.652   3.073   6.259 -0.4096  0.2233 -0.2419
 2844SOL    HW119991   0.659   2.980   6.277  0.1150 -0.1175 -2.1896
 2844SOL    HW219992   0.582   3.072   6.193 -1.3774  0.4004  0.7910
 2845SOL     OW19993   3.369   4.291   0.443  0.0909  0.0609  0.3275
 2845SOL    HW119994   3.331   4.259   0.361 -2.1719 -0.6646  1.6930
 2845SOL    HW219995   3.461   4.275   0.419  0.4782  1.8723  0.5654
 2846SOL     OW19996   4.705   0.575   5.714 -0.1934  0.3468 -0.2618
 2846SOL    HW119997   0.027   0.554   5.634  2.2011  2.1262  0.7040
 2846SOL    HW219998   0.051   0.560   5.776  0.2468  0.5930 -0.7124
 2847SOL     OW19999   4.205   2.825   5.434  0.0249  0.2825  0.1829
 2847SOL    HW120000   4.235   2.891   5.372 -2.1501  0.4900 -0.6537
 2847SOL    HW220001   4.116   2.860   5.443  1.0856  2.3850  2.3507
 2848SOL     OW20002   2.082   3.313   7.015 -0.6811 -0.1887  1.1143
 2848SOL    HW120003   2.006   3.262   7.043 -0.5252 -0.4779  1.0092
 2848SOL    HW220004   2.121   3.253   6.952  1.4060 -0.7131  2.9273
 2849SOL     OW20005   0.067   2.361   8.691  0.1151 -0.1739  0.3173
 2849SOL    HW120006   4.701   2.388   8.689  0.0397 -0.4866 -0.9022
 2849SOL    HW220007   0.095   2.378   8.600  0.6799  2.5907  1.0094
 2850SOL     OW20008   4.506   1.512   6.849 -0.7103 -0.5096  0.4836
 2850SOL    HW120009   4.439   1.568   6.809  1.1793  2.7774  2.0025
 2850SOL    HW220010   4.477   1.527   6.939 -0.4883 -0.9124  0.6215
 2851SOL     OW20011   3.561   0.584   6.575 -0.1875  0.6890  0.4495
 2851SOL    HW120012   3.627   0.649   6.551  1.9309 -1.2023  1.0828
 2851SOL    HW220013   3.574   0.586   6.669  2.5069 -2.4075  0.1572
 2852SOL     OW20014   0.642   1.330   2.210 -0.0392  0.8283 -0.1079
 2852SOL    HW120015   0.592   1.333   2.129  0.3766 -1.0794 -0.4339
 2852SOL    HW220016   0.588   1.274   2.266  0.4169  0.3224 -0.1681
 2853SOL     OW20017   1.952   2.137   6.975  0.3050 -0.3951  0.3329
 2853SOL    HW120018   1.904   2.190   7.038 -1.7279 -0.7477 -0.9133
 2853SOL    HW220019   1.881   2.106   6.918  0.4792  0.4091 -0.3154
 2854SOL     OW20020   1.001   2.070  13.985 -0.1221 -0.6458 -0.2946
 2854SOL    HW120021   0.917   2.106  13.957  1.1734 -0.3152 -3.7529
 2854SOL    HW220022   1.053   2.060  13.906  0.2100  2.7011 -0.4710
 2855SOL     OW20023   0.360   1.096  14.012 -0.1201 -0.4499 -0.0927
 2855SOL    HW120024   0.356   1.105  14.107  0.9125 -4.1232  0.3077
 2855SOL    HW220025   0.428   1.163  14.015 -0.8463  0.1753  2.6598
 2856SOL     OW20026   2.603   0.501   6.966 -0.0339  0.5163 -0.1337
 2856SOL    HW120027   2.567   0.518   7.053 -1.2596 -0.6491 -0.4304
 2856SOL    HW220028   2.686   0.455   6.975 -1.1504 -1.2775  0.9492
 2857SOL     OW20029   0.129   0.631   8.367  0.3088  0.1093 -0.2229
 2857SOL    HW120030   0.103   0.722   8.362 -1.7958 -0.6038 -1.9060
 2857SOL    HW220031   0.056   0.583   8.328 -0.4643  1.6056 -0.5798
 2858SOL     OW20032   0.662   1.514  16.728  0.5026 -0.0223  0.0139
 2858SOL    HW120033   0.590   1.505  16.665  0.6843  1.3742 -0.3821
 2858SOL    HW220034   0.715   1.438  16.707  0.2302 -0.6740  1.6664
 2859SOL     OW20035   3.564   0.141   4.551 -0.7663  0.2318  0.4694
 2859SOL    HW120036   3.654   0.117   4.530 -1.0414  0.6952 -1.2865
 2859SOL    HW220037   3.547   0.169   4.461  0.5694 -1.7482 -0.3887
 2860SOL     OW20038   4.688   2.803  17.526  0.2855  0.0861 -0.3450
 2860SOL    HW120039   4.704   2.821  17.618 -0.1380 -0.5579 -0.1489
 2860SOL    HW220040   4.700   2.890  17.487  0.4853 -0.1293 -0.7684
 2861SOL     OW20041   2.964   0.637   6.746 -0.2727  0.4961  0.4785
 2861SOL    HW120042   2.987   0.544   6.740 -1.3207  0.4175 -2.1294
 2861SOL    HW220043   2.885   0.638   6.691  1.2684 -2.1584 -1.7554
 2862SOL     OW20044   1.287   0.790   7.231  0.6664 -0.1300 -0.2735
 2862SOL    HW120045   1.301   0.827   7.318  1.7143  2.2016 -1.4273
 2862SOL    HW220046   1.344   0.714   7.240  0.0981 -0.3244  1.5264
 2863SOL     OW20047   0.513   1.821   4.076  0.7676  0.4166  0.0044
 2863SOL    HW120048   0.501   1.909   4.041 -2.0867  0.4159  0.9594
 2863SOL    HW220049   0.490   1.773   3.996 -1.0175  0.0013  0.7501
 2864SOL     OW20050   1.546   2.559  17.124 -0.0866  0.4567  0.3507
 2864SOL    HW120051   1.471   2.587  17.176 -0.0174  0.1629  0.6097
 2864SOL    HW220052   1.592   2.636  17.089  0.6803 -0.5000 -0.7739
 2865SOL     OW20053   1.825   3.733  17.585  0.3939 -0.1788 -0.0827
 2865SOL    HW120054   1.831   3.655  17.640 -1.7822 -0.1308  0.1885
 2865SOL    HW220055   1.903   3.777  17.620 -0.2133 -0.1832  1.2721
 2866SOL     OW20056   0.588   2.512   3.351  0.0763 -0.3007  0.4328
 2866SOL    HW120057   0.530   2.532   3.423 -2.2158 -0.0399 -1.4886
 2866SOL    HW220058   0.527   2.509   3.277 -0.6083 -1.1766  1.0406
 2867SOL     OW20059   1.230   4.508   7.033  0.3066  0.6048 -0.4627
 2867SOL    HW120060   1.236   4.413   7.042  0.5350  0.9237  2.5382
 2867SOL    HW220061   1.226   4.502   6.937  1.6960  0.9439 -0.5388
 2868SOL     OW20062   4.143   0.600   6.892  0.3305 -0.4122  0.5720
 2868SOL    HW120063   4.062   0.606   6.842  1.2454  1.7992 -0.6618
 2868SOL    HW220064   4.199   0.659   6.841 -1.3518  0.5794 -0.1318
 2869SOL     OW20065   1.750   2.965   2.564  0.3301  0.6947 -0.1102
 2869SOL    HW120066   1.683   2.897   2.566  0.8539  0.1225 -2.4178
 2869SOL    HW220067   1.713   3.012   2.490 -0.3842 -3.1311 -2.2266
 2870SOL     OW20068   1.669   3.734   7.685  0.0342  0.7188 -0.2661
 2870SOL    HW120069   1.654   3.788   7.762  1.1004 -2.9490  2.4844
 2870SOL    HW220070   1.725   3.662   7.715  0.8817  0.7941 -1.6732
 2871SOL     OW20071   1.805   1.846   7.992 -0.0367 -0.4218  0.3145
 2871SOL    HW120072   1.873   1.827   7.927 -3.0496  3.5831 -3.9894
 2871SOL    HW220073   1.817   1.756   8.021  0.9402 -0.4253 -0.0974
 2872SOL     OW20074   1.478   2.816  15.509 -0.2334  0.3580 -0.3843
 2872SOL    HW120075   1.409   2.858  15.457  0.2052  3.2190  1.3902
 2872SOL    HW220076   1.476   2.725  15.478  0.4471  0.0997  0.3256
 2873SOL     OW20077   2.261   0.461   5.609 -0.0250  0.2196 -0.3709
 2873SOL    HW120078   2.235   0.477   5.699 -3.7240 -1.2656 -1.1760
 2873SOL    HW220079   2.317   0.389   5.637 -2.8912 -1.7361  0.3823
 2874SOL     OW20080   1.552   0.286  11.956  0.4081  0.1769 -0.3885
 2874SOL    HW120081   1.581   0.262  11.868 -2.1319  0.6900 -1.3602
 2874SOL    HW220082   1.527   0.377  11.940  3.7729  0.9139 -1.4840
 2875SOL     OW20083   3.317   2.316  11.096 -0.7279  0.1353  0.5000
 2875SOL    HW120084   3.318   2.301  11.002 -1.4740  1.4719  0.2761
 2875SOL    HW220085   3.408   2.345  11.104 -0.3519 -0.8528 -0.2316
 2876SOL     OW20086   1.554   3.134   2.546  0.3055  0.9512 -0.0807
 2876SOL    HW120087   1.565   3.226   2.566 -0.7517  0.7654  1.3675
 2876SOL    HW220088   1.505   3.111   2.626 -0.5315  0.7219 -0.6591
 2877SOL     OW20089   2.310   0.646   3.698  0.7168 -0.0827  0.5128
 2877SOL    HW120090   2.269   0.663   3.783  2.3126  0.3164  1.2041
 2877SOL    HW220091   2.278   0.556   3.689  2.3034 -0.2585 -3.4727
 2878SOL     OW20092   1.144   0.997   3.321 -0.2095 -0.5487 -0.6362
 2878SOL    HW120093   1.092   0.953   3.388  1.8966 -2.1699 -0.0626
 2878SOL    HW220094   1.104   1.083   3.336 -3.0271 -1.9983  0.0194
 2879SOL     OW20095   4.604   3.686  13.023  0.0144 -0.2254 -0.0570
 2879SOL    HW120096   4.596   3.653  12.933  0.0781  0.8791 -0.4652
 2879SOL    HW220097   4.521   3.668  13.068 -0.7486  2.3867 -0.4090
 2880SOL     OW20098   4.340   0.806   9.033  0.1630  0.4002 -0.2271
 2880SOL    HW120099   4.313   0.777   8.946  0.3574  0.3546 -0.2734
 2880SOL    HW220100   4.345   0.901   9.025 -1.5252  0.4361 -0.7393
 2881SOL     OW20101   2.393   3.999  15.015  0.6648  0.5649  0.3712
 2881SOL    HW120102   2.425   3.987  15.104  0.1255 -1.8517  0.2479
 2881SOL    HW220103   2.369   4.090  15.033  2.1089  0.7551  1.3643
 2882SOL     OW20104   1.219   1.741  10.384 -0.3084 -0.5593  0.2554
 2882SOL    HW120105   1.290   1.734  10.449 -1.8213 -2.3516  1.7376
 2882SOL    HW220106   1.256   1.705  10.303  0.8915 -0.7436  0.8720
 2883SOL     OW20107   3.649   2.395   7.443 -0.0986  0.3395  0.2231
 2883SOL    HW120108   3.733   2.369   7.481  0.2433  1.0110 -0.0775
 2883SOL    HW220109   3.663   2.489   7.438  0.6224  0.2944  1.3925
 2884SOL     OW20110   2.467   0.664  10.194  0.0661 -0.0939  0.3376
 2884SOL    HW120111   2.552   0.631  10.224 -0.1193 -2.1388 -1.4024
 2884SOL    HW220112   2.440   0.590  10.139 -0.0881  0.3403 -0.1638
 2885SOL     OW20113   0.313   0.474   5.960  0.3872  0.4767 -0.5988
 2885SOL    HW120114   0.274   0.399   5.916  1.5506 -0.6477  0.2595
 2885SOL    HW220115   0.357   0.426   6.031 -1.5557  1.4401  1.2261
 2886SOL     OW20116   3.658   4.127   4.744 -0.5735 -0.2828  0.3262
 2886SOL    HW120117   3.649   4.107   4.837 -2.1571 -1.2830 -0.0514
 2886SOL    HW220118   3.574   4.103   4.705 -0.6360  0.8145 -0.2046
 2887SOL     OW20119   4.688   4.542   7.126 -0.0817  0.2258 -0.3320
 2887SOL    HW120120   4.696   4.599   7.202  1.0954 -0.0402 -0.2509
 2887SOL    HW220121   4.641   4.608   7.075  0.6670  0.9927 -0.0273
 2888SOL     OW20122   0.001   0.101   7.802  0.0556  0.1138 -0.4116
 2888SOL    HW120123   0.001   0.047   7.882 -0.8336  0.7838  0.0378
 2888SOL    HW220124   0.031   0.030   7.745 -1.0300 -1.1137  0.5352
 2889SOL     OW20125   3.267   3.182   3.492  0.2258  0.3246 -0.0622
 2889SOL    HW120126   3.315   3.129   3.429 -1.1347  0.4519 -1.2032
 2889SOL    HW220127   3.237   3.251   3.434  0.9394 -0.0654 -0.8818
 2890SOL     OW20128   2.373   0.267   9.774  0.0762 -0.4301  0.5073
 2890SOL    HW120129   2.467   0.250   9.778 -0.0358 -1.6193 -1.9561
 2890SOL    HW220130   2.360   0.299   9.685 -1.4218  0.9432  1.2184
 2891SOL     OW20131   2.908   0.944   7.085 -0.0052  0.1458 -0.4267
 2891SOL    HW120132   2.845   0.892   7.035 -1.3403  1.9264 -0.5755
 2891SOL    HW220133   2.863   1.028   7.081  0.8446  0.6321  0.4952
 2892SOL     OW20134   3.012   0.826   4.544 -0.3469  0.2528 -0.1062
 2892SOL    HW120135   2.976   0.743   4.514  0.5641 -0.1949  0.0347
 2892SOL    HW220136   3.083   0.786   4.594  2.1632  3.1233 -1.3769
 2893SOL     OW20137   4.475   0.670  12.459  0.1015  0.0087 -0.6388
 2893SOL    HW120138   4.569   0.659  12.442  0.0682 -0.9243 -0.2104
 2893SOL    HW220139   4.481   0.765  12.467 -3.4154  0.6016 -4.9586
 2894SOL     OW20140   2.363   4.543   8.324  0.0940 -0.5848 -0.3364
 2894SOL    HW120141   2.301   4.593   8.271 -0.6797  1.8339  2.8299
 2894SOL    HW220142   2.320   4.530   8.409 -0.0057  0.5703 -0.2027
 2895SOL     OW20143   0.649   2.465  17.681  0.5365  0.2592  0.0777
 2895SOL    HW120144   0.639   2.528   0.048 -3.9447 -0.4375  0.0603
 2895SOL    HW220145   0.629   2.520  17.605  0.7505 -0.2164 -0.3226
 2896SOL     OW20146   0.520   3.728  11.861 -0.1101 -0.3193 -0.3614
 2896SOL    HW120147   0.533   3.704  11.952 -3.6536  0.9387  0.4705
 2896SOL    HW220148   0.606   3.761  11.835 -0.2522 -0.7777 -1.4345
 2897SOL     OW20149   4.513   3.860   2.888 -0.1162 -0.1014 -0.0566
 2897SOL    HW120150   4.529   3.811   2.807  0.9825  2.7019 -1.5479
 2897SOL    HW220151   4.529   3.949   2.855  1.5109 -0.0988  0.7628
 2898SOL     OW20152   1.840   4.471  13.274 -0.2530  0.4163  0.5458
 2898SOL    HW120153   1.891   4.405  13.321  1.3437  0.8431 -0.6185
 2898SOL    HW220154   1.860   4.455  13.182 -0.8543  0.1767  0.4570
 2899SOL     OW20155   1.735   3.892   6.541  0.0609  0.2916 -0.7596
 2899SOL    HW120156   1.770   3.954   6.605 -2.7322 -0.5754  1.5954
 2899SOL    HW220157   1.737   3.813   6.595 -2.1544  0.0102 -1.0663
 2900SOL     OW20158   3.332   2.100   7.033 -0.0295 -0.4763  0.2977
 2900SOL    HW120159   3.382   2.149   7.098  1.7005 -0.6322 -0.9243
 2900SOL    HW220160   3.351   2.153   6.955 -0.2480 -0.3408  0.3337
 2901SOL     OW20161   2.915   0.802   5.084  0.4025  0.1742  0.0349
 2901SOL    HW120162   2.975   0.815   5.010  1.3418  1.5650  1.0383
 2901SOL    HW220163   2.924   0.875   5.145 -0.7318  1.2257 -1.0289
 2902SOL     OW20164   0.353   3.970  14.219 -0.0941 -0.0733  0.1524
 2902SOL    HW120165   0.390   3.902  14.275 -0.0749 -0.4522 -0.3245
 2902SOL    HW220166   0.398   4.050  14.246  0.2830 -0.4593  0.6572
 2903SOL     OW20167   3.193   0.007   6.137 -0.3592 -0.2422 -0.6820
 2903SOL    HW120168   3.241   0.087   6.116 -1.6005  0.4251 -1.0237
 2903SOL    HW220169   3.259   4.664   6.144  2.9408  3.0829  0.5611
 2904SOL     OW20170   0.593   1.915   6.753 -0.1956  0.6709  0.1755
 2904SOL    HW120171   0.636   1.846   6.702 -0.6964  0.5433 -0.0782
 2904SOL    HW220172   0.535   1.857   6.802  0.5017  1.5538  2.0442
 2905SOL     OW20173   1.319   4.022  17.545  0.0099  0.1428 -0.1901
 2905SOL    HW120174   1.248   4.085  17.539  0.2013  0.5174  1.3092
 2905SOL    HW220175   1.325   4.001  17.639  1.4209  0.0349 -0.3053
 2906SOL     OW20176   4.225   4.198   5.962  0.1732 -0.0540  0.8709
 2906SOL    HW120177   4.147   4.247   5.936  1.2273  0.5379 -1.1427
 2906SOL    HW220178   4.212   4.117   5.913  2.3828  0.7794 -1.0620
 2907SOL     OW20179   1.544   0.089   3.183  0.7751 -0.1662 -0.3757
 2907SOL    HW120180   1.609   0.101   3.252  0.0235 -2.0929  0.6418
 2907SOL    HW220181   1.577   0.142   3.110 -0.3084 -0.8619 -1.3804
 2908SOL     OW20182   2.478   2.518  11.396  0.4276  0.5426 -0.3478
 2908SOL    HW120183   2.388   2.488  11.406  1.4345 -2.2462  0.3948
 2908SOL    HW220184   2.457   2.609  11.375 -0.8114  0.2665 -0.3162
 2909SOL     OW20185   0.847   4.431   0.339  0.2980 -0.2583 -1.1217
 2909SOL    HW120186   0.915   4.476   0.289 -0.6186  3.2011  0.7096
 2909SOL    HW220187   0.808   4.366   0.281  0.7827 -1.3979 -0.1837
 2910SOL     OW20188   3.697   0.567  13.043 -0.5866  0.4426 -0.1117
 2910SOL    HW120189   3.791   0.577  13.027 -0.4932  1.0014  0.7982
 2910SOL    HW220190   3.687   0.642  13.102  0.1585 -0.7842  1.5766
 2911SOL     OW20191   3.747   1.702   5.616  0.0371  0.0778 -0.5574
 2911SOL    HW120192   3.806   1.715   5.691  0.6318  0.4647 -1.0856
 2911SOL    HW220193   3.676   1.651   5.654 -0.6454  1.2641 -0.2329
 2912SOL     OW20194   3.332   0.899   9.216 -0.3240  0.1651  0.6808
 2912SOL    HW120195   3.417   0.857   9.223 -1.3718 -2.2087 -0.6366
 2912SOL    HW220196   3.339   0.980   9.266  3.6918  0.9473 -1.1551
 2913SOL     OW20197   1.949   0.306   6.609  0.5414  0.4126 -0.1972
 2913SOL    HW120198   1.857   0.320   6.632  0.2091 -0.0636 -1.2094
 2913SOL    HW220199   1.945   0.338   6.519  1.5346  0.8956 -0.0626
 2914SOL     OW20200   1.426   3.245   7.188 -0.2956  0.0850 -0.5072
 2914SOL    HW120201   1.405   3.334   7.216  0.3445  0.5035 -1.3447
 2914SOL    HW220202   1.343   3.202   7.167 -0.7855  0.8293 -0.0681
 2915SOL     OW20203   4.034   1.146   4.532 -0.5917 -0.4236  0.0380
 2915SOL    HW120204   4.094   1.215   4.504 -1.1650  0.0465 -0.0165
 2915SOL    HW220205   4.094   1.081   4.570  0.3404  0.7110  0.4899
 2916SOL     OW20206   4.099   1.921   3.454 -0.3185 -0.1995 -0.3721
 2916SOL    HW120207   4.189   1.889   3.460 -1.0903 -2.3336 -0.4558
 2916SOL    HW220208   4.093   1.919   3.358  2.2370  4.3711 -0.6627
 2917SOL     OW20209   0.246   3.673  17.246  0.2611 -0.1249  0.0685
 2917SOL    HW120210   0.155   3.682  17.218  0.9587  1.2017 -1.8202
 2917SOL    HW220211   0.263   3.733  17.319  0.4477 -0.8891  0.6521
 2918SOL     OW20212   4.653   4.233   3.421 -0.1794 -0.2182 -0.2484
 2918SOL    HW120213   4.623   4.144   3.434  2.4413 -1.1084 -0.2857
 2918SOL    HW220214   4.697   4.250   3.504 -0.7598 -0.3700  0.0883
 2919SOL     OW20215   1.842   3.189  13.349 -0.0655 -0.3990 -0.4323
 2919SOL    HW120216   1.894   3.156  13.423 -0.5937 -0.1801  0.0329
 2919SOL    HW220217   1.808   3.111  13.306  0.4106 -0.9665  0.2069
 2920SOL     OW20218   4.226   4.522   0.539 -0.5584  0.0534 -0.4758
 2920SOL    HW120219   4.163   4.584   0.574 -0.7206  0.1190 -0.8820
 2920SOL    HW220220   4.219   4.444   0.594 -0.7356  0.2689 -0.2014
 2921SOL     OW20221   1.292   3.656  14.912  0.0774 -0.1623 -0.0887
 2921SOL    HW120222   1.198   3.675  14.913  0.0632 -0.2437  0.3056
 2921SOL    HW220223   1.326   3.739  14.944  0.1280 -0.0678 -0.3909
 2922SOL     OW20224   1.111   2.757   7.244  0.3072 -0.0577 -0.0999
 2922SOL    HW120225   1.140   2.820   7.309 -1.7188  0.6469  0.1021
 2922SOL    HW220226   1.045   2.807   7.196 -0.6331 -1.0013  0.2062
 2923SOL     OW20227   2.759   1.525   8.726  0.0283  0.3193 -0.0311
 2923SOL    HW120228   2.681   1.578   8.742 -2.3979 -2.4952 -2.6456
 2923SOL    HW220229   2.726   1.455   8.670  1.8109  0.4308 -1.1972
 2924SOL     OW20230   3.196   4.663   3.760  0.0686 -0.2165  0.2551
 2924SOL    HW120231   3.189   0.021   3.714  1.4326 -1.1359 -1.6554
 2924SOL    HW220232   3.181   4.694   3.849 -1.7238 -1.5415  0.4264
 2925SOL     OW20233   1.213   4.189   1.022  0.1060 -0.7366 -0.2544
 2925SOL    HW120234   1.273   4.144   0.962  1.9425 -1.2074  1.9529
 2925SOL    HW220235   1.237   4.280   1.010 -0.4281 -0.3106  2.0069
 2926SOL     OW20236   1.422   3.515  14.322  0.1964  0.1404  0.1078
 2926SOL    HW120237   1.356   3.582  14.306 -0.0857 -0.7235 -2.2916
 2926SOL    HW220238   1.366   3.442  14.297  0.5380 -1.0182  2.6971
 2927SOL     OW20239   0.055   4.152   8.915  0.1599  0.0954  0.2764
 2927SOL    HW120240   4.704   4.143   8.857  1.7289  2.4843 -2.1407
 2927SOL    HW220241   0.035   4.227   8.970 -0.7343  0.1772 -0.1607
 2928SOL     OW20242   1.314   0.583   6.493  0.6412  0.7408  1.0342
 2928SOL    HW120243   1.232   0.575   6.541 -1.0450  1.5224 -1.6734
 2928SOL    HW220244   1.380   0.535   6.542 -1.2751 -0.9678  1.9199
 2929SOL     OW20245   0.625   0.262   2.310  0.3506  0.3310 -0.7445
 2929SOL    HW120246   0.711   0.281   2.274  0.5714 -0.2854 -0.5587
 2929SOL    HW220247   0.620   0.171   2.280  2.9715 -0.7121  1.8812
 2930SOL     OW20248   2.105   2.981   5.753  0.4350  0.3897 -0.3120
 2930SOL    HW120249   2.081   2.921   5.824  1.1257  2.4568  1.6447
 2930SOL    HW220250   2.151   2.914   5.703 -1.3581 -0.2782 -1.0795
 2931SOL     OW20251   3.691   2.998   1.832 -0.0762  0.0465  0.0593
 2931SOL    HW120252   3.682   2.914   1.877  0.2515 -0.7313 -1.3043
 2931SOL    HW220253   3.746   2.974   1.757  1.4969  0.0633  1.2118
 2932SOL     OW20254   1.228   0.086   1.104  0.1721 -0.1944  0.6294
 2932SOL    HW120255   1.214   0.041   1.020  1.0267  0.9449 -0.1253
 2932SOL    HW220256   1.192   0.023   1.166 -1.5675  0.9665  0.7941
 2933SOL     OW20257   2.373   2.396  16.084 -0.0507  0.4620 -0.1969
 2933SOL    HW120258   2.296   2.348  16.114  0.5035  0.4087  1.1507
 2933SOL    HW220259   2.443   2.349  16.127 -0.2162 -0.0796 -0.5247
 2934SOL     OW20260   4.164   0.658   0.028  0.2133 -0.1241 -0.8106
 2934SOL    HW120261   4.129   0.714  17.662 -0.1600 -0.3406 -0.7963
 2934SOL    HW220262   4.156   0.722   0.098  1.3135 -1.5030  0.5665
 2935SOL     OW20263   0.593   1.047   3.640  0.0948 -0.5271 -0.1705
 2935SOL    HW120264   0.531   1.110   3.677  1.8590  0.8982  0.3770
 2935SOL    HW220265   0.553   0.968   3.674 -0.4466  0.4874  1.5238
 2936SOL     OW20266   0.024   3.915  12.965 -0.1840  0.2750  0.2510
 2936SOL    HW120267   4.718   3.836  13.009 -0.3325  0.2769  0.1470
 2936SOL    HW220268   0.102   3.929  13.019  1.1233  0.2740 -1.6698
 2937SOL     OW20269   4.205   0.655  16.013  0.0650 -0.0906  0.7334
 2937SOL    HW120270   4.286   0.633  16.058  0.5210  1.7208  0.8003
 2937SOL    HW220271   4.240   0.738  15.982 -1.0607 -0.3353 -1.2165
 2938SOL     OW20272   3.311   3.272   8.102 -0.3805  0.0676  0.0661
 2938SOL    HW120273   3.283   3.329   8.174 -0.7753  0.1216 -0.1341
 2938SOL    HW220274   3.407   3.278   8.110 -0.3630  0.3970 -0.4554
 2939SOL     OW20275   1.440   3.594   9.036 -0.1388  0.4242  0.5348
 2939SOL    HW120276   1.522   3.645   9.040  0.1441  0.1057 -1.0462
 2939SOL    HW220277   1.402   3.619   8.952 -1.6087 -1.9380  0.5040
 2940SOL     OW20278   0.238   1.012  13.538  0.0152  0.5314 -0.5247
 2940SOL    HW120279   0.172   0.944  13.538  1.4252 -0.8273 -0.6487
 2940SOL    HW220280   0.293   0.980  13.610 -1.3392  0.5358  0.5208
 2941SOL     OW20281   1.333   0.843   3.457  0.1990 -0.0040 -0.2038
 2941SOL    HW120282   1.270   0.885   3.397 -2.1006 -4.5747 -0.9686
 2941SOL    HW220283   1.357   0.918   3.511 -1.5621  0.6496 -0.3368
 2942SOL     OW20284   0.233   1.655   4.115  0.5497  0.1825 -0.4000
 2942SOL    HW120285   0.275   1.608   4.187  0.6205  1.1470  0.1975
 2942SOL    HW220286   0.307   1.667   4.056  0.3877 -1.4122 -0.9194
 2943SOL     OW20287   3.129   1.000   0.780 -1.1333  0.4711 -0.1482
 2943SOL    HW120288   3.198   1.043   0.830  0.0650 -0.7827 -0.7147
 2943SOL    HW220289   3.062   1.068   0.794 -2.7932 -1.4991  1.3740
 2944SOL     OW20290   1.873   2.942  10.249  0.0366  0.5539  0.1983
 2944SOL    HW120291   1.781   2.933  10.224 -0.1645 -1.2867  1.6116
 2944SOL    HW220292   1.852   2.997  10.324  3.7699  0.4602  1.2773
 2945SOL     OW20293   3.605   2.991   0.216 -0.1799 -0.5337  0.2045
 2945SOL    HW120294   3.537   2.923   0.211 -0.7128  0.1286 -1.5632
 2945SOL    HW220295   3.570   3.053   0.280  1.2171 -0.1595  0.6009
 2946SOL     OW20296   2.658   1.108   3.240  0.2235  0.4959  0.3586
 2946SOL    HW120297   2.568   1.119   3.271  0.1359 -0.0384  0.2942
 2946SOL    HW220298   2.693   1.032   3.287 -1.1488  0.2481  0.9978
 2947SOL     OW20299   2.296   3.621  14.867 -0.0855  0.4525 -0.5566
 2947SOL    HW120300   2.358   3.671  14.920  0.1095  1.0793 -1.3764
 2947SOL    HW220301   2.310   3.530  14.894 -1.6098  0.7596  1.2311
 2948SOL     OW20302   1.551   2.604  15.306  0.3986  0.3175  0.7001
 2948SOL    HW120303   1.507   2.602  15.222 -0.3796  3.9742  1.0616
 2948SOL    HW220304   1.636   2.646  15.292  1.1447 -1.9705 -1.6673
 2949SOL     OW20305   1.737   3.500  14.824 -0.0414  0.0046  0.6615
 2949SOL    HW120306   1.756   3.592  14.843 -1.9252  1.0238 -2.4473
 2949SOL    HW220307   1.830   3.476  14.814 -0.5659 -2.1347  0.9657
 2950SOL     OW20308   3.528   4.386   0.200  0.3134 -0.0375 -0.3186
 2950SOL    HW120309   3.579   4.375   0.120 -1.1688 -1.6477 -1.0607
 2950SOL    HW220310   3.567   4.331   0.268  0.8326  1.6745  0.7666
 2951SOL     OW20311   1.469   4.312  12.810  0.2290  0.1994  0.1769
 2951SOL    HW120312   1.484   4.255  12.735  1.9681  1.1734 -0.2215
 2951SOL    HW220313   1.501   4.394  12.771  1.9540  0.2809  1.7085
 2952SOL     OW20314   0.417   1.554   5.694 -0.4695  0.3338  0.5458
 2952SOL    HW120315   0.354   1.520   5.629  1.1821 -1.1936 -0.2505
 2952SOL    HW220316   0.499   1.541   5.647  0.1214 -0.8320  1.9181
 2953SOL     OW20317   0.878   4.089  11.020  0.0816  0.2763 -0.7396
 2953SOL    HW120318   0.893   4.031  11.095  0.1884  0.8536 -0.3180
 2953SOL    HW220319   0.875   4.021  10.953 -0.7817 -0.7689  0.3528
 2954SOL     OW20320   1.085   0.522   6.630  0.4848  0.0822  0.3140
 2954SOL    HW120321   1.014   0.474   6.586  1.8106 -0.5103 -1.1721
 2954SOL    HW220322   1.029   0.576   6.687  0.3699 -0.3095  0.5744
 2955SOL     OW20323   2.934   0.730  11.001 -0.7726  0.0232 -0.3052
 2955SOL    HW120324   2.950   0.820  10.971  0.4178 -0.0613  0.0441
 2955SOL    HW220325   3.001   0.714  11.068  0.6090  1.0565 -1.4469
 2956SOL     OW20326   0.700   3.617   0.869 -0.1282 -0.5555  0.5453
 2956SOL    HW120327   0.738   3.596   0.954  0.4921  0.7663  0.5837
 2956SOL    HW220328   0.767   3.664   0.820 -1.8541  2.6688  1.3195
 2957SOL     OW20329   2.998   4.515   4.033 -0.3052 -0.6766 -0.1173
 2957SOL    HW120330   3.024   4.448   3.970  0.9650 -0.0007 -0.2998
 2957SOL    HW220331   3.038   4.472   4.109  1.7952  0.6476 -0.4649
 2958SOL     OW20332   0.604   4.510   5.786  0.4697 -0.4266  0.6582
 2958SOL    HW120333   0.545   4.571   5.741  0.9368  0.6073  1.4409
 2958SOL    HW220334   0.623   4.441   5.722 -1.5408 -1.5592  1.2857
 2959SOL     OW20335   1.964   3.369   2.647 -0.6750  0.1772  0.5587
 2959SOL    HW120336   1.972   3.275   2.629  0.8764  0.8183 -2.0013
 2959SOL    HW220337   1.915   3.367   2.729  2.3579  0.5780  2.3943
 2960SOL     OW20338   2.542   2.130  16.961  0.0974 -0.5065  0.4360
 2960SOL    HW120339   2.516   2.179  17.040 -2.2853 -0.8083 -0.1381
 2960SOL    HW220340   2.465   2.073  16.953 -0.3260 -0.0067  0.9112
 2961SOL     OW20341   4.519   0.033   3.438 -0.0076  0.2105 -0.2089
 2961SOL    HW120342   4.539   0.122   3.465  0.5920 -1.0541  3.4447
 2961SOL    HW220343   4.448   0.010   3.497  0.3512  1.8418  0.8278
 2962SOL     OW20344   2.248   4.369   5.648  0.2083  0.2528 -0.8236
 2962SOL    HW120345   2.313   4.390   5.714  1.3820  0.2164 -1.9679
 2962SOL    HW220346   2.222   4.283   5.681 -0.0675  0.0467 -1.5762
 2963SOL     OW20347   0.857   3.957  11.308 -0.1018 -0.1928  0.4142
 2963SOL    HW120348   0.814   3.873  11.322  0.3648 -0.2215  1.7228
 2963SOL    HW220349   0.779   4.012  11.316  0.7706  0.6869  2.9297
 2964SOL     OW20350   1.078   0.397   4.023  0.0706 -0.1091 -0.3332
 2964SOL    HW120351   1.139   0.324   4.031 -2.3174 -2.1778 -0.9045
 2964SOL    HW220352   1.080   0.416   4.116 -1.4576 -0.9132 -0.1392
 2965SOL     OW20353   0.611   2.192   5.825 -0.3488  0.0365 -0.6808
 2965SOL    HW120354   0.528   2.169   5.867  0.3846 -2.9705 -0.9193
 2965SOL    HW220355   0.599   2.282   5.796 -0.5733  0.9079  2.0385
 2966SOL     OW20356   4.461   1.788   6.127 -0.3344 -0.1750 -0.2433
 2966SOL    HW120357   4.547   1.786   6.170  1.0765 -0.9850 -3.1091
 2966SOL    HW220358   4.436   1.880   6.140  0.4679 -0.1223  0.9147
 2967SOL     OW20359   1.572   4.201   9.008  0.2306 -0.4190 -0.1195
 2967SOL    HW120360   1.668   4.196   9.006  0.3036  0.7254  0.2572
 2967SOL    HW220361   1.555   4.293   8.990  2.3150 -0.4164 -2.1418
 2968SOL     OW20362   4.056   2.934   6.565 -0.3880  0.9377 -0.3245
 2968SOL    HW120363   4.030   2.963   6.652 -2.8104  0.7451 -0.9913
 2968SOL    HW220364   4.018   2.847   6.568 -1.0771  1.2023 -1.4401
 2969SOL     OW20365   1.381   4.169   4.407 -0.0250 -0.0435  0.4220
 2969SOL    HW120366   1.426   4.086   4.391 -0.0699  0.1911 -0.8720
 2969SOL    HW220367   1.453   4.224   4.378  0.0644 -0.7265 -0.6346
 2970SOL     OW20368   1.397   4.180   0.180 -0.3955 -0.6185 -0.2120
 2970SOL    HW120369   1.409   4.199   0.087 -2.5948  0.7412 -0.2193
 2970SOL    HW220370   1.377   4.087   0.166 -2.2719 -0.2446 -0.0834
 2971SOL     OW20371   0.619   2.105   6.988  0.1121 -0.0387  0.4910
 2971SOL    HW120372   0.694   2.165   6.977  0.2649 -0.8365 -2.6724
 2971SOL    HW220373   0.616   2.050   6.910  0.3234  0.6380  0.0005
 2972SOL     OW20374   0.605   2.455  13.164 -0.3410 -0.6166 -0.4174
 2972SOL    HW120375   0.525   2.434  13.211 -0.0188 -1.9011 -0.4509
 2972SOL    HW220376   0.579   2.448  13.072 -0.7404  3.1544 -0.6052
 2973SOL     OW20377   1.463   0.840  10.985  0.0516 -0.3852  0.3209
 2973SOL    HW120378   1.426   0.912  10.934  0.1918 -0.7611 -0.3186
 2973SOL    HW220379   1.557   0.856  10.974 -0.0120 -0.4798 -0.3675
 2974SOL     OW20380   2.940   3.435   3.414  0.2667  0.0211  0.3589
 2974SOL    HW120381   2.876   3.363   3.416  1.8967 -1.4845 -1.7876
 2974SOL    HW220382   2.941   3.468   3.504 -1.5871  2.8191 -0.6508
 2975SOL     OW20383   1.375   0.548   4.541 -0.2174  0.2050  0.3489
 2975SOL    HW120384   1.466   0.546   4.572 -0.2483 -3.2081  0.2414
 2975SOL    HW220385   1.379   0.630   4.491  1.0137 -0.7029 -1.0606
 2976SOL     OW20386   4.679   0.691   4.416 -0.4676 -0.6183  0.2605
 2976SOL    HW120387   0.026   0.699   4.478 -0.2255  2.1758 -0.4170
 2976SOL    HW220388   4.647   0.780   4.424 -0.8501 -0.8205  0.9952
 2977SOL     OW20389   2.001   3.055   0.013  0.1357 -0.4168 -0.0363
 2977SOL    HW120390   2.008   3.111   0.090  3.0357  1.1302 -1.4126
 2977SOL    HW220391   2.086   3.011   0.006 -0.4057 -1.1933 -1.5679
 2978SOL     OW20392   1.701   0.502   3.395 -0.4055  0.2181  0.2527
 2978SOL    HW120393   1.618   0.456   3.382  0.4212 -1.3327  0.4857
 2978SOL    HW220394   1.685   0.587   3.437  0.1844  0.2794  0.3499
 2979SOL     OW20395   1.920   0.113   7.945 -0.7379 -0.6425 -0.1520
 2979SOL    HW120396   1.855   0.067   7.999 -0.5401  0.0103  0.6449
 2979SOL    HW220397   1.926   0.200   7.984  0.3996 -0.5335 -0.5793
 2980SOL     OW20398   3.384   2.843  14.022 -0.1424  0.7653 -0.1535
 2980SOL    HW120399   3.410   2.886  14.104  1.3695  1.7529 -1.1676
 2980SOL    HW220400   3.463   2.844  13.969  0.6064  1.2956  0.9628
 2981SOL     OW20401   4.228   0.953   2.612 -0.1039  0.3145  0.5010
 2981SOL    HW120402   4.282   0.909   2.546  0.0292 -0.2671  1.0076
 2981SOL    HW220403   4.173   1.014   2.562  0.3707  0.3727  0.0479
 2982SOL     OW20404   3.806   3.608   1.631  0.4168 -0.1486  0.2658
 2982SOL    HW120405   3.836   3.592   1.721 -1.7874 -0.5310  0.9209
 2982SOL    HW220406   3.712   3.603   1.643  0.4589 -0.7804  0.3113
 2983SOL     OW20407   0.269   3.518  11.133 -0.6531  0.0081  0.5272
 2983SOL    HW120408   0.309   3.585  11.078 -2.4971 -1.5990 -2.7860
 2983SOL    HW220409   0.318   3.535  11.214 -0.4973 -2.7994  1.0423
 2984SOL     OW20410   0.206   1.014   4.772  0.0711 -0.3775  0.0092
 2984SOL    HW120411   0.132   1.074   4.767 -1.3390 -2.1333 -0.0762
 2984SOL    HW220412   0.176   0.959   4.844  2.2276  0.6856  1.7218
 2985SOL     OW20413   3.138   2.813   3.668  0.0554  0.4241 -0.4849
 2985SOL    HW120414   3.136   2.891   3.612  1.2693 -0.7813 -2.2157
 2985SOL    HW220415   3.046   2.796   3.687  0.9801 -2.4953  1.3370
 2986SOL     OW20416   1.750   3.893   3.932  0.3677  0.7503  0.3721
 2986SOL    HW120417   1.741   3.845   3.850 -1.6314 -0.5004  1.3405
 2986SOL    HW220418   1.845   3.887   3.941  0.2928 -1.1302 -0.1605
 2987SOL     OW20419   1.496   1.960   2.405 -0.3105 -0.1905  0.0225
 2987SOL    HW120420   1.449   1.916   2.335 -0.3540 -0.5661  0.2914
 2987SOL    HW220421   1.431   1.992   2.467 -0.7413 -1.5156  0.2349
 2988SOL     OW20422   4.660   2.405   5.337  0.9526  0.2081  0.1802
 2988SOL    HW120423   4.703   2.473   5.391 -0.8540 -0.4637  2.4837
 2988SOL    HW220424   4.707   2.324   5.358  0.7880  0.1048  0.1499
 2989SOL     OW20425   2.785   2.334   2.169  0.3198 -0.6652  0.0078
 2989SOL    HW120426   2.721   2.383   2.220 -0.8601 -0.5822 -1.5347
 2989SOL    HW220427   2.752   2.245   2.185  2.6921 -1.0728  2.6123
 2990SOL     OW20428   2.158   1.620  12.614 -0.5904 -0.7671  0.0431
 2990SOL    HW120429   2.230   1.657  12.563 -1.3813  1.7902  0.8122
 2990SOL    HW220430   2.153   1.531  12.578  0.4744 -1.0264  0.5137
 2991SOL     OW20431   2.216   4.074  15.263 -0.5053 -0.3358  0.0628
 2991SOL    HW120432   2.309   4.052  15.254 -0.9861 -2.7562  1.1103
 2991SOL    HW220433   2.194   4.066  15.355  2.5634  0.3296  0.8599
 2992SOL     OW20434   1.077   1.786   5.971 -0.3152  0.5194 -0.0250
 2992SOL    HW120435   1.061   1.879   5.959 -1.7965  0.6030  2.6158
 2992SOL    HW220436   1.046   1.751   5.888 -0.8595 -0.4632  0.5889
 2993SOL     OW20437   0.701   4.392  17.462 -0.5957 -0.1957  0.0238
 2993SOL    HW120438   0.695   4.462  17.396  0.0811 -1.2921 -1.2086
 2993SOL    HW220439   0.738   4.447  17.531 -2.4104  0.5080  0.4354
 2994SOL     OW20440   4.241   1.983   0.453 -1.4727  0.1986 -0.3318
 2994SOL    HW120441   4.183   2.052   0.487  0.3803  0.5452  2.1539
 2994SOL    HW220442   4.179   1.912   0.466  0.1792 -0.5917  3.0249
 2995SOL     OW20443   4.408   3.565   0.657 -0.5616 -0.0546  0.0960
 2995SOL    HW120444   4.473   3.634   0.651 -2.1049  1.1658 -2.6400
 2995SOL    HW220445   4.461   3.494   0.693  0.0244  0.7743  0.8703
 2996SOL     OW20446   3.025   0.928   0.526  0.5415  0.2979  0.4679
 2996SOL    HW120447   2.929   0.921   0.527  0.7641 -2.5970  0.9533
 2996SOL    HW220448   3.044   0.944   0.619 -3.6578  0.3803  1.3274
 2997SOL     OW20449   0.514   0.055   8.896 -0.1943  0.0292 -0.0283
 2997SOL    HW120450   0.422   0.062   8.919 -0.5152 -1.0426 -1.0395
 2997SOL    HW220451   0.544   0.140   8.929  2.1054 -0.5302 -0.6770
 2998SOL     OW20452   3.930   3.145   4.297  0.1188  0.0843  0.1639
 2998SOL    HW120453   4.013   3.173   4.336  0.3923 -0.1529 -0.2539
 2998SOL    HW220454   3.891   3.095   4.369  1.2070 -1.1157 -0.0730
 2999SOL     OW20455   1.793   3.340   0.442  0.0633 -0.3758  0.0595
 2999SOL    HW120456   1.843   3.259   0.436 -0.5255 -0.5853 -1.9430
 2999SOL    HW220457   1.703   3.316   0.420 -0.5343  0.6903  1.2952
 3000SOL     OW20458   3.898   3.970   9.428 -0.2566 -0.4713 -0.2090
 3000SOL    HW120459   3.896   3.915   9.506  2.4356 -1.0776 -0.5565
 3000SOL    HW220460   3.993   3.980   9.418 -0.2675  0.8650  1.0878
 3001SOL     OW20461   2.872   3.176   2.458 -0.6498  0.3089 -0.1507
 3001SOL    HW120462   2.947   3.219   2.500  0.4113  0.1575 -1.9010
 3001SOL    HW220463   2.830   3.121   2.524  1.1881 -1.2745 -0.3224
 3002SOL     OW20464   2.532   3.496   3.319 -0.4102  0.1369  0.8678
 3002SOL    HW120465   2.533   3.526   3.410  1.6362  1.9040  0.2828
 3002SOL    HW220466   2.439   3.476   3.323 -0.1584 -0.8706  1.7164
 3003SOL     OW20467   0.588   4.123   5.760  0.2326  0.0779 -0.0568
 3003SOL    HW120468   0.666   4.179   5.768 -0.7142  1.2999  0.5573
 3003SOL    HW220469   0.541   4.142   5.842  1.2931 -0.9258  0.7884
 3004SOL     OW20470   0.097   0.858  15.545 -0.1008 -0.1772 -0.2633
 3004SOL    HW120471   0.080   0.868  15.451 -1.6591 -0.4011 -0.0160
 3004SOL    HW220472   0.189   0.836  15.534 -0.6576 -1.6715 -2.1441
 3005SOL     OW20473   1.101   2.083   4.425  0.5731  0.4989 -0.4207
 3005SOL    HW120474   1.066   2.116   4.342  0.9616 -1.0628 -1.2007
 3005SOL    HW220475   1.146   2.001   4.403  1.6658  1.2655 -1.0020
 3006SOL     OW20476   1.173   3.716   6.959 -0.3446 -0.7031 -0.2906
 3006SOL    HW120477   1.190   3.716   6.865  0.8474  0.4288 -0.0777
 3006SOL    HW220478   1.245   3.659   6.986  1.5499  0.8175 -2.1171
 3007SOL     OW20479   3.308   3.980   6.326 -0.3422  0.0781 -0.2775
 3007SOL    HW120480   3.368   4.039   6.280  1.0295  1.2288  2.9868
 3007SOL    HW220481   3.231   4.032   6.351 -0.1785 -0.3364  1.0970
 3008SOL     OW20482   1.987   1.333   6.174 -0.0565  0.2456 -0.1028
 3008SOL    HW120483   2.075   1.353   6.143 -0.5675 -0.0997 -1.7574
 3008SOL    HW220484   1.990   1.337   6.270 -2.4133  1.5476 -0.0774
 3009SOL     OW20485   1.811   3.573   2.505 -0.7503  0.0638 -0.2163
 3009SOL    HW120486   1.883   3.534   2.554 -0.6867 -0.5567 -0.8007
 3009SOL    HW220487   1.754   3.609   2.573 -0.3003 -1.0438  0.7536
 3010SOL     OW20488   4.438   2.402   6.135  0.4749 -0.6214 -0.1345
 3010SOL    HW120489   4.406   2.468   6.074 -1.1701 -0.0265  1.3738
 3010SOL    HW220490   4.387   2.416   6.215 -2.3060 -2.3635 -1.6108
 3011SOL     OW20491   1.070   3.012  11.314  0.3735  0.2458  0.3975
 3011SOL    HW120492   1.162   2.991  11.301  0.4994  0.1503  1.4253
 3011SOL    HW220493   1.037   2.934  11.269  0.9243  0.2735 -0.0526
 3012SOL     OW20494   0.423   1.835  12.839 -0.4290 -0.5054  0.0890
 3012SOL    HW120495   0.453   1.809  12.926  0.1444  0.0809  0.0648
 3012SOL    HW220496   0.366   1.761  12.817 -0.9999  0.0324 -0.2239
 3013SOL     OW20497   2.903   4.338   1.945 -0.3442 -0.4340  0.0601
 3013SOL    HW120498   2.870   4.292   2.023  0.2757 -4.5252 -2.0724
 3013SOL    HW220499   2.994   4.308   1.944 -0.3321 -0.3318 -1.0681
 3014SOL     OW20500   0.105   0.888   3.108 -0.3597  0.9680  0.9399
 3014SOL    HW120501   0.196   0.857   3.112 -0.6514  0.1815  1.2569
 3014SOL    HW220502   0.106   0.924   3.019 -1.1562 -0.6385  0.2943
 3015SOL     OW20503   1.019   0.340   4.331 -0.6329 -0.1823 -0.3418
 3015SOL    HW120504   1.091   0.380   4.381  0.6395 -2.3282 -0.4683
 3015SOL    HW220505   1.038   0.247   4.335  4.1257  0.8682  1.4481
 3016SOL     OW20506   3.920   4.221   7.225  0.2234  0.3961  0.0024
 3016SOL    HW120507   3.857   4.270   7.278 -0.0651 -0.6496  0.6301
 3016SOL    HW220508   3.995   4.217   7.284  0.3429  2.4867 -0.0068
 3017SOL     OW20509   4.067   4.475  11.153 -0.9204  0.9176  0.0397
 3017SOL    HW120510   4.118   4.454  11.074 -1.4137  0.2978 -0.1142
 3017SOL    HW220511   4.060   4.570  11.144  0.7049  0.8924 -1.5575
 3018SOL     OW20512   3.810   1.157  13.090 -0.2471  0.1196 -0.1847
 3018SOL    HW120513   3.731   1.194  13.129 -0.2119 -0.8869  0.8615
 3018SOL    HW220514   3.798   1.063  13.101  0.7102  0.1727  1.4993
 3019SOL     OW20515   1.579   4.056   7.297  0.0499  0.6356  0.2127
 3019SOL    HW120516   1.667   4.023   7.317 -0.6369 -2.1900 -1.4231
 3019SOL    HW220517   1.533   3.989   7.346  0.9461 -1.3161 -1.5792
 3020SOL     OW20518   2.115   3.204   3.758 -0.0692 -0.5394 -0.0670
 3020SOL    HW120519   2.116   3.214   3.663  0.9237  0.9999  0.1020
 3020SOL    HW220520   2.129   3.110   3.759 -0.1917 -0.5480  0.4102
 3021SOL     OW20521   2.675   4.151   3.840  0.4980 -0.1855 -0.2640
 3021SOL    HW120522   2.725   4.196   3.772  0.9004  0.1328  0.2447
 3021SOL    HW220523   2.662   4.062   3.806  1.6755 -1.4923  2.6975
 3022SOL     OW20524   3.486   1.962   9.944 -0.2941  0.3388  0.3220
 3022SOL    HW120525   3.414   1.969   9.882 -0.9804 -2.8629  0.7708
 3022SOL    HW220526   3.506   1.868   9.937  0.5702  0.4575  1.2188
 3023SOL     OW20527   0.851   2.359   9.049  0.1688 -0.6780  0.4810
 3023SOL    HW120528   0.800   2.440   9.057 -0.9516 -1.1705 -1.7366
 3023SOL    HW220529   0.924   2.373   9.109 -1.7792 -0.2184  2.7616
 3024SOL     OW20530   0.016   3.532   0.289  0.2205 -0.0834 -0.0574
 3024SOL    HW120531   4.648   3.550   0.297  0.1990 -0.2208 -0.0104
 3024SOL    HW220532   0.043   3.519   0.380  1.5758  1.8793 -0.1627
 3025SOL     OW20533   1.909   1.363  12.474 -0.6142 -0.0138  0.5507
 3025SOL    HW120534   2.004   1.354  12.482 -0.4415  1.3022  0.0181
 3025SOL    HW220535   1.888   1.449  12.510 -0.7014 -0.7033  2.1369
 3026SOL     OW20536   1.038   2.429   2.633 -0.0074  0.3300 -0.4062
 3026SOL    HW120537   1.031   2.523   2.620 -0.7615  0.2971 -0.2318
 3026SOL    HW220538   1.011   2.402   2.545 -0.2981  1.2706 -0.6005
 3027SOL     OW20539   0.247   3.885   4.513 -0.3279  0.1406  0.1682
 3027SOL    HW120540   0.217   3.830   4.440  1.5799  1.7837 -1.8747
 3027SOL    HW220541   0.165   3.918   4.550 -1.2591 -1.9260 -0.0480
 3028SOL     OW20542   2.981   3.181   5.207  0.0256  0.0567 -0.4378
 3028SOL    HW120543   2.912   3.143   5.153 -1.7479  0.9939  1.1591
 3028SOL    HW220544   3.057   3.130   5.177 -1.3736 -1.7603 -0.9023
 3029SOL     OW20545   0.941   1.930   5.099  0.1012  0.4122  0.1193
 3029SOL    HW120546   1.024   1.882   5.095 -0.5645 -0.6586 -0.8138
 3029SOL    HW220547   0.881   1.864   5.065 -0.5345  1.7583 -1.3828
 3030SOL     OW20548   1.763   1.822   8.359  0.2282  0.4445  0.3271
 3030SOL    HW120549   1.782   1.895   8.300  2.5069 -0.0052  0.5305
 3030SOL    HW220550   1.674   1.849   8.386  0.3088  2.1427 -1.1042
 3031SOL     OW20551   0.507   3.078   6.026 -0.2861 -0.0475  0.1114
 3031SOL    HW120552   0.438   3.128   5.981 -0.1426 -1.5343 -1.7455
 3031SOL    HW220553   0.579   3.121   5.980 -0.9547 -1.9796 -2.7082
 3032SOL     OW20554   2.550   2.873   2.569 -0.2219  0.2519  0.6244
 3032SOL    HW120555   2.474   2.930   2.584 -0.3786  0.5142 -1.2512
 3032SOL    HW220556   2.591   2.892   2.654 -1.0741  2.5336  0.5486
 3033SOL     OW20557   4.180   4.137  15.077 -0.6186  0.1246 -0.4313
 3033SOL    HW120558   4.186   4.147  15.172  0.2038 -0.3114 -0.4312
 3033SOL    HW220559   4.220   4.221  15.056 -1.5666  0.5588 -0.4928
 3034SOL     OW20560   4.113   1.488   8.504  0.3613 -0.4966  0.1185
 3034SOL    HW120561   4.038   1.449   8.550  0.8648 -1.4782  0.0986
 3034SOL    HW220562   4.184   1.434   8.538  0.3438  0.4304  1.6214
 3035SOL     OW20563   2.534   1.349   6.340 -0.5173  0.5518  0.8042
 3035SOL    HW120564   2.549   1.435   6.300 -0.4624  0.6486  1.0348
 3035SOL    HW220565   2.611   1.296   6.318 -1.0070 -0.7271  2.1649
 3036SOL     OW20566   0.024   1.560  16.062 -0.1639 -0.2616 -0.2015
 3036SOL    HW120567   4.688   1.532  16.130  0.2202 -2.4200 -0.7352
 3036SOL    HW220568   0.102   1.522  16.102  0.4348  0.3650 -0.7596
 3037SOL     OW20569   0.429   1.976   6.237 -0.1197  0.0221  0.3184
 3037SOL    HW120570   0.510   1.999   6.283  0.6366 -1.2723 -0.3762
 3037SOL    HW220571   0.442   1.888   6.202 -0.0683  0.0106  0.3665
 3038SOL     OW20572   3.838   1.283  11.176  0.5708  0.3787 -0.4317
 3038SOL    HW120573   3.761   1.239  11.142  1.6007 -2.1652  0.5135
 3038SOL    HW220574   3.810   1.371  11.202  1.7303 -0.0069  2.1756
 3039SOL     OW20575   4.573   2.407   4.548  0.4888  0.0355 -0.2757
 3039SOL    HW120576   4.594   2.458   4.470 -1.8857  0.6936 -0.4971
 3039SOL    HW220577   4.512   2.350   4.501 -1.0069  1.3855  0.0071
 3040SOL     OW20578   1.964   3.589   3.823  0.4225 -0.1172  0.4027
 3040SOL    HW120579   2.019   3.610   3.748  0.2826 -0.2870  0.2552
 3040SOL    HW220580   1.879   3.627   3.799 -0.2324 -0.9792  1.3302
 3041SOL     OW20581   1.503   0.935  15.942  0.0024 -0.1378 -0.2284
 3041SOL    HW120582   1.472   0.938  16.032 -0.3517 -0.2289 -0.3484
 3041SOL    HW220583   1.505   1.026  15.915  3.4643 -0.3510 -0.7587
 3042SOL     OW20584   0.947   3.941   2.621  0.0424 -0.2863 -0.3477
 3042SOL    HW120585   0.857   3.921   2.598 -0.1487  0.7604 -0.5144
 3042SOL    HW220586   0.978   3.853   2.601 -0.0196 -0.8444  2.0526
 3043SOL     OW20587   3.341   3.566   3.901  0.2619  0.2383  0.3769
 3043SOL    HW120588   3.366   3.507   3.830 -1.4952  0.8411 -0.7523
 3043SOL    HW220589   3.400   3.535   3.970  0.1198 -1.0577 -0.0808
 3044SOL     OW20590   3.920   1.646   6.955  0.0727 -0.1630 -0.0990
 3044SOL    HW120591   3.896   1.637   7.047  0.9733  0.2109  0.1745
 3044SOL    HW220592   3.834   1.631   6.917 -0.6804  0.9676  1.1266
 3045SOL     OW20593   2.131   1.749   2.537 -0.3326 -1.1460 -0.2656
 3045SOL    HW120594   2.204   1.724   2.482  0.3409 -0.5590  0.3560
 3045SOL    HW220595   2.063   1.699   2.493  0.3853 -0.6512 -1.9202
 3046SOL     OW20596   3.049   4.133   1.705 -0.1893  0.2197  0.4878
 3046SOL    HW120597   2.956   4.130   1.729 -0.4445  0.7770 -0.4078
 3046SOL    HW220598   3.037   4.176   1.620  1.1882 -1.0168 -0.3212
 3047SOL     OW20599   3.734   0.881   6.902 -0.5894  1.0018 -0.4414
 3047SOL    HW120600   3.729   0.906   6.994 -0.1791 -1.6357  0.3114
 3047SOL    HW220601   3.717   0.966   6.862  0.6505  0.4821 -2.0760
 3048SOL     OW20602   3.608   4.373   2.799 -0.8594 -0.0987  0.0068
 3048SOL    HW120603   3.671   4.348   2.867 -0.9936 -0.8329 -0.1326
 3048SOL    HW220604   3.661   4.400   2.725 -1.3374 -0.1012 -0.3375
 3049SOL     OW20605   1.436   0.072   4.847 -0.1341  0.3465  0.1635
 3049SOL    HW120606   1.388   0.151   4.871 -0.0798  0.3094  0.3937
 3049SOL    HW220607   1.379   0.041   4.777  0.1290  1.5358 -0.5715
 3050SOL     OW20608   4.088   3.627   2.690  0.3312 -0.2421 -0.4595
 3050SOL    HW120609   4.007   3.651   2.735 -0.3674 -1.5920 -1.0063
 3050SOL    HW220610   4.131   3.712   2.680  2.2112 -1.2523 -1.0016
 3051SOL     OW20611   3.010   4.107   7.756 -0.2815 -0.5177 -0.0274
 3051SOL    HW120612   3.064   4.032   7.730 -0.2919 -0.9258  1.1473
 3051SOL    HW220613   3.052   4.174   7.703 -0.7552 -0.5060 -0.3911
 3052SOL     OW20614   4.457   4.364  16.507  0.0445  0.3790  0.1945
 3052SOL    HW120615   4.550   4.374  16.528  0.1298 -0.9307  0.4425
 3052SOL    HW220616   4.440   4.452  16.474  0.2932  0.2579 -0.2651
 3053SOL     OW20617   2.391   4.362   2.722  0.0021  0.1106  0.5510
 3053SOL    HW120618   2.368   4.343   2.813  2.0222 -1.4475  0.7452
 3053SOL    HW220619   2.487   4.354   2.728 -0.0348 -0.1009  0.8705
 3054SOL     OW20620   3.764   0.141   7.930 -0.5858 -0.2445  0.1034
 3054SOL    HW120621   3.816   0.153   8.009  1.5324 -2.5085 -0.9534
 3054SOL    HW220622   3.783   0.223   7.884 -0.5222  0.0263  0.6163
 3055SOL     OW20623   0.722   3.087  16.173  0.8558  0.7218  0.3373
 3055SOL    HW120624   0.743   3.110  16.082 -2.0413 -0.3300 -0.5875
 3055SOL    HW220625   0.665   3.157  16.206  2.2102  1.8468  0.3269
 3056SOL     OW20626   2.663   4.656   2.593 -0.1794  0.0059  0.1174
 3056SOL    HW120627   2.693   4.565   2.584  0.7173  0.4681 -1.4490
 3056SOL    HW220628   2.630   4.680   2.507 -1.8305 -0.8502  0.5067
 3057SOL     OW20629   0.471   1.491  16.543 -0.3387 -0.1634  0.5553
 3057SOL    HW120630   0.484   1.456  16.456 -0.0611 -1.3420  1.0777
 3057SOL    HW220631   0.388   1.539  16.530 -0.2115 -0.4682 -1.3681
 3058SOL     OW20632   1.227   1.081   5.706  0.2382  0.9267  0.1914
 3058SOL    HW120633   1.157   1.129   5.750 -0.6468  0.1095 -0.3146
 3058SOL    HW220634   1.204   1.102   5.615  0.7803  0.3470 -0.0768
 3059SOL     OW20635   2.683   0.583   3.046  0.2738 -0.4781  0.0316
 3059SOL    HW120636   2.682   0.610   2.954  0.4434 -0.8912 -0.0927
 3059SOL    HW220637   2.610   0.639   3.073  0.6844  1.1014 -2.1464
 3060SOL     OW20638   4.358   4.662   6.768 -0.6803  0.0977  0.6279
 3060SOL    HW120639   4.339   0.019   6.724  1.2443  0.3767  0.3094
 3060SOL    HW220640   4.271   4.645   6.804 -1.4397  2.6029  0.0183
 3061SOL     OW20641   2.627   4.088   5.071  0.0767 -0.3236  0.4525
 3061SOL    HW120642   2.556   4.092   5.007  2.0017 -1.7797 -1.7693
 3061SOL    HW220643   2.579   4.055   5.147  0.0539 -1.7049 -0.1698
 3062SOL     OW20644   3.855   3.129   2.043  0.5217 -0.5953  0.7840
 3062SOL    HW120645   3.795   3.090   1.980  0.6110  0.8062 -0.1511
 3062SOL    HW220646   3.803   3.196   2.087 -0.8954 -0.6619 -0.8309
 3063SOL     OW20647   1.143   3.011   2.532 -0.1444 -0.2988  0.0351
 3063SOL    HW120648   1.228   2.988   2.493 -0.7406 -1.1605 -0.7612
 3063SOL    HW220649   1.084   2.954   2.481  0.0158  0.5540 -1.0929
 3064SOL     OW20650   4.643   3.366  10.783  0.4457 -0.5605 -0.7472
 3064SOL    HW120651   4.558   3.406  10.764  0.7076 -0.2193 -1.2230
 3064SOL    HW220652   4.681   3.438  10.834 -1.8087  1.4460 -1.8534
 3065SOL     OW20653   2.850   1.891   7.184 -0.4863  0.3612  0.7924
 3065SOL    HW120654   2.916   1.945   7.140 -1.6365  2.4555  1.6534
 3065SOL    HW220655   2.904   1.862   7.258  0.4894  2.2908  0.8510
 3066SOL     OW20656   2.094   1.423   8.397  1.0935  0.1239  0.0117
 3066SOL    HW120657   2.035   1.462   8.461 -0.8165  0.3073 -1.8660
 3066SOL    HW220658   2.031   1.361   8.363  0.5873  1.2828 -1.1845
 3067SOL     OW20659   4.278   4.281   3.683  0.3234 -0.1650 -0.5754
 3067SOL    HW120660   4.189   4.313   3.693 -0.4412 -3.5020  3.3382
 3067SOL    HW220661   4.296   4.327   3.601 -0.1153  0.4587 -0.3121
 3068SOL     OW20662   2.748   1.354   4.791 -0.1894  0.4666  0.6736
 3068SOL    HW120663   2.768   1.445   4.771 -1.3640  0.1284 -2.0742
 3068SOL    HW220664   2.765   1.308   4.709  1.3005  0.8475  0.7707
 3069SOL     OW20665   2.220   2.159   6.958 -0.1521  0.8108 -0.7993
 3069SOL    HW120666   2.124   2.154   6.961  0.1119 -4.1392 -0.4256
 3069SOL    HW220667   2.237   2.246   6.993 -3.8637  0.8132  0.9731
 3070SOL     OW20668   2.614   1.884   8.959  0.4817 -0.4963  0.2853
 3070SOL    HW120669   2.676   1.811   8.958  0.3974 -0.4987 -2.3421
 3070SOL    HW220670   2.631   1.934   9.039  2.1483  0.6767 -0.7903
 3071SOL     OW20671   2.118   3.602   0.992  0.7167 -0.4432 -0.1103
 3071SOL    HW120672   2.165   3.644   0.921 -0.1632 -0.2286 -0.5618
 3071SOL    HW220673   2.116   3.672   1.057 -0.5236  2.3600 -3.1704
 3072SOL     OW20674   1.509   2.302  17.046 -0.1859  0.2143  0.7463
 3072SOL    HW120675   1.503   2.397  17.057  1.3326  0.2041  1.7507
 3072SOL    HW220676   1.558   2.296  16.964  2.5580 -0.2572  2.4246
 3073SOL     OW20677   0.819   1.630  17.196  0.2876  0.5198  0.3342
 3073SOL    HW120678   0.775   1.714  17.204  0.0260  0.6210 -2.0908
 3073SOL    HW220679   0.755   1.592  17.135 -0.5136  1.7326  0.4289
 3074SOL     OW20680   0.621   1.014   4.042 -0.7872 -0.0359  0.2056
 3074SOL    HW120681   0.688   0.950   4.016 -0.9996 -0.3153  0.3543
 3074SOL    HW220682   0.593   0.958   4.114  1.4333 -1.0157  0.3120
 3075SOL     OW20683   2.589   4.246   0.364 -0.6567  0.0388  0.2656
 3075SOL    HW120684   2.608   4.289   0.281  0.6981 -2.4033 -0.6936
 3075SOL    HW220685   2.680   4.234   0.391 -0.2532  1.2791 -0.5426
 3076SOL     OW20686   4.596   4.060   7.400  0.2280 -0.1187  0.4509
 3076SOL    HW120687   4.663   4.107   7.449 -0.6516  2.4891 -0.8620
 3076SOL    HW220688   4.648   4.029   7.326  0.4357  0.0527  0.5253
 3077SOL     OW20689   1.738   0.164   5.962  0.2055 -0.3070 -0.5426
 3077SOL    HW120690   1.658   0.214   5.948 -0.5353 -1.5393 -0.6455
 3077SOL    HW220691   1.707   0.075   5.978 -0.1767  0.0420  0.6639
 3078SOL     OW20692   3.149   4.099   7.447  0.7373  0.0971 -0.4125
 3078SOL    HW120693   3.230   4.138   7.482  0.8686  0.2208 -0.8543
 3078SOL    HW220694   3.103   4.175   7.412 -0.2663  0.1082  0.9290
 3079SOL     OW20695   0.961   0.802   1.336  0.0750  0.5372  0.2963
 3079SOL    HW120696   0.899   0.784   1.407 -2.0061  1.3754 -1.3166
 3079SOL    HW220697   0.905   0.799   1.258  0.9585  0.2085 -0.3198
 3080SOL     OW20698   2.354   3.853   4.943 -0.2227  0.1137  0.1919
 3080SOL    HW120699   2.371   3.938   4.982 -2.6812  1.2046 -1.0692
 3080SOL    HW220700   2.262   3.838   4.967 -0.7548  1.3016 -1.0803
 3081SOL     OW20701   2.560   3.176   0.548 -0.9525 -0.6548  0.5274
 3081SOL    HW120702   2.477   3.155   0.505  0.5172 -0.4396 -2.4243
 3081SOL    HW220703   2.520   3.245   0.600  1.2093  3.0971 -2.7448
 3082SOL     OW20704   0.266   3.184   4.185  0.6896  0.4241  0.2235
 3082SOL    HW120705   0.352   3.224   4.171  1.0197  0.0479  1.2307
 3082SOL    HW220706   0.270   3.102   4.136  2.7345  1.1291 -0.7954
 3083SOL     OW20707   4.062   2.194  13.794 -0.2256  0.8849 -0.2496
 3083SOL    HW120708   4.140   2.159  13.836 -0.3934 -1.5101 -1.8724
 3083SOL    HW220709   3.992   2.133  13.818  1.0491 -1.3141 -2.0704
 3084SOL     OW20710   3.853   0.593  12.205 -0.0969 -0.2653  0.6273
 3084SOL    HW120711   3.788   0.584  12.274  0.9572 -0.8118  1.5518
 3084SOL    HW220712   3.804   0.637  12.136  1.1902  0.6283  0.2835
 3085SOL     OW20713   1.873   0.013   5.647  0.7704 -0.2065 -0.4816
 3085SOL    HW120714   1.939   4.678   5.680  1.6106  0.5252 -0.8287
 3085SOL    HW220715   1.933   0.078   5.611  0.8635 -0.9575 -1.6744
 3086SOL     OW20716   1.625   2.714   4.091  0.3938  0.4966 -0.4471
 3086SOL    HW120717   1.568   2.724   4.014  0.5756  1.0536 -0.5098
 3086SOL    HW220718   1.571   2.749   4.161 -0.9205 -1.0444 -0.6953
 3087SOL     OW20719   4.014   2.302   7.549  0.0324  0.8279  0.5655
 3087SOL    HW120720   3.994   2.225   7.602  1.3203 -0.2640 -0.5443
 3087SOL    HW220721   3.959   2.361   7.601  1.1051  0.8266  1.6988
 3088SOL     OW20722   2.672   3.144   9.888  0.1938 -0.5340 -0.2271
 3088SOL    HW120723   2.629   3.132   9.973  1.6023 -0.2969  0.5168
 3088SOL    HW220724   2.661   3.057   9.849  1.3715 -0.8303  0.1223
 3089SOL     OW20725   1.174   1.602   3.988  0.1393 -0.5193 -0.0406
 3089SOL    HW120726   1.196   1.692   3.964 -2.3577  0.1158 -0.0234
 3089SOL    HW220727   1.088   1.618   4.029  0.5898  1.1460  0.2449
 3090SOL     OW20728   1.993   3.104   2.554  0.1848 -0.4236  0.0594
 3090SOL    HW120729   1.999   3.083   2.461 -1.0093 -1.7264  0.2660
 3090SOL    HW220730   1.901   3.077   2.564  0.4111 -1.5483 -0.9121
 3091SOL     OW20731   0.696   0.549  11.272 -0.0292 -0.5807  1.0096
 3091SOL    HW120732   0.655   0.636  11.268  2.7080  0.5548 -1.6542
 3091SOL    HW220733   0.616   0.497  11.262  0.0227 -0.5555  0.4629
 3092SOL     OW20734   4.456   4.570  17.438 -0.3457  0.1598 -0.1335
 3092SOL    HW120735   4.387   4.629  17.469 -0.8683  0.3099 -1.5618
 3092SOL    HW220736   4.486   4.527  17.518  2.3425 -0.0297 -1.2474
 3093SOL     OW20737   1.083   2.512   7.971  0.5097 -0.0070  0.3069
 3093SOL    HW120738   1.045   2.570   7.905 -0.6714 -0.0276  0.9526
 3093SOL    HW220739   1.004   2.477   8.013  1.3568  0.7901  2.5756
 3094SOL     OW20740   0.040   2.948   7.318 -0.2248  0.2397  0.6976
 3094SOL    HW120741   0.084   2.865   7.333 -0.2708  0.0847  0.0030
 3094SOL    HW220742   0.017   2.934   7.226  0.2318 -0.5735  0.7050
 3095SOL     OW20743   4.622   2.061   9.285  0.2515  0.1830  0.2108
 3095SOL    HW120744   4.540   2.085   9.329  0.9466 -1.0968  2.2352
 3095SOL    HW220745   4.666   2.144   9.267  0.0512  0.2321 -0.0577
 3096SOL     OW20746   0.107   4.256   3.998 -0.1053 -0.0094 -0.3662
 3096SOL    HW120747   0.014   4.233   4.005  0.0794 -0.7004 -0.1137
 3096SOL    HW220748   0.152   4.192   4.054 -1.0990  1.0088  1.6042
 3097SOL     OW20749   2.213   3.165   1.219  0.0096 -0.0015  0.1826
 3097SOL    HW120750   2.129   3.207   1.240 -0.3549 -0.6550  0.0304
 3097SOL    HW220751   2.207   3.084   1.269 -0.3019 -0.2700 -0.2824
 3098SOL     OW20752   3.523   1.452   6.137  0.5920 -0.0011 -0.3239
 3098SOL    HW120753   3.443   1.420   6.178 -0.2455  0.9068 -1.2707
 3098SOL    HW220754   3.527   1.382   6.072 -0.9580 -0.9678  0.6284
 3099SOL     OW20755   2.859   1.297   3.183  0.0158 -0.3684  0.3504
 3099SOL    HW120756   2.786   1.247   3.220 -2.1375  1.8558 -0.8879
 3099SOL    HW220757   2.809   1.333   3.110 -0.0577  0.6596  0.9154
 3100SOL     OW20758   3.031   2.403   0.517 -0.2393  0.1976 -0.0917
 3100SOL    HW120759   2.962   2.342   0.545  0.7535 -0.7665  0.2639
 3100SOL    HW220760   3.035   2.451   0.600  0.2135 -2.0289  1.1975
 3101SOL     OW20761   3.424   4.651   5.756 -0.2551 -0.4926  0.0827
 3101SOL    HW120762   3.491   4.594   5.795 -0.1219 -0.0805  0.4413
 3101SOL    HW220763   3.449   0.004   5.804  0.3253 -1.7016  1.7810
 3102SOL     OW20764   4.009   1.229   5.074  0.0037 -0.3257  0.2887
 3102SOL    HW120765   3.953   1.185   5.010 -1.5590  1.3591  0.5124
 3102SOL    HW220766   4.004   1.174   5.153  0.0825 -0.8498 -0.0703
 3103SOL     OW20767   2.783   1.952   5.572 -0.0778 -0.1848  0.3662
 3103SOL    HW120768   2.803   2.029   5.627 -1.0061  0.0094  0.4242
 3103SOL    HW220769   2.871   1.942   5.535  0.0772  1.3493  0.2968
 3104SOL     OW20770   1.336   1.091  14.046 -0.5921 -0.4896  0.0207
 3104SOL    HW120771   1.315   1.033  14.120 -0.2157 -0.7991 -0.1181
 3104SOL    HW220772   1.400   1.035  14.003 -0.8659 -1.4349  0.8419
 3105SOL     OW20773   3.950   1.930  12.355  0.8239 -0.0557 -0.1418
 3105SOL    HW120774   3.986   2.018  12.343  1.2473 -0.0273  1.3059
 3105SOL    HW220775   3.938   1.909  12.263  1.4480  0.6526 -0.3817
 3106SOL     OW20776   3.759   1.164  12.632 -0.4151  0.3461  0.2957
 3106SOL    HW120777   3.847   1.161  12.669 -0.0842 -0.8815 -0.5618
 3106SOL    HW220778   3.737   1.072  12.617 -0.4744  0.5012 -0.6046
 3107SOL     OW20779   1.625   2.970   0.895 -0.2620  0.3204 -0.4026
 3107SOL    HW120780   1.549   2.940   0.945 -1.3345  2.4503 -0.7809
 3107SOL    HW220781   1.674   2.889   0.878  1.7574  1.1098  1.6734
 3108SOL     OW20782   0.221   3.219  13.425  0.5520  0.0793 -0.2633
 3108SOL    HW120783   0.222   3.139  13.478 -0.3089 -0.9026 -1.7332
 3108SOL    HW220784   0.173   3.188  13.349 -0.0127  0.1073  0.0780
 3109SOL     OW20785   2.899   1.019   0.222 -0.2157 -0.6959 -0.1070
 3109SOL    HW120786   2.984   1.058   0.244 -0.6323  0.3230 -0.3113
 3109SOL    HW220787   2.842   1.093   0.201 -1.2635 -1.0027  1.7092
 3110SOL     OW20788   0.360   4.343   3.753  0.1158 -0.3471 -0.1999
 3110SOL    HW120789   0.387   4.286   3.825 -1.4039 -2.2789 -1.1339
 3110SOL    HW220790   0.437   4.398   3.737  1.6146 -1.8365  1.8898
 3111SOL     OW20791   2.027   0.623  14.352  0.0198 -0.0272  0.4258
 3111SOL    HW120792   1.966   0.549  14.342 -0.4245  0.3428  0.4014
 3111SOL    HW220793   2.117   0.596  14.332  1.2384  3.1341  1.6474
 3112SOL     OW20794   1.517   2.471   8.116  0.2079 -0.3097 -0.7563
 3112SOL    HW120795   1.516   2.566   8.120  0.4421 -0.2458 -2.2156
 3112SOL    HW220796   1.433   2.437   8.149  0.7157  0.6371  1.4896
 3113SOL     OW20797   4.522   1.180   6.604 -0.7603 -0.1204  0.1540
 3113SOL    HW120798   4.545   1.097   6.564  2.5031  0.4707  0.7872
 3113SOL    HW220799   4.602   1.211   6.647 -0.8698  0.3118  0.0521
 3114SOL     OW20800   1.818   3.257   8.826 -0.4508 -0.1707  0.2962
 3114SOL    HW120801   1.818   3.334   8.883  1.3545  0.5342 -0.6470
 3114SOL    HW220802   1.766   3.196   8.879 -0.6621 -0.1625  0.0975
 3115SOL     OW20803   0.662   2.303   3.551 -1.0194 -0.0724  0.5048
 3115SOL    HW120804   0.754   2.328   3.543 -0.9207 -0.9812 -1.1611
 3115SOL    HW220805   0.623   2.388   3.571  0.2237  0.3540  1.1584
 3116SOL     OW20806   1.170   3.877   9.908  0.3846 -0.5733 -0.2044
 3116SOL    HW120807   1.239   3.866   9.842  1.2096 -1.0363  0.7475
 3116SOL    HW220808   1.215   3.820   9.971  0.9905  1.5285  1.2693
 3117SOL     OW20809   3.517   2.668   3.433 -0.3432 -0.0681  0.1080
 3117SOL    HW120810   3.435   2.657   3.481 -1.0588  1.4629 -0.7569
 3117SOL    HW220811   3.576   2.599   3.464  0.0171  1.4765  2.7915
 3118SOL     OW20812   2.845   3.662  11.133 -0.6479 -0.2880 -0.3092
 3118SOL    HW120813   2.915   3.679  11.196  0.3636 -1.4549 -1.1043
 3118SOL    HW220814   2.888   3.698  11.055 -1.6174  0.2585 -0.5818
 3119SOL     OW20815   0.669   0.137   5.819  0.3784 -0.0376  0.0836
 3119SOL    HW120816   0.760   0.124   5.792 -0.2108 -0.9923 -1.4451
 3119SOL    HW220817   0.635   0.138   5.729 -2.0164  1.3411  1.0052
 3120SOL     OW20818   0.876   3.584  17.312  0.3089  0.0279 -0.0179
 3120SOL    HW120819   0.806   3.639  17.276  0.8142  0.2503 -0.6523
 3120SOL    HW220820   0.832   3.540  17.385 -0.9076  0.3621 -0.5559
 3121SOL     OW20821   0.595   1.093   4.508 -0.8968  0.2311 -0.1224
 3121SOL    HW120822   0.663   1.138   4.459 -0.1077 -1.9550 -1.0552
 3121SOL    HW220823   0.618   1.001   4.494 -1.7068  0.5503 -3.5114
 3122SOL     OW20824   1.476   2.329  17.323 -0.2346 -0.0329 -0.0378
 3122SOL    HW120825   1.551   2.323  17.264  1.4377  0.3141  2.0515
 3122SOL    HW220826   1.514   2.284  17.399 -1.4992  1.2113  1.3580
 3123SOL     OW20827   2.377   3.171   1.011  0.5220  0.4358  0.1398
 3123SOL    HW120828   2.318   3.171   1.087 -0.0520  1.2510 -0.2995
 3123SOL    HW220829   2.346   3.251   0.968  0.5862 -0.4362 -1.5059
 3124SOL     OW20830   0.925   4.195  11.578 -0.3836  0.0309  0.2482
 3124SOL    HW120831   0.979   4.141  11.636 -0.4246 -0.4772 -0.1933
 3124SOL    HW220832   0.996   4.230  11.523  1.2040 -0.5434  1.9101
 3125SOL     OW20833   2.211   2.975   5.096 -0.0715 -0.0841 -0.3306
 3125SOL    HW120834   2.150   3.048   5.105  1.4648  1.0456  0.8044
 3125SOL    HW220835   2.296   3.019   5.102  0.1298 -0.4878 -0.1948
 3126SOL     OW20836   0.446   1.089  15.385  0.6796 -0.3067 -0.7359
 3126SOL    HW120837   0.520   1.147  15.364  0.7611  0.5504  1.7855
 3126SOL    HW220838   0.376   1.145  15.352  0.8781  0.7861  0.6616
 3127SOL     OW20839   3.930   1.220  10.152  0.4332  0.1820  0.5323
 3127SOL    HW120840   3.845   1.177  10.144  0.8517 -0.7158  0.9297
 3127SOL    HW220841   3.923   1.283  10.224 -1.4326 -0.4403  0.8727
 3128SOL     OW20842   4.250   1.114   4.296 -0.5705  0.3262 -0.1339
 3128SOL    HW120843   4.297   1.076   4.222 -0.9844 -1.0608  0.3109
 3128SOL    HW220844   4.166   1.069   4.290 -0.8756  1.0836 -1.4514
 3129SOL     OW20845   1.465   3.252   8.555 -0.6945  0.2364 -0.1794
 3129SOL    HW120846   1.414   3.223   8.479  0.0689 -0.2541 -0.5104
 3129SOL    HW220847   1.428   3.201   8.627  0.7181 -1.3622 -0.5847
 3130SOL     OW20848   1.401   0.709  16.949 -0.0150  0.3611 -0.0891
 3130SOL    HW120849   1.488   0.672  16.934 -0.0470  0.5350 -0.7283
 3130SOL    HW220850   1.374   0.658  17.025 -0.8177  0.3027 -0.4149
 3131SOL     OW20851   0.103   3.679   9.014  0.2039  0.2334 -0.4808
 3131SOL    HW120852   0.008   3.679   9.024  0.2189 -1.0534 -0.3087
 3131SOL    HW220853   0.121   3.757   9.066  0.6527  0.9693 -1.7206
 3132SOL     OW20854   2.075   2.851  13.685 -0.1009 -0.1479  0.7479
 3132SOL    HW120855   2.038   2.910  13.750 -1.8987  0.1283 -0.5409
 3132SOL    HW220856   2.143   2.815  13.742  0.6193 -0.3847 -0.2624
 3133SOL     OW20857   2.658   0.166   3.208  0.9930 -0.0997 -0.3205
 3133SOL    HW120858   2.601   0.182   3.283  2.1561 -1.3783  0.8371
 3133SOL    HW220859   2.614   0.222   3.144  1.4447  0.0931 -0.4678
 3134SOL     OW20860   2.650   2.488   2.332  1.2529 -0.3084 -0.4146
 3134SOL    HW120861   2.581   2.461   2.393 -0.4570  0.6544 -1.9298
 3134SOL    HW220862   2.696   2.550   2.390 -1.7611  1.3390  0.2050
 3135SOL     OW20863   2.714   0.121   6.451 -0.1988 -0.1224  0.0869
 3135SOL    HW120864   2.645   0.123   6.385  2.3248  0.4325 -2.5298
 3135SOL    HW220865   2.783   0.063   6.417 -0.4012 -0.1752 -0.2423
 3136SOL     OW20866   2.597   1.533   9.297 -0.1912  0.0172 -0.3060
 3136SOL    HW120867   2.641   1.467   9.351  3.0013  1.1569 -1.5346
 3136SOL    HW220868   2.674   1.559   9.247  0.2645 -2.4603 -0.8585
 3137SOL     OW20869   3.599   0.699   5.917 -0.1004  0.3826  0.5389
 3137SOL    HW120870   3.584   0.605   5.924 -0.5977  0.5402  1.5489
 3137SOL    HW220871   3.548   0.714   5.837  2.1869 -0.0698 -1.0039
 3138SOL     OW20872   1.340   0.367  12.534  0.0880 -0.0731 -0.2958
 3138SOL    HW120873   1.352   0.455  12.497  0.2495 -0.0518 -0.1923
 3138SOL    HW220874   1.361   0.306  12.463 -1.3596 -0.1460 -0.6507
 3139SOL     OW20875   2.024   0.184   7.433 -0.3322  0.1418 -0.3507
 3139SOL    HW120876   2.025   0.138   7.517 -1.7566 -0.0692 -0.4380
 3139SOL    HW220877   2.069   0.123   7.375 -0.8988  0.7342 -1.4176
 3140SOL     OW20878   4.574   1.736   4.373 -0.2188  0.2608 -0.4843
 3140SOL    HW120879   4.565   1.649   4.412 -1.1864  0.6515  0.1549
 3140SOL    HW220880   4.616   1.718   4.289 -1.3824 -1.6214 -0.6644
 3141SOL     OW20881   3.422   0.844   8.110 -0.4677 -0.0103 -0.0272
 3141SOL    HW120882   3.367   0.893   8.048 -0.3210  1.3655  0.9266
 3141SOL    HW220883   3.451   0.764   8.066 -1.0423  0.6532 -1.5930
 3142SOL     OW20884   0.988   1.312   9.130 -0.0178  0.0527 -0.0890
 3142SOL    HW120885   1.076   1.296   9.164 -0.3061  1.0695  1.1410
 3142SOL    HW220886   0.980   1.238   9.070  0.9781 -0.8160  0.8365
 3143SOL     OW20887   2.200   2.602   4.969  0.0842  0.1319  0.0918
 3143SOL    HW120888   2.219   2.604   4.875 -1.2268 -1.0793 -0.1902
 3143SOL    HW220889   2.135   2.671   4.981  0.6642  0.7648 -0.3436
 3144SOL     OW20890   4.082   1.316  14.441 -0.2715  0.1138  0.0570
 3144SOL    HW120891   4.162   1.368  14.452 -0.7136  0.6926  0.4629
 3144SOL    HW220892   4.109   1.245  14.499  1.1772 -0.1131 -0.8703
 3145SOL     OW20893   0.722   1.442   6.735 -0.2468 -0.2178 -0.2506
 3145SOL    HW120894   0.793   1.414   6.793 -0.7183 -0.9751 -0.0314
 3145SOL    HW220895   0.645   1.409   6.781 -1.2928  3.0173  0.3039
 3146SOL     OW20896   3.733   4.642   4.405 -0.4604 -0.1671  0.5385
 3146SOL    HW120897   3.704   4.568   4.458  2.7041 -0.3039  2.0964
 3146SOL    HW220898   3.822   4.618   4.378  0.5299  2.2144  1.7215
 3147SOL     OW20899   1.216   0.952   4.528 -0.0264 -0.4473  0.4456
 3147SOL    HW120900   1.312   0.954   4.531  0.0690 -2.5291 -1.3608
 3147SOL    HW220901   1.197   0.898   4.451 -1.5097  2.9432 -1.5724
 3148SOL     OW20902   0.100   1.639   7.250  0.3759 -0.6714 -0.1420
 3148SOL    HW120903   0.043   1.678   7.184 -0.2974 -0.4585  0.5630
 3148SOL    HW220904   0.167   1.602   7.191 -0.8297 -2.1951 -0.5515
 3149SOL     OW20905   2.655   3.494   0.388  0.2160 -0.3763 -0.1856
 3149SOL    HW120906   2.734   3.514   0.337  0.9930 -2.6115  0.1405
 3149SOL    HW220907   2.586   3.538   0.338 -0.6040 -4.2977 -2.5146
 3150SOL     OW20908   0.174   0.498   5.219 -0.0686  0.3995  0.1782
 3150SOL    HW120909   0.263   0.526   5.199 -0.5782 -0.3925 -3.2567
 3150SOL    HW220910   0.126   0.566   5.172  1.4900 -0.5401 -2.7431
 3151SOL     OW20911   1.644   2.180  12.849  0.6407  0.1113  0.1444
 3151SOL    HW120912   1.731   2.161  12.815  0.5962  0.3747 -0.1140
 3151SOL    HW220913   1.647   2.155  12.942 -1.9558  1.9146  0.7215
 3152SOL     OW20914   2.325   1.382  10.873 -0.2107  0.6115  0.5518
 3152SOL    HW120915   2.355   1.459  10.825  0.6670  0.4534  0.8312
 3152SOL    HW220916   2.389   1.383  10.944 -0.5071  1.1722  0.8077
 3153SOL     OW20917   0.903   1.351  13.307  0.1116 -0.0963  0.0898
 3153SOL    HW120918   0.865   1.263  13.307  1.5110 -0.7029 -1.2795
 3153SOL    HW220919   0.892   1.375  13.215  1.9070  0.0737 -0.0851
 3154SOL     OW20920   2.508   3.704   4.765 -0.0662  0.6194  0.1343
 3154SOL    HW120921   2.513   3.768   4.695  1.0114 -0.0363 -0.3936
 3154SOL    HW220922   2.473   3.758   4.836  1.4739  2.3652 -0.4500
 3155SOL     OW20923   2.088   2.417   2.799 -0.1519 -0.4692 -0.1104
 3155SOL    HW120924   2.007   2.378   2.835  0.2436 -0.4937  0.7541
 3155SOL    HW220925   2.132   2.342   2.760 -0.2012  0.8599 -2.7202
 3156SOL     OW20926   2.592   1.603   6.202 -0.4911  0.1072  0.1986
 3156SOL    HW120927   2.673   1.644   6.173  0.5855 -1.0442  1.6153
 3156SOL    HW220928   2.574   1.669   6.270  0.3028  1.2774 -0.7214
 3157SOL     OW20929   0.555   2.929   0.594 -0.0043  0.0151  0.4835
 3157SOL    HW120930   0.597   2.987   0.531 -1.1138 -0.8211 -1.0531
 3157SOL    HW220931   0.488   2.985   0.632 -0.1429  0.3582 -0.2614
 3158SOL     OW20932   1.156   3.831   4.638 -0.3457 -0.0416 -0.1554
 3158SOL    HW120933   1.243   3.869   4.649 -0.0312 -1.0571  0.7866
 3158SOL    HW220934   1.101   3.909   4.642 -0.0438  0.3116 -2.4885
 3159SOL     OW20935   0.405   4.164   7.364 -0.2386 -0.0559 -0.2107
 3159SOL    HW120936   0.455   4.238   7.397  0.8921 -0.4488 -1.0422
 3159SOL    HW220937   0.442   4.092   7.415  1.4648 -0.1619 -1.5955
 3160SOL     OW20938   1.849   4.402   1.248  0.1705 -0.2616 -0.0728
 3160SOL    HW120939   1.816   4.392   1.337 -1.6055  1.8400 -0.4934
 3160SOL    HW220940   1.903   4.322   1.248  0.7975  0.1579 -0.8447
 3161SOL     OW20941   2.682   1.788  17.008 -0.3078  0.7061 -0.1607
 3161SOL    HW120942   2.723   1.852  17.065 -1.7172  0.2582  1.3589
 3161SOL    HW220943   2.588   1.804  17.021 -0.1829  0.6230  0.8551
 3162SOL     OW20944   2.661   3.028   4.364 -0.1434 -0.9534  0.3104
 3162SOL    HW120945   2.696   3.117   4.371  1.0829 -1.2142 -2.6072
 3162SOL    HW220946   2.734   2.974   4.395  0.0877 -0.5370  0.4922
 3163SOL     OW20947   2.702   1.415   7.033  0.0464 -0.0641 -0.0888
 3163SOL    HW120948   2.623   1.438   6.982 -0.1121  0.5904  0.4466
 3163SOL    HW220949   2.716   1.325   7.005 -1.1722 -0.3018  0.0790
 3164SOL     OW20950   2.090   4.599   5.768 -0.0532 -0.3231 -0.2643
 3164SOL    HW120951   2.131   4.515   5.748 -2.1146 -1.8608  1.8957
 3164SOL    HW220952   2.080   4.603   5.863  0.9657  1.8505 -0.2473
 3165SOL     OW20953   4.047   3.102   7.586 -0.2112 -0.0345 -0.1605
 3165SOL    HW120954   4.110   3.051   7.636  1.1992  1.3788 -0.4861
 3165SOL    HW220955   3.996   3.027   7.554 -0.9561  0.1581  0.5815
 3166SOL     OW20956   3.830   4.715   7.308  0.3001  0.0709  0.0792
 3166SOL    HW120957   3.808   4.651   7.376  0.0211 -0.6830 -0.7247
 3166SOL    HW220958   3.822   4.658   7.231 -2.5960  1.4588 -0.6607
 3167SOL     OW20959   1.413   3.831  17.218  0.5254 -0.7662 -0.3746
 3167SOL    HW120960   1.453   3.886  17.151  1.9882 -0.2991  0.8883
 3167SOL    HW220961   1.366   3.766  17.166  0.4760  1.4512 -3.0541
 3168SOL     OW20962   1.226   3.566   1.689  0.1413 -0.2359 -0.1175
 3168SOL    HW120963   1.243   3.572   1.595 -1.4118 -0.5633 -0.4154
 3168SOL    HW220964   1.133   3.589   1.695  0.3201  0.7583 -1.3913
 3169SOL     OW20965   4.397   3.614   7.643 -0.1199  0.2430 -0.1644
 3169SOL    HW120966   4.370   3.619   7.734  1.4077 -0.1883  0.3235
 3169SOL    HW220967   4.467   3.549   7.649 -0.0219  0.4642  0.9690
 3170SOL     OW20968   2.837   3.046  17.550  0.3155  0.0787  0.0398
 3170SOL    HW120969   2.783   3.083  17.480  1.8067  2.4843  0.1241
 3170SOL    HW220970   2.778   2.994  17.605 -0.1660 -1.9761 -2.4345
 3171SOL     OW20971   0.802   1.146  10.511 -0.2776 -0.1795  0.2145
 3171SOL    HW120972   0.720   1.181  10.476  0.6289  0.8329 -0.9066
 3171SOL    HW220973   0.856   1.224  10.520 -1.1322  0.6329 -1.7124
 3172SOL     OW20974   2.335   2.880   9.660 -0.2479 -0.3492 -0.0667
 3172SOL    HW120975   2.274   2.945   9.626 -2.9622 -2.3572  0.9533
 3172SOL    HW220976   2.414   2.904   9.611 -1.3336  0.9232 -1.1819
 3173SOL     OW20977   0.125   2.534   5.516 -1.0232  0.7472  0.1728
 3173SOL    HW120978   0.183   2.605   5.488  0.9982 -1.1979 -0.5629
 3173SOL    HW220979   0.168   2.528   5.602 -3.6741  0.4887  1.4859
 3174SOL     OW20980   3.376   3.985  16.257 -0.4530  0.4450  0.1269
 3174SOL    HW120981   3.471   3.985  16.245 -0.6291 -0.3408 -1.3350
 3174SOL    HW220982   3.338   4.035  16.185  2.8975  2.4035 -0.2897
 3175SOL     OW20983   4.315   4.365  14.980  0.4307 -0.6166  0.2628
 3175SOL    HW120984   4.339   4.452  15.013 -0.8342 -0.5087  0.9247
 3175SOL    HW220985   4.385   4.355  14.916  0.6131  0.3283  0.3098
 3176SOL     OW20986   4.428   4.562   0.284 -0.3384 -0.5537 -0.6190
 3176SOL    HW120987   4.344   4.550   0.329 -0.1119  1.4088  0.2782
 3176SOL    HW220988   4.412   4.642   0.234 -0.9649  0.5643  1.4055
 3177SOL     OW20989   1.078   1.802  17.262 -0.1081  0.4905 -0.1606
 3177SOL    HW120990   1.015   1.830  17.328  1.2782  0.5248  1.1557
 3177SOL    HW220991   1.030   1.735  17.213  0.7710 -1.0983  1.1441
 3178SOL     OW20992   0.583   4.454   7.840 -0.5858 -0.1353  0.1460
 3178SOL    HW120993   0.546   4.366   7.842 -0.3801 -0.2492 -0.7313
 3178SOL    HW220994   0.569   4.489   7.928  1.2640 -2.0220  1.1924
 3179SOL     OW20995   3.873   0.895   9.889 -0.4306  0.0349  0.2117
 3179SOL    HW120996   3.872   0.801   9.871  2.1867 -0.2221  1.4912
 3179SOL    HW220997   3.804   0.926   9.830 -0.0206  3.0782  1.3171
 3180SOL     OW20998   0.953   0.139   9.575  0.0241 -0.2389 -0.0868
 3180SOL    HW120999   0.952   0.185   9.492 -0.6048 -2.6667 -1.4282
 3180SOL    HW221000   0.909   0.202   9.633 -0.5044  1.3945 -2.2783
 3181SOL     OW21001   4.345   1.187   0.860  0.1862 -0.0167  0.0789
 3181SOL    HW121002   4.425   1.139   0.878  1.7226  1.9749 -1.5557
 3181SOL    HW221003   4.333   1.226   0.946 -0.2243 -0.6871  0.3277
 3182SOL     OW21004   1.378   0.686  15.542  0.2059 -0.7498  0.0246
 3182SOL    HW121005   1.392   0.672  15.636  1.5075 -0.4217 -0.1330
 3182SOL    HW221006   1.284   0.704  15.538  0.1104 -1.5998 -1.4360
 3183SOL     OW21007   2.040   1.392   4.471 -0.0528 -0.0557  0.9770
 3183SOL    HW121008   2.062   1.462   4.533 -0.1291  1.5968 -0.8222
 3183SOL    HW221009   1.983   1.329   4.515 -0.0504 -1.2561 -0.7231
 3184SOL     OW21010   1.697   4.014   4.335 -0.3604 -0.7476  0.3439
 3184SOL    HW121011   1.659   3.979   4.254 -1.9525  2.9899 -0.5522
 3184SOL    HW221012   1.789   3.997   4.312  0.0189 -1.0348  2.0932
 3185SOL     OW21013   1.937   2.188   4.855 -0.2972 -0.7072 -0.6687
 3185SOL    HW121014   1.980   2.230   4.929  2.5273 -0.1673 -2.5667
 3185SOL    HW221015   1.854   2.157   4.891  0.3948 -2.4850 -0.5935
 3186SOL     OW21016   2.967   3.124   4.841  0.5993 -0.4223 -0.1633
 3186SOL    HW121017   2.872   3.120   4.833  0.6336 -1.7145  0.1285
 3186SOL    HW221018   2.998   3.128   4.750 -1.9824 -2.7284 -1.1344
 3187SOL     OW21019   1.590   3.549   1.023 -0.3749  0.0582  0.3180
 3187SOL    HW121020   1.544   3.465   1.020  0.5912 -0.4732  0.5073
 3187SOL    HW221021   1.681   3.532   1.000 -0.7798 -0.0577 -1.2097
 3188SOL     OW21022   2.460   1.949   8.158  0.6575 -0.0368  0.3098
 3188SOL    HW121023   2.514   1.985   8.088  2.7025 -0.2207  1.7974
 3188SOL    HW221024   2.379   1.940   8.108  1.5206  1.0825 -1.3160
 3189SOL     OW21025   0.980   2.874  15.434 -0.1695  0.5671 -0.5221
 3189SOL    HW121026   0.994   2.957  15.389  0.6454  0.8167  0.1958
 3189SOL    HW221027   0.959   2.907  15.521 -1.7827 -1.4377 -0.1502
 3190SOL     OW21028   3.032   2.304   4.331  0.2843 -0.1958 -0.4922
 3190SOL    HW121029   2.950   2.323   4.376  0.2144  0.5828 -0.9478
 3190SOL    HW221030   2.995   2.269   4.250 -1.1631 -0.5039  0.3067
 3191SOL     OW21031   4.688   3.288   2.614  0.4939  0.5866 -0.1227
 3191SOL    HW121032   0.054   3.317   2.624  1.1713 -1.4502 -0.5355
 3191SOL    HW221033   4.701   3.194   2.626 -0.1767  0.4750 -0.2925
 3192SOL     OW21034   2.293   2.339   8.714 -0.3433  0.0626  0.4726
 3192SOL    HW121035   2.282   2.245   8.726 -0.3715 -0.1398 -1.1037
 3192SOL    HW221036   2.232   2.359   8.642  0.1112  0.7814  0.2842
 3193SOL     OW21037   0.255   1.889   8.875  0.0152  0.9130 -0.4372
 3193SOL    HW121038   0.232   1.885   8.968  0.9713  2.4975 -0.1383
 3193SOL    HW221039   0.210   1.809   8.848  1.1701 -0.3756  1.4446
 3194SOL     OW21040   0.674   4.593   4.980 -0.1160  0.1425 -0.2548
 3194SOL    HW121041   0.613   4.535   4.935 -0.6459  0.8589 -0.4571
 3194SOL    HW221042   0.637   4.590   5.068  1.4363  0.0354  0.4077
 3195SOL     OW21043   2.990   4.327   4.493  0.3838  0.2939  0.5097
 3195SOL    HW121044   2.939   4.248   4.475  0.4577  0.3273  0.1539
 3195SOL    HW221045   2.949   4.350   4.577 -0.2768 -1.4567  0.6576
 3196SOL     OW21046   3.117   0.814   8.787 -0.3360 -0.4123 -0.0206
 3196SOL    HW121047   3.130   0.811   8.881 -0.4891 -1.6336 -0.0385
 3196SOL    HW221048   3.158   0.730   8.766 -0.4944 -0.8160  1.3240
 3197SOL     OW21049   2.064   3.626   3.575  0.4365 -0.4136 -0.4629
 3197SOL    HW121050   2.057   3.668   3.490  0.1812  0.4943  0.0109
 3197SOL    HW221051   2.048   3.532   3.564 -1.7492 -0.2032  0.8967
 3198SOL     OW21052   3.987   1.693   5.452 -0.3291 -0.5063 -0.6901
 3198SOL    HW121053   4.014   1.601   5.464  0.1932 -0.1532  0.9180
 3198SOL    HW221054   3.906   1.705   5.502 -0.5278  1.1597 -1.4104
 3199SOL     OW21055   3.379   1.532  11.437  0.1036 -0.2787  0.2098
 3199SOL    HW121056   3.417   1.543  11.350 -1.4655  0.3974 -0.4044
 3199SOL    HW221057   3.287   1.541  11.410 -0.4335 -0.0238  2.1218
 3200SOL     OW21058   1.048   0.450   7.630  0.2859 -0.2707 -0.2865
 3200SOL    HW121059   1.091   0.410   7.555  0.6901  2.3754 -1.4546
 3200SOL    HW221060   1.088   0.398   7.700  1.2394  0.6379 -0.1548
 3201SOL     OW21061   0.816   3.831   5.964  0.3825  0.7141  0.0272
 3201SOL    HW121062   0.726   3.839   5.931 -0.4285  0.6447  2.2540
 3201SOL    HW221063   0.796   3.816   6.056  0.6408 -3.0825 -0.5270
 3202SOL     OW21064   0.832   0.314   2.159 -0.4225 -0.0727  0.1323
 3202SOL    HW121065   0.814   0.303   2.066  0.6534 -1.9621  0.1427
 3202SOL    HW221066   0.851   0.408   2.162  0.5636 -0.2695  0.0092
 3203SOL     OW21067   4.343   0.610   3.024  0.2597  0.4651 -0.5412
 3203SOL    HW121068   4.262   0.598   2.973 -0.0431  2.0309 -0.4264
 3203SOL    HW221069   4.337   0.535   3.083 -2.3800  1.2757  0.2023
 3204SOL     OW21070   4.051   2.475   1.714 -0.0679 -0.5091 -0.1841
 3204SOL    HW121071   4.039   2.417   1.790  2.2754  0.5285  1.0038
 3204SOL    HW221072   4.079   2.423   1.639 -2.0148 -0.4970 -0.9080
 3205SOL     OW21073   1.462   3.920   0.516  0.0326  0.5799  0.5436
 3205SOL    HW121074   1.452   3.825   0.510 -0.2666  0.5209  1.8209
 3205SOL    HW221075   1.557   3.917   0.531  0.2933  0.7918 -1.0652
 3206SOL     OW21076   4.347   0.289   2.863 -0.5301  0.2276  0.2958
 3206SOL    HW121077   4.362   0.240   2.943 -0.5304 -0.7475 -0.2966
 3206SOL    HW221078   4.251   0.291   2.869 -0.5137  0.7619  0.4327
 3207SOL     OW21079   0.641   2.307  11.435 -0.5247 -0.5175  0.0049
 3207SOL    HW121080   0.571   2.248  11.406 -0.6810 -1.4320  2.2566
 3207SOL    HW221081   0.717   2.259  11.403 -0.3646 -0.5218  0.3970
 3208SOL     OW21082   0.147   2.198  10.760  0.0906  0.1084  0.3087
 3208SOL    HW121083   0.140   2.207  10.665  0.8778  1.1345  0.3455
 3208SOL    HW221084   0.206   2.273  10.772  0.5372 -0.4352  1.6416
 3209SOL     OW21085   3.593   1.335  12.514 -0.4259 -0.5488 -0.7969
 3209SOL    HW121086   3.660   1.279  12.554  0.0305  0.5240 -0.0701
 3209SOL    HW221087   3.661   1.399  12.497 -1.1119  0.3568 -0.1599
 3210SOL     OW21088   3.376   2.273   1.115 -0.8237 -0.6297  0.3967
 3210SOL    HW121089   3.377   2.366   1.137 -1.8814 -0.5522  0.1258
 3210SOL    HW221090   3.335   2.233   1.192  0.2494 -0.4525  1.0651
 3211SOL     OW21091   1.584   0.199  17.172 -0.2311  1.1315 -0.3926
 3211SOL    HW121092   1.589   0.281  17.124  1.5609  0.9110 -0.5702
 3211SOL    HW221093   1.643   0.208  17.247 -0.3251 -1.0769 -0.0542
 3212SOL     OW21094   2.610   2.881   6.690  0.0004  0.1534  0.2130
 3212SOL    HW121095   2.670   2.858   6.761 -2.2305 -2.7896  1.1089
 3212SOL    HW221096   2.557   2.803   6.675 -0.0498  0.5357 -1.6209
 3213SOL     OW21097   1.061   3.971  14.033  1.1639 -0.0530 -0.9170
 3213SOL    HW121098   1.091   4.000  14.119  0.5541 -1.8478 -0.0919
 3213SOL    HW221099   1.108   3.888  14.037  3.0301  1.0808  0.5319
 3214SOL     OW21100   1.076   0.031   8.649 -0.4893 -0.0782 -0.3047
 3214SOL    HW121101   1.113   4.695   8.586 -0.3492  2.7454 -2.9523
 3214SOL    HW221102   1.066   0.107   8.593 -0.8554  1.9555  2.5180
 3215SOL     OW21103   3.388   0.710   1.327  0.1909 -0.3551  0.4705
 3215SOL    HW121104   3.344   0.626   1.315  1.4673 -1.1561  1.5099
 3215SOL    HW221105   3.325   0.752   1.386 -0.4844 -0.2617 -0.3111
 3216SOL     OW21106   3.814   0.083  13.158  0.0869  0.1939  0.5578
 3216SOL    HW121107   3.741   0.105  13.217 -0.7691 -0.9927 -0.0477
 3216SOL    HW221108   3.797   0.132  13.077 -1.3945 -1.9103 -0.4091
 3217SOL     OW21109   2.416   0.371   4.366  0.3911 -0.0006  0.4218
 3217SOL    HW121110   2.347   0.413   4.418  0.8199  0.1070  0.9081
 3217SOL    HW221111   2.420   0.285   4.409 -0.9859 -0.4274 -0.3096
 3218SOL     OW21112   0.981   3.920   3.594  0.1289  0.3969  0.2433
 3218SOL    HW121113   1.008   4.006   3.626 -1.0768  0.7827  0.2212
 3218SOL    HW221114   0.899   3.936   3.547  0.4034  1.0940 -0.0043
 3219SOL     OW21115   1.620   3.924   2.949 -0.1402  0.1578  0.3835
 3219SOL    HW121116   1.589   3.840   2.983 -1.3521  1.1111  1.5964
 3219SOL    HW221117   1.557   3.935   2.877 -0.9147 -0.2707  1.0028
 3220SOL     OW21118   4.613   4.572   4.612  0.2728 -0.2968  0.8334
 3220SOL    HW121119   4.691   4.538   4.568  0.4619  1.7372 -0.4300
 3220SOL    HW221120   4.638   4.567   4.704  1.9170  1.0637  0.4698
 3221SOL     OW21121   0.031   3.348   5.640 -0.3375  0.3781 -0.7001
 3221SOL    HW121122   0.041   3.441   5.621  1.3055  0.4633  0.5539
 3221SOL    HW221123   0.036   3.310   5.552 -1.1244 -0.5134 -0.3626
 3222SOL     OW21124   1.333   2.928  15.313 -0.0229  0.1375  0.1610
 3222SOL    HW121125   1.322   2.906  15.220  1.7393 -0.5254  0.1117
 3222SOL    HW221126   1.271   3.001  15.318 -2.0424 -1.5841  0.1821
 3223SOL     OW21127   4.514   0.043   2.722 -0.5191  0.0930  0.5770
 3223SOL    HW121128   4.605   0.016   2.735  0.2738  2.1259 -0.7503
 3223SOL    HW221129   4.524   0.124   2.672  0.8584  1.1548  2.5502
 3224SOL     OW21130   3.894   0.855  14.004  0.3051 -0.7415  0.3145
 3224SOL    HW121131   3.858   0.771  13.978  1.2001  0.5537 -5.1942
 3224SOL    HW221132   3.852   0.907  13.936  1.5843  0.8630  0.7270
 3225SOL     OW21133   2.588   3.168   8.390 -0.4774  0.0536 -0.0435
 3225SOL    HW121134   2.516   3.120   8.429 -0.2722 -1.6566 -1.7932
 3225SOL    HW221135   2.655   3.156   8.458 -0.2982 -2.4664 -0.6810
 3226SOL     OW21136   3.299   0.944   3.999  0.3691 -0.0901 -0.0535
 3226SOL    HW121137   3.312   0.943   3.904  1.3468 -2.7184  0.0948
 3226SOL    HW221138   3.206   0.951   3.982  0.1214  0.1668  1.4542
 3227SOL     OW21139   0.286   2.062   9.854 -0.7272 -0.0075  0.4253
 3227SOL    HW121140   0.261   2.072   9.946 -0.1592  1.6404  0.3988
 3227SOL    HW221141   0.202   2.057   9.809 -0.3321  0.0875 -0.3204
 3228SOL     OW21142   0.075   1.430   1.934  0.3466 -1.0951  0.2518
 3228SOL    HW121143   0.071   1.442   2.029 -1.0805 -0.4518  0.1160
 3228SOL    HW221144   4.708   1.434   1.909  0.3050  0.7675  0.6763
 3229SOL     OW21145   4.228   3.421   2.883 -0.3827  0.1978 -0.1051
 3229SOL    HW121146   4.136   3.403   2.862 -0.2689 -1.3160  0.6974
 3229SOL    HW221147   4.219   3.516   2.894 -0.4499  0.0811  0.8611
 3230SOL     OW21148   4.144   3.531   8.177 -0.0300 -0.1555 -0.6089
 3230SOL    HW121149   4.155   3.527   8.272 -0.7456  3.2543 -0.3825
 3230SOL    HW221150   4.157   3.625   8.168 -1.2649  0.1302  0.4475
 3231SOL     OW21151   0.865   2.216  13.746 -0.4809  0.0049  0.2390
 3231SOL    HW121152   0.882   2.149  13.679 -1.2708  0.0743 -0.0321
 3231SOL    HW221153   0.772   2.226  13.765 -0.9925 -0.0943 -2.1386
 3232SOL     OW21154   3.898   3.314  15.213  0.3453 -0.4548 -0.0975
 3232SOL    HW121155   3.883   3.283  15.124  1.9699 -0.9534 -0.1920
 3232SOL    HW221156   3.859   3.248  15.270 -2.0599  2.2033  1.3651
 3233SOL     OW21157   2.646   3.464  10.015 -0.0021 -0.2495 -0.0810
 3233SOL    HW121158   2.587   3.531  10.048 -0.4156  0.3614 -2.0272
 3233SOL    HW221159   2.592   3.404   9.964 -0.2864  0.1300 -0.2259
 3234SOL     OW21160   0.414   2.739   6.653 -0.4913  0.2889 -0.3748
 3234SOL    HW121161   0.333   2.788   6.667 -0.6336 -0.2710  0.7446
 3234SOL    HW221162   0.376   2.655   6.626 -1.6651  0.4372  0.8368
 3235SOL     OW21163   3.827   1.080   0.804  0.0925  0.4355  0.3714
 3235SOL    HW121164   3.802   1.153   0.748 -0.0570  1.1525  1.3718
 3235SOL    HW221165   3.827   1.003   0.747 -1.1918 -0.7987  2.0165
 3236SOL     OW21166   3.109   0.786   4.908  0.1966  0.2419 -0.3283
 3236SOL    HW121167   3.112   0.761   4.815  3.2582 -4.7315  1.1205
 3236SOL    HW221168   3.152   0.718   4.959  1.4760  1.1635 -0.1905
 3237SOL     OW21169   4.383   0.182   5.622  0.3398  0.2363 -0.2632
 3237SOL    HW121170   4.453   0.190   5.558 -0.8269  0.4607 -1.5252
 3237SOL    HW221171   4.366   0.088   5.623  0.7355  0.1699 -0.0377
 3238SOL     OW21172   3.091   4.251  11.646 -0.7326 -0.0562  0.8396
 3238SOL    HW121173   3.179   4.248  11.684  0.3554  0.0751 -1.6813
 3238SOL    HW221174   3.049   4.330  11.680  0.6722 -0.6863  4.0840
 3239SOL     OW21175   1.538   0.101   8.219 -0.1626 -0.4712 -0.7162
 3239SOL    HW121176   1.474   0.108   8.289  0.4013 -1.1410 -0.1185
 3239SOL    HW221177   1.584   0.185   8.221  0.3118 -0.7142 -1.3304
 3240SOL     OW21178   3.059   4.552   7.810  0.0440 -0.3085  0.5457
 3240SOL    HW121179   3.015   4.480   7.766  1.2820  0.4593 -1.9727
 3240SOL    HW221180   2.991   4.583   7.869 -0.1808  1.7175 -0.7557
 3241SOL     OW21181   1.810   1.577   7.652 -0.1002 -0.8510 -0.1423
 3241SOL    HW121182   1.719   1.547   7.643 -0.1333 -1.2164  1.4102
 3241SOL    HW221183   1.851   1.521   7.586  0.3177  2.1995 -2.4826
 3242SOL     OW21184   3.358   2.666   7.092 -0.0943 -0.0942  0.5833
 3242SOL    HW121185   3.386   2.576   7.108 -1.1065 -0.6489 -0.7959
 3242SOL    HW221186   3.336   2.687   7.183  1.9311  1.8550  0.6385
 3243SOL     OW21187   1.435   4.037   6.150 -0.1741 -0.2507 -0.0278
 3243SOL    HW121188   1.412   4.034   6.243  1.3049  1.1905  0.3943
 3243SOL    HW221189   1.357   3.999   6.111  1.2259 -1.2207 -1.8424
 3244SOL     OW21190   0.599   4.279  10.888  0.2019  0.6995 -0.2498
 3244SOL    HW121191   0.678   4.329  10.868  0.7048 -0.2297 -0.6161
 3244SOL    HW221192   0.569   4.253  10.801 -0.8409 -0.0720  0.3381
 3245SOL     OW21193   2.659   1.823   2.460 -0.6051 -0.1792 -0.0389
 3245SOL    HW121194   2.705   1.747   2.494  1.0923  0.5749 -0.6718
 3245SOL    HW221195   2.573   1.785   2.438  0.0027 -0.6445 -1.6157
 3246SOL     OW21196   4.545   0.334   3.171 -0.7310  0.1411 -0.2006
 3246SOL    HW121197   4.531   0.242   3.148  1.3777 -0.7547  2.1005
 3246SOL    HW221198   4.453   0.359   3.157  0.5141  2.8686 -3.3158
 3247SOL     OW21199   3.062   0.641  17.456  0.0653  0.0261  0.1572
 3247SOL    HW121200   3.126   0.655  17.526 -0.4075  1.0273  0.3879
 3247SOL    HW221201   2.996   0.708  17.473 -0.5830 -0.5257 -0.1684
 3248SOL     OW21202   3.390   1.298   0.009 -0.6781  0.2718  0.2638
 3248SOL    HW121203   3.476   1.268  17.682 -0.0019 -1.7304  4.1822
 3248SOL    HW221204   3.406   1.386  17.676  1.6230 -1.0552 -1.9611
 3249SOL     OW21205   0.876   0.458  12.708 -0.5179  0.3556  0.1594
 3249SOL    HW121206   0.821   0.402  12.762 -4.5252  1.0522 -3.2243
 3249SOL    HW221207   0.851   0.424  12.622  2.6927  0.8514 -0.9833
 3250SOL     OW21208   4.611   0.540   9.838 -0.0929 -0.0604  0.3876
 3250SOL    HW121209   4.623   0.631   9.813 -0.9206  0.3145  1.3280
 3250SOL    HW221210   4.592   0.545   9.932 -1.2152 -0.0929  0.1540
 3251SOL     OW21211   0.909   1.740   1.595  0.0523 -0.3301  0.1747
 3251SOL    HW121212   0.927   1.657   1.550  0.4482 -1.4421  2.3817
 3251SOL    HW221213   0.983   1.755   1.654  0.1075  2.4416 -0.6059
 3252SOL     OW21214   1.271   3.388   4.702 -0.4760  0.3475  0.0458
 3252SOL    HW121215   1.214   3.461   4.726 -0.4370  0.3605  0.1006
 3252SOL    HW221216   1.256   3.316   4.763 -0.8367 -2.0718 -2.9121
 3253SOL     OW21217   3.746   4.380   0.684  0.0408 -0.5009  0.1366
 3253SOL    HW121218   3.808   4.340   0.745 -0.0191 -1.3359 -0.3531
 3253SOL    HW221219   3.670   4.332   0.715  0.9423 -3.0311 -1.5555
 3254SOL     OW21220   2.617   4.687   4.930  0.2746  0.0380  0.2324
 3254SOL    HW121221   2.537   4.670   4.881 -0.7882  0.4447  1.8185
 3254SOL    HW221222   2.607   0.056   4.936 -0.6593 -0.0201 -0.3720
 3255SOL     OW21223   2.217   2.224   2.656 -0.1233  0.4115 -0.2935
 3255SOL    HW121224   2.307   2.199   2.637  0.2874  1.6440  0.0708
 3255SOL    HW221225   2.170   2.141   2.644  0.8921 -0.3710  1.2980
 3256SOL     OW21226   2.752   0.262   4.366 -0.8332  0.0223  0.1895
 3256SOL    HW121227   2.815   0.189   4.360 -0.3472  0.3627  1.0914
 3256SOL    HW221228   2.671   0.214   4.354  0.3049 -1.5703 -1.1295
 3257SOL     OW21229   1.529   1.056   5.324  0.0413 -0.4607  0.1784
 3257SOL    HW121230   1.439   1.036   5.352  0.2995 -0.4842  1.0007
 3257SOL    HW221231   1.555   1.126   5.385  0.3121 -1.3580  1.0887
 3258SOL     OW21232   1.186   1.706   2.661 -0.1837  0.4482  0.3578
 3258SOL    HW121233   1.189   1.730   2.568  1.5973  1.8133  0.7684
 3258SOL    HW221234   1.262   1.649   2.666 -0.7245 -0.4736 -2.2138
 3259SOL     OW21235   1.542   4.432  10.191  0.2299 -0.2089  0.4703
 3259SOL    HW121236   1.528   4.380  10.112  0.5484 -1.4791  1.2638
 3259SOL    HW221237   1.623   4.481  10.177  0.7522 -1.2477 -0.1237
 3260SOL     OW21238   1.595   2.935  10.198 -0.3061 -0.2376  0.4004
 3260SOL    HW121239   1.564   2.869  10.136  2.7790 -0.6076 -0.7549
 3260SOL    HW221240   1.522   2.946  10.259 -2.4850 -0.9350 -2.0804
 3261SOL     OW21241   2.215   3.631   4.276 -0.0183  0.1030 -0.0860
 3261SOL    HW121242   2.193   3.637   4.183 -0.8150  1.0856  0.1644
 3261SOL    HW221243   2.135   3.664   4.317 -0.0078  0.5192 -0.3991
 3262SOL     OW21244   3.840   1.903  12.095  0.1210  0.0063 -0.2454
 3262SOL    HW121245   3.756   1.859  12.104 -0.2483  0.7069 -0.2475
 3262SOL    HW221246   3.847   1.895  12.000 -0.6980  0.5529 -0.3487
 3263SOL     OW21247   0.088   0.749   7.792 -0.1498 -0.0511 -0.6458
 3263SOL    HW121248   0.046   0.808   7.729 -1.7133 -0.0320  0.4133
 3263SOL    HW221249   0.153   0.810   7.825 -0.0106 -1.2326  1.2214
 3264SOL     OW21250   2.589   1.774  15.121  0.4420 -0.3307  0.5049
 3264SOL    HW121251   2.651   1.811  15.183  0.7309  0.3202 -0.1785
 3264SOL    HW221252   2.625   1.686  15.108  1.9631  0.3477  0.1847
 3265SOL     OW21253   1.829   2.875   5.330  0.1766  0.1578 -0.2210
 3265SOL    HW121254   1.806   2.877   5.237  1.0191  2.0063 -0.3854
 3265SOL    HW221255   1.774   2.949   5.354  0.8842  0.4789  0.4073
 3266SOL     OW21256   0.908   1.990   1.485  0.0440  0.0992  0.1225
 3266SOL    HW121257   0.985   1.989   1.542 -0.6826 -2.7538  1.0568
 3266SOL    HW221258   0.880   1.901   1.509  1.6203 -0.6736 -0.9040
 3267SOL     OW21259   3.712   4.306   4.229  0.1554  0.1694 -0.3416
 3267SOL    HW121260   3.748   4.347   4.151 -1.3629  0.3180 -0.9712
 3267SOL    HW221261   3.659   4.230   4.207 -1.8186  1.7665 -1.0831
 3268SOL     OW21262   4.657   1.476   8.411  0.2780 -0.6096  0.9315
 3268SOL    HW121263   0.027   1.477   8.413  0.3412  1.1024 -2.3541
 3268SOL    HW221264   4.641   1.570   8.407  1.4937 -0.4596 -0.4750
 3269SOL     OW21265   1.300   4.719  13.719 -0.3274  0.1545  0.3904
 3269SOL    HW121266   1.303   4.624  13.706 -3.8185  0.1393 -0.1756
 3269SOL    HW221267   1.394   0.013  13.726 -0.1228  0.1202 -2.2050
 3270SOL     OW21268   1.281   0.097  11.509 -0.0463  0.7124  0.3975
 3270SOL    HW121269   1.195   0.059  11.526  0.6588 -1.3656 -0.7081
 3270SOL    HW221270   1.275   0.187  11.541  2.1025  0.1023  2.5117
 3271SOL     OW21271   4.433   2.634   2.584 -0.1014 -0.6856  0.1843
 3271SOL    HW121272   4.440   2.571   2.513  1.1242  0.5382 -0.7855
 3271SOL    HW221273   4.339   2.639   2.601  0.6530  2.0285  3.8314
 3272SOL     OW21274   2.111   2.204   6.282  0.1916 -0.8389  0.6490
 3272SOL    HW121275   2.152   2.208   6.368  2.4647  1.0550 -0.5100
 3272SOL    HW221276   2.054   2.127   6.284  1.0657 -1.5081  0.0435
 3273SOL     OW21277   3.856   4.109   3.980 -0.5733 -0.6094 -0.2431
 3273SOL    HW121278   3.773   4.138   4.019  0.9575  1.5688  1.3500
 3273SOL    HW221279   3.856   4.019   4.010  0.5914 -0.2123  0.9170
 3274SOL     OW21280   3.757   3.601  14.592 -0.0756 -0.4112  0.3745
 3274SOL    HW121281   3.676   3.640  14.625 -0.4019 -1.1025  0.4058
 3274SOL    HW221282   3.755   3.523  14.647 -2.1534 -0.1187  0.6958
 3275SOL     OW21283   4.561   1.678  14.343 -0.4384  0.5722  0.1849
 3275SOL    HW121284   4.473   1.674  14.380 -1.1193  1.3804 -1.3487
 3275SOL    HW221285   4.540   1.703  14.253  1.8241  0.1540 -0.4720
 3276SOL     OW21286   4.051   0.044   4.561  0.5573 -0.2379  0.1066
 3276SOL    HW121287   4.105   0.012   4.633  1.4456  1.2672  0.1159
 3276SOL    HW221288   4.021   4.686   4.524  0.4321  0.7941 -2.1012
 3277SOL     OW21289   1.885   3.152   5.673  0.4816 -0.0145  0.6608
 3277SOL    HW121290   1.942   3.215   5.630  1.7809 -1.9530 -0.4479
 3277SOL    HW221291   1.947   3.081   5.686 -2.1066 -2.0388  1.8028
 3278SOL     OW21292   4.068   1.895   3.171  0.5764 -0.0029 -0.4856
 3278SOL    HW121293   4.003   1.892   3.101  0.4414 -2.4398 -0.2635
 3278SOL    HW221294   4.122   1.816   3.169  0.6424  0.0381 -0.3056
 3279SOL     OW21295   1.266   2.963   4.170  0.5138 -0.3707 -0.0700
 3279SOL    HW121296   1.236   3.028   4.235  0.8566  0.2502 -0.5308
 3279SOL    HW221297   1.333   2.920   4.223  2.1985 -0.8013 -2.5815
 3280SOL     OW21298   4.153   1.340   2.137  0.2102 -0.3859 -0.5397
 3280SOL    HW121299   4.094   1.268   2.115  0.8229 -1.2813  0.7213
 3280SOL    HW221300   4.153   1.386   2.053 -0.9296 -3.2052 -2.0965
 3281SOL     OW21301   3.428   2.301   4.646  0.0259 -0.0332 -0.2001
 3281SOL    HW121302   3.426   2.394   4.671  2.6964 -0.2687  0.8904
 3281SOL    HW221303   3.483   2.309   4.568  1.4761 -0.0058  0.8251
 3282SOL     OW21304   3.596   0.536   0.341  0.2301  0.1299 -0.5976
 3282SOL    HW121305   3.542   0.491   0.406  0.2883  1.0174  0.0625
 3282SOL    HW221306   3.609   0.620   0.385  2.1387 -0.3105 -0.3381
 3283SOL     OW21307   3.457   3.855  10.439 -0.2531 -0.0418  0.2473
 3283SOL    HW121308   3.499   3.844  10.524  0.2202 -0.3187 -0.0234
 3283SOL    HW221309   3.367   3.869  10.467 -0.6225 -1.1319 -0.4185
 3284SOL     OW21310   3.087   4.368   7.043  0.2519  0.1785 -0.1272
 3284SOL    HW121311   3.067   4.340   6.954 -0.2939  2.2837 -0.6497
 3284SOL    HW221312   2.998   4.386   7.073  0.5915 -0.2750  1.1950
 3285SOL     OW21313   3.974   0.824   7.985 -0.1187  0.1154 -0.3060
 3285SOL    HW121314   3.884   0.859   7.985 -0.3350 -0.4489 -0.2635
 3285SOL    HW221315   4.001   0.822   8.077 -1.5832  0.3852  0.1358
 3286SOL     OW21316   2.852   4.724  11.260  0.3654 -0.2212 -0.1055
 3286SOL    HW121317   2.839   4.639  11.217  0.6706 -0.7953  0.9541
 3286SOL    HW221318   2.940   0.021  11.229  1.0083 -2.1873  0.2833
 3287SOL     OW21319   3.862   0.156   8.226 -0.6702 -0.2833  0.4562
 3287SOL    HW121320   3.886   0.149   8.318  1.9844  4.1634  0.0640
 3287SOL    HW221321   3.803   0.231   8.230 -1.8592 -1.0964 -1.4061
 3288SOL     OW21322   1.036   4.509   0.148 -1.3025 -0.1426  0.0835
 3288SOL    HW121323   1.102   4.578   0.153 -1.9194  0.2145  3.6308
 3288SOL    HW221324   1.034   4.511   0.053  1.5592 -0.3268  0.0147
 3289SOL     OW21325   3.513   4.701   3.670 -0.1689 -0.3366  0.0084
 3289SOL    HW121326   3.460   0.029   3.729 -0.1733 -1.0951  0.6779
 3289SOL    HW221327   3.520   4.621   3.722  0.1998 -0.3354 -0.0392
 3290SOL     OW21328   1.137   0.364  11.917  0.3196  0.2555 -0.1739
 3290SOL    HW121329   1.171   0.382  11.829 -0.0260  0.9704 -0.1547
 3290SOL    HW221330   1.200   0.302  11.954  0.2918 -0.3893 -1.1931
 3291SOL     OW21331   1.417   4.521  16.891  0.4343 -0.0970  0.4903
 3291SOL    HW121332   1.480   4.591  16.873 -1.2895  1.2434 -0.3373
 3291SOL    HW221333   1.476   4.446  16.881 -1.8701 -2.0930  1.8800
 3292SOL     OW21334   4.277   0.561   5.287  0.4113 -0.4662 -0.4274
 3292SOL    HW121335   4.366   0.580   5.319  1.0355 -1.2363 -1.6757
 3292SOL    HW221336   4.295   0.481   5.236  1.2541 -1.0284  0.7515
 3293SOL     OW21337   2.977   3.879  16.461 -0.2226 -0.0134 -0.0998
 3293SOL    HW121338   2.979   3.819  16.536  0.3160 -0.3394 -0.3708
 3293SOL    HW221339   2.883   3.897  16.451  0.0708  0.2769 -2.4586
 3294SOL     OW21340   4.114   2.427   0.595 -0.1439  0.7423  0.0511
 3294SOL    HW121341   4.132   2.343   0.552 -1.3911  0.3635  0.2810
 3294SOL    HW221342   4.114   2.486   0.520  4.0980 -0.2023 -0.7101
 3295SOL     OW21343   4.032   2.676   7.616 -0.4749 -0.0590 -0.2182
 3295SOL    HW121344   4.127   2.684   7.612 -0.4445 -0.8086 -0.8776
 3295SOL    HW221345   4.029   2.615   7.689 -1.6165 -0.7527 -0.8429
 3296SOL     OW21346   0.670   3.289   4.671  0.1667  0.0005 -0.0752
 3296SOL    HW121347   0.601   3.356   4.672  1.9556  1.8283  1.7896
 3296SOL    HW221348   0.623   3.207   4.657  0.6742 -0.5059  1.2018
 3297SOL     OW21349   4.312   0.130   7.779  0.1020 -0.3520 -0.2141
 3297SOL    HW121350   4.337   0.137   7.871 -0.4531  1.5262 -0.2258
 3297SOL    HW221351   4.401   0.129   7.743 -0.2136  1.2972 -0.9826
 3298SOL     OW21352   4.391   4.625  11.786  0.0104 -0.0328  0.1493
 3298SOL    HW121353   4.396   4.708  11.739 -0.7054 -0.2045 -0.2211
 3298SOL    HW221354   4.471   4.584  11.752  0.2762 -2.0287  3.1549
 3299SOL     OW21355   2.034   2.604   5.232  0.6780 -0.0384 -0.0695
 3299SOL    HW121356   2.015   2.549   5.308 -0.1823 -0.7576 -0.8018
 3299SOL    HW221357   1.947   2.610   5.191  1.0656 -0.0251 -0.8940
 3300SOL     OW21358   0.069   4.507   3.433  0.0146  0.0159  0.4624
 3300SOL    HW121359   0.114   4.572   3.486 -0.4095 -0.6891  1.6689
 3300SOL    HW221360   0.095   4.426   3.477 -1.6287 -0.5938  0.2915
 3301SOL     OW21361   3.156   1.193  10.544  0.0066  0.0114 -0.4723
 3301SOL    HW121362   3.083   1.153  10.496 -0.4620  2.1835 -1.5853
 3301SOL    HW221363   3.170   1.264  10.481  0.6567 -0.7691 -1.2150
 3302SOL     OW21364   1.112   3.552   6.179 -0.2221  0.8063  0.1732
 3302SOL    HW121365   1.082   3.527   6.091  1.6715  0.3711 -0.3563
 3302SOL    HW221366   1.195   3.594   6.157 -0.9460  2.0662 -0.1148
 3303SOL     OW21367   1.929   3.156   8.542 -0.5211  0.1002  0.0962
 3303SOL    HW121368   1.970   3.238   8.515 -0.3384  1.0549  3.2360
 3303SOL    HW221369   1.843   3.181   8.575  0.1101  1.0196  1.0618
 3304SOL     OW21370   4.697   2.537   6.400  0.2697  0.0399  0.3758
 3304SOL    HW121371   4.612   2.579   6.389  0.4668 -0.4149 -2.8597
 3304SOL    HW221372   0.032   2.585   6.343 -0.0503 -0.5658 -0.4807
 3305SOL     OW21373   3.456   3.278   3.016  0.0618 -0.6318  0.0262
 3305SOL    HW121374   3.368   3.315   3.005 -1.1241 -4.1687 -2.2829
 3305SOL    HW221375   3.427   3.188   3.028  2.1462 -1.2680  0.1925
 3306SOL     OW21376   2.803   2.336   4.500  0.2311  0.3271  0.2992
 3306SOL    HW121377   2.762   2.250   4.496 -1.4725  1.2175 -1.4177
 3306SOL    HW221378   2.814   2.334   4.595  0.2862  2.2611  0.3496
 3307SOL     OW21379   3.655   2.652   7.526  0.5439  0.3642 -0.0652
 3307SOL    HW121380   3.595   2.713   7.483 -1.2940 -0.2850  1.5713
 3307SOL    HW221381   3.722   2.651   7.458  1.6145  3.2324  0.9388
 3308SOL     OW21382   2.303   1.785  14.595  0.0202  0.0822  0.5826
 3308SOL    HW121383   2.232   1.835  14.635  1.2572  1.6164  0.8512
 3308SOL    HW221384   2.262   1.735  14.524  1.5374  1.5038 -1.2755
 3309SOL     OW21385   0.172   0.052   1.429 -0.0935 -0.1333  0.2507
 3309SOL    HW121386   0.192   0.123   1.491 -0.7928 -0.0611  0.3924
 3309SOL    HW221387   0.077   0.056   1.421 -0.4579 -2.5988  3.5732
 3310SOL     OW21388   2.763   1.632   7.886 -0.1381 -0.6032 -0.4057
 3310SOL    HW121389   2.811   1.550   7.894 -0.8961 -0.9913  0.1556
 3310SOL    HW221390   2.784   1.681   7.966 -0.1939  1.1889 -1.4754
 3311SOL     OW21391   1.914   3.907   0.092  0.9338 -0.0185 -0.3149
 3311SOL    HW121392   1.890   3.842   0.158 -1.9872  1.0930 -0.2855
 3311SOL    HW221393   1.834   3.959   0.088  1.1998  0.5870  1.9082
 3312SOL     OW21394   4.076   1.778   0.497  0.1018 -0.1240  0.2649
 3312SOL    HW121395   4.082   1.682   0.492 -0.8029 -0.0890 -1.2681
 3312SOL    HW221396   3.983   1.788   0.479  0.4712  2.4954 -0.1579
 3313SOL     OW21397   0.744   4.678   1.793 -0.2003 -0.1822 -0.4180
 3313SOL    HW121398   0.829   4.699   1.831  0.3519 -2.5575 -0.3745
 3313SOL    HW221399   0.717   4.619   1.863 -3.6831 -0.3553 -1.8985
 3314SOL     OW21400   4.479   2.743   6.363 -0.2603  0.6935 -0.1051
 3314SOL    HW121401   4.430   2.808   6.413 -4.1526 -2.9539  0.8096
 3314SOL    HW221402   4.566   2.783   6.371 -0.0070  0.2244 -0.4908
 3315SOL     OW21403   4.074   3.382   1.875  0.3542  0.0986  0.4093
 3315SOL    HW121404   4.037   3.430   1.949 -1.7487  1.8599 -1.7867
 3315SOL    HW221405   4.145   3.436   1.841  0.3721  0.3381  0.8283
 3316SOL     OW21406   3.938   1.650   3.528  0.0375 -0.0256  0.3013
 3316SOL    HW121407   3.875   1.585   3.560 -0.2243  0.8981  1.6720
 3316SOL    HW221408   3.885   1.729   3.541  1.5484  1.1821 -1.0527
 3317SOL     OW21409   2.182   3.975   3.168 -0.8187  0.0389 -0.5659
 3317SOL    HW121410   2.160   4.002   3.257  1.3492  0.7503 -0.2368
 3317SOL    HW221411   2.107   4.005   3.117 -1.1288 -0.8168 -0.6095
 3318SOL     OW21412   0.683   1.678   6.636 -0.5617 -0.0760 -0.3186
 3318SOL    HW121413   0.737   1.602   6.656 -1.0023 -0.2488  0.2194
 3318SOL    HW221414   0.720   1.700   6.550  2.8375 -4.6009 -0.0226
 3319SOL     OW21415   1.019   3.540   5.886  0.2270 -0.3865 -0.6633
 3319SOL    HW121416   0.951   3.474   5.898 -2.2056  1.8030 -2.6494
 3319SOL    HW221417   0.977   3.608   5.833 -1.0280 -1.1741 -0.6813
 3320SOL     OW21418   2.843   0.995   5.335  0.3160 -0.2893 -0.3146
 3320SOL    HW121419   2.851   1.079   5.381 -0.4149  1.0356 -2.5736
 3320SOL    HW221420   2.900   1.017   5.261 -0.6634 -0.8768 -1.2373
 3321SOL     OW21421   0.649   3.895   0.308 -0.1705  0.5368 -0.0689
 3321SOL    HW121422   0.739   3.902   0.343  0.0819  0.3591 -0.6892
 3321SOL    HW221423   0.668   3.866   0.219 -2.3973 -0.6007 -0.1483
 3322SOL     OW21424   2.011   4.469   2.868  0.2854  0.1657  0.3892
 3322SOL    HW121425   1.923   4.505   2.879 -0.8304 -2.8003  1.1588
 3322SOL    HW221426   2.009   4.446   2.775 -1.7613 -0.8001  0.6816
 3323SOL     OW21427   0.964   1.341   5.619  0.0340  0.4240  0.1021
 3323SOL    HW121428   0.954   1.300   5.533 -0.1040  0.6809 -0.0017
 3323SOL    HW221429   0.874   1.372   5.632  1.0778  1.9784  3.5722
 3324SOL     OW21430   3.628   0.606   9.680 -0.1638 -0.5480  0.3579
 3324SOL    HW121431   3.671   0.594   9.765  0.1478 -1.8927  0.0092
 3324SOL    HW221432   3.538   0.603   9.712  1.1027 -0.5722  3.9340
 3325SOL     OW21433   1.483   2.043   7.599  0.5312  0.4251  0.1961
 3325SOL    HW121434   1.483   2.067   7.691 -1.2342 -0.5364  0.4453
 3325SOL    HW221435   1.481   1.947   7.605 -0.5849  0.5593  1.8473
 3326SOL     OW21436   1.120   3.561   8.779  0.2988 -0.3126  0.4304
 3326SOL    HW121437   1.105   3.467   8.770 -2.4803 -0.1695  3.3596
 3326SOL    HW221438   1.110   3.575   8.874  1.9748 -0.9133  0.7082
 3327SOL     OW21439   2.130   3.862  15.081 -0.3155 -0.2452  0.0610
 3327SOL    HW121440   2.138   3.884  14.989  1.2155  1.6053  0.6482
 3327SOL    HW221441   2.200   3.918  15.113  0.0337 -0.0592 -1.0578
 3328SOL     OW21442   1.249   0.507  14.296  0.3095 -0.3028 -0.2100
 3328SOL    HW121443   1.261   0.479  14.205  0.2462  3.0598 -1.2651
 3328SOL    HW221444   1.221   0.597  14.281  1.2870  0.4805  2.8564
 3329SOL     OW21445   4.067   2.588   9.287 -0.1794 -0.4704  0.0288
 3329SOL    HW121446   4.066   2.506   9.239  1.3213 -1.0455  0.9571
 3329SOL    HW221447   4.052   2.558   9.377  0.3120 -0.7534  0.0207
 3330SOL     OW21448   1.156   2.539   1.721 -0.5951  0.1631 -0.4395
 3330SOL    HW121449   1.090   2.540   1.652 -1.6285 -1.1870  0.5409
 3330SOL    HW221450   1.178   2.631   1.734 -0.8184  0.3203 -1.1631
 3331SOL     OW21451   3.628   3.990   5.730 -0.4237 -0.3161 -0.6300
 3331SOL    HW121452   3.610   3.902   5.762  0.0798 -0.2092 -0.0548
 3331SOL    HW221453   3.719   4.006   5.755 -0.2650  0.4609 -1.7277
 3332SOL     OW21454   4.431   1.774  17.388  0.2560 -0.2126 -0.1715
 3332SOL    HW121455   4.441   1.724  17.469  1.7592  2.1979  1.1091
 3332SOL    HW221456   4.348   1.734  17.360 -1.8119  3.8307  0.2095
 3333SOL     OW21457   2.972   1.112   2.617  0.0377 -0.0158 -0.1666
 3333SOL    HW121458   3.014   1.089   2.534  0.4059  2.7532 -0.7737
 3333SOL    HW221459   2.963   1.205   2.593 -0.2544  0.2219  0.8544
 3334SOL     OW21460   3.056   2.921  17.449  0.3916 -0.4968 -0.5756
 3334SOL    HW121461   3.107   2.929  17.530  0.3527  1.7467 -0.7664
 3334SOL    HW221462   2.970   2.949  17.480  0.7695  2.2696 -2.0852
 3335SOL     OW21463   2.598   4.186  13.358 -0.2004 -0.0618  0.4190
 3335SOL    HW121464   2.645   4.171  13.440  0.5033  0.9877  0.2085
 3335SOL    HW221465   2.667   4.176  13.293 -0.9097  1.9522 -0.6239
 3336SOL     OW21466   0.804   2.530   7.676 -0.0263  0.0414 -0.1317
 3336SOL    HW121467   0.729   2.481   7.640 -0.0486  0.1471 -0.2307
 3336SOL    HW221468   0.855   2.563   7.602  0.8545 -0.2112  0.3620
 3337SOL     OW21469   0.826   3.087   0.802 -0.3528 -0.4678 -0.2384
 3337SOL    HW121470   0.766   3.059   0.871 -0.7163 -0.8162 -0.6926
 3337SOL    HW221471   0.793   3.172   0.773  2.2735  0.6046 -0.0697
 3338SOL     OW21472   0.726   2.936   7.206  0.3558 -0.5636 -0.6970
 3338SOL    HW121473   0.665   2.880   7.254 -0.2728  0.7644  0.0593
 3338SOL    HW221474   0.679   3.018   7.220  0.0176 -0.6448 -1.4007
 3339SOL     OW21475   1.687   2.979   9.287  0.2828 -0.0993 -0.1556
 3339SOL    HW121476   1.708   2.888   9.265  1.2887  1.2607 -4.7953
 3339SOL    HW221477   1.655   2.952   9.374 -2.1805  0.9212 -0.7377
 3340SOL     OW21478   4.118   0.361   4.972  0.3024  0.2819 -0.4412
 3340SOL    HW121479   4.122   0.275   5.016  1.3793  0.4732 -0.1659
 3340SOL    HW221480   4.196   0.369   4.917  0.6562 -0.6713 -0.1005
 3341SOL     OW21481   3.804   2.065   6.488  0.3725  0.0747 -0.3420
 3341SOL    HW121482   3.895   2.062   6.458  0.3213 -1.1324 -0.3780
 3341SOL    HW221483   3.809   2.131   6.557 -0.4280 -0.1560 -0.0560
 3342SOL     OW21484   4.369   1.151   3.704 -0.0198  0.0308  0.0952
 3342SOL    HW121485   4.332   1.202   3.776  0.9663  0.5703  0.2151
 3342SOL    HW221486   4.448   1.198   3.679 -0.6984  0.3510 -1.4292
 3343SOL     OW21487   0.336   0.753  14.577  0.4693  0.5951 -0.0211
 3343SOL    HW121488   0.265   0.731  14.637 -0.4275  0.2069 -1.2164
 3343SOL    HW221489   0.405   0.768  14.641  0.9393  0.9835 -0.6236
 3344SOL     OW21490   0.556   0.573   7.622  0.9261  0.5060 -0.2114
 3344SOL    HW121491   0.509   0.516   7.561  2.0812  0.8752 -1.4519
 3344SOL    HW221492   0.647   0.549   7.604  0.9865 -0.6048  1.5707
 3345SOL     OW21493   0.939   3.778   0.771  0.2223  0.0649  0.5845
 3345SOL    HW121494   1.000   3.848   0.792 -0.4773  1.0911 -0.8526
 3345SOL    HW221495   0.988   3.696   0.777 -2.4963 -1.5809  0.3811
 3346SOL     OW21496   1.985   3.578   5.850  0.5215  0.5188 -0.3612
 3346SOL    HW121497   2.046   3.516   5.812 -2.0088 -2.5170  0.5067
 3346SOL    HW221498   2.027   3.607   5.931  0.2272  0.6901 -0.2667
 3347SOL     OW21499   3.812   1.456   4.678 -0.3259  0.0720 -0.3598
 3347SOL    HW121500   3.731   1.435   4.725  0.3123 -0.2462  0.6036
 3347SOL    HW221501   3.827   1.536   4.728 -1.1956  0.6747 -1.0611
 3348SOL     OW21502   0.303   2.079   8.176 -0.2306 -0.2447  0.8618
 3348SOL    HW121503   0.233   2.128   8.218  0.8175 -1.0909  3.6096
 3348SOL    HW221504   0.355   2.140   8.124 -1.5326 -0.1010 -0.2959
 3349SOL     OW21505   2.923   1.259   8.722 -0.0732 -0.1432 -0.2722
 3349SOL    HW121506   3.002   1.207   8.707 -0.5306 -0.9749  0.1646
 3349SOL    HW221507   2.947   1.303   8.804  0.2193 -0.9072  0.0556
 3350SOL     OW21508   2.423   3.192   1.982 -0.4604  0.6452  0.4780
 3350SOL    HW121509   2.513   3.176   2.010 -0.6670  1.0684  1.3711
 3350SOL    HW221510   2.430   3.168   1.889  2.3991  1.8119  0.4132
 3351SOL     OW21511   2.695   2.141   0.222 -0.0156 -0.3241  0.4554
 3351SOL    HW121512   2.664   2.145   0.312 -1.2176  2.8582 -0.0976
 3351SOL    HW221513   2.678   2.048   0.206  2.8304 -0.5991 -1.1412
 3352SOL     OW21514   1.134   1.725   5.068 -0.8885 -0.0237 -0.0701
 3352SOL    HW121515   1.123   1.633   5.045  1.6773 -0.4025  0.2434
 3352SOL    HW221516   1.143   1.723   5.163 -0.4624  0.2397 -0.1052
 3353SOL     OW21517   3.529   4.580   7.608  0.8656 -1.0177 -0.1803
 3353SOL    HW121518   3.473   4.533   7.546 -0.2590  0.0598  0.0282
 3353SOL    HW221519   3.576   4.500   7.633 -0.6242 -0.7583  3.3709
 3354SOL     OW21520   1.967   1.642   7.378  0.0650  0.5448 -0.1587
 3354SOL    HW121521   1.941   1.550   7.382  0.5431  0.4889  1.6219
 3354SOL    HW221522   1.902   1.670   7.314  0.9348 -1.2152 -1.7896
 3355SOL     OW21523   4.346   1.655  13.489  0.4421 -0.6551  0.3368
 3355SOL    HW121524   4.362   1.738  13.533  0.2139 -0.8901  0.8575
 3355SOL    HW221525   4.424   1.659  13.434  0.2714  0.2502  0.1621
 3356SOL     OW21526   2.967   0.047   4.148 -0.7326  0.0065  0.6584
 3356SOL    HW121527   2.968   4.684   4.111 -1.8881  0.1117  0.3955
 3356SOL    HW221528   3.045   0.040   4.203 -0.6660 -0.2578  0.5283
 3357SOL     OW21529   2.274   2.655   5.688  0.4230  0.2750  0.1943
 3357SOL    HW121530   2.304   2.620   5.604  0.6530  0.3155  0.2603
 3357SOL    HW221531   2.347   2.658   5.749  0.0872 -1.2194  0.6702
 3358SOL     OW21532   1.138   1.105   4.930  0.1626  0.2391  0.9884
 3358SOL    HW121533   1.056   1.153   4.939  0.1436  0.5309 -0.8908
 3358SOL    HW221534   1.143   1.099   4.835  0.9060  0.4285  1.0215
 3359SOL     OW21535   0.946   1.111  14.995  0.5680  0.6174  0.2398
 3359SOL    HW121536   1.002   1.174  15.042  1.3381 -1.1206  1.6746
 3359SOL    HW221537   0.906   1.162  14.925  0.4509  1.4532  0.9187
 3360SOL     OW21538   4.136   2.317  12.451 -0.0355  0.3980 -0.0778
 3360SOL    HW121539   4.164   2.406  12.430  0.1045  0.1396 -0.9812
 3360SOL    HW221540   4.107   2.317  12.542  1.4736  0.4172  0.4154
 3361SOL     OW21541   2.727   2.691   3.374  0.3591  0.4374 -0.4082
 3361SOL    HW121542   2.753   2.629   3.443 -1.4025 -0.1104 -0.2495
 3361SOL    HW221543   2.649   2.733   3.411  0.1439  0.2791 -0.6863
 3362SOL     OW21544   4.261   0.379   3.159 -0.3094 -0.3398  0.2925
 3362SOL    HW121545   4.206   0.320   3.108 -0.6139 -0.3466  0.6330
 3362SOL    HW221546   4.206   0.410   3.231 -0.2600  0.8342 -0.1679
 3363SOL     OW21547   3.171   0.622   8.427 -0.4997  0.3550  0.2477
 3363SOL    HW121548   3.266   0.636   8.417 -0.2300 -0.5695  1.6494
 3363SOL    HW221549   3.147   0.673   8.349  0.6700 -1.8682 -1.5506
 3364SOL     OW21550   4.448   0.452   4.537 -0.2208  0.0769  0.1081
 3364SOL    HW121551   4.406   0.390   4.477 -2.3194  1.1879  0.4043
 3364SOL    HW221552   4.534   0.410   4.539  0.5953  1.7282 -0.5631
 3365SOL     OW21553   3.773   4.399   3.460  0.2403 -0.3071  0.2881
 3365SOL    HW121554   3.728   4.317   3.439 -2.7415  0.4962  3.3886
 3365SOL    HW221555   3.707   4.437   3.518  2.4080  0.9275  1.9476
 3366SOL     OW21556   3.123   1.539   7.750 -0.5751 -0.0208  0.4423
 3366SOL    HW121557   3.179   1.567   7.678  0.2296  0.4390  1.2545
 3366SOL    HW221558   3.176   1.570   7.823 -0.1950 -0.8884  0.5318
 3367SOL     OW21559   3.035   1.060   5.145  0.3429 -0.4314  0.2899
 3367SOL    HW121560   3.108   1.050   5.085  0.6269 -0.2175  0.6012
 3367SOL    HW221561   2.970   1.116   5.101 -0.6473 -1.5249  0.3506
 3368SOL     OW21562   4.425   2.217   9.371  0.0188 -0.5174  0.1296
 3368SOL    HW121563   4.332   2.219   9.395 -0.1461  0.8388 -0.5932
 3368SOL    HW221564   4.445   2.309   9.391 -0.9950 -0.4577  0.8863
 3369SOL     OW21565   0.978   2.261  11.557  0.0068 -0.4411  0.1108
 3369SOL    HW121566   0.961   2.177  11.599 -1.5121  0.1723  0.7103
 3369SOL    HW221567   0.916   2.253  11.485  0.3612 -0.7202 -0.1692
 3370SOL     OW21568   1.930   4.054   8.742  0.1524 -0.4271 -0.5244
 3370SOL    HW121569   1.926   4.103   8.660 -0.5363 -0.9255 -0.7873
 3370SOL    HW221570   1.853   3.998   8.729 -1.0500  0.4721  2.6514
 3371SOL     OW21571   4.482   2.205  15.144 -0.3629 -0.3174 -0.5804
 3371SOL    HW121572   4.453   2.116  15.124 -1.3574  0.1718 -1.3682
 3371SOL    HW221573   4.492   2.212  15.239  2.5325  0.7391 -0.9523
 3372SOL     OW21574   3.400   3.648   5.567  0.4362 -0.1331 -0.0951
 3372SOL    HW121575   3.392   3.621   5.659  1.3574 -0.4291 -0.1042
 3372SOL    HW221576   3.483   3.611   5.536  0.4500 -2.1273  2.3485
 3373SOL     OW21577   1.978   0.719   7.548  0.2058 -0.0143 -0.2537
 3373SOL    HW121578   1.926   0.784   7.594  1.9797  1.1874  0.0399
 3373SOL    HW221579   1.955   0.634   7.586  4.0890 -0.0122  2.1152
 3374SOL     OW21580   2.253   2.314   8.154 -0.9669  0.5361 -0.0118
 3374SOL    HW121581   2.162   2.328   8.180 -1.4294  0.3715 -1.5174
 3374SOL    HW221582   2.281   2.255   8.224 -2.7341 -2.0352 -1.4375
 3375SOL     OW21583   2.356   0.730   7.693  0.0608  0.1062 -0.4622
 3375SOL    HW121584   2.311   0.781   7.759 -1.0948  0.2528 -1.3655
 3375SOL    HW221585   2.299   0.653   7.688 -0.7860  0.6724  0.5905
 3376SOL     OW21586   3.792   2.820  16.454 -0.0872 -0.2907  0.2489
 3376SOL    HW121587   3.730   2.754  16.424 -0.0888 -0.2644  0.1944
 3376SOL    HW221588   3.881   2.790  16.435  0.3447  0.8565  0.4575
 3377SOL     OW21589   2.961   4.104   4.893  0.4815  0.4720  0.2670
 3377SOL    HW121590   3.012   4.023   4.888  0.0162  0.1772  0.3674
 3377SOL    HW221591   2.987   4.133   4.981 -1.2962 -0.1469  0.9793
 3378SOL     OW21592   3.874   1.632   4.014 -0.8146 -0.5798 -0.0529
 3378SOL    HW121593   3.924   1.613   4.094 -0.5049 -1.9181 -0.5557
 3378SOL    HW221594   3.863   1.726   4.021 -0.2345 -0.4972 -0.2689
 3379SOL     OW21595   2.540   2.197   0.453  0.2534 -0.2444 -0.0466
 3379SOL    HW121596   2.490   2.210   0.533 -0.5809  0.1819 -0.6399
 3379SOL    HW221597   2.543   2.290   0.430  1.5237  0.0912  1.4723
 3380SOL     OW21598   1.472   3.178   1.970 -0.2210  0.4938 -0.1501
 3380SOL    HW121599   1.526   3.207   2.043  0.7996  0.1696 -0.7755
 3380SOL    HW221600   1.428   3.259   1.944  0.8468  1.8631  2.2569
 3381SOL     OW21601   0.146   3.056  12.800 -0.0175 -0.6666 -0.0437
 3381SOL    HW121602   0.145   3.116  12.725 -1.5072 -0.2455  0.3296
 3381SOL    HW221603   0.209   3.104  12.855 -1.0468  2.6367 -1.7690
 3382SOL     OW21604   1.518   0.351   3.898  0.0305 -0.1271 -0.6279
 3382SOL    HW121605   1.542   0.422   3.839 -1.8770  1.4788  0.5405
 3382SOL    HW221606   1.442   0.318   3.849 -0.0402 -3.0355  1.4410
 3383SOL     OW21607   2.460   3.898   4.576 -0.0794 -0.1857  0.0527
 3383SOL    HW121608   2.414   3.980   4.592 -2.3081 -1.1465 -1.4127
 3383SOL    HW221609   2.505   3.909   4.493 -1.1642  2.5758 -0.1869
 3384SOL     OW21610   3.842   2.491   2.842 -0.6690  0.3512  0.0777
 3384SOL    HW121611   3.900   2.432   2.891  0.4865  1.8934  0.5458
 3384SOL    HW221612   3.824   2.552   2.914  0.0263 -2.6775  2.7985
 3385SOL     OW21613   0.050   2.354   4.007  0.3090  0.3329  0.6436
 3385SOL    HW121614   4.711   2.284   4.010 -0.2844  0.8479 -0.1182
 3385SOL    HW221615   0.002   2.420   3.957  1.1424  1.6989  1.6419
 3386SOL     OW21616   1.884   3.912   7.622  0.2233  0.2708  0.2524
 3386SOL    HW121617   1.946   3.850   7.661  0.2552 -1.4482 -2.5699
 3386SOL    HW221618   1.796   3.885   7.648 -0.2232 -0.6686 -2.3284
 3387SOL     OW21619   0.686   2.996   1.014 -0.4633  0.6142  0.3220
 3387SOL    HW121620   0.658   2.904   1.014  1.2131  0.1020 -2.0626
 3387SOL    HW221621   0.636   3.024   1.091 -2.6942 -1.1958 -0.4729
 3388SOL     OW21622   2.700   3.323   4.427 -0.4849 -0.0086  0.0753
 3388SOL    HW121623   2.747   3.403   4.404 -1.4389  0.4118 -0.4491
 3388SOL    HW221624   2.678   3.334   4.519 -2.8131  1.2735 -0.6166
 3389SOL     OW21625   3.071   1.352  16.321 -0.3230 -0.7758 -0.6559
 3389SOL    HW121626   3.088   1.400  16.402  1.2535 -1.4178 -0.6160
 3389SOL    HW221627   3.003   1.406  16.280 -1.0008 -2.7131 -2.0936
 3390SOL     OW21628   2.495   3.993   4.295  0.1583  0.0504 -0.6254
 3390SOL    HW121629   2.412   3.991   4.247 -0.8104  0.8365  1.0077
 3390SOL    HW221630   2.488   4.087   4.316 -2.0245 -0.0566 -0.8836
 3391SOL     OW21631   2.778   0.744  10.507  0.4860  0.6861 -0.4175
 3391SOL    HW121632   2.787   0.839  10.503  0.6409  0.5310 -3.5527
 3391SOL    HW221633   2.853   0.723  10.564 -0.8114 -0.1078  0.9854
 3392SOL     OW21634   4.459   4.636   2.359 -0.6002 -0.2567  0.9459
 3392SOL    HW121635   4.377   4.656   2.404 -1.4460 -1.0890 -0.2239
 3392SOL    HW221636   4.508   4.713   2.389  0.6779 -0.8205  0.2988
 3393SOL     OW21637   1.097   4.366   1.371  1.1133  0.1910 -0.3699
 3393SOL    HW121638   1.089   4.272   1.352 -2.6052  0.3757  0.1610
 3393SOL    HW221639   1.059   4.377   1.458  2.0598 -0.7380  0.1600
 3394SOL     OW21640   1.401   3.553   4.459 -0.0317  0.2166  0.1951
 3394SOL    HW121641   1.326   3.611   4.444  1.2327  2.3119  2.0842
 3394SOL    HW221642   1.364   3.475   4.501 -0.0221 -0.5957 -1.3192
 3395SOL     OW21643   0.261   2.985   2.372  0.2473 -0.1309 -0.6313
 3395SOL    HW121644   0.250   3.078   2.351 -1.8199 -0.3512 -0.5732
 3395SOL    HW221645   0.345   2.988   2.417  0.8428 -1.8760 -1.5995
 3396SOL     OW21646   4.376   2.542   5.901  0.4218 -0.2474  0.6401
 3396SOL    HW121647   4.372   2.631   5.937 -1.0118  0.9919 -2.6117
 3396SOL    HW221648   4.404   2.565   5.812 -3.1490 -2.6853 -1.1362
 3397SOL     OW21649   1.823   2.207   1.973  0.2613  0.3344 -0.4072
 3397SOL    HW121650   1.890   2.141   1.957  1.7261  0.9614  3.1498
 3397SOL    HW221651   1.881   2.282   1.984 -1.1017  1.1005  1.5888
 3398SOL     OW21652   2.989   0.692  15.145  0.4178 -0.3139 -0.2472
 3398SOL    HW121653   3.059   0.710  15.207 -0.0099 -1.4885  0.5907
 3398SOL    HW221654   2.935   0.765  15.172  0.9810  0.3233 -0.8529
 3399SOL     OW21655   1.943   2.119   8.684  0.4110  0.6028 -0.0473
 3399SOL    HW121656   1.907   2.180   8.748  1.9075  3.7753 -2.2339
 3399SOL    HW221657   2.025   2.087   8.722  0.6350 -0.6138 -1.5328
 3400SOL     OW21658   2.914   3.489   3.039 -0.6967  0.0574  0.0835
 3400SOL    HW121659   2.912   3.434   2.961  1.4394  0.0995  0.0082
 3400SOL    HW221660   2.854   3.450   3.103 -1.6555  2.3195  0.5456
 3401SOL     OW21661   4.260   3.614   5.783  0.3153 -0.1153  0.3738
 3401SOL    HW121662   4.329   3.552   5.760  1.6719  1.9842 -1.2522
 3401SOL    HW221663   4.293   3.691   5.736 -0.2444 -1.1840 -1.7518
 3402SOL     OW21664   2.223   2.431  11.372  0.1980  0.6006 -0.1755
 3402SOL    HW121665   2.167   2.362  11.338 -0.1587  0.4166  0.7760
 3402SOL    HW221666   2.179   2.509  11.338 -2.1527 -0.8174 -0.3765
 3403SOL     OW21667   0.374   2.424   7.805 -0.2406 -0.3075 -0.1588
 3403SOL    HW121668   0.370   2.481   7.882 -0.7890  1.8786 -1.8247
 3403SOL    HW221669   0.282   2.417   7.782 -0.1526  2.6275 -1.4788
 3404SOL     OW21670   3.161   1.655   0.457 -0.1380  0.3524 -0.0778
 3404SOL    HW121671   3.118   1.739   0.440 -0.6031 -0.1955 -1.6409
 3404SOL    HW221672   3.205   1.637   0.374 -0.0408 -1.4745  0.3696
 3405SOL     OW21673   1.213   1.362   6.601 -1.0820 -0.0530 -0.7261
 3405SOL    HW121674   1.255   1.381   6.517 -2.0161  3.1397 -0.4477
 3405SOL    HW221675   1.170   1.278   6.585 -0.8041 -0.8088  2.3859
 3406SOL     OW21676   3.724   2.215   5.289  0.0670 -0.2745  0.0318
 3406SOL    HW121677   3.713   2.141   5.349 -3.4392  0.0873 -0.1876
 3406SOL    HW221678   3.644   2.262   5.313  1.2177  1.7979 -0.1653
 3407SOL     OW21679   2.181   1.658  12.896 -0.0089  0.0890 -0.5885
 3407SOL    HW121680   2.188   1.687  12.805 -0.9986  2.9503  0.2496
 3407SOL    HW221681   2.262   1.691  12.936  0.7223 -2.1171 -0.2319
 3408SOL     OW21682   2.226   0.636   5.290  0.0973 -0.2132 -0.2366
 3408SOL    HW121683   2.137   0.655   5.259  0.1368  1.5878  0.7314
 3408SOL    HW221684   2.249   0.701   5.357 -2.0347  1.0430 -0.7224
 3409SOL     OW21685   3.517   1.508  12.893  0.7891 -0.6938 -0.1513
 3409SOL    HW121686   3.579   1.436  12.880  0.1422 -1.6679  2.1348
 3409SOL    HW221687   3.582   1.577  12.878 -0.0119  0.6867  2.6359
 3410SOL     OW21688   0.938   3.994   5.298  0.5663  0.7420 -0.0421
 3410SOL    HW121689   0.845   4.016   5.288  0.0654 -0.4785  1.8714
 3410SOL    HW221690   0.972   4.055   5.232  2.8654  0.5010  0.9265
 3411SOL     OW21691   0.139   4.681   4.181  0.1976 -0.3202 -0.3831
 3411SOL    HW121692   0.228   4.644   4.173  0.4064  0.6617 -2.7665
 3411SOL    HW221693   0.101   4.599   4.213 -0.6699 -1.0024 -3.1320
 3412SOL     OW21694   2.576   1.128   5.061 -0.2033  0.3839  0.0671
 3412SOL    HW121695   2.543   1.141   4.972  2.6533 -3.4749 -1.5565
 3412SOL    HW221696   2.615   1.041   5.054 -0.2000  0.3034  1.2517
 3413SOL     OW21697   2.740   3.352  14.734  0.0484  0.1062  0.3636
 3413SOL    HW121698   2.691   3.390  14.660  0.2784 -0.4304 -0.0647
 3413SOL    HW221699   2.826   3.341  14.694 -0.5660  1.2608 -1.2953
 3414SOL     OW21700   2.875   1.312   7.382 -0.1310 -0.2528 -0.2853
 3414SOL    HW121701   2.876   1.217   7.398 -3.0571 -0.1684  0.4731
 3414SOL    HW221702   2.789   1.333   7.419  0.2700  2.3834 -0.8715
 3415SOL     OW21703   1.419   1.994  15.901  0.0650 -0.7514 -0.1964
 3415SOL    HW121704   1.450   2.085  15.904  0.4328 -0.8370 -1.4936
 3415SOL    HW221705   1.483   1.967  15.836  0.1472 -1.3637  0.1419
 3416SOL     OW21706   4.435   3.597   7.246  0.2416 -0.1712  0.6121
 3416SOL    HW121707   4.515   3.611   7.296 -0.7198  0.7422  1.8881
 3416SOL    HW221708   4.361   3.573   7.303  0.6843 -3.5550 -0.2625
 3417SOL     OW21709   3.703   3.201   2.470  0.3137  0.2818 -0.3257
 3417SOL    HW121710   3.740   3.205   2.558 -1.2858 -0.2368  0.3523
 3417SOL    HW221711   3.766   3.249   2.416 -1.2350  2.9160  0.2199
 3418SOL     OW21712   2.863   3.935  15.945  0.1883 -1.1671 -0.3983
 3418SOL    HW121713   2.897   3.849  15.924 -1.4809 -1.2790 -2.5814
 3418SOL    HW221714   2.929   3.993  15.906 -0.1080 -0.5573 -0.0091
 3419SOL     OW21715   3.922   0.658   5.737  0.6638  0.1115 -0.5152
 3419SOL    HW121716   3.844   0.707   5.764  2.4275  2.9678 -0.5905
 3419SOL    HW221717   3.935   0.701   5.652 -0.5689 -0.7702 -1.1563
 3420SOL     OW21718   1.131   3.083   8.118  0.3225  0.4936  0.5244
 3420SOL    HW121719   1.137   2.988   8.125  2.5392  0.6386  0.6327
 3420SOL    HW221720   1.168   3.084   8.030  1.3539 -1.1122  0.9255
 3421SOL     OW21721   2.737   3.991   7.680  0.0222  1.0058 -0.0374
 3421SOL    HW121722   2.741   3.952   7.593 -1.9870  1.0871 -0.1827
 3421SOL    HW221723   2.828   4.019   7.684  0.3334 -0.2704  1.8219
 3422SOL     OW21724   4.261   0.074   9.300  0.4564  0.2420 -0.5072
 3422SOL    HW121725   4.242   0.048   9.390 -0.4555  0.8527 -0.5272
 3422SOL    HW221726   4.176   0.105   9.269 -0.6681 -2.2308  0.1561
 3423SOL     OW21727   0.223   2.130   1.071 -0.1536  0.4450 -0.3593
 3423SOL    HW121728   0.129   2.147   1.059 -0.4374 -0.0052  1.2702
 3423SOL    HW221729   0.240   2.089   0.986  1.0780  1.2886 -0.5151
 3424SOL     OW21730   0.546   2.007   2.171  0.5087  0.0667 -0.3145
 3424SOL    HW121731   0.493   2.069   2.120 -0.2206  1.6782  2.4384
 3424SOL    HW221732   0.480   1.939   2.185 -0.3399  1.0574  0.4170
 3425SOL     OW21733   2.410   0.839  12.305 -0.4180 -0.2408 -0.3538
 3425SOL    HW121734   2.445   0.805  12.223  1.6535  0.8100  0.0842
 3425SOL    HW221735   2.322   0.870  12.285 -0.2330  0.1702 -0.5201
 3426SOL     OW21736   2.882   3.134   2.757  0.1115 -0.2117 -0.6246
 3426SOL    HW121737   2.972   3.123   2.727  0.1269 -2.9850  0.4360
 3426SOL    HW221738   2.887   3.227   2.780 -1.9766 -0.6428  1.6151
 3427SOL     OW21739   4.490   2.538  15.316  0.4268 -0.0809  0.1631
 3427SOL    HW121740   4.468   2.540  15.223  2.4307  1.8648 -0.2730
 3427SOL    HW221741   4.523   2.628  15.324 -2.5874  1.2835 -2.6165
 3428SOL     OW21742   1.538   1.741   3.230  0.4456 -0.0561  0.1394
 3428SOL    HW121743   1.443   1.745   3.219  0.5164  1.5839  0.1511
 3428SOL    HW221744   1.573   1.704   3.149 -0.4116 -2.4864  0.8573
 3429SOL     OW21745   3.101   1.298   7.917 -0.4855 -0.7297  0.1129
 3429SOL    HW121746   3.099   1.355   7.840 -0.7835 -1.2369 -0.2584
 3429SOL    HW221747   3.011   1.302   7.950 -0.8982 -0.1944 -1.0879
 3430SOL     OW21748   3.239   4.626   8.450 -0.5742 -0.1532  0.4833
 3430SOL    HW121749   3.158   4.677   8.441 -0.2508  0.8547  3.2433
 3430SOL    HW221750   3.250   4.624   8.545  0.5127 -3.2091  0.2633
 3431SOL     OW21751   1.146   2.099   2.000 -0.1117 -0.3903 -0.0478
 3431SOL    HW121752   1.191   2.158   1.940 -2.9039  1.4254 -0.3372
 3431SOL    HW221753   1.173   2.131   2.086  2.0135 -1.5173 -0.2856
 3432SOL     OW21754   1.540   2.938   4.509 -0.1722 -0.0250 -0.2075
 3432SOL    HW121755   1.596   2.937   4.586  0.7287 -0.0348 -0.8624
 3432SOL    HW221756   1.610   2.967   4.450  1.2529 -0.8094  1.1000
 3433SOL     OW21757   2.540   3.696   5.705  0.3887 -0.5024 -0.3215
 3433SOL    HW121758   2.476   3.744   5.653  2.6837 -0.2734 -2.9313
 3433SOL    HW221759   2.521   3.742   5.787  2.0025 -0.6278  0.1225
 3434SOL     OW21760   2.580   2.419   2.675  0.0262  0.5235 -0.9747
 3434SOL    HW121761   2.527   2.498   2.687  2.1524  1.9368 -0.7811
 3434SOL    HW221762   2.547   2.381   2.594  0.0888 -1.0637 -0.2520
 3435SOL     OW21763   2.977   3.420   4.728  0.2547  0.0491  0.2843
 3435SOL    HW121764   2.955   3.332   4.759 -0.9962  0.3841  0.3341
 3435SOL    HW221765   2.894   3.464   4.743 -0.3389 -1.4522  1.3801
 3436SOL     OW21766   2.892   3.139   2.180 -0.7560 -0.0088 -0.2340
 3436SOL    HW121767   2.933   3.054   2.168 -0.6778  0.0782 -0.5776
 3436SOL    HW221768   2.878   3.138   2.274  1.2753 -0.4475  0.0639
 3437SOL     OW21769   1.393   0.459   7.791  0.0422 -0.2376 -0.3201
 3437SOL    HW121770   1.477   0.419   7.813  0.7566  0.1829 -2.3076
 3437SOL    HW221771   1.409   0.546   7.826 -1.8401  1.0649 -2.7396
 3438SOL     OW21772   4.449   0.536   8.517  0.4427  0.5615 -0.1722
 3438SOL    HW121773   4.368   0.514   8.563  0.9644  0.0739  0.5077
 3438SOL    HW221774   4.479   0.606   8.574  0.9455  1.5779 -1.6745
 3439SOL     OW21775   0.188   0.069   3.897 -0.2992 -0.1341  0.5926
 3439SOL    HW121776   0.097   0.093   3.915 -0.0558 -0.4394  2.1855
 3439SOL    HW221777   0.177   4.699   3.893 -1.7007  0.0292  0.5851
 3440SOL     OW21778   2.823   4.417   7.087  0.1803 -1.2528  0.1760
 3440SOL    HW121779   2.776   4.467   7.021  1.7715 -0.8043 -0.6072
 3440SOL    HW221780   2.775   4.446   7.165  1.2230  1.0737 -0.0620
 3441SOL     OW21781   0.818   1.090  13.184 -0.0030 -0.0510  0.4740
 3441SOL    HW121782   0.829   1.063  13.276  3.1142 -0.3306  0.0125
 3441SOL    HW221783   0.743   1.149  13.184 -0.7248 -0.9643 -2.3843
 3442SOL     OW21784   1.717   4.410   6.921  0.2322  0.0783 -0.2829
 3442SOL    HW121785   1.699   4.369   7.006 -3.6682 -0.4983 -1.3611
 3442SOL    HW221786   1.676   4.344   6.865  1.8968 -2.1688  1.1219
 3443SOL     OW21787   3.104   0.767   0.262  0.1497  0.7299 -0.2085
 3443SOL    HW121788   3.044   0.826   0.307 -1.0081 -0.2441 -0.4648
 3443SOL    HW221789   3.177   0.822   0.234 -0.1484  0.0243 -2.3541
 3444SOL     OW21790   0.517   3.758  14.790  0.2633 -0.7882 -0.6080
 3444SOL    HW121791   0.561   3.809  14.722  0.7578 -2.3815 -1.4914
 3444SOL    HW221792   0.586   3.757  14.857  1.8341  4.0826 -2.1905
 3445SOL     OW21793   1.210   1.198  16.965  0.2201 -0.1711 -0.1291
 3445SOL    HW121794   1.140   1.170  17.023 -0.8187  1.9803 -0.3280
 3445SOL    HW221795   1.245   1.112  16.943 -0.6104  0.0457 -2.3168
 3446SOL     OW21796   3.469   1.679   5.709  1.0147  0.1565 -0.0312
 3446SOL    HW121797   3.388   1.730   5.717  1.0965 -0.0112  1.7213
 3446SOL    HW221798   3.442   1.596   5.671 -1.3341 -0.3381  2.6671
 3447SOL     OW21799   1.296   2.044  11.517 -0.3172 -0.5613  0.0249
 3447SOL    HW121800   1.298   2.002  11.603  0.0524  1.7056  1.0948
 3447SOL    HW221801   1.382   2.082  11.499  0.0101 -1.5473 -0.5223
 3448SOL     OW21802   0.155   1.570   3.200 -0.5426  0.1337 -0.3674
 3448SOL    HW121803   0.086   1.637   3.198 -0.7008 -0.0734 -2.4757
 3448SOL    HW221804   0.123   1.503   3.140  0.2317  1.3425 -2.1343
 3449SOL     OW21805   3.295   2.058   9.207  0.7433 -0.3827 -0.2616
 3449SOL    HW121806   3.328   2.065   9.118 -0.7426  0.5432 -0.7437
 3449SOL    HW221807   3.227   2.124   9.196  1.8613  0.4278 -2.2343
 3450SOL     OW21808   0.841   4.526   7.385 -0.4714 -0.2098  0.1851
 3450SOL    HW121809   0.898   4.585   7.337 -0.6616 -0.6569 -0.5889
 3450SOL    HW221810   0.827   4.461   7.315  2.5467 -0.4285 -0.2386
 3451SOL     OW21811   1.795   4.313   0.215  0.2666  0.3225 -0.1108
 3451SOL    HW121812   1.886   4.339   0.230  0.5444  0.7728 -2.6021
 3451SOL    HW221813   1.799   4.217   0.212  0.5708  0.3157  0.4416
 3452SOL     OW21814   0.905   3.830   0.351 -0.6412 -0.0530  0.4024
 3452SOL    HW121815   0.910   3.894   0.280 -1.1889  0.3803  0.7517
 3452SOL    HW221816   0.977   3.772   0.328 -1.6447 -1.2117  0.1936
 3453SOL     OW21817   4.229   3.281   2.179 -0.0349 -0.3985  0.3509
 3453SOL    HW121818   4.264   3.369   2.194 -0.4968 -0.1106 -0.2460
 3453SOL    HW221819   4.161   3.314   2.119 -0.2181  0.6476  1.1455
 3454SOL     OW21820   0.253   3.219   0.978 -0.1874 -0.3102  0.1306
 3454SOL    HW121821   0.169   3.258   1.002 -0.1116  0.1449 -0.3510
 3454SOL    HW221822   0.274   3.271   0.901  1.3977  0.7232  1.2666
 3455SOL     OW21823   4.330   4.304   4.504 -0.5012 -0.5112 -0.4235
 3455SOL    HW121824   4.393   4.372   4.481  0.3102 -0.8675  0.7245
 3455SOL    HW221825   4.339   4.251   4.425  0.6918 -3.1288  1.4844
 3456SOL     OW21826   2.483   1.177   8.995  0.5515  0.6045 -0.7647
 3456SOL    HW121827   2.448   1.261   8.964 -2.7743 -0.6234 -0.3913
 3456SOL    HW221828   2.549   1.156   8.929  0.7929 -0.4061 -0.1940
 3457SOL     OW21829   0.865   2.327   5.020  0.0063 -0.0047  0.3822
 3457SOL    HW121830   0.895   2.413   5.050  1.7546 -0.4856 -0.0014
 3457SOL    HW221831   0.950   2.284   5.010  0.1283  0.3928 -0.2825
 3458SOL     OW21832   0.383   3.819   5.472  0.0433 -0.3158 -0.1803
 3458SOL    HW121833   0.307   3.816   5.530  1.0629 -0.7855  1.1305
 3458SOL    HW221834   0.456   3.836   5.532 -0.2231 -0.3085  0.1386
 3459SOL     OW21835   0.894   0.872  10.418 -0.0664 -0.1669  0.1083
 3459SOL    HW121836   0.830   0.833  10.477  2.1025 -1.1739  1.7766
 3459SOL    HW221837   0.867   0.962  10.433  0.9925  0.4644 -1.7525
 3460SOL     OW21838   3.334   0.552   6.389 -0.0878 -0.7917  0.7105
 3460SOL    HW121839   3.385   0.550   6.470 -1.0195 -1.2484  1.2823
 3460SOL    HW221840   3.314   0.645   6.392  2.6941 -0.0983 -2.0520
 3461SOL     OW21841   2.219   3.615   2.915  0.0991 -0.5106 -0.6253
 3461SOL    HW121842   2.309   3.646   2.918 -0.8722  2.4060 -0.8590
 3461SOL    HW221843   2.178   3.698   2.891 -0.7314 -0.0688  2.3218
 3462SOL     OW21844   0.744   0.011   7.869  0.3106  0.7440  0.1935
 3462SOL    HW121845   0.834   0.031   7.845  0.3666 -0.0412 -0.2618
 3462SOL    HW221846   0.719   4.681   7.795  1.4289  1.9422 -1.0897
 3463SOL     OW21847   1.713   0.772  16.919  0.0031  0.2304 -0.6033
 3463SOL    HW121848   1.776   0.708  16.887  1.8187  2.8496 -2.2396
 3463SOL    HW221849   1.776   0.827  16.965  0.4041 -2.1782  1.7299
 3464SOL     OW21850   1.723   2.829   9.677 -0.2472 -0.0053  0.0851
 3464SOL    HW121851   1.639   2.820   9.632  0.4137  1.3050 -1.3899
 3464SOL    HW221852   1.698   2.900   9.737 -1.0156 -1.6710  1.7365
 3465SOL     OW21853   1.418   3.852  14.019  0.6749 -0.7717 -0.5785
 3465SOL    HW121854   1.360   3.783  13.987  0.3932 -0.0833 -1.5493
 3465SOL    HW221855   1.476   3.859  13.943 -1.3198  0.8039 -1.9430
 3466SOL     OW21856   0.470   3.304   1.585  0.7171 -0.1951  0.6093
 3466SOL    HW121857   0.462   3.369   1.515 -0.7701 -0.9315  0.1123
 3466SOL    HW221858   0.375   3.293   1.586  0.6795 -0.1640 -1.1372
 3467SOL     OW21859   4.066   0.162   0.764 -0.0891  0.3774 -0.5013
 3467SOL    HW121860   4.070   0.092   0.829  0.7744  0.0152 -0.9406
 3467SOL    HW221861   4.159   0.183   0.760  0.3007 -1.4950 -0.9873
 3468SOL     OW21862   0.152   1.045  10.710  0.0643  0.2008  0.4383
 3468SOL    HW121863   0.135   0.967  10.762  1.4096 -0.3280  0.1054
 3468SOL    HW221864   0.131   1.117  10.770 -1.9742  0.0938 -0.1761
 3469SOL     OW21865   2.901   0.487  10.925 -0.6475  0.1919  0.0398
 3469SOL    HW121866   2.934   0.569  10.962  1.0067  0.2632 -1.6074
 3469SOL    HW221867   2.909   0.510  10.833  0.2489 -1.6699 -0.3534
 3470SOL     OW21868   2.901   1.923   4.691  0.1458 -0.0220  0.2437
 3470SOL    HW121869   2.845   1.962   4.623  0.1506  0.1888  0.3618
 3470SOL    HW221870   2.962   1.996   4.698 -1.2364  0.9516  2.1406
 3471SOL     OW21871   3.240   3.490   0.797 -0.0472 -0.0707 -0.0881
 3471SOL    HW121872   3.233   3.569   0.850  1.9463 -0.0970  0.2406
 3471SOL    HW221873   3.251   3.526   0.709  1.2877 -0.6037 -0.1425
 3472SOL     OW21874   0.898   1.271   4.989  0.1720 -0.2043 -0.6219
 3472SOL    HW121875   0.809   1.240   5.006 -0.1765  1.2578  0.1598
 3472SOL    HW221876   0.875   1.364   4.983  1.4937  0.1756  0.1709
 3473SOL     OW21877   3.653   1.827   3.435  0.0236 -0.3823  0.0438
 3473SOL    HW121878   3.703   1.895   3.481  1.8059  0.1241 -2.6284
 3473SOL    HW221879   3.569   1.838   3.480 -0.1146  0.4593 -0.4114
 3474SOL     OW21880   0.544   2.945   5.177  0.2808  0.4136  0.4270
 3474SOL    HW121881   0.478   2.995   5.224 -0.4623  0.9811 -1.2067
 3474SOL    HW221882   0.492   2.906   5.107  0.0616  0.2214  0.6961
 3475SOL     OW21883   0.073   3.862  12.706  0.1221  0.3109 -0.2191
 3475SOL    HW121884   4.721   3.809  12.723  0.1016  0.2138 -0.5977
 3475SOL    HW221885   0.070   3.905  12.791 -1.6676  1.9154 -1.1152
 3476SOL     OW21886   3.666   3.869  15.707 -0.3003  0.1930 -0.0284
 3476SOL    HW121887   3.601   3.903  15.646 -2.4117 -2.3707  0.8381
 3476SOL    HW221888   3.670   3.776  15.685  2.9587  0.0633  1.0462
 3477SOL     OW21889   2.064   3.600   6.116  0.2165  0.4989 -0.1354
 3477SOL    HW121890   2.084   3.529   6.178 -0.4314 -0.5357 -1.1051
 3477SOL    HW221891   2.005   3.659   6.163  0.5174 -0.2019  1.1378
 3478SOL     OW21892   2.789   2.498   6.770 -0.1404 -0.1456 -0.4242
 3478SOL    HW121893   2.883   2.504   6.751 -0.2863  3.9981  0.1007
 3478SOL    HW221894   2.775   2.403   6.764 -1.9333  0.1852 -1.3022
 3479SOL     OW21895   4.101   0.508   9.465  0.4630  0.3849  0.1397
 3479SOL    HW121896   4.013   0.472   9.481  0.0888  0.7880 -0.9510
 3479SOL    HW221897   4.167   0.440   9.476 -1.2832 -1.3402 -0.1333
 3480SOL     OW21898   3.482   4.329  16.110 -0.2499  0.7069  0.2528
 3480SOL    HW121899   3.547   4.393  16.141  0.8049  0.8465 -2.2412
 3480SOL    HW221900   3.450   4.376  16.033 -1.5340 -0.2084  0.2410
 3481SOL     OW21901   0.134   1.716   9.338  0.3842 -0.3045  0.6106
 3481SOL    HW121902   0.227   1.740   9.339  1.2537 -3.5994  0.9128
 3481SOL    HW221903   0.142   1.626   9.370 -0.2482  0.0144  1.6645
 3482SOL     OW21904   0.050   3.731   4.332  0.3879  0.2781 -0.2206
 3482SOL    HW121905   0.053   3.801   4.266  1.2968 -0.1371 -0.6159
 3482SOL    HW221906   4.682   3.709   4.327  0.5766 -0.3930 -0.7332
 3483SOL     OW21907   3.726   1.317   0.648  0.1367  0.0935  0.2605
 3483SOL    HW121908   3.723   1.347   0.738 -0.5244 -3.1367  1.3086
 3483SOL    HW221909   3.634   1.299   0.632  0.0530  0.0166  0.8500
 3484SOL     OW21910   1.318   0.124   8.423  0.3986  0.1387  0.3404
 3484SOL    HW121911   1.261   0.199   8.410  0.8733  0.4971  0.3353
 3484SOL    HW221912   1.253   0.056   8.403  1.8925 -0.9846 -0.7733
 3485SOL     OW21913   4.529   3.876   2.217  0.2517  0.1540  0.2317
 3485SOL    HW121914   4.550   3.958   2.172  0.5172  0.4812  0.9653
 3485SOL    HW221915   4.444   3.884   2.259  0.9639 -0.6592  1.8223
 3486SOL     OW21916   0.932   0.491   7.268  0.4612  0.2543  0.3528
 3486SOL    HW121917   0.974   0.570   7.303  1.2278  0.0552 -0.1132
 3486SOL    HW221918   0.944   0.499   7.173  1.9656 -0.5366  0.4761
 3487SOL     OW21919   0.408   0.544   4.838  0.4612  0.2492  0.1086
 3487SOL    HW121920   0.490   0.578   4.804 -0.5617  2.4146 -0.2139
 3487SOL    HW221921   0.419   0.450   4.827 -3.4326 -0.3416  1.0404
 3488SOL     OW21922   4.646   1.084   3.478 -0.3252 -0.5321 -0.4721
 3488SOL    HW121923   4.657   1.012   3.416 -0.0548 -0.7670 -0.1467
 3488SOL    HW221924   4.606   1.152   3.423 -0.7741  0.3098  0.9089
 3489SOL     OW21925   3.347   0.588   7.343 -0.3073  0.2407 -0.1155
 3489SOL    HW121926   3.370   0.637   7.265  0.1961 -0.1375 -0.2033
 3489SOL    HW221927   3.265   0.626   7.374  0.2967  0.7863  0.8007
 3490SOL     OW21928   4.674   4.258   1.831  0.2348 -0.4637  0.2988
 3490SOL    HW121929   4.679   4.346   1.869  2.7395 -0.4266 -0.1500
 3490SOL    HW221930   4.725   4.273   1.751 -0.0145  3.4600  0.8738
 3491SOL     OW21931   4.107   3.924  10.081 -0.1643 -0.1519  0.0240
 3491SOL    HW121932   4.180   3.863  10.095  0.7578  0.7432 -0.9641
 3491SOL    HW221933   4.125   3.976  10.159 -0.1895  1.8890 -1.3392
 3492SOL     OW21934   1.253   3.612   9.242 -0.0604  0.1795 -0.1196
 3492SOL    HW121935   1.177   3.625   9.187 -0.2525 -0.1083  0.0753
 3492SOL    HW221936   1.314   3.599   9.170  0.4532  0.7932  0.1989
 3493SOL     OW21937   3.704   1.331  12.895 -0.0575  0.4912 -0.1563
 3493SOL    HW121938   3.738   1.286  12.818 -1.3720 -0.9662  0.1187
 3493SOL    HW221939   3.771   1.306  12.959 -1.0835 -0.6992  0.4347
 3494SOL     OW21940   4.097   0.280   9.770 -0.2370  0.0630  0.3833
 3494SOL    HW121941   4.173   0.314   9.723 -0.3882 -0.4199 -0.2113
 3494SOL    HW221942   4.123   0.260   9.860  2.0384 -1.6798 -0.6414
 3495SOL     OW21943   0.675   2.394   4.227  0.8322  0.0968 -0.0626
 3495SOL    HW121944   0.646   2.483   4.247  0.8435 -0.0051  0.4036
 3495SOL    HW221945   0.732   2.373   4.301  2.6889 -2.4236 -2.2038
 3496SOL     OW21946   3.899   4.034   2.801  0.1654  0.5245 -0.0236
 3496SOL    HW121947   3.884   4.128   2.792 -0.1271  0.5137  0.3745
 3496SOL    HW221948   3.988   4.019   2.768 -0.8306  1.0592 -2.9794
 3497SOL     OW21949   3.017   4.356   5.516 -0.2190  0.5003 -0.2229
 3497SOL    HW121950   2.963   4.419   5.470 -4.6263 -0.8081  3.2311
 3497SOL    HW221951   3.018   4.280   5.457 -1.2643  0.6799 -0.4551
 3498SOL     OW21952   0.903   1.614   7.162 -0.2683 -0.3938  0.1165
 3498SOL    HW121953   0.997   1.608   7.180 -0.4386 -1.1957  0.7215
 3498SOL    HW221954   0.877   1.680   7.226 -1.2305 -0.9976  0.3511
 3499SOL     OW21955   2.628   0.803  12.474 -0.1134  0.5917 -0.5332
 3499SOL    HW121956   2.561   0.827  12.409  2.0864 -0.7619 -3.3234
 3499SOL    HW221957   2.572   0.773  12.545 -0.0165 -2.6791 -1.8053
 3500SOL     OW21958   1.838   3.053   0.367 -0.0235  0.5453 -0.0116
 3500SOL    HW121959   1.917   3.104   0.350 -0.1922  1.0358  0.7114
 3500SOL    HW221960   1.865   2.970   0.327  1.4447  0.7910  0.4932
 3501SOL     OW21961   0.085   2.216   3.415  0.0360  0.3690  0.5557
 3501SOL    HW121962   0.129   2.252   3.492  0.7532  0.3505  0.1563
 3501SOL    HW221963   0.025   2.287   3.396 -1.3189  0.2437  4.3547
 3502SOL     OW21964   0.396   2.355   4.841 -0.7910 -0.0920 -0.1757
 3502SOL    HW121965   0.428   2.286   4.783  1.4584  0.9269 -0.1414
 3502SOL    HW221966   0.475   2.408   4.852 -1.1189  0.1585  0.9210
 3503SOL     OW21967   2.704   3.939  12.177 -0.3435  0.3834  0.6617
 3503SOL    HW121968   2.651   3.879  12.229  0.6356 -0.4787  0.6606
 3503SOL    HW221969   2.674   4.026  12.202  0.3267  0.6151  0.6550
 3504SOL     OW21970   3.777   4.405   7.788 -0.1296  0.3924  0.8728
 3504SOL    HW121971   3.784   4.310   7.799 -1.5055  0.0434 -1.0937
 3504SOL    HW221972   3.687   4.405   7.821 -0.7603  0.0862 -0.8521
 3505SOL     OW21973   3.204   2.262   2.151 -0.0673  0.7308  0.4877
 3505SOL    HW121974   3.110   2.256   2.136  0.1973 -1.9350 -0.0568
 3505SOL    HW221975   3.242   2.306   2.075 -0.4594 -1.4554 -0.9714
 3506SOL     OW21976   0.523   1.036   8.662  0.8766  0.3116 -0.3477
 3506SOL    HW121977   0.587   1.060   8.728 -0.7373 -0.8700  1.6567
 3506SOL    HW221978   0.482   1.122   8.647  0.8022  0.4991  0.9055
 3507SOL     OW21979   2.069   1.209   2.489  0.3505  0.2738 -0.1363
 3507SOL    HW121980   2.151   1.250   2.459  0.0480  0.4938 -0.6606
 3507SOL    HW221981   2.068   1.131   2.434  0.6376  0.0014  0.2436
 3508SOL     OW21982   0.762   0.118   4.382  0.1256 -0.2757 -0.8473
 3508SOL    HW121983   0.818   0.129   4.459  0.0703  1.3081 -1.0244
 3508SOL    HW221984   0.794   0.187   4.325 -0.4886  0.2073 -0.6113
 3509SOL     OW21985   4.035   1.308   3.180  0.1604  0.6276  0.7519
 3509SOL    HW121986   4.037   1.382   3.240 -1.2096 -0.0047  1.5779
 3509SOL    HW221987   4.019   1.239   3.244  0.9433 -0.5844 -0.3629
 3510SOL     OW21988   0.011   3.534   0.573  0.4801 -0.1086  0.1135
 3510SOL    HW121989   4.710   3.620   0.608 -0.5750 -0.9213  1.3257
 3510SOL    HW221990   4.706   3.480   0.646 -0.1403 -1.1302 -0.9221
 3511SOL     OW21991   1.578   1.379   4.024  0.2608  0.1695 -0.0334
 3511SOL    HW121992   1.485   1.391   4.041 -0.0208 -1.2437 -0.5558
 3511SOL    HW221993   1.600   1.339   4.109 -1.4424  0.2513  0.4455
 3512SOL     OW21994   1.672   4.569   9.698 -0.0960  0.2283  0.1154
 3512SOL    HW121995   1.616   4.630   9.747 -0.3887 -1.1920  1.5752
 3512SOL    HW221996   1.730   4.543   9.770 -1.4985 -1.3608  0.6601
 3513SOL     OW21997   1.915   2.910   3.562  0.3021  0.0086  0.0009
 3513SOL    HW121998   2.010   2.917   3.558  0.2432 -0.4716 -1.9681
 3513SOL    HW221999   1.892   2.982   3.503 -0.1012  0.0092  0.1580
 3514SOL     OW22000   0.612   3.656  12.134 -0.5030  0.1964  0.5330
 3514SOL    HW122001   0.650   3.596  12.198  3.6310 -0.2077 -2.3306
 3514SOL    HW222002   0.579   3.726  12.190 -0.0166  1.5413 -0.8840
 3515SOL     OW22003   2.924   1.541   0.813  0.5822 -0.4138  0.4276
 3515SOL    HW122004   2.870   1.582   0.881  2.0378 -2.0738  2.5663
 3515SOL    HW222005   2.984   1.612   0.793 -0.3624 -0.3030 -2.0749
 3516SOL     OW22006   1.672   2.283   4.525 -0.3006  0.6870 -0.2744
 3516SOL    HW122007   1.600   2.316   4.471  1.2512  0.7047 -2.3500
 3516SOL    HW222008   1.626   2.249   4.601 -0.3159 -0.5720 -0.8360
 3517SOL     OW22009   3.033   1.545  16.832 -0.0798  0.0450 -0.1878
 3517SOL    HW122010   2.943   1.578  16.834  1.2529  3.6415  0.1092
 3517SOL    HW222011   3.028   1.450  16.823  0.5327 -0.2843  2.9167
 3518SOL     OW22012   2.958   4.142  11.394  0.2248 -0.1267 -0.2262
 3518SOL    HW122013   2.892   4.212  11.387  1.3220  0.8734 -0.4822
 3518SOL    HW222014   3.021   4.185  11.452 -0.2445  0.6232 -0.2701
 3519SOL     OW22015   2.728   4.624   3.386  0.2745 -0.1330  0.0874
 3519SOL    HW122016   2.784   4.548   3.399 -0.3404 -0.3459  1.6155
 3519SOL    HW222017   2.787   4.699   3.380 -0.7348  0.6579  0.0481
 3520SOL     OW22018   1.628   3.078   5.733 -0.5480 -0.6984  0.3313
 3520SOL    HW122019   1.561   3.130   5.778 -1.3921 -1.5353  0.0601
 3520SOL    HW222020   1.710   3.125   5.746 -1.6213  0.9864  0.9753
 3521SOL     OW22021   1.885   4.062  15.140  0.4263 -0.2111  0.9068
 3521SOL    HW122022   1.978   4.048  15.155  0.7616  1.1726  0.1136
 3521SOL    HW222023   1.851   4.012  15.215  0.3306  0.1210  1.0841
 3522SOL     OW22024   3.529   2.772   6.898  0.2455  0.7818  0.0754
 3522SOL    HW122025   3.461   2.738   6.956 -0.7271  1.2701 -0.7761
 3522SOL    HW222026   3.515   2.866   6.908 -1.4900  0.5586 -0.1304
 3523SOL     OW22027   1.349   0.379   5.707 -0.5043  0.1553 -0.2394
 3523SOL    HW122028   1.257   0.370   5.734  0.0002  2.4765  2.2067
 3523SOL    HW222029   1.348   0.451   5.645  0.9742  1.7109  1.5324
 3524SOL     OW22030   0.453   0.070   3.645 -0.2069  0.0155 -0.3770
 3524SOL    HW122031   0.541   0.045   3.618 -0.3970  0.6507 -1.5603
 3524SOL    HW222032   0.442   0.155   3.604 -0.7905 -0.8667 -2.0229
 3525SOL     OW22033   3.360   4.499   3.194 -0.3736 -0.0749  0.3467
 3525SOL    HW122034   3.455   4.485   3.191 -0.1071  1.3715  2.5650
 3525SOL    HW222035   3.344   4.526   3.284  1.1981 -0.5691  0.7691
 3526SOL     OW22036   1.896   3.130   7.109 -0.0554 -0.0949 -0.0840
 3526SOL    HW122037   1.853   3.077   7.042  2.8503 -0.9137 -1.2862
 3526SOL    HW222038   1.935   3.066   7.169  0.0787  1.3992  1.4391
 3527SOL     OW22039   3.884   2.657   5.446 -0.0971  0.2485 -0.3225
 3527SOL    HW122040   3.942   2.592   5.486 -1.1354 -0.2145  0.4078
 3527SOL    HW222041   3.855   2.702   5.525 -2.7479 -2.4198  0.2166
 3528SOL     OW22042   1.420   0.870   3.009 -0.4513 -0.3014  0.1518
 3528SOL    HW122043   1.510   0.838   3.003 -0.5322 -0.4608 -0.2846
 3528SOL    HW222044   1.435   0.939   3.073 -2.3714 -0.2466  0.5430
 3529SOL     OW22045   0.629   2.320  12.662  0.1212  0.6114  0.9956
 3529SOL    HW122046   0.637   2.290  12.572  0.7363 -1.8729  1.8788
 3529SOL    HW222047   0.586   2.240  12.693 -0.5424  0.2486 -0.8365
 3530SOL     OW22048   2.511   1.635   7.673  0.1980 -0.0497  0.1820
 3530SOL    HW122049   2.587   1.611   7.726 -0.9927 -3.0464  0.4878
 3530SOL    HW222050   2.450   1.668   7.739 -2.5015  0.3165 -2.5069
 3531SOL     OW22051   0.817   2.077  14.795 -0.1545 -0.4634 -0.2193
 3531SOL    HW122052   0.802   2.055  14.703  0.9548  3.5913 -1.3545
 3531SOL    HW222053   0.773   2.161  14.803 -0.1019 -0.4360 -0.2212
 3532SOL     OW22054   0.300   4.476   9.967 -0.0606 -0.0969  0.3537
 3532SOL    HW122055   0.387   4.468   9.927 -0.1197  0.2316  0.1538
 3532SOL    HW222056   0.297   4.560  10.013  1.8178 -0.1612  0.6205
 3533SOL     OW22057   4.266   4.326  17.412 -0.2424  0.2309  0.0924
 3533SOL    HW122058   4.178   4.354  17.437 -0.0593  0.0084  1.0018
 3533SOL    HW222059   4.310   4.398  17.459  0.1016  1.0476 -1.4846
 3534SOL     OW22060   3.362   4.652   3.421 -0.1480  0.8419 -0.3150
 3534SOL    HW122061   3.282   4.704   3.421 -1.8094 -1.8146  1.7940
 3534SOL    HW222062   3.396   4.673   3.508  1.9318 -0.1184 -0.8830
 3535SOL     OW22063   2.751   3.129  11.205  0.2551 -0.6076 -0.0109
 3535SOL    HW122064   2.726   3.201  11.262  2.3152 -0.0575  0.1814
 3535SOL    HW222065   2.737   3.177  11.123  3.7582 -0.7681 -0.7059
 3536SOL     OW22066   1.210   4.264   0.642  0.1453  0.2928  0.0876
 3536SOL    HW122067   1.129   4.242   0.596 -0.0865  2.9427 -0.7464
 3536SOL    HW222068   1.270   4.243   0.570  0.1990  2.1781 -0.4221
 3537SOL     OW22069   3.746   2.501   7.065  0.4099  0.3490 -0.6057
 3537SOL    HW122070   3.764   2.543   6.981  3.0201 -1.5286 -1.0021
 3537SOL    HW222071   3.833   2.498   7.105 -0.1667 -0.2480  0.6183
 3538SOL     OW22072   2.659   0.814   7.236 -0.6968  0.0923 -0.0120
 3538SOL    HW122073   2.624   0.831   7.148 -1.5691  2.0009  0.6896
 3538SOL    HW222074   2.583   0.799   7.292 -1.6265 -0.2812 -1.3699
 3539SOL     OW22075   1.130   4.240  17.560  0.1876 -0.1008  0.0575
 3539SOL    HW122076   1.157   4.332  17.549  1.3032 -0.5059 -0.6897
 3539SOL    HW222077   1.042   4.228  17.525  0.0520 -0.9970  0.7232
 3540SOL     OW22078   3.369   4.266   8.873 -0.0294  0.5580 -0.5016
 3540SOL    HW122079   3.345   4.234   8.960 -1.9705  3.1947 -0.0514
 3540SOL    HW222080   3.284   4.246   8.833  0.9739 -1.1127 -1.8015
 3541SOL     OW22081   1.547   0.968   0.956  0.2083 -0.1411 -0.3158
 3541SOL    HW122082   1.616   1.022   0.993 -0.1799  1.1006 -1.3829
 3541SOL    HW222083   1.592   0.886   0.938 -0.5270 -0.2693 -1.5427
 3542SOL     OW22084   3.848   0.934   4.481 -0.6966  0.1506 -0.2280
 3542SOL    HW122085   3.901   1.014   4.483  1.1524 -1.0648 -0.6068
 3542SOL    HW222086   3.875   0.921   4.390  1.4051 -3.1906  0.8570
 3543SOL     OW22087   2.970   4.387   6.458 -0.0314  0.1173 -0.0346
 3543SOL    HW122088   2.926   4.341   6.529  1.3338 -0.8765  0.1594
 3543SOL    HW222089   3.001   4.466   6.503  1.5856  0.5949 -2.0042
 3544SOL     OW22090   2.831   1.803   8.378  0.6811 -0.2013  0.1305
 3544SOL    HW122091   2.902   1.741   8.392  0.1531 -0.6572  0.7874
 3544SOL    HW222092   2.782   1.796   8.460  2.9294 -1.3931  1.3591
 3545SOL     OW22093   0.604   1.086   0.710 -0.2825  0.1527 -0.2536
 3545SOL    HW122094   0.574   1.173   0.683 -0.7522  0.2373  0.5591
 3545SOL    HW222095   0.691   1.080   0.669  0.4918 -1.3221  1.6215
 3546SOL     OW22096   3.279   2.433   8.628 -0.3020  0.1410  0.5372
 3546SOL    HW122097   3.258   2.370   8.697  2.6550 -0.9410  0.4365
 3546SOL    HW222098   3.306   2.381   8.552 -1.0736 -0.0415  0.3893
 3547SOL     OW22099   2.942   2.172   8.150  0.0245  0.2462 -0.4765
 3547SOL    HW122100   2.984   2.153   8.235 -0.8890  2.7135  0.5104
 3547SOL    HW222101   2.849   2.162   8.172  0.5656 -2.3523  0.7003
 3548SOL     OW22102   4.311   1.393   4.364 -0.1600 -0.4086  0.9351
 3548SOL    HW122103   4.316   1.298   4.354 -2.5363 -0.7100  2.6179
 3548SOL    HW222104   4.252   1.405   4.438 -1.1276  1.1486 -0.0581
 3549SOL     OW22105   2.439   1.824   2.704 -0.5182  0.2293  0.7314
 3549SOL    HW122106   2.430   1.869   2.788  2.5235  2.7971 -0.2833
 3549SOL    HW222107   2.346   1.818   2.686 -0.1981 -0.7154 -0.5997
 3550SOL     OW22108   2.787   2.240   8.638  0.0875  0.1942 -0.1746
 3550SOL    HW122109   2.709   2.206   8.593 -0.1152  0.7351 -0.2414
 3550SOL    HW222110   2.744   2.288   8.709  0.8898  0.1030  0.3682
 3551SOL     OW22111   2.685   2.090   9.113 -0.6096 -0.3215  0.5216
 3551SOL    HW122112   2.780   2.103   9.113 -0.7680  0.8587  0.0822
 3551SOL    HW222113   2.670   2.129   9.199 -0.9518 -0.9149  0.7289
 3552SOL     OW22114   2.813   1.189   4.552 -0.1415  0.0675  0.4040
 3552SOL    HW122115   2.743   1.128   4.572 -1.1674  0.8156 -0.9649
 3552SOL    HW222116   2.807   1.209   4.459  2.4790 -1.9083 -0.1941
 3553SOL     OW22117   2.509   4.609  13.486  0.3419  0.1661 -0.5987
 3553SOL    HW122118   2.454   4.686  13.495  0.5119  0.1835  0.2280
 3553SOL    HW222119   2.486   4.565  13.568 -1.2125  0.5225 -0.8354
 3554SOL     OW22120   1.481   0.930  13.350  0.5381  0.2391  0.2065
 3554SOL    HW122121   1.396   0.922  13.305  0.9510 -0.8331 -0.3707
 3554SOL    HW222122   1.526   0.950  13.269  0.5370  2.5903  0.8011
 3555SOL     OW22123   1.897   4.038   9.677 -0.4980 -0.0038 -0.3303
 3555SOL    HW122124   1.917   4.115   9.730 -0.4546 -1.4483  1.7121
 3555SOL    HW222125   1.958   3.979   9.720  0.2491  1.5048  0.6697
 3556SOL     OW22126   1.446   2.500  17.526  0.1711  0.1835 -0.2516
 3556SOL    HW122127   1.435   2.415  17.568  1.6435  1.1807  2.1160
 3556SOL    HW222128   1.417   2.484  17.436 -1.0070  1.6444 -0.1323
 3557SOL     OW22129   2.498   0.888   2.269  0.2138 -0.0649 -0.3919
 3557SOL    HW122130   2.488   0.981   2.290 -2.0105 -0.1894 -0.8960
 3557SOL    HW222131   2.593   0.886   2.260 -0.0937 -1.3928 -3.1532
 3558SOL     OW22132   0.621   1.722   1.585 -0.4161 -0.5621  0.2113
 3558SOL    HW122133   0.715   1.704   1.592 -0.7297 -2.1149  0.4183
 3558SOL    HW222134   0.603   1.701   1.493  0.7190 -0.2310 -0.0943
 3559SOL     OW22135   0.715   0.963   5.997  0.4783 -0.0121  0.1346
 3559SOL    HW122136   0.742   1.048   5.963 -1.9127  0.4302 -0.6375
 3559SOL    HW222137   0.736   0.969   6.091 -0.5907  0.4592  0.3360
 3560SOL     OW22138   2.211   2.772   3.116 -0.1047 -0.4556  0.2547
 3560SOL    HW122139   2.215   2.867   3.124  1.7129 -0.4873 -0.4178
 3560SOL    HW222140   2.239   2.754   3.027  2.0507 -1.9984  1.2318
 3561SOL     OW22141   1.948   0.659  12.642 -0.8261 -0.1333  0.0232
 3561SOL    HW122142   1.961   0.705  12.559  3.3220  1.6719  1.6834
 3561SOL    HW222143   1.912   0.574  12.617  1.3831 -1.0726  0.0185
 3562SOL     OW22144   0.811   4.204   3.729 -0.2120  0.0531  0.1797
 3562SOL    HW122145   0.733   4.244   3.769 -0.0377  1.2267 -0.6446
 3562SOL    HW222146   0.841   4.269   3.666  0.3842 -0.6155 -0.2127
 3563SOL     OW22147   0.142   0.583  11.172  0.3541  0.2861 -0.0116
 3563SOL    HW122148   0.053   0.608  11.193  0.2415 -0.3402  0.2577
 3563SOL    HW222149   0.146   0.490  11.194 -0.1046  0.0455 -0.9513
 3564SOL     OW22150   2.735   4.635  13.197  0.4474 -0.3503 -0.1426
 3564SOL    HW122151   2.688   4.554  13.217  1.5175 -0.7998  0.5347
 3564SOL    HW222152   2.656   4.689  13.188  0.4862 -0.2267  0.2474
 3565SOL     OW22153   1.832   1.658   2.713  0.1627  0.0892 -0.4538
 3565SOL    HW122154   1.775   1.719   2.665  1.2009  1.5647  0.1838
 3565SOL    HW222155   1.905   1.715   2.737  0.0544 -0.2765  0.7419
 3566SOL     OW22156   2.954   2.482   6.477  0.5250  0.6277  0.1506
 3566SOL    HW122157   2.954   2.544   6.550  1.4364  0.6198  0.1571
 3566SOL    HW222158   2.925   2.545   6.412 -1.0848 -1.0145 -0.7120
 3567SOL     OW22159   3.369   3.322   5.461  0.4074 -0.4244  0.6108
 3567SOL    HW122160   3.447   3.356   5.417 -1.0261  0.5766 -1.1307
 3567SOL    HW222161   3.335   3.288   5.379 -0.3220 -1.9934  1.5722
 3568SOL     OW22162   3.944   1.558   7.575 -1.1755  0.6822 -0.2103
 3568SOL    HW122163   3.915   1.649   7.568 -1.4361  0.6982  1.0997
 3568SOL    HW222164   3.965   1.563   7.668 -1.0023 -0.1887 -0.2077
 3569SOL     OW22165   2.606   1.553  14.548  0.3041  0.3968  0.5320
 3569SOL    HW122166   2.573   1.463  14.549  0.3662  0.3929  2.0171
 3569SOL    HW222167   2.692   1.544  14.506 -0.2953 -0.6726 -0.4617
 3570SOL     OW22168   3.904   4.196   0.838  0.1289  0.6713 -0.3695
 3570SOL    HW122169   3.995   4.200   0.810  0.8032  0.0340  1.7237
 3570SOL    HW222170   3.883   4.116   0.789  0.8271  0.2753 -0.0263
 3571SOL     OW22171   4.288   1.525   4.092  0.4540 -0.2858 -0.5712
 3571SOL    HW122172   4.238   1.602   4.118 -0.7646 -1.3941  0.3452
 3571SOL    HW222173   4.266   1.467   4.165  2.1498  1.0843  1.0502
 3572SOL     OW22174   1.545   4.532   3.281 -0.0991 -0.5516  0.2336
 3572SOL    HW122175   1.514   4.614   3.242  1.1496 -0.2772 -0.1555
 3572SOL    HW222176   1.484   4.470   3.241  0.7164 -0.6666 -0.8169
 3573SOL     OW22177   3.197   3.901   7.714  0.3186  0.0223 -0.0770
 3573SOL    HW122178   3.150   3.860   7.641  0.0472 -0.0914  0.1582
 3573SOL    HW222179   3.282   3.917   7.676 -0.2931 -1.0036 -1.8732
 3574SOL     OW22180   4.524   0.296   3.559 -0.5568 -0.8271 -0.3732
 3574SOL    HW122181   4.435   0.325   3.541 -0.4375 -0.1158  0.1887
 3574SOL    HW222182   4.543   0.328   3.647 -1.4436  2.3477 -1.3389
 3575SOL     OW22183   2.363   1.898   4.341 -0.3068 -0.4022  0.4575
 3575SOL    HW122184   2.341   1.894   4.434 -0.9280  0.0610  0.3308
 3575SOL    HW222185   2.299   1.840   4.300 -2.1970  0.8198  1.6611
 3576SOL     OW22186   3.684   3.716  16.085  0.1588  0.2377  0.6042
 3576SOL    HW122187   3.766   3.762  16.071  0.1084 -0.3637 -1.7688
 3576SOL    HW222188   3.714   3.636  16.127  2.5766  0.3688 -0.8627
 3577SOL     OW22189   1.274   2.273  11.192  0.5077 -0.1588  0.1289
 3577SOL    HW122190   1.340   2.336  11.222  0.4233 -0.0876  0.1642
 3577SOL    HW222191   1.329   2.195  11.185 -1.9377 -2.0719  2.6061
 3578SOL     OW22192   1.672   4.283   7.151 -0.0800 -0.4600 -0.8033
 3578SOL    HW122193   1.762   4.249   7.150  0.7217  1.6089  0.4345
 3578SOL    HW222194   1.634   4.210   7.199  0.6634 -2.7553 -3.7230
 3579SOL     OW22195   0.028   3.431  11.231  0.5511  0.4873 -0.2299
 3579SOL    HW122196   0.056   3.424  11.322 -0.0907 -1.8215 -0.2106
 3579SOL    HW222197   0.111   3.469  11.202  0.2506 -0.5318 -2.4004
 3580SOL     OW22198   1.187   3.319   5.951 -0.0542  0.2369 -0.5014
 3580SOL    HW122199   1.106   3.268   5.958  0.5604 -0.7356 -0.4118
 3580SOL    HW222200   1.159   3.398   5.906  3.9210  1.3241 -1.0221
 3581SOL     OW22201   0.061   0.188   6.624  0.0864  0.1473 -0.4461
 3581SOL    HW122202   0.106   0.103   6.633  1.0244  0.7453  0.6715
 3581SOL    HW222203   4.724   0.196   6.696 -0.7487 -0.5547 -1.0978
 3582SOL     OW22204   1.679   4.249  14.915 -0.3634  0.5879 -0.0069
 3582SOL    HW122205   1.614   4.313  14.886 -0.8268  0.0889 -0.0700
 3582SOL    HW222206   1.655   4.176  14.858  2.5013  1.0460 -1.7818
 3583SOL     OW22207   1.940   3.973   6.219 -0.7518  0.1415  0.4850
 3583SOL    HW122208   1.987   3.892   6.241  0.7128  0.9091  0.2305
 3583SOL    HW222209   1.927   3.967   6.124  2.4662  0.4183 -0.0021
 3584SOL     OW22210   0.590   1.690  17.513 -0.0188 -0.1657 -0.2268
 3584SOL    HW122211   0.525   1.679  17.582  1.5434  1.1219  1.4482
 3584SOL    HW222212   0.562   1.620  17.454 -1.8232 -0.7185  1.2662
 3585SOL     OW22213   0.220   1.490   8.383  0.3617 -0.6922  0.0930
 3585SOL    HW122214   0.268   1.493   8.301  0.0292  0.7880 -0.0421
 3585SOL    HW222215   0.227   1.399   8.411 -1.2760 -0.3956  1.5193
 3586SOL     OW22216   0.904   2.047   8.166 -0.3979  0.7410 -0.2839
 3586SOL    HW122217   0.823   2.008   8.198 -0.7990  0.6584 -1.4032
 3586SOL    HW222218   0.887   2.074   8.076 -1.1402  1.8385  0.1764
 3587SOL     OW22219   1.465   3.025   2.802 -0.2025 -0.2785 -0.2547
 3587SOL    HW122220   1.436   3.068   2.883  0.2007  1.7458 -1.1633
 3587SOL    HW222221   1.525   2.960   2.838  1.6496 -0.0358 -2.9417
 3588SOL     OW22222   2.461   1.315   4.231  0.2362 -0.0161 -0.1805
 3588SOL    HW122223   2.473   1.404   4.266  0.2174  1.0879 -3.0015
 3588SOL    HW222224   2.380   1.287   4.273  0.9883 -1.7874  0.1055
 3589SOL     OW22225   2.867   2.732   7.984 -0.1028 -0.0787 -0.0281
 3589SOL    HW122226   2.816   2.756   7.907  1.8766 -0.8373 -1.5410
 3589SOL    HW222227   2.943   2.684   7.954 -0.4376 -0.3461 -0.4352
 3590SOL     OW22228   1.196   1.384   7.709 -0.5924  0.1831 -0.4804
 3590SOL    HW122229   1.228   1.368   7.798 -0.1183  1.0690 -0.4906
 3590SOL    HW222230   1.209   1.479   7.708  1.9011 -0.2156 -2.7333
 3591SOL     OW22231   3.881   0.238   4.504  0.4976 -0.2348 -0.0295
 3591SOL    HW122232   3.895   0.284   4.586 -1.2564 -2.5157  1.5737
 3591SOL    HW222233   3.918   0.153   4.528  0.1670 -0.1335  0.8281
 3592SOL     OW22234   3.816   2.396  12.260  0.1494 -0.2076  0.2041
 3592SOL    HW122235   3.752   2.462  12.234 -1.6188 -2.5989 -1.4749
 3592SOL    HW222236   3.888   2.428  12.205 -0.7429 -1.0686 -1.4663
 3593SOL     OW22237   0.186   0.526   5.495 -0.6985 -0.1422 -0.1587
 3593SOL    HW122238   0.265   0.472   5.494 -0.6851 -0.1003 -0.8584
 3593SOL    HW222239   0.151   0.510   5.408 -0.4683 -1.8376  0.0587
 3594SOL     OW22240   4.646   0.285   4.709 -0.2592 -0.8137  0.1368
 3594SOL    HW122241   4.607   0.350   4.767  0.9275  0.2797 -0.2662
 3594SOL    HW222242   4.602   0.205   4.736  0.1306 -1.7157 -1.8509
 3595SOL     OW22243   3.507   3.461   2.390 -0.2156 -0.2317  0.7041
 3595SOL    HW122244   3.521   3.387   2.450 -0.6694  0.5872  1.8200
 3595SOL    HW222245   3.463   3.525   2.446  0.2401  0.3356  0.4138
 3596SOL     OW22246   4.449   2.295   9.784  0.3657 -0.2270  0.2931
 3596SOL    HW122247   4.434   2.358   9.854  0.8741  1.5244 -1.1566
 3596SOL    HW222248   4.406   2.220   9.825 -2.6592 -0.1326 -2.6735
 3597SOL     OW22249   4.026   0.784   0.277 -0.2552  0.0172 -0.3427
 3597SOL    HW122250   3.952   0.724   0.263 -1.5465  1.8017 -1.0694
 3597SOL    HW222251   4.063   0.748   0.357 -0.9713  1.2504  0.5377
 3598SOL     OW22252   1.135   3.725   3.727  0.4660 -0.7377  0.2215
 3598SOL    HW122253   1.102   3.721   3.637  0.7037  1.1688  0.0536
 3598SOL    HW222254   1.094   3.811   3.738 -0.4966 -0.9674 -1.5917
 3599SOL     OW22255   4.170   2.306   5.373 -0.1459  0.1332 -0.5560
 3599SOL    HW122256   4.107   2.337   5.438 -0.9116 -4.2242  0.7899
 3599SOL    HW222257   4.215   2.382   5.337  0.9929  0.1969  1.0266
 3600SOL     OW22258   1.247   2.045  15.572 -0.0025  0.0103  0.2399
 3600SOL    HW122259   1.181   2.114  15.562 -0.7006 -0.4621  1.6651
 3600SOL    HW222260   1.334   2.080  15.589  0.3940  0.3043 -2.3503
 3601SOL     OW22261   1.614   0.978   4.091 -0.0279  0.0834 -0.1679
 3601SOL    HW122262   1.694   0.927   4.075 -0.6621 -0.5775 -1.2095
 3601SOL    HW222263   1.591   0.998   4.000  0.1943 -0.7264 -0.4028
 3602SOL     OW22264   0.445   0.466   1.907 -0.6096  0.8256 -0.0127
 3602SOL    HW122265   0.444   0.371   1.912  1.5207  0.8371  0.5024
 3602SOL    HW222266   0.490   0.474   1.823 -0.3969 -2.4527 -0.1764
 3603SOL     OW22267   3.456   1.314   3.949 -0.5479  0.1706  0.2797
 3603SOL    HW122268   3.519   1.373   3.991  2.8839 -3.5284  0.3347
 3603SOL    HW222269   3.430   1.251   4.016  0.4484  0.5792  1.0590
 3604SOL     OW22270   2.390   2.848   2.249  0.0886  0.4006 -0.1004
 3604SOL    HW122271   2.447   2.779   2.215 -0.6058 -0.3759  0.3265
 3604SOL    HW222272   2.327   2.850   2.177 -0.1135  1.5978  0.1093
 3605SOL     OW22273   2.029   4.560   6.336 -0.5430  0.5221  0.1667
 3605SOL    HW122274   1.973   4.636   6.345 -2.3292 -0.9094  1.1743
 3605SOL    HW222275   1.963   4.497   6.307 -1.0446  0.1621  2.1452
 3606SOL     OW22276   3.873   4.529   2.715  0.2335 -0.1176 -0.1411
 3606SOL    HW122277   3.878   4.597   2.782  2.0134  1.1554 -1.5914
 3606SOL    HW222278   3.943   4.551   2.654  0.0483 -0.5819 -0.5212
 3607SOL     OW22279   0.910   1.652  14.918 -0.0547 -0.0743  0.3781
 3607SOL    HW122280   0.887   1.696  14.836  2.2026  0.0324 -0.1935
 3607SOL    HW222281   0.992   1.699  14.933 -0.6560  1.4436 -1.1355
 3608SOL     OW22282   4.166   0.811   5.898 -0.4265 -0.5555  0.4801
 3608SOL    HW122283   4.102   0.822   5.828 -1.4653 -2.0945  1.1936
 3608SOL    HW222284   4.130   0.873   5.962  3.0406  2.3836 -0.3980
 3609SOL     OW22285   0.002   0.819   2.463 -0.4693 -0.5073 -0.0645
 3609SOL    HW122286   0.040   0.798   2.378  1.1157 -0.1358  0.5513
 3609SOL    HW222287   0.039   0.752   2.521 -2.5584 -2.3481 -0.8340
 3610SOL     OW22288   2.469   2.722   0.558  0.0202 -0.3701 -0.3018
 3610SOL    HW122289   2.486   2.801   0.507 -0.1766  1.2942  2.1961
 3610SOL    HW222290   2.375   2.731   0.545  0.0478  0.3185 -0.0365
 3611SOL     OW22291   0.450   0.848  15.771  0.4185  0.0770  0.0735
 3611SOL    HW122292   0.377   0.867  15.830 -0.7952 -2.6890 -0.5469
 3611SOL    HW222293   0.448   0.753  15.777 -0.7482  0.2656  2.5989
 3612SOL     OW22294   0.508   2.727   5.806 -0.2153  0.1888  0.1902
 3612SOL    HW122295   0.488   2.731   5.900 -1.7495 -0.9717 -0.0858
 3612SOL    HW222296   0.602   2.711   5.811  0.0586  2.0385  1.3449
 3613SOL     OW22297   3.538   2.831  16.615  0.4282  0.1436 -0.5442
 3613SOL    HW122298   3.609   2.838  16.551  1.3383 -1.8998  0.2490
 3613SOL    HW222299   3.538   2.924  16.639 -2.1624 -0.2563  1.0311
 3614SOL     OW22300   0.414   3.750   6.243 -0.2619  0.2024  0.1779
 3614SOL    HW122301   0.431   3.671   6.294  1.3729  0.3290 -0.1792
 3614SOL    HW222302   0.461   3.817   6.292  1.9196  0.2923 -2.0526
 3615SOL     OW22303   0.720   3.721  10.621 -0.2538  0.5201 -0.1601
 3615SOL    HW122304   0.709   3.634  10.583  1.0315  0.1245  0.3782
 3615SOL    HW222305   0.809   3.743  10.592 -0.8527  0.3306 -2.0888
 3616SOL     OW22306   3.794   3.033  15.308 -0.2755 -0.1455 -0.2760
 3616SOL    HW122307   3.724   2.993  15.257  0.1102  0.1937 -1.0651
 3616SOL    HW222308   3.869   3.014  15.252 -0.4777  1.0253 -0.9283
 3617SOL     OW22309   2.439   2.339  14.013 -0.1777 -0.3135 -0.0894
 3617SOL    HW122310   2.499   2.265  13.999  0.2812  0.2134 -0.8658
 3617SOL    HW222311   2.393   2.330  13.930  0.2451 -1.6393 -0.1832
 3618SOL     OW22312   1.016   1.037  15.364 -0.1062 -0.3015  0.1919
 3618SOL    HW122313   1.075   1.103  15.326 -0.8859 -0.9984 -2.2453
 3618SOL    HW222314   1.059   0.955  15.341 -1.7944 -0.7902 -1.2255
 3619SOL     OW22315   3.333   2.099   3.110 -0.1646  0.1417  0.4077
 3619SOL    HW122316   3.349   2.018   3.158  1.3325 -0.7834 -1.6844
 3619SOL    HW222317   3.241   2.116   3.132 -0.1915  0.5723 -0.0312
 3620SOL     OW22318   3.331   0.156   9.123  0.5764 -0.3350  0.2443
 3620SOL    HW122319   3.266   0.222   9.146  0.1715 -0.5080 -0.3801
 3620SOL    HW222320   3.405   0.209   9.094 -0.3879  1.5587  1.3135
 3621SOL     OW22321   1.534   0.014   6.332  0.1318 -0.6185  0.2520
 3621SOL    HW122322   1.539   0.005   6.427  1.0697 -1.2821  0.1518
 3621SOL    HW222323   1.457   0.069   6.322  1.0537  0.9007  1.6131
 3622SOL     OW22324   2.309   2.109  14.936  0.2983 -0.1418  0.0419
 3622SOL    HW122325   2.229   2.116  14.988  1.5597 -1.6903  2.1864
 3622SOL    HW222326   2.332   2.201  14.951 -0.1102 -0.0544  0.1386
 3623SOL     OW22327   0.816   4.118  14.097 -0.2765 -0.2939 -0.6854
 3623SOL    HW122328   0.886   4.055  14.083  0.2349 -0.1692  1.2270
 3623SOL    HW222329   0.796   4.155  14.011  0.4508  1.5530 -0.0652
 3624SOL     OW22330   3.081   3.657  11.253  0.2511  0.4551  0.2569
 3624SOL    HW122331   3.141   3.635  11.324  0.6365 -0.2256 -0.2764
 3624SOL    HW222332   3.159   3.672  11.200 -0.1386 -0.0271 -0.4535
 3625SOL     OW22333   3.840   0.918   4.834  0.1777 -0.3453 -0.2181
 3625SOL    HW122334   3.927   0.890   4.865  0.2358 -0.2448 -0.2896
 3625SOL    HW222335   3.832   1.008   4.867  0.0913 -0.0576 -1.0379
 3626SOL     OW22336   2.254   4.351   4.150  0.1357  0.1693  0.4509
 3626SOL    HW122337   2.238   4.418   4.084  1.2546 -1.7553 -1.7854
 3626SOL    HW222338   2.163   4.350   4.180  0.3023  1.4344  0.9973
 3627SOL     OW22339   3.886   0.414  16.738 -0.0185 -0.9039  0.1480
 3627SOL    HW122340   3.932   0.377  16.663 -1.6180 -0.3813 -1.1062
 3627SOL    HW222341   3.960   0.404  16.797 -0.0471  1.0016  0.4880
 3628SOL     OW22342   3.937   2.889  14.306  0.1794  1.3303 -0.0688
 3628SOL    HW122343   3.974   2.974  14.282 -1.1203  1.9662  0.1715
 3628SOL    HW222344   3.867   2.874  14.243  0.4358 -0.4316  0.0672
 3629SOL     OW22345   2.409   0.462   6.441  0.4916  0.0358 -0.1013
 3629SOL    HW122346   2.406   0.370   6.417  0.8715  0.3411 -1.3343
 3629SOL    HW222347   2.406   0.453   6.537 -0.6338 -1.3257 -0.2583
 3630SOL     OW22348   1.074   3.713  12.470 -0.5897 -0.8793 -0.5193
 3630SOL    HW122349   1.099   3.632  12.426  1.4998 -1.0007  0.8596
 3630SOL    HW222350   1.154   3.766  12.467 -1.3789  0.4193  0.8921
 3631SOL     OW22351   2.529   2.251   8.528  0.9524 -0.1736  0.5767
 3631SOL    HW122352   2.518   2.251   8.433  1.4983  0.7627  0.5034
 3631SOL    HW222353   2.480   2.330   8.554 -0.1479 -1.0094  1.0263
 3632SOL     OW22354   1.210   3.140   1.490 -0.2528  0.0498 -0.1490
 3632SOL    HW122355   1.147   3.206   1.520  1.3076  1.5573 -0.2164
 3632SOL    HW222356   1.235   3.096   1.572 -0.4268  0.1468 -0.0440
 3633SOL     OW22357   2.210   1.886   3.367  0.0429 -0.1472  0.0147
 3633SOL    HW122358   2.171   1.947   3.431  0.9140 -1.0903  1.4424
 3633SOL    HW222359   2.191   1.802   3.409  1.5059  0.5784  2.1195
 3634SOL     OW22360   1.482   4.064  14.424  0.2421 -0.5119  0.1155
 3634SOL    HW122361   1.537   4.077  14.347 -1.1710  0.3834 -0.7385
 3634SOL    HW222362   1.545   4.036  14.490 -0.5606  0.6898  1.3925
 3635SOL     OW22363   0.682   4.034  17.669  0.6871 -0.7823 -0.5823
 3635SOL    HW122364   0.634   3.953  17.657 -2.5590  1.3341 -1.8667
 3635SOL    HW222365   0.661   4.079  17.588 -0.5302 -0.3312 -0.0286
 3636SOL     OW22366   0.763   4.006   8.338 -0.1349 -0.2015 -0.1295
 3636SOL    HW122367   0.763   4.093   8.378  0.5129 -0.2550 -0.0085
 3636SOL    HW222368   0.779   3.951   8.415 -0.3244 -0.7557 -0.4917
 3637SOL     OW22369   0.044   3.665  16.514  0.1179 -0.5731  0.5047
 3637SOL    HW122370   0.012   3.577  16.499 -2.6685  0.6432 -0.6548
 3637SOL    HW222371   4.697   3.723  16.491 -0.0711 -0.2851  1.8169
 3638SOL     OW22372   2.008   4.293   2.627  0.4653 -0.2554  0.3178
 3638SOL    HW122373   1.934   4.273   2.683 -0.4240 -2.4647 -1.6447
 3638SOL    HW222374   1.973   4.255   2.546 -2.1493 -1.1321  1.8785
 3639SOL     OW22375   1.828   3.105  10.469 -0.7218  0.0859 -0.7899
 3639SOL    HW122376   1.772   3.052  10.525  1.5063 -0.1357  1.2222
 3639SOL    HW222377   1.765   3.164  10.427 -1.1435 -0.7065 -1.2657
 3640SOL     OW22378   0.781   3.597   3.382 -0.3833 -0.5928 -0.0636
 3640SOL    HW122379   0.771   3.516   3.333  0.3766 -2.2094  2.4345
 3640SOL    HW222380   0.690   3.627   3.380 -0.5343 -1.1142 -0.9610
 3641SOL     OW22381   1.686   0.892   2.958  0.2259 -0.5701  0.0133
 3641SOL    HW122382   1.757   0.839   2.921  1.1498  0.4254  0.3484
 3641SOL    HW222383   1.672   0.957   2.890 -0.7887 -1.1921 -0.3670
 3642SOL     OW22384   2.597   4.269   4.075  0.4275  0.0103  0.0671
 3642SOL    HW122385   2.623   4.223   3.995  2.2166  1.3988 -0.1624
 3642SOL    HW222386   2.558   4.348   4.038  0.4022  0.3444  0.8047
 3643SOL     OW22387   3.945   1.261   5.923 -0.0848 -0.2647 -0.4055
 3643SOL    HW122388   3.965   1.338   5.977  2.1973 -1.1227 -0.0118
 3643SOL    HW222389   3.966   1.296   5.837  0.8056 -0.7920 -0.4053
 3644SOL     OW22390   3.900   0.552   2.249 -0.5443 -0.1478  0.1051
 3644SOL    HW122391   3.952   0.604   2.187 -0.3281 -1.1990 -0.6165
 3644SOL    HW222392   3.814   0.580   2.220 -0.1330  1.5289  0.5313
 3645SOL     OW22393   4.316   2.097  14.186  0.0707 -0.2905  0.0955
 3645SOL    HW122394   4.227   2.124  14.162  0.4061  0.8991  0.2149
 3645SOL    HW222395   4.348   2.175  14.231  1.0171 -0.3328 -0.5098
 3646SOL     OW22396   0.802   2.905  15.961  0.1461 -0.1641  0.1750
 3646SOL    HW122397   0.714   2.903  15.999  0.5890 -1.1884  1.1602
 3646SOL    HW222398   0.803   2.986  15.911 -4.6058 -0.4369 -0.3316
 3647SOL     OW22399   0.414   3.156  15.724  0.1256 -0.0611 -0.3685
 3647SOL    HW122400   0.485   3.143  15.661  0.9318  0.6637  0.4057
 3647SOL    HW222401   0.398   3.064  15.747  2.2006 -0.6346 -1.1914
 3648SOL     OW22402   1.396   2.554  16.307  0.0110 -0.7636  0.2117
 3648SOL    HW122403   1.332   2.625  16.317  0.7496  0.1377 -1.4393
 3648SOL    HW222404   1.344   2.490  16.258  1.1912  0.1090 -2.2038
 3649SOL     OW22405   0.477   0.168   5.285  0.1598 -0.4381 -0.1136
 3649SOL    HW122406   0.508   0.224   5.214  0.7374  0.6602  1.0212
 3649SOL    HW222407   0.471   0.222   5.363  1.8036 -0.4551  0.0101
 3650SOL     OW22408   3.838   1.719   4.771  0.1040  0.1180  0.4562
 3650SOL    HW122409   3.889   1.765   4.838 -1.1633  2.1287  0.0273
 3650SOL    HW222410   3.868   1.764   4.692 -0.8534  0.6648  0.4063
 3651SOL     OW22411   2.786   4.301   5.696 -0.2899  0.6477 -0.1164
 3651SOL    HW122412   2.877   4.328   5.700  0.5963 -2.1960 -1.2420
 3651SOL    HW222413   2.756   4.363   5.763  2.7295  0.8374  1.0536
 3652SOL     OW22414   2.616   4.097  16.478 -0.0372 -0.6616  0.5026
 3652SOL    HW122415   2.683   4.119  16.414 -0.5155  2.5369  1.0933
 3652SOL    HW222416   2.587   4.017  16.435  1.9370 -0.4521 -1.1953
 3653SOL     OW22417   4.236   4.400   6.927  0.3837 -0.3479  0.5257
 3653SOL    HW122418   4.234   4.337   6.999  2.5675 -2.3596 -1.1725
 3653SOL    HW222419   4.157   4.399   6.874  1.2794 -0.3643 -0.8088
 3654SOL     OW22420   4.684   0.659  15.015 -0.2252 -0.2587 -0.4045
 3654SOL    HW122421   4.659   0.570  14.994  0.7138 -1.0122  1.6387
 3654SOL    HW222422   4.711   0.690  14.928  1.9410  0.1533  0.3993
 3655SOL     OW22423   0.556   2.864   4.551  0.1569  0.3573 -0.3177
 3655SOL    HW122424   0.482   2.816   4.588  0.0002 -1.0409 -2.4003
 3655SOL    HW222425   0.517   2.950   4.539 -2.9970 -0.7887  1.8767
 3656SOL     OW22426   1.926   3.473  17.641 -0.7189 -0.3592 -0.2261
 3656SOL    HW122427   1.981   3.482  17.563  0.1030 -2.8984  0.0349
 3656SOL    HW222428   1.893   3.388  17.612 -0.6164 -0.0939 -1.1145
 3657SOL     OW22429   2.114   4.630  15.804  0.2469 -0.1290  0.1009
 3657SOL    HW122430   2.047   4.595  15.746 -2.0744  2.2864  1.3207
 3657SOL    HW222431   2.072   4.711  15.832  0.5142 -0.4543  1.4601
 3658SOL     OW22432   2.418   0.901   9.032  0.0752 -0.1968 -0.4294
 3658SOL    HW122433   2.425   0.996   9.035  0.5164 -0.1966 -1.6606
 3658SOL    HW222434   2.457   0.881   9.117  1.0199  0.4633 -0.7056
 3659SOL     OW22435   1.676   3.560  15.211 -0.1394 -0.6538 -0.0462
 3659SOL    HW122436   1.738   3.614  15.161 -1.1716  0.4522 -0.1234
 3659SOL    HW222437   1.726   3.537  15.289  1.3064 -0.7470 -0.9880
 3660SOL     OW22438   0.660   2.475   6.277  0.1162 -0.4003 -0.0327
 3660SOL    HW122439   0.657   2.527   6.357 -1.7766  0.0677 -0.3998
 3660SOL    HW222440   0.569   2.447   6.264 -0.5435  0.9761  1.7572
 3661SOL     OW22441   4.111   0.441   4.422  0.4132  0.1061  0.3123
 3661SOL    HW122442   4.021   0.461   4.449  0.4589 -0.2636  0.7456
 3661SOL    HW222443   4.136   0.369   4.480 -0.7028  0.8810  1.7616
 3662SOL     OW22444   1.504   2.275   2.096  0.5796 -0.0441 -0.7492
 3662SOL    HW122445   1.447   2.319   2.033  0.7563  0.7807 -0.3457
 3662SOL    HW222446   1.441   2.262   2.166 -1.1703  2.0112 -1.9298
 3663SOL     OW22447   0.218   1.774   8.412 -0.6174  0.5600  0.5601
 3663SOL    HW122448   0.239   1.775   8.319 -0.9865  0.3324  0.4780
 3663SOL    HW222449   0.182   1.686   8.426 -0.9859  0.7972  1.1308
 3664SOL     OW22450   2.738   2.076   3.462  0.1724 -0.3780  0.0505
 3664SOL    HW122451   2.692   2.148   3.505 -0.1816 -0.4854 -0.1470
 3664SOL    HW222452   2.668   2.015   3.438 -0.4752  0.9154 -1.3578
 3665SOL     OW22453   3.579   4.660  15.975 -0.9634 -0.2052  0.0591
 3665SOL    HW122454   3.588   4.631  15.884  0.6384 -1.9731  0.7837
 3665SOL    HW222455   3.631   4.597  16.025 -0.1844  1.6393  1.5699
 3666SOL     OW22456   0.323   4.209  17.054 -0.2388  0.0012 -0.0984
 3666SOL    HW122457   0.262   4.283  17.054 -1.6453 -1.1537 -1.6163
 3666SOL    HW222458   0.395   4.229  16.994 -0.3042  0.5380  0.0057
 3667SOL     OW22459   1.277   2.675   8.671  0.6024 -0.0427 -0.0407
 3667SOL    HW122460   1.320   2.629   8.742 -1.2907 -2.3984 -0.3991
 3667SOL    HW222461   1.264   2.609   8.603 -0.6806  0.2049 -0.0410
 3668SOL     OW22462   0.272   0.592  15.665  0.2125 -0.1591 -0.2043
 3668SOL    HW122463   0.233   0.664  15.715 -1.8028 -1.6525  0.3746
 3668SOL    HW222464   0.365   0.602  15.685  0.8352 -2.1768 -2.0949
 3669SOL     OW22465   4.711   0.603  14.614  0.1812 -0.1927 -0.6325
 3669SOL    HW122466   0.051   0.635  14.676  1.4946  1.3506 -2.8468
 3669SOL    HW222467   0.041   0.540  14.570  0.5977 -0.0075 -0.3662
 3670SOL     OW22468   2.407   0.800  15.673 -0.7239  0.4098  0.1489
 3670SOL    HW122469   2.496   0.770  15.653 -0.0207  1.6170  1.5213
 3670SOL    HW222470   2.387   0.858  15.599 -0.7008 -0.1102 -0.2699
 3671SOL     OW22471   0.215   1.895   9.139  0.4979 -0.1983  0.2461
 3671SOL    HW122472   0.287   1.911   9.199  1.6648  0.1804 -1.2527
 3671SOL    HW222473   0.150   1.848   9.191  0.3662  1.6211  1.7151
 3672SOL     OW22474   1.844   1.927  12.816 -0.0124 -0.3525  0.4493
 3672SOL    HW122475   1.874   1.875  12.741  0.7124 -0.7334  1.0027
 3672SOL    HW222476   1.873   2.015  12.789  0.9005 -1.1573 -1.2475
 3673SOL     OW22477   0.257   1.887   6.742 -0.2531 -0.1473  0.2757
 3673SOL    HW122478   0.319   1.818   6.714  0.4796  1.0953 -1.1826
 3673SOL    HW222479   0.239   1.858   6.831 -0.0277 -2.2341 -0.3374
 3674SOL     OW22480   2.034   3.343   3.502 -0.4916 -0.0015  0.2100
 3674SOL    HW122481   1.941   3.362   3.490 -0.1808  1.5517  0.2898
 3674SOL    HW222482   2.035   3.258   3.457 -1.9613 -0.4540  1.0198
 3675SOL     OW22483   3.403   1.253  10.722  0.4906 -0.0315  0.2934
 3675SOL    HW122484   3.423   1.247  10.628 -1.1815  0.4396 -0.0986
 3675SOL    HW222485   3.384   1.161  10.738  3.1577 -0.8191 -1.0930
 3676SOL     OW22486   3.105   0.091   5.043 -0.6328 -1.0539  0.0849
 3676SOL    HW122487   3.092   4.725   5.021 -2.1133 -0.7231 -0.4647
 3676SOL    HW222488   3.038   0.096   5.112  0.7915 -0.0245  1.3974
 3677SOL     OW22489   1.609   0.557   4.706  0.1197 -0.0614 -0.7894
 3677SOL    HW122490   1.626   0.484   4.766  1.4350  1.1456  0.3222
 3677SOL    HW222491   1.562   0.623   4.757  2.6133  0.3968  0.9055
 3678SOL     OW22492   0.372   1.508   6.943  0.1890  0.3462 -0.4556
 3678SOL    HW122493   0.294   1.457   6.965 -0.4513  1.5443  0.0613
 3678SOL    HW222494   0.424   1.495   7.023 -0.4052 -1.1338 -0.3149
 3679SOL     OW22495   3.682   0.048   5.080 -0.0149  0.0494 -0.1845
 3679SOL    HW122496   3.692   0.009   4.993  1.5595 -0.0089  0.0343
 3679SOL    HW222497   3.754   0.111   5.077  0.4629 -0.5822 -1.8394
 3680SOL     OW22498   1.362   2.362   3.817 -0.0762 -0.0916 -0.9072
 3680SOL    HW122499   1.425   2.397   3.754  1.1894 -1.4683 -0.3891
 3680SOL    HW222500   1.286   2.336   3.765  0.2353 -1.0869 -0.8515
 3681SOL     OW22501   2.362   0.492   8.264  0.0244  0.5319  0.4431
 3681SOL    HW122502   2.448   0.458   8.288 -0.3832 -0.0908  1.0015
 3681SOL    HW222503   2.331   0.498   8.354 -0.7504 -1.3789  0.3044
 3682SOL     OW22504   3.751   0.355   3.163 -0.2973  0.4920  0.5116
 3682SOL    HW122505   3.782   0.406   3.088  0.6271 -2.3292 -1.0274
 3682SOL    HW222506   3.675   0.412   3.176 -0.9423 -0.6517  1.6420
 3683SOL     OW22507   1.106   1.816  11.788  0.5677 -0.2321 -0.4592
 3683SOL    HW122508   1.062   1.896  11.757  0.8199  0.4292  0.9030
 3683SOL    HW222509   1.113   1.814  11.883 -2.5206  2.1119 -0.1823
 3684SOL     OW22510   1.258   0.153   4.000  0.3433  0.6274 -0.1399
 3684SOL    HW122511   1.192   0.156   3.931 -3.9035  1.8883  3.9485
 3684SOL    HW222512   1.332   0.119   3.950  1.1305  0.6987  0.9856
 3685SOL     OW22513   2.847   1.524   9.174  0.3623 -0.1510 -0.0337
 3685SOL    HW122514   2.919   1.540   9.234 -0.3719  0.4082  0.6983
 3685SOL    HW222515   2.828   1.430   9.176  1.6162 -0.3655  1.9291
 3686SOL     OW22516   4.121   3.005   5.826  0.2626 -0.1010  0.3821
 3686SOL    HW122517   4.132   2.924   5.777  0.3829 -0.6592  1.3476
 3686SOL    HW222518   4.028   3.017   5.841  0.3530  1.3790 -0.1874
 3687SOL     OW22519   0.369   0.821   7.197 -0.0048 -0.2823 -0.3898
 3687SOL    HW122520   0.420   0.866   7.265  0.9024  1.2188 -2.0501
 3687SOL    HW222521   0.393   0.736   7.232  2.0239  0.5144  0.1650
 3688SOL     OW22522   1.736   2.123   9.028  0.3425  0.1558  0.0814
 3688SOL    HW122523   1.791   2.193   8.991  2.9612 -1.5837  0.7035
 3688SOL    HW222524   1.738   2.158   9.117 -1.2868  0.5366 -0.0357
 3689SOL     OW22525   3.939   2.353  12.922  0.1761  0.2371  0.0085
 3689SOL    HW122526   4.007   2.328  12.985  0.3319 -1.0652 -0.6698
 3689SOL    HW222527   3.863   2.299  12.946  0.7677 -0.1152  1.1166
 3690SOL     OW22528   4.244   2.220   8.219 -0.4649 -0.0190 -0.0108
 3690SOL    HW122529   4.259   2.261   8.304 -2.7958  0.4170  0.1843
 3690SOL    HW222530   4.311   2.272   8.175 -0.9204 -1.9616 -3.0252
 3691SOL     OW22531   4.619   2.043   9.951 -0.3748  0.3837 -0.6010
 3691SOL    HW122532   4.674   2.075   9.879 -1.0916  0.2507 -1.2149
 3691SOL    HW222533   4.663   1.961   9.972  2.4241  2.0232  0.0149
 3692SOL     OW22534   4.318   2.599  16.195  0.4338 -0.1057 -0.2485
 3692SOL    HW122535   4.305   2.675  16.138  0.4285  0.9152  1.1186
 3692SOL    HW222536   4.231   2.558  16.197  0.2801  0.1843 -1.0363
 3693SOL     OW22537   2.664   4.263   5.467 -0.5796 -0.1987  0.0252
 3693SOL    HW122538   2.711   4.265   5.550  1.2624 -2.9533 -0.9556
 3693SOL    HW222539   2.672   4.353   5.433 -1.9685 -0.0085  0.1928
 3694SOL     OW22540   0.817   1.252   0.386  0.1122 -0.2776  0.1374
 3694SOL    HW122541   0.742   1.203   0.354 -0.7755 -0.7613  2.9330
 3694SOL    HW222542   0.843   1.300   0.308  1.8251  0.6753  1.2914
 3695SOL     OW22543   1.732   0.745   4.556 -0.5438  0.0444 -0.0697
 3695SOL    HW122544   1.790   0.783   4.622 -1.1260  1.7652 -0.5273
 3695SOL    HW222545   1.690   0.684   4.617  0.4165 -0.9847 -0.4387
 3696SOL     OW22546   0.854   2.550   3.368  0.3783  0.2153  0.5990
 3696SOL    HW122547   0.760   2.532   3.364  0.8325 -1.8692 -0.7791
 3696SOL    HW222548   0.879   2.472   3.416 -0.5628 -0.1280  0.5396
 3697SOL     OW22549   0.046   4.335  14.710 -0.6700 -0.5701 -0.0460
 3697SOL    HW122550   0.073   4.344  14.619  1.0316 -2.4106  0.2604
 3697SOL    HW222551   0.122   4.288  14.744  0.2943  1.2755  0.3961
 3698SOL     OW22552   2.102   3.432   7.456  0.1464 -0.8950  0.2448
 3698SOL    HW122553   2.141   3.410   7.540  1.9114 -0.0301 -0.3440
 3698SOL    HW222554   2.164   3.382   7.403  2.5569  1.8795  0.4099
 3699SOL     OW22555   0.032   3.152   2.003  0.1677  0.1891  0.4552
 3699SOL    HW122556   4.676   3.201   1.999  0.8320  1.0893 -2.1774
 3699SOL    HW222557   0.061   3.144   1.912 -0.1043  1.3717  0.2699
 3700SOL     OW22558   2.912   3.998  17.499 -0.0115 -0.3822 -0.4579
 3700SOL    HW122559   2.835   3.982  17.554  0.8025  0.1924  0.8364
 3700SOL    HW222560   2.886   3.932  17.434 -3.9157  1.5086 -0.8329
 3701SOL     OW22561   2.087   3.767   2.420 -0.3822  0.5529 -0.4666
 3701SOL    HW122562   2.032   3.840   2.449  0.0836  0.3187  1.0532
 3701SOL    HW222563   2.123   3.738   2.505  1.7967 -0.0719 -1.5980
 3702SOL     OW22564   3.981   1.727  11.687 -0.3939  0.2106 -0.4197
 3702SOL    HW122565   4.024   1.777  11.617  0.9707 -1.3664 -0.6965
 3702SOL    HW222566   3.926   1.790  11.733  0.0071 -1.3975  2.2398
 3703SOL     OW22567   4.202   2.023   9.708 -0.2744  0.0732 -0.5028
 3703SOL    HW122568   4.145   2.099   9.721 -0.3127  0.0024 -0.2481
 3703SOL    HW222569   4.213   2.023   9.613  0.4880  0.5096 -0.4135
 3704SOL     OW22570   3.929   3.810   4.926 -0.4046 -0.2095 -0.4126
 3704SOL    HW122571   3.981   3.796   5.005  0.3182  0.7893 -0.7136
 3704SOL    HW222572   3.951   3.900   4.902  0.3650 -0.1820  0.4019
 3705SOL     OW22573   3.507   3.860   9.128  0.0222 -0.4559  0.1053
 3705SOL    HW122574   3.513   3.792   9.195 -0.4620 -0.4810  0.1230
 3705SOL    HW222575   3.413   3.851   9.113 -0.4070  0.5243  2.2090
 3706SOL     OW22576   1.130   0.927  13.272 -0.1595 -0.3750 -0.2666
 3706SOL    HW122577   1.125   0.902  13.364 -2.8836  0.1472 -0.2588
 3706SOL    HW222578   1.141   0.839  13.238 -1.0881 -1.2541  1.6945
 3707SOL     OW22579   0.672   3.855   2.913 -0.0493  0.5440  0.0703
 3707SOL    HW122580   0.716   3.940   2.922 -0.6026  0.6943  1.3535
 3707SOL    HW222581   0.603   3.865   2.979 -1.7199 -1.0428 -1.4217
 3708SOL     OW22582   2.002   4.173  11.147 -0.4360  0.2608  0.3852
 3708SOL    HW122583   1.919   4.219  11.154  0.7970  2.5078  0.2796
 3708SOL    HW222584   2.026   4.184  11.239 -0.8248  0.4503  0.4629
 3709SOL     OW22585   1.354   0.111   7.518 -0.1287  0.5850  0.0518
 3709SOL    HW122586   1.366   0.073   7.605  1.0578 -1.1878 -0.9021
 3709SOL    HW222587   1.444   0.118   7.486 -0.3075 -1.3673 -0.8483
 3710SOL     OW22588   1.797   4.490  14.254 -0.2985  0.2738  0.3387
 3710SOL    HW122589   1.789   4.585  14.241 -1.2175 -0.0521 -1.3602
 3710SOL    HW222590   1.882   4.488  14.298  0.4834  0.1554 -1.1762
 3711SOL     OW22591   4.054   3.846   5.669 -0.3749 -0.7638  0.6642
 3711SOL    HW122592   4.055   3.817   5.578  0.9889  0.1369  0.3847
 3711SOL    HW222593   4.005   3.929   5.667  1.5501  0.3395 -0.5591
 3712SOL     OW22594   0.588   2.709  12.833 -0.2948 -0.5370  0.0509
 3712SOL    HW122595   0.505   2.756  12.834 -0.3981 -0.8136  4.5796
 3712SOL    HW222596   0.592   2.669  12.746  0.4061  0.8977 -0.5785
 3713SOL     OW22597   3.786   0.459  17.388  0.5204 -0.1477 -0.2979
 3713SOL    HW122598   3.695   0.486  17.371  0.8295  1.7731  1.0428
 3713SOL    HW222599   3.829   0.487  17.308  0.3366  0.6098 -0.1365
 3714SOL     OW22600   0.224   0.566   2.970  0.1213 -0.2140  0.4176
 3714SOL    HW122601   0.229   0.478   2.933  0.5472  0.1348 -0.3332
 3714SOL    HW222602   0.276   0.565   3.051  1.4279 -0.5123 -0.4406
 3715SOL     OW22603   3.143   1.191   0.058 -0.1967 -0.1273 -0.4717
 3715SOL    HW122604   3.168   1.141   0.136 -0.5382  1.4130  0.6191
 3715SOL    HW222605   3.224   1.235   0.032  0.5926 -0.4021  1.5205
 3716SOL     OW22606   0.783   3.439   0.065 -0.2260 -0.4913  0.4788
 3716SOL    HW122607   0.858   3.395   0.106  0.6311 -0.0335 -0.5978
 3716SOL    HW222608   0.707   3.400   0.107 -0.2999 -0.6280  0.2219
 3717SOL     OW22609   2.976   3.327  16.624  0.3308  0.2417 -0.1496
 3717SOL    HW122610   3.000   3.391  16.692  0.0066 -0.2188  0.3921
 3717SOL    HW222611   2.888   3.360  16.606  0.3160  0.9005  1.1348
 3718SOL     OW22612   3.106   1.445   7.274 -0.2332  0.4903  0.3600
 3718SOL    HW122613   3.010   1.442   7.276 -0.2783  0.9356 -1.2176
 3718SOL    HW222614   3.128   1.392   7.351  1.0489  2.5498  1.4135
 3719SOL     OW22615   4.056   1.219   0.984  0.2172  0.4735 -0.0508
 3719SOL    HW122616   4.022   1.288   0.927  0.8260  1.6194  0.9774
 3719SOL    HW222617   4.129   1.257   1.033 -0.7837  1.0097  1.0140
 3720SOL     OW22618   2.643   3.279  14.969 -0.1603  0.3473  0.0786
 3720SOL    HW122619   2.558   3.321  14.952 -0.1898 -0.3474 -1.4954
 3720SOL    HW222620   2.690   3.291  14.887 -1.1526 -0.9137 -0.6784
 3721SOL     OW22621   1.902   1.993   1.773 -0.2214  0.1113  0.5208
 3721SOL    HW122622   1.948   2.011   1.855  1.3938 -0.6368 -0.2172
 3721SOL    HW222623   1.929   2.067   1.719 -0.0980 -0.1048  0.2831
 3722SOL     OW22624   1.532   1.655   3.947  0.8102 -0.1057  0.4339
 3722SOL    HW122625   1.479   1.620   3.876  0.4345  1.6251 -0.1412
 3722SOL    HW222626   1.570   1.576   3.985  0.5129 -0.7553 -0.6072
 3723SOL     OW22627   1.604   2.599   4.641  0.0884 -0.2778 -0.2172
 3723SOL    HW122628   1.628   2.680   4.686 -0.0004 -0.6458  0.4986
 3723SOL    HW222629   1.628   2.537   4.710 -0.5567 -0.8322 -0.4855
 3724SOL     OW22630   0.021   1.946   7.213  0.3564  0.0131  0.3285
 3724SOL    HW122631   0.107   1.968   7.249 -0.0241 -0.2100  1.3482
 3724SOL    HW222632   0.046   1.927   7.122 -1.9021  2.7430 -0.8646
 3725SOL     OW22633   0.451   2.599   0.130 -0.8755  0.6656  0.1925
 3725SOL    HW122634   0.408   2.620   0.213 -1.5397  0.7193 -0.1617
 3725SOL    HW222635   0.408   2.516   0.108  1.2363 -0.0363 -1.3096
 3726SOL     OW22636   2.305   1.535   8.506 -0.0334  0.3445  0.1450
 3726SOL    HW122637   2.248   1.492   8.442 -0.8049 -0.4689  1.3743
 3726SOL    HW222638   2.258   1.526   8.589 -2.0281  2.4390 -0.7959
 3727SOL     OW22639   4.217   0.169  12.154 -0.3766  0.2212 -0.0918
 3727SOL    HW122640   4.192   0.103  12.219 -0.8832 -0.0389 -0.5441
 3727SOL    HW222641   4.162   0.241  12.183  0.6104  0.1231  2.0272
 3728SOL     OW22642   3.991   2.232   3.681 -0.2246  0.2006  0.7065
 3728SOL    HW122643   3.996   2.302   3.615 -0.5187 -2.3812 -2.0325
 3728SOL    HW222644   4.030   2.282   3.752  3.7354 -0.0543 -1.2981
 3729SOL     OW22645   2.316   0.164   9.286  0.1932  0.5364  0.0760
 3729SOL    HW122646   2.333   0.102   9.357  2.5773  1.2230  0.1059
 3729SOL    HW222647   2.322   0.105   9.211  1.4414 -0.0134  0.6234
 3730SOL     OW22648   1.492   2.031   8.877  0.6064  0.0633 -0.0169
 3730SOL    HW122649   1.560   2.063   8.936  0.4964  0.2783 -0.0081
 3730SOL    HW222650   1.533   2.027   8.791 -3.1169 -0.4067 -1.7769
 3731SOL     OW22651   4.638   3.155   0.438  0.7623  0.5021  0.4691
 3731SOL    HW122652   4.557   3.198   0.462  1.0735  1.6364 -0.5100
 3731SOL    HW222653   4.673   3.135   0.525 -0.6773 -1.5380  0.5906
 3732SOL     OW22654   3.096   2.072   7.696  0.5241  0.1650  0.3251
 3732SOL    HW122655   3.139   2.050   7.614 -0.8026  0.6814 -0.5089
 3732SOL    HW222656   3.159   2.073   7.768  3.6968 -0.3467 -2.4358
 3733SOL     OW22657   4.148   4.072   9.417  0.1676  0.3883 -0.8065
 3733SOL    HW122658   4.190   4.031   9.342 -0.5614 -0.4047 -0.7851
 3733SOL    HW222659   4.228   4.109   9.453 -0.2733 -0.6380  1.2313
 3734SOL     OW22660   4.510   3.395   6.150 -1.0785  0.9407  0.6848
 3734SOL    HW122661   4.501   3.490   6.141 -1.1585  0.9330  0.6890
 3734SOL    HW222662   4.526   3.374   6.058 -1.2446 -0.4015  0.9635
 3735SOL     OW22663   2.025   3.118   3.337 -0.0381  0.7232  0.0102
 3735SOL    HW122664   1.986   3.055   3.277  0.2745  0.4916  0.0444
 3735SOL    HW222665   2.112   3.079   3.342  0.5066  1.7523 -1.5147
 3736SOL     OW22666   3.236   2.223   5.221 -0.7287  0.1060  0.1062
 3736SOL    HW122667   3.247   2.230   5.315 -2.6175 -0.0202  0.3430
 3736SOL    HW222668   3.315   2.271   5.198 -1.2560  1.2593  0.7562
 3737SOL     OW22669   3.271   4.496   2.438  0.3750 -0.0073 -0.7596
 3737SOL    HW122670   3.253   4.535   2.523 -3.5255 -1.3872 -0.9249
 3737SOL    HW222671   3.278   4.574   2.383  2.6957  0.7986  0.6944
 3738SOL     OW22672   0.977   2.136  10.716 -0.0949  0.3506 -0.0838
 3738SOL    HW122673   0.974   2.122  10.811  1.4979  1.0866  0.0716
 3738SOL    HW222674   0.887   2.168  10.711 -0.8814 -1.6395  1.2671
 3739SOL     OW22675   1.585   1.471   4.689 -0.1273  0.1263 -0.5265
 3739SOL    HW122676   1.577   1.416   4.767 -3.0887 -0.1501 -1.0367
 3739SOL    HW222677   1.512   1.532   4.699  0.7949  1.7022 -3.2557
 3740SOL     OW22678   1.672   1.150   3.134 -0.1407  0.1076  0.4229
 3740SOL    HW122679   1.715   1.094   3.070  2.3840  0.4579  1.8329
 3740SOL    HW222680   1.591   1.103   3.156  0.6467 -0.9017  1.1219
 3741SOL     OW22681   4.200   0.007   6.503 -0.3003  0.2569  0.2367
 3741SOL    HW122682   4.185   0.056   6.421  3.0649  1.9842  0.6300
 3741SOL    HW222683   4.156   0.056   6.572  2.0924  1.4993  0.8883
 3742SOL     OW22684   0.028   2.865   5.961 -0.0297  0.0125 -0.0781
 3742SOL    HW122685   4.693   2.939   5.958  0.6357  0.5718  0.5307
 3742SOL    HW222686   0.101   2.909   6.003 -0.6488 -1.7546  2.8216
 3743SOL     OW22687   0.346   1.598   5.187  0.0252 -0.2516 -0.3522
 3743SOL    HW122688   0.409   1.628   5.253 -0.6519 -0.7863  0.5321
 3743SOL    HW222689   0.378   1.509   5.169 -0.3419  0.0844 -2.6242
 3744SOL     OW22690   0.738   3.333   1.668  0.3974  0.7744 -0.3334
 3744SOL    HW122691   0.725   3.398   1.737  2.0412  0.4482  0.2830
 3744SOL    HW222692   0.647   3.318   1.640  0.9063  0.3011 -1.7441
 3745SOL     OW22693   2.123   3.422  15.367  0.4905  0.3354 -0.4745
 3745SOL    HW122694   2.157   3.508  15.342  2.4195 -0.3864 -0.3197
 3745SOL    HW222695   2.195   3.364  15.342 -1.1570 -2.2088  0.6623
 3746SOL     OW22696   1.925   4.471  13.674  0.2545  0.2447 -0.5441
 3746SOL    HW122697   2.011   4.513  13.681  0.2890  0.1804 -0.5813
 3746SOL    HW222698   1.953   4.382  13.653  1.3559  0.4717 -0.0265
 3747SOL     OW22699   1.544   0.837  12.359  0.3932 -0.1067  0.1611
 3747SOL    HW122700   1.600   0.763  12.380 -2.2118 -1.5760  1.9278
 3747SOL    HW222701   1.574   0.878  12.278 -0.5775  1.4882  0.5975
 3748SOL     OW22702   3.132   2.682   2.456 -0.1711 -0.1280 -0.8990
 3748SOL    HW122703   3.082   2.617   2.505 -0.3990  1.0663  0.4722
 3748SOL    HW222704   3.223   2.659   2.475 -0.1713  0.7184  0.1908
 3749SOL     OW22705   1.508   2.797   7.082 -0.6677 -0.0879  0.0360
 3749SOL    HW122706   1.467   2.845   7.010 -1.4962 -0.1712  0.4583
 3749SOL    HW222707   1.503   2.713   7.036  2.8694  0.1982 -0.8767
 3750SOL     OW22708   3.537   0.615  17.608  0.1207 -0.5363 -0.2659
 3750SOL    HW122709   3.556   0.548  17.673  0.8895 -0.1797 -0.1257
 3750SOL    HW222710   3.441   0.604  17.607  0.0615 -0.0514  0.2518
 3751SOL     OW22711   4.719   3.098   8.413 -0.3268 -0.1268 -0.0948
 3751SOL    HW122712   0.066   3.097   8.475  1.8465 -3.6831 -2.6465
 3751SOL    HW222713   0.019   3.046   8.336  1.8156  3.4551 -1.7888
 3752SOL     OW22714   0.825   3.817  12.304 -0.7081 -0.6401 -0.0312
 3752SOL    HW122715   0.730   3.815  12.320 -0.5959  1.8112  1.0778
 3752SOL    HW222716   0.860   3.755  12.368 -0.5201 -1.0913 -0.5731
 3753SOL     OW22717   3.873   4.349   1.687  0.2970 -0.1751  0.2710
 3753SOL    HW122718   3.846   4.266   1.647 -1.4346  1.0886 -1.1601
 3753SOL    HW222719   3.840   4.411   1.623  1.7597  0.7725  0.4307
 3754SOL     OW22720   2.048   4.336   3.339  0.3250  0.5349 -0.6771
 3754SOL    HW122721   2.101   4.404   3.297  0.1625  1.7250  1.0515
 3754SOL    HW222722   2.064   4.354   3.432  5.5006 -1.3469 -1.2178
 3755SOL     OW22723   2.728   1.197  12.900 -0.4177 -0.0784 -0.3843
 3755SOL    HW122724   2.655   1.249  12.931 -0.1106  1.0620 -1.5789
 3755SOL    HW222725   2.768   1.177  12.985  0.3137  0.2411 -0.6496
 3756SOL     OW22726   1.540   3.225  11.260  0.7014 -0.1191 -0.1308
 3756SOL    HW122727   1.544   3.146  11.314 -1.0522 -0.4147 -0.4174
 3756SOL    HW222728   1.542   3.285  11.334  1.8389  1.6336 -1.5999
 3757SOL     OW22729   4.138   0.961   0.098  0.2098  0.3816  0.1171
 3757SOL    HW122730   4.079   0.905   0.148  0.7284  0.8434  1.2586
 3757SOL    HW222731   4.108   0.950   0.008 -1.8218  1.7333  0.6363
 3758SOL     OW22732   0.973   1.304   8.488  0.0710 -0.2437 -0.0513
 3758SOL    HW122733   1.047   1.266   8.441 -1.4029 -1.6021 -1.2558
 3758SOL    HW222734   0.983   1.396   8.464 -1.2410 -0.5977 -1.8446
 3759SOL     OW22735   0.885   1.728   7.758 -0.3333  0.6354  0.3970
 3759SOL    HW122736   0.914   1.748   7.848  2.2432 -3.3034  0.4653
 3759SOL    HW222737   0.839   1.646   7.777  1.3795 -0.1883  1.0624
 3760SOL     OW22738   1.382   3.637   5.566 -0.2300 -0.2358  0.3913
 3760SOL    HW122739   1.303   3.584   5.554 -0.0190  0.1524 -2.5898
 3760SOL    HW222740   1.444   3.575   5.603  0.7827 -1.8208 -3.9750
 3761SOL     OW22741   0.507   3.871   4.737 -0.2549  0.3039 -0.6879
 3761SOL    HW122742   0.438   3.817   4.699 -1.3026  1.1567  0.0383
 3761SOL    HW222743   0.564   3.798   4.763  2.9694  3.0158 -0.1017
 3762SOL     OW22744   1.914   4.633   3.213 -0.0736 -0.0966  0.2304
 3762SOL    HW122745   2.000   4.622   3.173  0.2815  1.9961  0.4055
 3762SOL    HW222746   1.904   4.548   3.255  1.0999  0.4455  1.6117
 3763SOL     OW22747   0.121   2.369   1.718  0.0930 -0.0191 -0.1751
 3763SOL    HW122748   0.052   2.435   1.721 -0.1008 -0.2354  0.0785
 3763SOL    HW222749   0.108   2.336   1.629  1.5527 -1.4130  0.1240
 3764SOL     OW22750   0.742   1.698   6.930 -0.6304  0.3106 -0.2164
 3764SOL    HW122751   0.788   1.658   7.004  0.8657  2.3925 -0.0471
 3764SOL    HW222752   0.732   1.624   6.869 -2.8473  1.3658 -1.1230
 3765SOL     OW22753   0.144   0.011   6.031 -0.7209  0.1664 -0.1409
 3765SOL    HW122754   0.204   0.029   5.958 -0.7633  0.1496 -0.1796
 3765SOL    HW222755   0.159   0.080   6.096 -0.6496 -1.7077  1.8052
 3766SOL     OW22756   3.849   2.139   4.261  0.5560  0.3012 -0.1097
 3766SOL    HW122757   3.845   2.235   4.263  3.6093  0.4537 -0.1591
 3766SOL    HW222758   3.898   2.119   4.341  0.6886  1.8833  0.2016
 3767SOL     OW22759   0.990   1.570   6.626 -0.0235 -0.1057 -0.4526
 3767SOL    HW122760   0.940   1.511   6.569 -2.0387  0.0489  1.1912
 3767SOL    HW222761   1.059   1.598   6.566  0.1773  2.0555  0.7982
 3768SOL     OW22762   2.782   3.997   0.440 -0.2167 -0.1600 -0.0097
 3768SOL    HW122763   2.801   3.944   0.363 -1.9324  3.1299 -2.7375
 3768SOL    HW222764   2.868   4.003   0.483 -0.5387  1.3763  0.4374
 3769SOL     OW22765   0.987   3.865   2.099 -0.2473  0.2024  0.2569
 3769SOL    HW122766   1.029   3.855   2.184 -1.5577 -0.5667  0.8115
 3769SOL    HW222767   1.062   3.882   2.041 -1.4862 -1.0954 -1.7377
 3770SOL     OW22768   0.985   4.163   7.656 -0.6397 -0.2312  0.1681
 3770SOL    HW122769   0.974   4.234   7.720 -0.3213  1.0340 -1.1662
 3770SOL    HW222770   0.899   4.129   7.676 -0.5116  0.5975  2.2090
 3771SOL     OW22771   3.947   4.087   5.647 -0.1326  0.1881  0.0938
 3771SOL    HW122772   3.880   4.127   5.592  0.2784 -0.6831 -1.0555
 3771SOL    HW222773   4.019   4.145   5.622  0.4410  0.0754  1.4602
 3772SOL     OW22774   4.194   0.098   7.185 -0.2706  0.2972 -0.0928
 3772SOL    HW122775   4.254   0.140   7.246 -1.3205  0.1768  1.0089
 3772SOL    HW222776   4.200   0.005   7.206  0.2757  0.4468  0.3947
 3773SOL     OW22777   4.543   4.667   2.092 -0.0889  0.4036 -0.3505
 3773SOL    HW122778   4.525   0.030   2.059 -1.7010  0.5324  0.8788
 3773SOL    HW222779   4.489   4.651   2.169 -0.4137  0.7180 -0.5111
 3774SOL     OW22780   1.444   1.326  13.739 -0.1137  0.4975 -0.2068
 3774SOL    HW122781   1.403   1.294  13.659 -1.1827  1.2478  0.0283
 3774SOL    HW222782   1.504   1.253  13.755  1.1621  1.3050 -1.3897
 3775SOL     OW22783   3.275   2.552   5.111 -0.3699 -0.0012 -0.8712
 3775SOL    HW122784   3.314   2.632   5.147  0.8613 -1.5621  1.2462
 3775SOL    HW222785   3.204   2.537   5.173 -0.7267  0.4345 -1.1693
 3776SOL     OW22786   1.654   0.574   8.030  0.2332 -0.7039 -0.0334
 3776SOL    HW122787   1.647   0.574   8.125  1.4357 -0.0538  0.0570
 3776SOL    HW222788   1.576   0.621   8.001  0.8329  0.0289 -0.4690
 3777SOL     OW22789   2.010   0.671   3.416  0.1515  0.2979 -0.0821
 3777SOL    HW122790   1.958   0.751   3.423 -1.0686 -0.3664 -1.5683
 3777SOL    HW222791   2.098   0.709   3.409 -1.0707  2.7947 -1.7301
 3778SOL     OW22792   3.556   0.875   2.347  0.1775 -0.3987  0.1359
 3778SOL    HW122793   3.592   0.912   2.428  1.5865 -1.0822 -0.1744
 3778SOL    HW222794   3.563   0.953   2.293  2.5568  0.1840  1.2480
 3779SOL     OW22795   0.891   2.806  13.311 -0.4263  0.3643  0.7024
 3779SOL    HW122796   0.927   2.718  13.304 -1.8453 -0.2909  1.7489
 3779SOL    HW222797   0.969   2.858  13.290 -0.4267 -0.2632 -0.8475
 3780SOL     OW22798   0.979   3.680  11.491 -0.2666  0.2049  0.2845
 3780SOL    HW122799   0.896   3.687  11.539  0.1499 -4.8120  1.7029
 3780SOL    HW222800   0.974   3.585  11.481  3.5354 -0.2372  2.4069
 3781SOL     OW22801   0.157   4.110   1.280  0.1528  0.3592 -0.5013
 3781SOL    HW122802   0.216   4.183   1.259  1.9912 -0.9033  0.2471
 3781SOL    HW222803   0.115   4.090   1.196 -2.2105 -0.2305  0.8385
 3782SOL     OW22804   0.300   1.920  14.743 -0.0189 -0.3519  0.5776
 3782SOL    HW122805   0.248   1.958  14.673  0.2592  0.7865  0.9889
 3782SOL    HW222806   0.237   1.849  14.757 -0.6456 -0.0496 -0.7289
 3783SOL     OW22807   1.872   1.168   8.514 -0.2313  0.1926  0.2648
 3783SOL    HW122808   1.782   1.146   8.538 -0.3512  0.4708  0.0645
 3783SOL    HW222809   1.862   1.190   8.421  1.4143 -0.7241 -0.1399
 3784SOL     OW22810   0.229   3.025   6.115  1.1618  0.3476 -0.7954
 3784SOL    HW122811   0.193   3.097   6.167 -1.2732 -0.6014 -1.1475
 3784SOL    HW222812   0.320   3.053   6.109  0.4372  2.2952 -2.9452
 3785SOL     OW22813   3.161   3.051   8.368  0.2557 -0.4358 -0.3197
 3785SOL    HW122814   3.085   3.105   8.390 -0.2535 -1.9111  1.5513
 3785SOL    HW222815   3.121   2.964   8.370 -1.6713  0.4029 -2.9464
 3786SOL     OW22816   2.398   3.771   2.268  0.7144  0.3913 -0.3731
 3786SOL    HW122817   2.466   3.718   2.226  1.9769  0.8760  1.0385
 3786SOL    HW222818   2.317   3.723   2.252  1.9279 -1.4852 -0.9512
 3787SOL     OW22819   4.219   3.886  10.728 -0.6359  0.2221  0.1700
 3787SOL    HW122820   4.201   3.977  10.754  0.2434  0.6328 -0.6242
 3787SOL    HW222821   4.198   3.842  10.810  0.2839 -1.1587 -0.3400
 3788SOL     OW22822   1.458   2.558   8.866 -0.3178 -0.4010 -1.0495
 3788SOL    HW122823   1.422   2.469   8.865 -1.4132  0.0392 -1.1083
 3788SOL    HW222824   1.526   2.540   8.801 -0.0072 -0.1099 -0.8074
 3789SOL     OW22825   3.805   3.146   8.607 -0.0288 -0.4457 -0.3046
 3789SOL    HW122826   3.714   3.120   8.593 -0.1748 -1.3736  2.2654
 3789SOL    HW222827   3.816   3.139   8.702 -1.2669 -2.6292 -0.3207
 3790SOL     OW22828   3.904   4.065   0.223  0.0489  0.0096 -0.3425
 3790SOL    HW122829   3.951   4.135   0.267 -0.7769  1.6371 -2.0249
 3790SOL    HW222830   3.848   4.040   0.297  0.8545  0.5819  0.4547
 3791SOL     OW22831   2.558   1.870   7.436 -0.4273 -0.1053  0.1866
 3791SOL    HW122832   2.547   1.791   7.384 -1.5686  1.6232 -2.2086
 3791SOL    HW222833   2.467   1.894   7.452 -0.3045  0.0413  0.6869
 3792SOL     OW22834   0.368   0.505   7.435 -0.4456 -0.4389 -0.3127
 3792SOL    HW122835   0.288   0.508   7.488 -0.9895  0.3867 -1.1848
 3792SOL    HW222836   0.344   0.420   7.399 -0.2441 -1.1168  1.1550
 3793SOL     OW22837   1.624   0.214   3.645  0.0117 -0.0475  0.4823
 3793SOL    HW122838   1.670   0.201   3.728 -0.9558 -0.4043  0.9589
 3793SOL    HW222839   1.625   0.307   3.622  0.2484 -0.9067 -2.9382
 3794SOL     OW22840   4.283   1.191   9.472  0.1405  0.5689  0.1362
 3794SOL    HW122841   4.279   1.099   9.497  1.2384  0.4868 -0.0003
 3794SOL    HW222842   4.228   1.229   9.540 -1.1031  0.8127 -1.0078
 3795SOL     OW22843   3.227   1.460   5.628  0.0428  0.1614  0.1203
 3795SOL    HW122844   3.222   1.377   5.580 -1.1432 -0.1866  0.8464
 3795SOL    HW222845   3.160   1.510   5.583  0.5673  1.4100  0.7343
 3796SOL     OW22846   1.619   2.101   3.717  0.6685 -0.1059  0.3051
 3796SOL    HW122847   1.657   2.186   3.694  0.2797 -0.2219 -0.7586
 3796SOL    HW222848   1.609   2.109   3.812 -2.4925  0.4716 -0.0682
 3797SOL     OW22849   2.440   1.354   6.589 -0.1008  0.0972  0.6146
 3797SOL    HW122850   2.367   1.407   6.557  0.6609  0.8377  0.1215
 3797SOL    HW222851   2.494   1.351   6.510  0.1680  0.4081  0.7829
 3798SOL     OW22852   2.795   4.105   5.950 -0.0352 -0.1423  0.6456
 3798SOL    HW122853   2.769   4.195   5.966 -2.1485 -0.7789  0.7959
 3798SOL    HW222854   2.884   4.124   5.919  0.7522 -2.3006  1.5186
 3799SOL     OW22855   1.897   0.777  10.368 -0.4326 -0.0220 -0.1591
 3799SOL    HW122856   1.828   0.718  10.338 -0.9274  1.6553 -2.3050
 3799SOL    HW222857   1.848   0.818  10.439  0.0864 -0.2926  0.3609
 3800SOL     OW22858   2.982   2.522   2.683 -0.4020 -0.3486 -0.2993
 3800SOL    HW122859   2.908   2.519   2.623 -2.1161 -1.6883  1.8790
 3800SOL    HW222860   2.958   2.581   2.755 -0.9859 -1.7087  0.6393
 3801SOL     OW22861   0.143   3.335   1.803 -0.2326 -0.2388 -0.3175
 3801SOL    HW122862   0.140   3.430   1.810  0.1665 -0.3125  0.8902
 3801SOL    HW222863   0.166   3.320   1.711 -0.2635  0.3505 -0.4181
 3802SOL     OW22864   4.676   1.542   2.878  0.3782  0.2016 -0.0784
 3802SOL    HW122865   4.722   1.536   2.795  0.4430 -0.1087 -0.0216
 3802SOL    HW222866   4.716   1.469   2.927  0.9102 -0.6578 -1.7987
 3803SOL     OW22867   1.918   2.388   4.584 -0.3471 -0.2486  0.0484
 3803SOL    HW122868   1.984   2.319   4.590  0.1188  0.1675 -0.3083
 3803SOL    HW222869   1.841   2.345   4.547  0.1838  2.6880 -4.4471
 3804SOL     OW22870   2.829   2.104  16.862 -0.1242 -0.0855 -0.7631
 3804SOL    HW122871   2.744   2.108  16.904  0.0847  1.3370 -0.4583
 3804SOL    HW222872   2.845   2.197  16.846  1.5774 -0.1307  0.7491
 3805SOL     OW22873   1.837   1.371   7.471 -0.1500 -0.2854  0.1048
 3805SOL    HW122874   1.828   1.278   7.453 -0.5770 -0.0192 -1.0717
 3805SOL    HW222875   1.748   1.390   7.500  0.7393  1.6895  1.6205
 3806SOL     OW22876   2.225   2.394  17.533  0.2547 -0.1129  0.0654
 3806SOL    HW122877   2.302   2.448  17.552  0.4262 -1.5778  3.5040
 3806SOL    HW222878   2.254   2.351  17.452  0.4205 -0.1905  0.1656
 3807SOL     OW22879   2.220   3.048   3.075 -0.1808  0.4130  0.2195
 3807SOL    HW122880   2.236   3.142   3.087 -0.4178  0.5484 -0.5148
 3807SOL    HW222881   2.135   3.043   3.030  1.0765 -1.3861 -1.9710
 3808SOL     OW22882   2.697   0.846  10.072 -0.1472 -0.8264 -0.0257
 3808SOL    HW122883   2.640   0.813  10.002  0.2736  0.0412 -0.7704
 3808SOL    HW222884   2.668   0.783  10.138 -2.5508 -0.3223 -0.6131
 3809SOL     OW22885   0.975   2.984   7.706  0.2126  0.0130  0.0501
 3809SOL    HW122886   0.906   3.037   7.745  1.8870  1.2735  1.3132
 3809SOL    HW222887   1.048   3.045   7.720 -0.0711  0.8957 -2.3832
 3810SOL     OW22888   2.405   0.324  14.254  0.2273  0.1725  0.2028
 3810SOL    HW122889   2.347   0.281  14.318 -1.1201  0.7027 -0.6661
 3810SOL    HW222890   2.342   0.353  14.189  1.7160  0.1160 -1.2636
 3811SOL     OW22891   4.010   1.919   8.710  0.5348  0.1579  0.3175
 3811SOL    HW122892   4.025   1.835   8.754 -1.1768 -0.0496  0.5034
 3811SOL    HW222893   4.021   1.974   8.787 -0.8605 -0.7291  1.1487
 3812SOL     OW22894   1.059   2.316   9.937  0.2904  0.1524 -0.2466
 3812SOL    HW122895   1.048   2.235   9.986  1.5314  0.3204  0.3132
 3812SOL    HW222896   1.043   2.293   9.846 -1.6174  0.7022 -0.0592
 3813SOL     OW22897   1.200   1.814   4.347  0.1793 -0.1946  0.1387
 3813SOL    HW122898   1.293   1.800   4.326 -0.2698 -0.3927 -1.6751
 3813SOL    HW222899   1.162   1.786   4.264 -0.0187  1.4717 -0.3231
 3814SOL     OW22900   1.249   0.923   0.908  0.3448  0.9141 -0.1667
 3814SOL    HW122901   1.235   0.830   0.924 -1.3853  1.2522  0.2892
 3814SOL    HW222902   1.326   0.932   0.964  2.1782 -0.6336 -2.4726
 3815SOL     OW22903   2.122   4.437   1.943  0.8235  0.2293 -0.3792
 3815SOL    HW122904   2.137   4.443   1.849 -0.3828 -0.1603 -0.6058
 3815SOL    HW222905   2.148   4.345   1.955 -1.4008 -0.0135  2.5274
 3816SOL     OW22906   4.365   0.218   8.960 -0.0471 -0.5850 -0.2482
 3816SOL    HW122907   4.322   0.293   9.000  2.3162  1.0191 -0.7058
 3816SOL    HW222908   4.300   0.153   8.986 -1.9343  2.4478  2.6284
 3817SOL     OW22909   0.915   0.966   6.787 -0.5354  0.5888 -0.3058
 3817SOL    HW122910   0.881   0.928   6.868 -1.5160  1.9102 -0.1019
 3817SOL    HW222911   0.937   1.054   6.817  1.6053 -0.4951  1.3169
 3818SOL     OW22912   2.248   4.162  11.733 -0.3390 -0.4164  0.0613
 3818SOL    HW122913   2.270   4.179  11.825  0.2045 -2.4344  0.3108
 3818SOL    HW222914   2.325   4.108  11.717  1.5353  0.3084  6.4205
 3819SOL     OW22915   2.652   2.186   6.990 -0.3490 -0.2043  0.6170
 3819SOL    HW122916   2.585   2.252   7.010  0.1594  0.1842  1.0444
 3819SOL    HW222917   2.640   2.128   7.065  0.9901 -0.3499  0.7172
 3820SOL     OW22918   3.092   3.249   8.688  0.8872  0.6302 -0.5928
 3820SOL    HW122919   3.118   3.227   8.777  1.9751  1.4193 -0.7126
 3820SOL    HW222920   3.175   3.248   8.640  0.3417  2.4706 -1.5723
 3821SOL     OW22921   3.762   0.945  13.794  0.0164 -0.3676  0.0824
 3821SOL    HW122922   3.731   1.032  13.769  0.6434 -0.1903 -0.1048
 3821SOL    HW222923   3.684   0.895  13.773 -0.8984 -0.2169  3.1290
 3822SOL     OW22924   3.404   0.853   0.122  0.2110  0.1309 -0.1150
 3822SOL    HW122925   3.426   0.893   0.206 -0.7739 -0.4747  0.4271
 3822SOL    HW222926   3.473   0.884   0.063 -0.3336 -1.2140 -1.4404
 3823SOL     OW22927   2.302   0.726   2.214 -0.7550  0.4183  0.3397
 3823SOL    HW122928   2.306   0.701   2.122 -0.3006  2.8941 -0.3396
 3823SOL    HW222929   2.365   0.798   2.217 -2.1789  1.6516  0.7866
 3824SOL     OW22930   1.476   4.475   7.910  0.0014 -0.2072 -0.0578
 3824SOL    HW122931   1.567   4.487   7.883  0.5125 -0.8434  1.3458
 3824SOL    HW222932   1.430   4.453   7.829  1.5857  1.3561 -1.3997
 3825SOL     OW22933   1.477   4.022  13.510 -0.0967 -0.8004  0.5080
 3825SOL    HW122934   1.388   4.051  13.531  0.3362 -0.2969  1.6696
 3825SOL    HW222935   1.520   4.101  13.477 -0.3074 -0.0520  2.0118
 3826SOL     OW22936   1.601   1.675  17.188 -0.1571  1.1594 -0.2345
 3826SOL    HW122937   1.537   1.736  17.152 -0.5555 -0.9267 -3.0435
 3826SOL    HW222938   1.557   1.594  17.163  0.7483 -0.2358  2.6910
 3827SOL     OW22939   1.379   0.917  14.290 -0.1193  0.0616 -0.1133
 3827SOL    HW122940   1.435   0.851  14.249 -0.8281 -0.2955 -0.5126
 3827SOL    HW222941   1.440   0.986  14.316 -0.1981  0.5855 -1.3213
 3828SOL     OW22942   0.947   0.467  13.170 -0.4311 -0.1663  0.0724
 3828SOL    HW122943   1.020   0.417  13.207  0.7312  1.9307  0.6690
 3828SOL    HW222944   0.981   0.504  13.088 -0.8042 -1.3468 -0.6111
 3829SOL     OW22945   2.705   3.062  16.835 -0.0644 -0.0930 -0.0577
 3829SOL    HW122946   2.664   3.065  16.749 -1.7032 -1.7700  0.6754
 3829SOL    HW222947   2.636   3.023  16.889 -1.4427  1.4735 -0.7130
 3830SOL     OW22948   2.963   1.587  10.587 -0.0215 -0.0573 -0.0461
 3830SOL    HW122949   2.880   1.551  10.620  0.2629  0.3310  1.0757
 3830SOL    HW222950   2.939   1.678  10.571  0.9703 -0.1175 -1.8381
 3831SOL     OW22951   0.856   3.788   8.955 -0.0351 -0.1193  0.2348
 3831SOL    HW122952   0.863   3.883   8.956 -1.2999 -0.0207 -0.7703
 3831SOL    HW222953   0.762   3.774   8.946 -0.3971  1.7674  1.0715
 3832SOL     OW22954   0.392   3.514   7.858  0.4672  0.0994  0.0937
 3832SOL    HW122955   0.297   3.521   7.866  0.4039 -0.5001 -0.0892
 3832SOL    HW222956   0.410   3.483   7.947  0.0066  0.7985  0.4280
 3833SOL     OW22957   1.163   2.322   5.751  0.1126 -0.1045  0.0021
 3833SOL    HW122958   1.111   2.315   5.831  0.0100 -0.7118 -0.1135
 3833SOL    HW222959   1.234   2.258   5.763  1.6584  1.8943  1.4115
 3834SOL     OW22960   3.817   0.155   6.921  0.9355 -0.7716  0.0072
 3834SOL    HW122961   3.811   0.200   7.006 -1.1794  0.0349 -0.5578
 3834SOL    HW222962   3.738   0.101   6.922 -0.0870  0.6955 -1.0236
 3835SOL     OW22963   2.225   0.815  16.326 -0.1627  0.6214  0.4145
 3835SOL    HW122964   2.296   0.873  16.355  0.3499  1.1073 -1.8492
 3835SOL    HW222965   2.171   0.865  16.265 -1.2884 -1.0114  0.0804
 3836SOL     OW22966   2.749   0.926  13.183  0.2573 -0.3185  0.2844
 3836SOL    HW122967   2.699   0.917  13.101 -0.8117  1.5301  0.7295
 3836SOL    HW222968   2.765   1.021  13.176 -1.2587 -0.1451 -0.7493
 3837SOL     OW22969   0.787   1.569   8.008  0.3799 -0.1361  0.2439
 3837SOL    HW122970   0.819   1.648   8.052 -0.1105  0.0450  0.2729
 3837SOL    HW222971   0.777   1.514   8.085 -1.4203 -1.0233 -0.6252
 3838SOL     OW22972   0.596   1.812   1.848 -0.4102 -0.0438  0.0137
 3838SOL    HW122973   0.585   1.807   1.753 -0.6292 -0.4229  0.0611
 3838SOL    HW222974   0.565   1.902   1.864 -0.7751  0.0056 -0.9741
 3839SOL     OW22975   2.037   3.460   6.416 -0.1527 -0.1513  0.0821
 3839SOL    HW122976   2.115   3.420   6.376 -1.4195 -1.0600 -1.4662
 3839SOL    HW222977   2.076   3.522   6.477  1.3667 -1.4722  0.4739
 3840SOL     OW22978   2.178   1.531   7.574  0.0020  0.1740 -0.2346
 3840SOL    HW122979   2.098   1.535   7.523  0.6137  1.8875 -1.0589
 3840SOL    HW222980   2.205   1.622   7.562  1.6397 -0.3518 -0.6231
 3841SOL     OW22981   1.857   1.646   5.132  0.1535 -0.5579  0.3360
 3841SOL    HW122982   1.769   1.611   5.125  0.2546 -0.4282 -1.5397
 3841SOL    HW222983   1.860   1.670   5.224 -1.3467  1.9770 -0.2926
 3842SOL     OW22984   2.812   3.965  16.715  0.5724 -0.3643  0.1230
 3842SOL    HW122985   2.884   3.978  16.653  0.3314  1.1070  0.1690
 3842SOL    HW222986   2.871   3.963  16.791  0.9993  0.4804 -0.1874
 3843SOL     OW22987   3.499   3.303   3.969  0.3241 -0.9072  0.2311
 3843SOL    HW122988   3.448   3.242   3.915  1.7743 -1.8790 -0.0443
 3843SOL    HW222989   3.482   3.272   4.058  0.1896  0.3732  0.6545
 3844SOL     OW22990   2.788   3.234  12.251 -0.4870 -0.1876 -0.1646
 3844SOL    HW122991   2.771   3.328  12.262  1.0452  0.0390  0.2374
 3844SOL    HW222992   2.737   3.218  12.330  1.6007 -3.4277  0.5409
 3845SOL     OW22993   0.271   3.840  15.065 -0.2888 -0.0322  0.0828
 3845SOL    HW122994   0.345   3.780  15.073  0.2100  0.1280 -3.0330
 3845SOL    HW222995   0.253   3.853  14.971  0.3308 -0.5369 -0.1081
 3846SOL     OW22996   3.129   3.008   4.308  0.0147 -0.0447  0.6430
 3846SOL    HW122997   3.122   2.919   4.343  1.1415  0.2025  1.5253
 3846SOL    HW222998   3.211   3.000   4.258 -0.2474  0.6743  0.1126
 3847SOL     OW22999   1.291   2.841   4.611  0.0773 -0.1039 -0.0633
 3847SOL    HW123000   1.309   2.747   4.606  0.2386 -0.0612 -0.3045
 3847SOL    HW223001   1.359   2.884   4.559 -3.0808  1.0819 -3.1563
 3848SOL     OW23002   0.688   4.499  17.703  0.1289 -0.3052 -0.1953
 3848SOL    HW123003   0.690   4.409   0.031 -0.6303  0.0355  0.8234
 3848SOL    HW223004   0.674   4.540   0.086 -2.8827  1.2528 -1.4017
 3849SOL     OW23005   0.519   3.575   6.468  0.0074  0.4645  0.1747
 3849SOL    HW123006   0.430   3.599   6.492 -0.2426  0.2885 -0.5528
 3849SOL    HW223007   0.543   3.527   6.547 -0.0942 -1.3919 -0.9272
 3850SOL     OW23008   0.356   2.430  12.618 -0.3624 -0.6695  0.0358
 3850SOL    HW123009   0.293   2.501  12.605  1.0474  1.1462  3.1860
 3850SOL    HW223010   0.350   2.416  12.712  2.7242 -3.0470 -0.1127
 3851SOL     OW23011   0.466   2.412   1.730  0.1881  0.1170 -0.2652
 3851SOL    HW123012   0.532   2.425   1.797  0.1756  0.1815 -0.2650
 3851SOL    HW223013   0.521   2.418   1.652  0.9313  2.4941  0.4419
 3852SOL     OW23014   1.165   2.188   6.599  0.6691  0.5618  0.5080
 3852SOL    HW123015   1.075   2.156   6.596  0.6515  0.7005 -0.4844
 3852SOL    HW223016   1.156   2.273   6.556  3.1609  1.2751  1.4042
 3853SOL     OW23017   1.829   4.625  15.761 -0.3845 -0.3488  0.0646
 3853SOL    HW123018   1.753   4.653  15.710  0.1448 -0.5067 -0.8025
 3853SOL    HW223019   1.793   4.545  15.799  0.2711 -1.0613 -0.8021
 3854SOL     OW23020   0.248   1.154  13.326 -0.3478 -0.3776 -0.3104
 3854SOL    HW123021   0.289   1.232  13.361  0.0310 -0.7963  0.1652
 3854SOL    HW223022   0.233   1.098  13.402 -0.3711  0.7231  0.4943
 3855SOL     OW23023   1.476   3.248   7.865  0.5560  0.3152 -0.0200
 3855SOL    HW123024   1.436   3.302   7.796 -0.2975  0.0465  0.2565
 3855SOL    HW223025   1.501   3.300   7.941 -1.1916 -0.4534  1.0818
 3856SOL     OW23026   3.054   2.127   3.703 -0.0790 -0.1229  0.1322
 3856SOL    HW123027   3.093   2.050   3.744  2.0072  0.6687 -0.3594
 3856SOL    HW223028   3.038   2.104   3.611  1.4263 -1.2637  0.1656
 3857SOL     OW23029   0.819   3.725  17.578  0.1616  0.1358  0.2011
 3857SOL    HW123030   0.807   3.800  17.521  2.7765  1.1766  1.0011
 3857SOL    HW223031   0.753   3.742  17.645  1.1492  1.9605  0.7030
 3858SOL     OW23032   0.064   3.214  17.679  0.0835 -0.0633  0.0526
 3858SOL    HW123033   0.075   3.158   0.053 -0.7753  0.3605  0.4885
 3858SOL    HW223034   0.033   3.157  17.609  0.4851  1.4320 -1.3474
 3859SOL     OW23035   1.995   4.403   5.486  0.2266 -0.0636  0.0503
 3859SOL    HW123036   2.012   4.487   5.528 -0.0019 -0.9974  2.0117
 3859SOL    HW223037   2.074   4.355   5.510 -1.1440 -1.8849  0.8735
 3860SOL     OW23038   1.709   3.570   7.005 -0.4507  0.0894 -0.4409
 3860SOL    HW123039   1.801   3.554   6.987 -0.3108 -0.2337  0.5214
 3860SOL    HW223040   1.714   3.658   7.042 -0.2509 -0.3216  0.5163
 3861SOL     OW23041   1.737   0.187   3.941 -0.2306  0.1736  0.5190
 3861SOL    HW123042   1.697   0.270   3.968 -0.7431  0.5801 -1.5246
 3861SOL    HW223043   1.666   0.124   3.925 -1.3886  1.3434  0.9901
 3862SOL     OW23044   0.712   2.468   2.173  0.2589  0.0579 -0.1718
 3862SOL    HW123045   0.655   2.392   2.160  0.3472  0.3600 -2.3835
 3862SOL    HW223046   0.702   2.519   2.092  0.3203  2.1570  1.1550
 3863SOL     OW23047   1.282   1.693   5.777  0.3259  0.4659 -0.0831
 3863SOL    HW123048   1.263   1.676   5.869 -3.5073  1.3593 -0.7085
 3863SOL    HW223049   1.275   1.788   5.783 -2.5226  0.3529 -1.4500
 3864SOL     OW23050   0.256   3.958   0.208  0.2175 -0.2360 -0.4277
 3864SOL    HW123051   0.239   3.988   0.119  3.0901 -1.2117 -1.3257
 3864SOL    HW223052   0.239   3.864   0.203 -0.8095 -0.0669  0.0078
 3865SOL     OW23053   3.049   4.292   8.012 -0.7043 -0.1611  0.1998
 3865SOL    HW123054   2.966   4.300   7.965 -0.5691 -0.7722 -0.1383
 3865SOL    HW223055   3.023   4.219   8.069 -2.7932 -0.0297 -0.5754
 3866SOL     OW23056   4.344   0.241   5.999  0.1833  0.1609 -0.1272
 3866SOL    HW123057   4.415   0.199   5.951  1.2199 -1.6057  2.9805
 3866SOL    HW223058   4.358   0.331   5.973  0.7214  0.2009  0.3138
 3867SOL     OW23059   3.098   3.260  17.546  0.5558  0.3451  0.1465
 3867SOL    HW123060   3.085   3.334  17.605 -0.9131 -0.4858  0.8548
 3867SOL    HW223061   3.017   3.210  17.556 -0.5900  2.1935  0.1190
 3868SOL     OW23062   4.246   0.438  12.384  0.1776 -0.3987 -0.3282
 3868SOL    HW123063   4.310   0.497  12.344  0.1312 -1.1318 -1.4913
 3868SOL    HW223064   4.197   0.418  12.304  0.0812 -0.4509 -0.2568
 3869SOL     OW23065   2.621   3.618   7.554 -0.0083  0.4235  0.4561
 3869SOL    HW123066   2.713   3.611   7.529  0.2918 -3.0005  2.4649
 3869SOL    HW223067   2.579   3.552   7.500 -0.7661  2.0143 -0.8785
 3870SOL     OW23068   2.923   3.834   5.721  0.3520 -0.1902 -0.1751
 3870SOL    HW123069   2.895   3.890   5.793 -1.8860 -0.8854 -0.5284
 3870SOL    HW223070   2.951   3.894   5.651 -1.3481  1.3088  0.4424
 3871SOL     OW23071   1.859   3.945   0.663  0.1694 -0.5222  0.7914
 3871SOL    HW123072   1.846   3.874   0.725  3.0538 -0.2971  1.6461
 3871SOL    HW223073   1.861   4.024   0.717  1.8602 -0.0256  0.0123
 3872SOL     OW23074   1.712   0.226  10.114  0.1129 -0.0520  0.2823
 3872SOL    HW123075   1.750   0.181  10.190  0.4374 -1.8612 -0.9526
 3872SOL    HW223076   1.779   0.281  10.074 -0.1333  0.6054  0.7683
 3873SOL     OW23077   4.494   2.680   4.641  0.1610 -0.0835  0.4301
 3873SOL    HW123078   4.534   2.594   4.633  2.5873  1.1692 -0.8118
 3873SOL    HW223079   4.534   2.704   4.725  1.3315  1.1403 -0.4625
 3874SOL     OW23080   0.897   2.444   5.997  0.0738  0.1219 -0.1412
 3874SOL    HW123081   0.976   2.392   6.011 -0.0682 -0.7558 -2.5482
 3874SOL    HW223082   0.879   2.438   5.903 -0.4556  2.5640 -0.1976
 3875SOL     OW23083   2.109   4.294   8.959  0.4692  0.0848 -0.0324
 3875SOL    HW123084   2.101   4.383   8.925  1.7370 -0.0217 -0.6108
 3875SOL    HW223085   2.024   4.261   8.988 -0.3265  0.9120 -1.4171
 3876SOL     OW23086   2.454   3.556   3.594  0.0806 -0.1286 -0.4360
 3876SOL    HW123087   2.448   3.598   3.680 -1.8381  2.6809 -1.9367
 3876SOL    HW223088   2.396   3.612   3.543 -0.0508 -1.7871 -2.0996
 3877SOL     OW23089   1.182   4.358   9.043 -0.8282  0.4272  0.6889
 3877SOL    HW123090   1.145   4.373   9.130 -0.4365  2.4341  0.4982
 3877SOL    HW223091   1.157   4.266   9.030 -0.3515  0.5668 -1.1961
 3878SOL     OW23092   3.935   4.477  14.157 -0.7959  0.1277 -0.0354
 3878SOL    HW123093   3.857   4.481  14.213 -0.5801  1.6394  0.1729
 3878SOL    HW223094   3.915   4.563  14.118  2.2342  1.2624  0.9130
 3879SOL     OW23095   2.512   1.688   8.806  0.0686 -0.5834  0.4314
 3879SOL    HW123096   2.537   1.757   8.867 -2.3677 -1.0070  1.9157
 3879SOL    HW223097   2.488   1.730   8.723 -1.0860 -0.1817  0.9606
 3880SOL     OW23098   1.910   0.831   6.331 -0.4256 -0.5702  0.9030
 3880SOL    HW123099   1.858   0.762   6.371  0.1822 -1.3031  0.4415
 3880SOL    HW223100   1.849   0.857   6.262  0.7586  0.3285  0.1970
 3881SOL     OW23101   2.570   0.716   2.829  0.2873  0.1547  0.3531
 3881SOL    HW123102   2.522   0.791   2.865 -1.0219 -0.7940  0.5959
 3881SOL    HW223103   2.518   0.686   2.754  0.8269 -0.4476  0.2203
 3882SOL     OW23104   3.054   1.753   5.660 -0.3654  0.2005  0.8479
 3882SOL    HW123105   3.025   1.707   5.581 -2.3902  1.8897  0.5888
 3882SOL    HW223106   3.033   1.839   5.623 -0.4142  0.0875  0.6186
 3883SOL     OW23107   2.718   0.891   8.865 -0.0657 -0.1705  0.3760
 3883SOL    HW123108   2.763   0.967   8.902  1.9004 -1.9145  1.5471
 3883SOL    HW223109   2.755   0.808   8.893  0.5289  0.3957  1.2357
 3884SOL     OW23110   0.276   0.878  14.979  0.3149  0.6417 -0.3273
 3884SOL    HW123111   0.216   0.851  15.049  0.1262 -0.0900 -0.7728
 3884SOL    HW223112   0.356   0.879  15.032 -0.1009  0.2528  0.3178
 3885SOL     OW23113   4.491   3.410   6.987  1.1746  0.0228  0.5129
 3885SOL    HW123114   4.517   3.381   7.075  1.3107  0.2813  0.5576
 3885SOL    HW223115   4.399   3.385   6.978  0.5435  1.9615  1.6263
 3886SOL     OW23116   0.224   2.847   1.504 -0.2809 -0.8503  0.0052
 3886SOL    HW123117   0.256   2.757   1.516  0.6195 -0.5337 -0.0578
 3886SOL    HW223118   0.134   2.824   1.479 -0.9963  0.9663  0.9647
 3887SOL     OW23119   2.489   2.983   3.059 -0.1105  0.1265  0.2248
 3887SOL    HW123120   2.545   3.060   3.055 -0.5234  0.4506  0.7235
 3887SOL    HW223121   2.423   3.019   3.118  0.2110  0.5761  0.3073
 3888SOL     OW23122   2.110   3.727  15.520  0.0016 -0.5815  0.0307
 3888SOL    HW123123   2.049   3.781  15.470 -0.3737 -1.9733 -1.0293
 3888SOL    HW223124   2.161   3.692  15.448  1.5576 -0.5551  1.1218
 3889SOL     OW23125   2.549   1.601  15.703  0.0226  0.5313  0.4454
 3889SOL    HW123126   2.576   1.535  15.766  1.3647 -1.6140 -2.3879
 3889SOL    HW223127   2.607   1.576  15.631 -0.9997  0.0424 -0.1901
 3890SOL     OW23128   3.656   2.684   8.876 -0.3171  0.0371 -0.4716
 3890SOL    HW123129   3.595   2.650   8.811  0.5780  0.6783 -1.6438
 3890SOL    HW223130   3.666   2.778   8.860  1.3785  0.1273  1.0203
 3891SOL     OW23131   1.044   3.915   1.466 -0.3655  0.3151 -0.0256
 3891SOL    HW123132   1.046   3.971   1.544  1.2177  0.0727  0.1269
 3891SOL    HW223133   1.061   3.980   1.398  2.4697  0.4722  0.7934
 3892SOL     OW23134   4.610   2.127   4.948 -0.2923  0.5636 -1.2822
 3892SOL    HW123135   4.592   2.107   4.857 -0.3399  0.6133 -1.2836
 3892SOL    HW223136   4.668   2.056   4.974 -1.0343 -0.2985 -1.9951
 3893SOL     OW23137   3.403   1.138   1.238 -0.1965 -0.5642  0.2884
 3893SOL    HW123138   3.364   1.155   1.152 -0.9538 -0.0390  0.7376
 3893SOL    HW223139   3.496   1.162   1.236 -0.8450  1.8289 -1.8495
 3894SOL     OW23140   4.643   2.410  17.259  0.2226 -0.0119 -0.5429
 3894SOL    HW123141   4.618   2.480  17.319 -0.4927 -0.7740  0.0383
 3894SOL    HW223142   4.558   2.368  17.255  0.4411 -0.6560  1.6668
 3895SOL     OW23143   2.214   0.506   7.526  0.2935  0.0043 -0.2033
 3895SOL    HW123144   2.126   0.538   7.546  0.0390  1.8890 -4.2622
 3895SOL    HW223145   2.214   0.422   7.571 -4.7422  0.6674  1.0171
 3896SOL     OW23146   0.986   0.061   7.758 -0.2284 -0.1910 -0.1301
 3896SOL    HW123147   1.027   0.147   7.755  1.4181 -0.9786 -0.1673
 3896SOL    HW223148   0.985   0.035   7.666  1.7870 -0.4760 -0.0676
 3897SOL     OW23149   1.993   0.331   5.388  0.3417 -0.3128  0.3134
 3897SOL    HW123150   1.988   0.390   5.313  1.7839 -0.7389 -0.1064
 3897SOL    HW223151   1.994   0.246   5.345 -0.2964 -0.4323  0.5267
 3898SOL     OW23152   2.126   1.686  17.255 -0.2534 -0.4008  0.3706
 3898SOL    HW123153   2.220   1.695  17.268 -0.1888 -0.2844 -0.1685
 3898SOL    HW223154   2.089   1.676  17.343  0.6478 -1.3451  0.6437
 3899SOL     OW23155   3.821   2.043   9.040 -0.1490 -0.3463 -0.2468
 3899SOL    HW123156   3.799   1.983   9.112 -1.3967  1.5537  0.9686
 3899SOL    HW223157   3.910   2.078   9.045 -0.2806 -0.5279  3.4835
 3900SOL     OW23158   0.414   1.677   6.701  0.2363 -0.3149  0.4719
 3900SOL    HW123159   0.414   1.643   6.790  2.1797  0.0403  0.5992
 3900SOL    HW223160   0.506   1.680   6.673 -0.5256 -1.5003 -2.1973
 3901SOL     OW23161   1.411   3.315   9.518 -0.8587 -0.2370 -0.2068
 3901SOL    HW123162   1.431   3.330   9.610 -3.5408 -2.4952  0.7340
 3901SOL    HW223163   1.441   3.225   9.507 -1.3277 -0.8032  3.1444
 3902SOL     OW23164   0.454   3.661   1.991  0.0665  0.3262  0.2346
 3902SOL    HW123165   0.446   3.597   2.063  1.2980  1.0576  1.0200
 3902SOL    HW223166   0.363   3.665   1.962 -0.3407 -0.3379  1.3914
 3903SOL     OW23167   0.387   0.260  13.731  0.1935  0.5015 -0.0523
 3903SOL    HW123168   0.305   0.304  13.709  0.2693 -1.0581 -3.5407
 3903SOL    HW223169   0.435   0.285  13.651  1.2971 -2.1485 -0.2227
 3904SOL     OW23170   4.021   0.292  11.908  0.1129 -0.7064 -0.1371
 3904SOL    HW123171   3.984   0.217  11.861 -2.4652 -0.5085  1.5453
 3904SOL    HW223172   4.111   0.293  11.875  0.4945 -2.7100  0.8386
 3905SOL     OW23173   2.383   2.059   5.896 -0.2690  0.2113  0.1542
 3905SOL    HW123174   2.307   2.084   5.949  1.2111  1.3206  1.7710
 3905SOL    HW223175   2.377   2.124   5.827 -0.9663  1.4351  1.3534
 3906SOL     OW23176   3.448   3.772  15.928 -0.1389  0.2472  0.4042
 3906SOL    HW123177   3.531   3.747  15.970 -0.3342  0.8041  1.1262
 3906SOL    HW223178   3.442   3.866  15.945 -0.3582  0.3514 -0.2628
 3907SOL     OW23179   1.266   1.931  13.145  0.4786  0.1964  0.0897
 3907SOL    HW123180   1.306   1.985  13.077 -0.3977  0.3901 -0.2714
 3907SOL    HW223181   1.252   1.850  13.096 -1.0851 -0.0763  1.0008
 3908SOL     OW23182   0.974   2.948   7.106  0.6949  0.3897 -0.0218
 3908SOL    HW123183   0.966   2.979   7.016  0.6095 -0.9854 -0.4976
 3908SOL    HW223184   0.884   2.938   7.136  1.0029 -1.8629  0.1824
 3909SOL     OW23185   0.838   3.654   5.051  0.2328 -0.1608 -0.1557
 3909SOL    HW123186   0.785   3.581   5.020 -0.6101  0.4831 -0.2073
 3909SOL    HW223187   0.853   3.617   5.138  0.2484 -0.6057 -0.3473
 3910SOL     OW23188   0.608   1.850   5.936  0.0324  0.0493 -0.1882
 3910SOL    HW123189   0.522   1.876   5.902 -0.2451  0.2780  0.6878
 3910SOL    HW223190   0.625   1.930   5.985 -0.6441 -0.6120  1.1293
 3911SOL     OW23191   4.277   4.277   8.692 -0.1158 -0.1100  0.2962
 3911SOL    HW123192   4.297   4.256   8.600 -0.1078 -0.4252  0.3702
 3911SOL    HW223193   4.182   4.286   8.687  0.0437  0.9774 -0.7211
 3912SOL     OW23194   4.024   0.844   2.755 -1.0635  0.1923 -0.0048
 3912SOL    HW123195   4.049   0.935   2.774  0.0879  0.2194 -1.6561
 3912SOL    HW223196   4.087   0.824   2.685 -0.3028  1.0752  0.4226
 3913SOL     OW23197   2.328   1.267  13.231 -0.4543  0.4354 -0.5164
 3913SOL    HW123198   2.316   1.279  13.325 -0.3701  0.8415 -0.5577
 3913SOL    HW223199   2.270   1.335  13.200 -1.1682 -1.2303 -2.7844
 3914SOL     OW23200   0.100   2.880   5.284 -0.4822  0.1162 -0.6819
 3914SOL    HW123201   0.174   2.823   5.267  0.4722  1.5124 -1.1822
 3914SOL    HW223202   0.045   2.855   5.210  0.5799 -0.3150 -1.3212
 3915SOL     OW23203   3.809   0.902   8.555  0.2697  0.2956 -0.3933
 3915SOL    HW123204   3.793   0.983   8.603  1.9292 -0.4846  1.4941
 3915SOL    HW223205   3.818   0.838   8.626 -0.7297  1.9462  1.2388
 3916SOL     OW23206   1.179   3.290   4.009  0.2013  0.0383  0.2342
 3916SOL    HW123207   1.121   3.365   4.022 -1.1707 -0.5328 -2.7951
 3916SOL    HW223208   1.172   3.280   3.914  1.9213 -1.9738  0.3225
 3917SOL     OW23209   1.784   1.010  10.965  0.2742  0.2721  0.0073
 3917SOL    HW123210   1.876   1.002  10.989  0.1309  2.4273  1.2429
 3917SOL    HW223211   1.750   1.056  11.042  1.4660 -1.5762  1.6460
 3918SOL     OW23212   2.479   0.425   1.984  0.4046 -1.0489 -0.4928
 3918SOL    HW123213   2.409   0.444   1.923  1.0232  2.6839 -0.0576
 3918SOL    HW223214   2.430   0.392   2.059  0.5738 -0.1382  0.0248
 3919SOL     OW23215   0.501   3.010   2.157 -0.0597  0.4893  0.1283
 3919SOL    HW123216   0.432   3.065   2.119 -1.2881 -0.9360  0.2500
 3919SOL    HW223217   0.534   3.061   2.231 -0.4122  0.5005  0.2774
 3920SOL     OW23218   2.101   3.140  11.361  0.1140  0.5421 -0.0291
 3920SOL    HW123219   2.139   3.053  11.369  1.2885  0.8521 -2.3575
 3920SOL    HW223220   2.161   3.197  11.408  1.5360 -2.1334  1.4089
 3921SOL     OW23221   3.405   2.414   7.822 -0.4541  0.1782 -0.0613
 3921SOL    HW123222   3.354   2.458   7.753 -1.3429  1.1130  1.1892
 3921SOL    HW223223   3.459   2.488   7.849  1.0345 -0.3659 -1.5080
 3922SOL     OW23224   3.086   4.377   4.250 -0.3179  0.0110 -0.2499
 3922SOL    HW123225   3.047   4.356   4.335  0.9240 -1.1037  0.0412
 3922SOL    HW223226   3.125   4.294   4.223 -0.6491  0.7099 -2.7945
 3923SOL     OW23227   3.405   1.911   3.892  0.3693  0.4344 -0.7051
 3923SOL    HW123228   3.406   1.936   3.985  2.4672 -1.1566 -0.2996
 3923SOL    HW223229   3.379   1.819   3.888 -0.0881  0.4060  2.7328
 3924SOL     OW23230   1.517   4.453  14.823  0.2185  0.9255 -0.2245
 3924SOL    HW123231   1.487   4.520  14.884 -0.5772 -0.4227  0.8576
 3924SOL    HW223232   1.448   4.460  14.757 -1.5657 -1.3989  1.3765
 3925SOL     OW23233   4.535   2.689   9.811 -0.1439  0.2070 -0.5069
 3925SOL    HW123234   4.589   2.658   9.883 -0.5401  1.7631  0.4629
 3925SOL    HW223235   4.474   2.617   9.796  0.1367  0.1226 -1.2369
 3926SOL     OW23236   0.389   0.263   4.947 -0.5080 -0.3131  0.3825
 3926SOL    HW123237   0.360   0.210   5.022  0.0308  0.2980  1.0277
 3926SOL    HW223238   0.306   0.271   4.900  0.6780 -1.2408 -1.8166
 3927SOL     OW23239   4.171   2.866  12.906  0.0310  0.3938  0.5519
 3927SOL    HW123240   4.082   2.892  12.931  0.3711  2.6468 -0.5731
 3927SOL    HW223241   4.147   2.779  12.874  0.7024 -0.4637  2.3902
 3928SOL     OW23242   2.794   0.425   1.440 -0.3187 -0.2070 -0.2218
 3928SOL    HW123243   2.858   0.416   1.370 -0.2720  2.1565 -0.4732
 3928SOL    HW223244   2.733   0.352   1.425 -1.3935  0.5579  0.4379
 3929SOL     OW23245   3.883   0.512   8.153  0.2691  0.2975  0.1387
 3929SOL    HW123246   3.975   0.537   8.157  1.0977 -2.9449  1.9627
 3929SOL    HW223247   3.884   0.488   8.060 -0.3125  0.4396  0.0976
 3930SOL     OW23248   3.636   0.289  12.465 -0.1800  0.4049  0.9353
 3930SOL    HW123249   3.607   0.200  12.444 -1.9256  1.4054 -0.9645
 3930SOL    HW223250   3.728   0.283  12.440 -0.3969  1.3903 -0.0988
 3931SOL     OW23251   3.003   2.845   3.318  0.4324 -0.6112 -0.3991
 3931SOL    HW123252   3.024   2.917   3.377 -1.4091  0.3605 -0.9222
 3931SOL    HW223253   2.907   2.844   3.319  0.4311 -0.3050 -0.1759
 3932SOL     OW23254   2.362   2.758   8.230  0.2085  0.0479 -0.2051
 3932SOL    HW123255   2.375   2.696   8.158 -0.0253 -1.0808  0.7260
 3932SOL    HW223256   2.455   2.777   8.242 -0.5538  1.2262  3.6664
 3933SOL     OW23257   0.077   4.065   2.606 -0.2770  0.3474  0.2492
 3933SOL    HW123258   4.718   4.103   2.582 -0.5293 -0.2485  0.1678
 3933SOL    HW223259   0.088   3.991   2.546 -2.1378 -0.3487  0.7520
 3934SOL     OW23260   2.238   3.411   4.433 -0.4307 -0.1139 -0.1744
 3934SOL    HW123261   2.198   3.487   4.477 -0.4842 -0.5034  0.4589
 3934SOL    HW223262   2.245   3.453   4.347 -2.0953  0.4520 -0.0338
 3935SOL     OW23263   1.812   1.246   0.812 -0.1228  0.7294 -0.1858
 3935SOL    HW123264   1.797   1.157   0.845 -0.6477  0.0981 -2.1613
 3935SOL    HW223265   1.889   1.276   0.859 -0.9876 -0.5450  2.0577
 3936SOL     OW23266   2.398   1.703  17.327  0.1741  0.7367 -0.2670
 3936SOL    HW123267   2.390   1.696  17.422  0.4366  0.9101 -0.2329
 3936SOL    HW223268   2.480   1.654  17.320 -1.4301 -1.8353 -1.2878
 3937SOL     OW23269   4.101   4.040  16.687 -0.3204  0.7957 -0.6969
 3937SOL    HW123270   4.125   4.067  16.776  0.9174 -1.7517 -0.2313
 3937SOL    HW223271   4.146   4.108  16.638 -1.1645  0.5193 -1.8636
 3938SOL     OW23272   0.879   0.555   9.398  0.6572  0.1974 -0.2121
 3938SOL    HW123273   0.804   0.595   9.443  1.4927  1.4603  0.0593
 3938SOL    HW223274   0.840   0.468   9.389 -0.0871  0.4993  0.0619
 3939SOL     OW23275   3.896   4.127   9.201  0.3554 -0.1525  0.1637
 3939SOL    HW123276   3.831   4.076   9.154  1.0588 -0.2566 -0.6907
 3939SOL    HW223277   3.895   4.076   9.282 -0.4140 -0.3898  0.0069
 3940SOL     OW23278   1.391   3.856   5.751 -0.4732  0.2265 -0.6548
 3940SOL    HW123279   1.374   3.790   5.683  0.4470 -1.4160  0.6991
 3940SOL    HW223280   1.454   3.810   5.807 -1.1492 -1.6389 -1.4235
 3941SOL     OW23281   3.937   1.904   4.097  0.5089 -0.1824  0.2566
 3941SOL    HW123282   3.905   1.957   4.170 -3.0788 -1.6063 -0.3238
 3941SOL    HW223283   3.932   1.967   4.024 -0.4606 -2.0625 -1.2958
 3942SOL     OW23284   0.044   1.069   9.103 -0.0580 -0.1953  0.0769
 3942SOL    HW123285   4.724   1.069   9.187 -1.0225 -2.7139 -0.4210
 3942SOL    HW223286   4.703   1.089   9.038  0.4427  0.1707 -0.3235
 3943SOL     OW23287   1.118   2.090   9.226  0.1731 -0.1916  0.3275
 3943SOL    HW123288   1.138   2.092   9.133 -0.0096  2.2544  0.3533
 3943SOL    HW223289   1.064   2.012   9.238  0.6880 -0.3626  1.6286
 3944SOL     OW23290   1.864   0.778   0.194 -0.2031 -0.0389  0.3756
 3944SOL    HW123291   1.836   0.864   0.227 -0.7916  0.1287 -0.5527
 3944SOL    HW223292   1.883   0.789   0.101 -0.7175 -0.8011  0.1867
 3945SOL     OW23293   2.168   4.062   3.418  0.4096  0.4039 -0.1398
 3945SOL    HW123294   2.111   4.120   3.468 -1.5470 -0.7892 -1.0196
 3945SOL    HW223295   2.185   3.997   3.486 -0.6116 -0.6267 -0.8678
 3946SOL     OW23296   0.016   2.080   8.808 -0.9763 -0.0743  0.3235
 3946SOL    HW123297   0.075   2.046   8.740 -0.3384 -1.7116  1.7198
 3946SOL    HW223298   0.059   2.164   8.827  1.2340 -0.7606 -1.5499
 3947SOL     OW23299   3.266   4.674   8.917  0.1819 -0.8632 -0.1117
 3947SOL    HW123300   3.271   4.723   8.999 -0.6778  1.5326 -1.4934
 3947SOL    HW223301   3.251   4.582   8.938 -0.8299 -0.3057  1.6676
 3948SOL     OW23302   1.191   3.241  10.809  0.2467 -0.5033  0.0168
 3948SOL    HW123303   1.237   3.242  10.893  0.9921  3.0135 -0.4325
 3948SOL    HW223304   1.256   3.190  10.760  0.2462 -0.0369 -0.4815
 3949SOL     OW23305   3.615   2.607   1.404 -0.2148 -0.0316 -0.0425
 3949SOL    HW123306   3.622   2.602   1.309  3.9319 -3.7082  0.4268
 3949SOL    HW223307   3.705   2.581   1.425  0.4313  0.4171 -2.2822
 3950SOL     OW23308   0.980   3.426   1.942  0.3596 -0.3726 -0.3868
 3950SOL    HW123309   0.996   3.333   1.929  0.8007 -0.2240 -0.9103
 3950SOL    HW223310   0.964   3.464   1.856 -2.8384  1.8027  1.1814
 3951SOL     OW23311   2.426   0.075   4.338  0.1162  0.4121  0.1575
 3951SOL    HW123312   2.499   0.045   4.285 -1.4500 -0.9341 -1.2199
 3951SOL    HW223313   2.424   0.014   4.412  1.4442 -0.7356 -0.7434
 3952SOL     OW23314   3.679   0.929   9.713 -0.0978 -0.2278 -0.0590
 3952SOL    HW123315   3.635   0.889   9.638 -0.8822 -0.5641  0.5763
 3952SOL    HW223316   3.636   1.014   9.723 -1.0946 -0.9643  1.8653
 3953SOL     OW23317   1.404   4.068   0.879  0.1434  0.1816  0.2823
 3953SOL    HW123318   1.410   3.999   0.814  1.3234  1.1303 -0.6115
 3953SOL    HW223319   1.465   4.133   0.845 -0.4058  0.7508  0.3835
 3954SOL     OW23320   1.207   2.194   7.544  0.1503 -0.1124  0.1404
 3954SOL    HW123321   1.285   2.145   7.573 -0.6455 -1.2350  0.3716
 3954SOL    HW223322   1.142   2.148   7.597 -0.0321  0.7895  0.7000
 3955SOL     OW23323   1.663   4.494   4.326  0.9365  0.2364 -0.1324
 3955SOL    HW123324   1.585   4.548   4.320  2.1689  2.1800  1.0301
 3955SOL    HW223325   1.629   4.408   4.301 -1.5164  1.4103 -0.7461
 3956SOL     OW23326   0.413   3.658  10.962  0.3302 -0.1444  0.2648
 3956SOL    HW123327   0.407   3.722  10.891 -1.1259  1.6602  2.0099
 3956SOL    HW223328   0.497   3.626  10.928  0.0055  2.1167 -2.7083
 3957SOL     OW23329   3.636   2.668  15.625 -0.0792 -0.2702 -0.3816
 3957SOL    HW123330   3.559   2.718  15.598 -0.5932  0.1659  1.8929
 3957SOL    HW223331   3.704   2.730  15.600  0.2258 -0.6382 -0.4759
 3958SOL     OW23332   2.327   0.207  10.034  0.3818 -0.2141 -0.2139
 3958SOL    HW123333   2.357   0.117  10.026  2.1589  0.5119 -1.6145
 3958SOL    HW223334   2.319   0.226   9.941 -0.7840 -0.3803 -0.1530
 3959SOL     OW23335   0.356   1.037   6.719 -0.0435  0.4584  0.1515
 3959SOL    HW123336   0.265   1.041   6.748  0.1695 -1.0519  0.9938
 3959SOL    HW223337   0.338   1.032   6.625 -0.4952 -3.2839  0.4526
 3960SOL     OW23338   2.357   1.771  12.470  0.0508 -0.7273  0.0752
 3960SOL    HW123339   2.352   1.844  12.533  0.5047 -2.0380  1.6423
 3960SOL    HW223340   2.436   1.721  12.491  0.1540 -0.8175 -0.5542
 3961SOL     OW23341   1.726   0.982   1.170 -0.5839 -0.2344  1.0026
 3961SOL    HW123342   1.652   0.935   1.208 -0.0865 -1.2071  0.7834
 3961SOL    HW223343   1.788   0.909   1.164  1.9247  1.9187  0.2933
 3962SOL     OW23344   3.271   2.568  14.920  0.0841 -1.2153  0.2370
 3962SOL    HW123345   3.310   2.482  14.905 -0.0513 -1.4743  1.4032
 3962SOL    HW223346   3.192   2.572  14.866  0.9104  0.3758 -0.8548
 3963SOL     OW23347   2.407   1.978   5.159  0.3086 -0.0474  0.3577
 3963SOL    HW123348   2.429   1.984   5.252  0.0259  1.1285  0.3536
 3963SOL    HW223349   2.474   2.034   5.121 -1.5633  2.1405  0.2842
 3964SOL     OW23350   3.471   0.524   8.142  0.1660 -0.4411  0.0527
 3964SOL    HW123351   3.454   0.432   8.122  1.1067  0.2461 -3.8633
 3964SOL    HW223352   3.535   0.547   8.075 -1.6135  1.8139 -0.9021
 3965SOL     OW23353   4.044   4.058   3.229 -0.7479  0.7796 -0.0448
 3965SOL    HW123354   3.996   4.093   3.304 -2.4042  0.0797 -0.7826
 3965SOL    HW223355   4.067   4.144   3.194  0.0416  0.3796 -0.4921
 3966SOL     OW23356   3.160   3.330   2.107  0.7720  0.1496  0.0483
 3966SOL    HW123357   3.070   3.297   2.100  0.2397  1.8593 -1.3032
 3966SOL    HW223358   3.193   3.309   2.194  0.5468  2.5249  0.7306
 3967SOL     OW23359   3.201   3.211   0.818 -0.0279  0.2753  0.1289
 3967SOL    HW123360   3.194   3.306   0.808  1.1575  0.1720 -1.6887
 3967SOL    HW223361   3.167   3.194   0.906  0.4968  0.9356  0.4541
 3968SOL     OW23362   2.412   2.601   8.020  0.1843  0.0212  0.0150
 3968SOL    HW123363   2.330   2.608   7.971  0.4166 -1.4433 -0.6157
 3968SOL    HW223364   2.442   2.510   8.010  0.5142 -0.1774  2.8687
 3969SOL     OW23365   4.270   4.167   4.248 -0.2462 -0.5778  0.1853
 3969SOL    HW123366   4.189   4.121   4.272 -1.2222  0.7816 -0.5314
 3969SOL    HW223367   4.232   4.227   4.185 -0.8882 -0.5032  0.6379
 3970SOL     OW23368   3.008   1.880   7.406 -0.2120 -0.0479 -0.0898
 3970SOL    HW123369   3.079   1.940   7.428  1.6001 -1.5209 -1.8842
 3970SOL    HW223370   2.935   1.924   7.450 -0.6900  0.7700 -1.7251
 3971SOL     OW23371   1.921   0.031   8.466  0.2507 -0.0300 -0.3608
 3971SOL    HW123372   1.962   0.012   8.382 -2.3782 -0.0456 -1.6734
 3971SOL    HW223373   1.835   4.714   8.460 -0.9606  1.8599  3.6183
 3972SOL     OW23374   3.891   1.678   8.331 -0.2370 -0.3297  0.2811
 3972SOL    HW123375   3.979   1.671   8.367  0.6504  0.7991 -1.6452
 3972SOL    HW223376   3.851   1.602   8.373  0.3401 -0.4090  0.6879
 3973SOL     OW23377   0.965   3.853   4.940 -0.1248  0.0900 -0.6850
 3973SOL    HW123378   0.980   3.817   4.852 -1.0770 -2.5078  0.2166
 3973SOL    HW223379   0.908   3.789   4.983  0.9559 -0.6646 -0.3573
 3974SOL     OW23380   2.731   3.498   8.438 -0.2028 -0.2818  0.5964
 3974SOL    HW123381   2.642   3.463   8.440 -0.0751 -0.5514  1.5587
 3974SOL    HW223382   2.775   3.440   8.500  1.2440  0.2243  0.0449
 3975SOL     OW23383   1.011   3.295   2.509 -0.2351  0.3091  0.1133
 3975SOL    HW123384   0.933   3.322   2.557 -0.2730  0.8546 -0.2569
 3975SOL    HW223385   1.014   3.202   2.534 -0.5962  0.5906  1.1760
 3976SOL     OW23386   1.879   4.127   0.911  0.0021  0.2083  0.4629
 3976SOL    HW123387   1.845   4.089   0.993  0.2837 -0.1255  0.4270
 3976SOL    HW223388   1.971   4.112   0.932 -0.7205 -2.1489  1.9602
 3977SOL     OW23389   4.648   1.570   3.452 -0.2793  0.2289  0.2108
 3977SOL    HW123390   4.625   1.639   3.515 -0.1713  0.2677  0.2089
 3977SOL    HW223391   4.618   1.610   3.371  0.2333  2.0785  0.9205
 3978SOL     OW23392   0.234   2.400  17.682  0.0334 -0.1745  0.6637
 3978SOL    HW123393   0.186   2.422   0.058  1.7002 -0.6998  1.8309
 3978SOL    HW223394   0.202   2.462  17.616  0.7451 -1.1585 -0.6127
 3979SOL     OW23395   4.567   4.395   2.327  0.2718 -0.0598  0.0927
 3979SOL    HW123396   4.530   4.372   2.412 -0.5524  0.5938 -0.0930
 3979SOL    HW223397   4.547   4.488   2.336 -0.1374  0.0362 -1.7069
 3980SOL     OW23398   3.504   2.198   5.714 -0.2511 -0.1289  0.1245
 3980SOL    HW123399   3.512   2.115   5.666 -0.3059 -0.8688  1.4026
 3980SOL    HW223400   3.423   2.172   5.757  0.4787 -0.3993  1.3636
 3981SOL     OW23401   1.791   2.228  15.201 -0.2671 -0.0037 -0.5550
 3981SOL    HW123402   1.842   2.306  15.222  0.0007 -0.5951  0.9578
 3981SOL    HW223403   1.711   2.240  15.252 -0.2949 -1.8283 -0.1879
 3982SOL     OW23404   0.034   4.382   5.364  0.3456 -0.2828  0.0262
 3982SOL    HW123405   0.034   4.349   5.274  0.8043  2.8144 -1.1046
 3982SOL    HW223406   0.122   4.418   5.373  0.2588  0.6875 -3.0872
 3983SOL     OW23407   0.927   0.515  11.399  0.0790  0.4761  0.0177
 3983SOL    HW123408   0.947   0.598  11.357 -1.7417  0.6216 -0.5756
 3983SOL    HW223409   0.834   0.512  11.378 -0.2036  1.2762  1.1253
 3984SOL     OW23410   3.533   2.426   3.833  0.2046 -0.1455 -0.3719
 3984SOL    HW123411   3.482   2.450   3.756  0.3931  1.4226 -0.0180
 3984SOL    HW223412   3.509   2.334   3.833  1.1274 -0.3856 -0.4477
 3985SOL     OW23413   4.383   2.205   5.103 -0.0801 -0.0300  0.2957
 3985SOL    HW123414   4.466   2.216   5.056 -0.8840  1.4798 -0.7712
 3985SOL    HW223415   4.385   2.279   5.164 -1.4428 -1.1979  1.7436
 3986SOL     OW23416   2.731   4.703   8.307  0.1718 -0.1785  0.2241
 3986SOL    HW123417   2.746   0.049   8.245 -0.3946 -1.4756 -1.3829
 3986SOL    HW223418   2.637   4.718   8.316  0.4120 -0.3094  3.1623
 3987SOL     OW23419   2.169   3.922  15.684  0.1666 -0.0007 -0.0844
 3987SOL    HW123420   2.195   3.851  15.625  1.8495 -0.3112  1.0232
 3987SOL    HW223421   2.166   3.996  15.624  4.4958  0.9579  0.8853
 3988SOL     OW23422   3.887   3.199   6.148  0.4383  1.0829  0.0181
 3988SOL    HW123423   3.832   3.273   6.175 -0.5382  0.1057  0.6724
 3988SOL    HW223424   3.915   3.165   6.232 -1.5883 -1.7113 -0.4495
 3989SOL     OW23425   0.442   2.334  16.728  0.6236 -0.1221 -0.3934
 3989SOL    HW123426   0.533   2.332  16.758 -0.1887 -1.7786  1.9344
 3989SOL    HW223427   0.398   2.307  16.809 -2.0013  0.5276 -1.6144
 3990SOL     OW23428   0.982   3.294   0.916 -0.1521 -0.1313 -0.1905
 3990SOL    HW123429   1.057   3.262   0.866 -0.6266  0.1817 -1.1086
 3990SOL    HW223430   0.917   3.226   0.897 -1.3773  0.3314  2.3537
 3991SOL     OW23431   1.175   3.666   1.445  0.2751  0.3522  0.6190
 3991SOL    HW123432   1.253   3.662   1.389  0.0925  1.1312  0.3208
 3991SOL    HW223433   1.146   3.755   1.429  0.0071  0.5899  2.4603
 3992SOL     OW23434   3.603   3.892   1.571 -0.1361  0.1466 -0.1358
 3992SOL    HW123435   3.643   3.891   1.658 -0.8155  1.8277  0.1959
 3992SOL    HW223436   3.578   3.799   1.574 -0.8479  0.2986 -1.2011
 3993SOL     OW23437   4.642   3.407   0.805  0.0361 -0.1814 -0.0502
 3993SOL    HW123438   4.689   3.426   0.886  2.0935 -0.8018 -1.1224
 3993SOL    HW223439   4.599   3.327   0.836 -0.0107 -0.0364  0.2614
 3994SOL     OW23440   0.554   3.243  10.665  0.4217 -0.0681  0.5999
 3994SOL    HW123441   0.536   3.198  10.747 -0.1804 -2.0583 -0.6318
 3994SOL    HW223442   0.496   3.194  10.607 -0.0919 -1.9687  2.7589
 3995SOL     OW23443   0.263   3.745   8.446 -0.2601  0.3700  0.4983
 3995SOL    HW123444   0.202   3.773   8.515  1.1710  2.7424  0.8009
 3995SOL    HW223445   0.345   3.778   8.482 -0.3711  0.1674  0.9408
 3996SOL     OW23446   4.116   2.587   4.711  0.5151 -0.5951 -0.2015
 3996SOL    HW123447   4.164   2.654   4.663  0.3078  0.5697  1.2007
 3996SOL    HW223448   4.178   2.567   4.781 -0.3406 -2.4944  0.0135
 3997SOL     OW23449   1.342   3.224  14.817  0.0832 -0.2095 -0.6401
 3997SOL    HW123450   1.248   3.240  14.809  0.1762  0.4416 -0.4628
 3997SOL    HW223451   1.349   3.188  14.729  0.7018  1.3161 -1.2082
 3998SOL     OW23452   2.753   4.417  12.040  0.4174  0.5227 -0.1730
 3998SOL    HW123453   2.834   4.449  12.000 -1.3243  0.9451 -3.3418
 3998SOL    HW223454   2.689   4.471  11.995 -2.1456 -1.8629  0.5974
 3999SOL     OW23455   0.514   4.677   8.651 -0.2790 -0.2255  0.1698
 3999SOL    HW123456   0.532   4.718   8.735  3.5073 -3.4562  0.9059
 3999SOL    HW223457   0.603   4.675   8.615 -1.1197 -0.8252 -1.8859
 4000SOL     OW23458   2.267   0.792   8.689 -0.5578  0.0648  0.0323
 4000SOL    HW123459   2.305   0.877   8.666 -0.9883  0.3154  0.2553
 4000SOL    HW223460   2.344   0.746   8.722 -1.0999 -0.5050  0.5011
 4001SOL     OW23461   2.980   4.675   5.880  0.0785  0.1117  0.4074
 4001SOL    HW123462   3.010   4.588   5.905  1.5944  1.0019  1.7011
 4001SOL    HW223463   3.013   0.009   5.947  1.7853 -1.7968  1.2441
 4002SOL     OW23464   3.313   1.172   5.139  0.1577  0.5494 -0.3715
 4002SOL    HW123465   3.303   1.125   5.056 -2.9392  0.6747 -0.0877
 4002SOL    HW223466   3.311   1.102   5.204 -0.9659  0.7610 -0.1822
 4003SOL     OW23467   3.537   4.020   8.022  0.1891  0.4536  0.2626
 4003SOL    HW123468   3.445   3.996   8.021 -0.3104  2.5173 -1.3694
 4003SOL    HW223469   3.579   3.947   7.976  1.3583  0.0315  1.9737
 4004SOL     OW23470   3.679   1.973  12.969  0.1440 -0.3336 -0.0622
 4004SOL    HW123471   3.604   1.938  13.017  0.4838  0.8422  1.3359
 4004SOL    HW223472   3.693   2.061  13.005  1.9388 -0.5140 -0.3055
 4005SOL     OW23473   2.884   1.074   8.489 -0.4029 -0.4943 -0.0176
 4005SOL    HW123474   2.906   0.981   8.494 -1.4387 -0.8420 -1.9230
 4005SOL    HW223475   2.925   1.102   8.572 -2.0725 -0.6203  0.8350
 4006SOL     OW23476   1.774   3.251  15.307  0.3361  0.3641  0.1873
 4006SOL    HW123477   1.771   3.338  15.348 -1.5904  0.2793  0.2044
 4006SOL    HW223478   1.827   3.265  15.228  1.6241  1.5134  1.2430
 4007SOL     OW23479   1.597   1.778   1.434 -0.5370  0.8762  0.0682
 4007SOL    HW123480   1.629   1.817   1.516  2.4206 -0.6073 -0.3981
 4007SOL    HW223481   1.674   1.723   1.421 -0.4954  1.8430 -3.6314
 4008SOL     OW23482   0.372   3.945   7.982  0.2486 -0.2516 -0.5245
 4008SOL    HW123483   0.378   3.890   8.060  2.0101  0.9603  0.1922
 4008SOL    HW223484   0.379   4.036   8.010  1.4820 -0.3631 -0.5086
 4009SOL     OW23485   0.585   3.169   4.341 -0.6906 -0.3340 -0.5160
 4009SOL    HW123486   0.579   3.218   4.260 -0.9166 -3.2353 -2.2729
 4009SOL    HW223487   0.616   3.086   4.303 -1.5363 -1.6963  1.7970
 4010SOL     OW23488   2.660   3.641   7.829  0.0482  0.3021 -0.1905
 4010SOL    HW123489   2.753   3.666   7.825 -0.3859  2.1824  1.2509
 4010SOL    HW223490   2.642   3.649   7.735  0.3103 -1.1776 -0.3637
 4011SOL     OW23491   2.733   3.717   2.658 -0.4603  0.3799  0.1775
 4011SOL    HW123492   2.738   3.664   2.579  0.6225  0.5081  0.1572
 4011SOL    HW223493   2.644   3.696   2.685 -1.0105  0.2560 -1.7489
 4012SOL     OW23494   0.650   4.091   1.879  0.5789  0.1962  0.5365
 4012SOL    HW123495   0.601   4.144   1.816  2.1245  1.2449  0.2247
 4012SOL    HW223496   0.583   4.045   1.930 -1.0344  1.9970  0.0780
 4013SOL     OW23497   4.534   0.124  11.989 -0.4221 -0.4680 -0.2403
 4013SOL    HW123498   4.595   0.192  12.019  1.3162 -1.2716 -2.0054
 4013SOL    HW223499   4.596   0.059  11.957  1.4055 -0.1300  2.5887
 4014SOL     OW23500   1.062   2.665   3.681  0.1677  0.2718 -0.0542
 4014SOL    HW123501   1.034   2.747   3.722  0.1873  1.1689 -1.8166
 4014SOL    HW223502   1.112   2.623   3.751 -1.5916 -2.3488 -0.4065
 4015SOL     OW23503   3.272   0.423   4.561 -0.4962 -0.0682 -0.1209
 4015SOL    HW123504   3.297   0.390   4.475  0.3510 -1.5874  0.7020
 4015SOL    HW223505   3.352   0.410   4.612 -0.1128 -1.1448 -0.9948
 4016SOL     OW23506   3.419   4.137   6.098  0.5723  0.0144  0.3105
 4016SOL    HW123507   3.390   4.228   6.096  1.1624  0.2084  0.3125
 4016SOL    HW223508   3.508   4.140   6.135 -0.0187 -2.5256  1.9100
 4017SOL     OW23509   2.550   4.619  14.958  0.1940 -0.2016  0.6932
 4017SOL    HW123510   2.630   4.624  14.906  1.1955 -0.7834  2.1738
 4017SOL    HW223511   2.556   4.578  15.044  0.3384  0.5732  1.0467
 4018SOL     OW23512   2.896   2.771  17.068  0.0049  0.0539  0.9257
 4018SOL    HW123513   2.920   2.811  16.984  0.7286 -0.9773  0.6386
 4018SOL    HW223514   2.801   2.784  17.067 -0.2655 -1.9196  1.3450
 4019SOL     OW23515   2.800   0.205   1.776 -0.4546  1.1243  0.8265
 4019SOL    HW123516   2.760   0.292   1.775 -4.1361 -0.5736 -1.4823
 4019SOL    HW223517   2.809   0.190   1.682 -2.1713  0.9878  0.6810
 4020SOL     OW23518   4.389   2.686   3.595  0.1129 -0.0131  0.0628
 4020SOL    HW123519   4.448   2.747   3.550  0.3988 -0.5155 -0.2441
 4020SOL    HW223520   4.349   2.649   3.516  0.0479  0.6947 -0.2385
 4021SOL     OW23521   1.683   1.998   2.889  0.0843 -0.9223  0.1487
 4021SOL    HW123522   1.777   1.994   2.871 -0.1261 -3.0161 -0.4558
 4021SOL    HW223523   1.674   1.903   2.895 -1.9621 -0.7417  0.0557
 4022SOL     OW23524   0.274   3.887   6.853 -0.2708  0.1561  0.4380
 4022SOL    HW123525   0.272   3.983   6.852 -0.0160  0.1630  1.0883
 4022SOL    HW223526   0.301   3.859   6.765 -0.4860  0.9486  0.1175
 4023SOL     OW23527   2.282   1.753  13.810  0.9144 -0.2386 -0.0755
 4023SOL    HW123528   2.272   1.699  13.888 -0.9670 -2.0726 -1.6173
 4023SOL    HW223529   2.217   1.818  13.833  0.9638  0.3513 -1.6129
 4024SOL     OW23530   0.773   1.522   9.627 -0.1265 -0.2387  0.0455
 4024SOL    HW123531   0.716   1.595   9.605 -1.5684 -1.8887 -1.6157
 4024SOL    HW223532   0.713   1.455   9.660  1.7892 -1.9203  0.1036
 4025SOL     OW23533   2.393   0.660  12.952  0.1973  0.3107  0.3189
 4025SOL    HW123534   2.411   0.573  12.915  1.4515  0.2820  1.0092
 4025SOL    HW223535   2.301   0.667  12.925 -0.0402 -1.0471  0.7469
 4026SOL     OW23536   4.234   3.688   1.427  0.6739 -0.5754 -0.5884
 4026SOL    HW123537   4.268   3.746   1.359 -0.2135  0.9304  0.2715
 4026SOL    HW223538   4.290   3.610   1.431  0.0337 -1.0470 -0.7686
 4027SOL     OW23539   1.698   1.862   7.290  0.1251 -0.0872  0.2761
 4027SOL    HW123540   1.709   1.829   7.380 -0.4552 -1.4324 -0.1451
 4027SOL    HW223541   1.734   1.787   7.242 -1.2965  0.0777 -1.0320
 4028SOL     OW23542   1.431   3.635   7.041 -0.0068 -0.1551  0.0764
 4028SOL    HW123543   1.490   3.675   7.105 -1.1945 -1.4244  1.9701
 4028SOL    HW223544   1.496   3.583   6.993  0.0971  0.2353 -0.2002
 4029SOL     OW23545   1.509   0.976   4.464  0.3059 -0.4503 -0.0651
 4029SOL    HW123546   1.527   0.982   4.558 -0.7486 -1.7159  0.2391
 4029SOL    HW223547   1.601   0.985   4.442 -0.1913  3.4362 -0.4528
 4030SOL     OW23548   1.725   3.796   8.106  0.0887  0.1387  0.6363
 4030SOL    HW123549   1.780   3.872   8.127 -2.1370  1.6105  1.1413
 4030SOL    HW223550   1.778   3.727   8.144  0.9984  0.9721  0.8812
 4031SOL     OW23551   3.697   0.389   8.322  0.2120 -0.2033  0.8645
 4031SOL    HW123552   3.752   0.450   8.272  0.8568 -1.2837  0.2641
 4031SOL    HW223553   3.619   0.441   8.342 -0.2964 -0.4908 -0.3283
 4032SOL     OW23554   1.814   3.971   2.062  0.2373  0.2426  0.6452
 4032SOL    HW123555   1.900   3.933   2.045 -0.7091 -1.5587 -0.0903
 4032SOL    HW223556   1.833   4.062   2.039  0.8942  0.2340  1.1725
 4033SOL     OW23557   1.012   1.392   5.892 -0.4229  0.1080 -0.0682
 4033SOL    HW123558   1.001   1.387   5.797 -0.5092 -0.8424 -0.0163
 4033SOL    HW223559   0.990   1.485   5.897  1.1051  0.4378  0.3689
 4034SOL     OW23560   2.006   1.008  12.076  0.2165 -0.0117 -0.8039
 4034SOL    HW123561   1.961   1.087  12.107 -1.1439 -1.0541 -0.1202
 4034SOL    HW223562   1.970   0.999  11.988 -0.5683  0.5823 -0.5562
 4035SOL     OW23563   1.344   2.507   6.050  0.8424  0.0090  0.2397
 4035SOL    HW123564   1.293   2.556   5.985  0.1960 -1.4721 -0.3609
 4035SOL    HW223565   1.409   2.575   6.069  0.4146  0.3505  0.4920
 4036SOL     OW23566   3.106   3.910  16.146 -0.5381  0.0071 -0.2793
 4036SOL    HW123567   3.038   3.927  16.081 -0.3836 -2.3160 -1.0604
 4036SOL    HW223568   3.147   3.834  16.104 -0.3067  0.8383 -1.5312
 4037SOL     OW23569   4.196   3.362   1.554 -0.0509 -0.0445 -0.4968
 4037SOL    HW123570   4.229   3.444   1.590 -2.0855 -0.1794  1.6975
 4037SOL    HW223571   4.102   3.377   1.556 -0.0243  0.1306 -0.5502
 4038SOL     OW23572   3.182   1.899   6.668  0.1610 -0.2238 -0.0211
 4038SOL    HW123573   3.216   1.975   6.714 -1.1747  1.3432 -1.6133
 4038SOL    HW223574   3.259   1.844   6.650  0.0494 -0.1071 -0.8840
 4039SOL     OW23575   2.498   2.560   3.179 -0.5470 -0.1313  0.5705
 4039SOL    HW123576   2.449   2.516   3.110  0.6388 -2.5510  1.2675
 4039SOL    HW223577   2.533   2.639   3.138 -0.0861 -0.8338 -0.3795
 4040SOL     OW23578   2.948   3.178   4.195 -0.0151  0.4782 -0.6986
 4040SOL    HW123579   3.006   3.129   4.255  0.9442  0.0645 -1.9738
 4040SOL    HW223580   3.008   3.248   4.171 -0.2859  1.3428  1.1318
 4041SOL     OW23581   1.239   1.157   1.405  0.0204  0.9508  0.1990
 4041SOL    HW123582   1.237   1.216   1.480  0.0806  1.2873 -0.0635
 4041SOL    HW223583   1.301   1.204   1.349  1.1057  0.6467  1.1787
 4042SOL     OW23584   3.918   3.819  16.036 -0.2248  0.3234  0.5229
 4042SOL    HW123585   3.926   3.733  15.996  1.8162  0.6553  0.1883
 4042SOL    HW223586   4.010   3.848  16.038  0.0588 -0.4503 -1.3401
 4043SOL     OW23587   0.325   0.291   3.826  0.4759 -0.4857 -0.3937
 4043SOL    HW123588   0.276   0.212   3.844 -1.0869  0.1864 -1.6828
 4043SOL    HW223589   0.410   0.253   3.803  1.2992  0.2977  1.3876
 4044SOL     OW23590   1.338   4.254   4.736 -0.3307  0.0466  0.2743
 4044SOL    HW123591   1.338   4.177   4.679  1.5449  0.9035 -0.8741
 4044SOL    HW223592   1.407   4.222   4.794 -1.6020 -0.7175  1.3705
 4045SOL     OW23593   2.501   4.600   3.069  0.2831  0.0687 -0.1758
 4045SOL    HW123594   2.419   4.563   3.035  1.1565 -0.8559 -1.2748
 4045SOL    HW223595   2.464   4.654   3.139 -0.1101 -1.0967  0.5223
 4046SOL     OW23596   4.476   3.846   5.757 -0.5647 -0.1626  0.2910
 4046SOL    HW123597   4.512   3.866   5.671  1.4913 -1.6400  0.7859
 4046SOL    HW223598   4.554   3.828   5.811 -0.0980  0.7975 -0.0742
 4047SOL     OW23599   0.336   0.451  10.050  0.2077 -0.3045 -0.4720
 4047SOL    HW123600   0.361   0.359  10.039  0.1625 -0.6805  2.3716
 4047SOL    HW223601   0.414   0.487  10.091  1.0442  0.3073 -2.6188
 4048SOL     OW23602   2.667   4.038   5.634 -0.1023 -0.0865  0.4529
 4048SOL    HW123603   2.692   4.094   5.707  2.4543 -0.9772  0.2818
 4048SOL    HW223604   2.680   4.088   5.554  1.2069 -0.4952  0.4032
 4049SOL     OW23605   4.240   2.610   7.303 -0.2691  0.3336  0.0573
 4049SOL    HW123606   4.261   2.612   7.396  0.6432 -1.0431 -0.1197
 4049SOL    HW223607   4.316   2.564   7.268  0.0406  0.1936  0.9252
 4050SOL     OW23608   1.212   3.562   2.050  0.1808 -0.0872  0.9290
 4050SOL    HW123609   1.129   3.517   2.038  1.9827 -3.3161  0.6969
 4050SOL    HW223610   1.275   3.511   1.999 -0.3404  0.3888 -0.1717
 4051SOL     OW23611   3.449   2.359  14.629  0.1421 -0.3258  0.3035
 4051SOL    HW123612   3.517   2.411  14.587  0.6708 -1.0255  0.2951
 4051SOL    HW223613   3.370   2.388  14.582 -1.7756 -1.7623  2.5956
 4052SOL     OW23614   0.483   3.960   7.042 -0.2581 -0.2387  0.2389
 4052SOL    HW123615   0.397   3.933   7.010 -1.4969  1.3226  2.2528
 4052SOL    HW223616   0.451   4.022   7.107 -2.5652  0.8305 -1.9317
 4053SOL     OW23617   4.004   2.640  12.620 -0.2118  0.0471 -0.6035
 4053SOL    HW123618   4.053   2.710  12.578 -0.5620  0.6240 -0.0537
 4053SOL    HW223619   4.014   2.577  12.549  0.6577  0.3963 -0.7897
 4054SOL     OW23620   1.680   1.522   4.433  0.1254 -0.7199  0.1642
 4054SOL    HW123621   1.651   1.502   4.522 -1.4191  0.7317 -0.0280
 4054SOL    HW223622   1.726   1.603   4.457  0.6572 -1.8111  2.9104
 4055SOL     OW23623   2.092   1.628   3.377 -0.0067  0.0213 -0.4839
 4055SOL    HW123624   2.126   1.557   3.323 -1.0643 -0.4546 -0.5213
 4055SOL    HW223625   2.122   1.595   3.462  1.5218  0.6203 -0.7928
 4056SOL     OW23626   3.728   4.038   3.110  0.4569 -0.1229 -0.4992
 4056SOL    HW123627   3.757   3.947   3.105 -0.1451 -0.4227  1.4382
 4056SOL    HW223628   3.644   4.031   3.065  0.5367 -0.5939 -0.5688
 4057SOL     OW23629   4.294   2.172   2.900 -0.2365 -0.3706 -0.2344
 4057SOL    HW123630   4.319   2.081   2.910 -0.4587 -0.7530 -3.0529
 4057SOL    HW223631   4.289   2.170   2.804 -0.1014  4.3369 -0.3789
 4058SOL     OW23632   4.709   2.098   0.375  0.4015  0.0911  0.4056
 4058SOL    HW123633   4.669   2.176   0.338 -0.1360 -0.7768 -0.8487
 4058SOL    HW223634   4.635   2.038   0.370 -0.5198  1.2127  0.7815
 4059SOL     OW23635   4.646   1.406  16.617 -0.4462 -0.2336 -0.1148
 4059SOL    HW123636   4.595   1.479  16.653 -0.2104 -0.8302  1.4424
 4059SOL    HW223637   4.688   1.378  16.698 -2.5302 -0.1071  1.0193
 4060SOL     OW23638   1.744   0.558  12.100  0.3774  0.4481 -0.6374
 4060SOL    HW123639   1.748   0.499  12.026 -0.1229  0.0928 -0.3797
 4060SOL    HW223640   1.838   0.569  12.113  0.0500  0.1650  1.9817
 4061SOL     OW23641   3.123   1.997   9.893 -0.6201 -0.6101 -0.4134
 4061SOL    HW123642   3.043   1.945   9.899 -0.7114 -0.6535 -2.0429
 4061SOL    HW223643   3.177   1.938   9.840 -0.0511 -1.1326  0.7445
 4062SOL     OW23644   3.280   2.958  11.751 -0.3800 -0.5371  0.8071
 4062SOL    HW123645   3.301   2.950  11.658 -0.5874  0.5592  0.6694
 4062SOL    HW223646   3.185   2.959  11.740 -0.1535 -2.3173 -1.1384
 4063SOL     OW23647   2.379   2.263   0.210  0.0105  0.5537  0.6719
 4063SOL    HW123648   2.334   2.195   0.160  1.6753  0.3967 -0.6413
 4063SOL    HW223649   2.410   2.225   0.291 -0.2277 -0.2421  0.3848
 4064SOL     OW23650   4.149   0.523  16.676 -0.1255  0.9370 -0.1898
 4064SOL    HW123651   4.208   0.448  16.661  0.3072  1.2088  0.1650
 4064SOL    HW223652   4.194   0.547  16.757 -0.2075  1.7867 -0.3966
 4065SOL     OW23653   2.544   2.106   6.316  0.0022  0.2079 -0.6068
 4065SOL    HW123654   2.584   2.161   6.383 -0.2873 -1.7838  1.1763
 4065SOL    HW223655   2.521   2.168   6.246 -1.2481 -0.7493 -1.0435
 4066SOL     OW23656   4.061   2.223  12.688  0.2258  0.1426 -0.0914
 4066SOL    HW123657   4.016   2.256  12.765 -0.5442  0.8776 -0.8558
 4066SOL    HW223658   4.015   2.140  12.672 -0.4535  0.5331 -0.1592
 4067SOL     OW23659   3.538   1.641  11.627 -0.4652 -0.6039 -0.1116
 4067SOL    HW123660   3.486   1.584  11.569 -1.8490  0.2389  0.3099
 4067SOL    HW223661   3.491   1.633  11.710  2.0732  0.9964  1.4556
 4068SOL     OW23662   2.334   1.770   6.679 -0.4136 -0.3620  0.1651
 4068SOL    HW123663   2.350   1.853   6.723  0.2395 -0.8826  0.9010
 4068SOL    HW223664   2.243   1.755   6.701 -1.1634  0.1911 -2.4935
 4069SOL     OW23665   0.289   2.642  16.152 -0.2715 -0.0371 -0.1504
 4069SOL    HW123666   0.342   2.702  16.100 -0.9083  1.1573  0.5609
 4069SOL    HW223667   0.289   2.569  16.090 -0.5719 -1.5484  1.6300
 4070SOL     OW23668   1.840   1.346   4.827 -0.6033 -0.7064  0.0222
 4070SOL    HW123669   1.749   1.331   4.854 -1.2381 -0.3261 -1.8967
 4070SOL    HW223670   1.822   1.343   4.733 -1.4121  1.8785  0.1052
 4071SOL     OW23671   0.561   1.266  15.641  0.2226  0.0834  0.2597
 4071SOL    HW123672   0.603   1.191  15.599  2.4711  1.1925  0.5441
 4071SOL    HW223673   0.472   1.236  15.658  0.4090 -0.2593  0.6106
 4072SOL     OW23674   4.114   3.792   5.168  0.1921 -0.2751  0.4806
 4072SOL    HW123675   4.122   3.762   5.259 -0.8741 -1.0795  0.3021
 4072SOL    HW223676   4.054   3.864   5.190  0.9209  0.8353 -1.1412
 4073SOL     OW23677   0.527   2.930  11.479  0.6602 -0.4567  0.5484
 4073SOL    HW123678   0.494   2.891  11.560  0.5804  2.2499  1.8423
 4073SOL    HW223679   0.575   3.004  11.518 -0.2990  0.0546  0.7554
 4074SOL     OW23680   2.741   1.079   3.992 -0.0899  0.9586  0.2517
 4074SOL    HW123681   2.765   0.989   3.970 -2.2592 -0.2613  2.8734
 4074SOL    HW223682   2.646   1.087   3.989  0.0220  1.2501 -3.0646
 4075SOL     OW23683   3.249   1.537  16.649  0.4258 -0.1210  0.2104
 4075SOL    HW123684   3.194   1.535  16.727  0.9455  0.8311  0.5944
 4075SOL    HW223685   3.282   1.627  16.654  0.2859 -0.1703  1.7995
 4076SOL     OW23686   1.272   1.876   2.927  0.1817 -0.7008  0.2980
 4076SOL    HW123687   1.196   1.834   2.884 -0.6110  0.2696  0.7599
 4076SOL    HW223688   1.232   1.933   2.992 -0.6575 -0.7949 -0.1282
 4077SOL     OW23689   1.557   2.365   1.006  0.1368 -0.1797  0.2426
 4077SOL    HW123690   1.562   2.278   0.965  1.8132  0.6742 -1.3323
 4077SOL    HW223691   1.547   2.331   1.095  1.6781 -0.5455  0.2813
 4078SOL     OW23692   3.919   4.458   7.090  0.2887  0.6872  0.6297
 4078SOL    HW123693   3.827   4.474   7.111 -0.2181 -1.0216 -0.2645
 4078SOL    HW223694   3.929   4.366   7.115 -2.2667  0.7451  1.9159
 4079SOL     OW23695   0.223   3.482   3.239 -0.0154  0.1712  0.4646
 4079SOL    HW123696   0.158   3.470   3.170 -0.4343  0.0760  0.8769
 4079SOL    HW223697   0.170   3.532   3.302  0.3783  0.1240  0.8336
 4080SOL     OW23698   0.622   2.751   5.368 -0.3886 -0.0059 -0.5130
 4080SOL    HW123699   0.613   2.678   5.307 -1.4708 -0.4353  0.1412
 4080SOL    HW223700   0.604   2.833   5.321  1.3254 -0.3692 -1.7729
 4081SOL     OW23701   3.624   1.936  10.258  0.2603 -0.1431  0.3393
 4081SOL    HW123702   3.657   1.905  10.174 -0.3954 -0.2138  0.1102
 4081SOL    HW223703   3.535   1.901  10.261 -0.1623  0.8569 -0.4993
 4082SOL     OW23704   0.107   2.422   2.539  0.2385 -0.9743 -0.0034
 4082SOL    HW123705   0.102   2.462   2.452  3.2045  0.9538  0.7270
 4082SOL    HW223706   0.198   2.393   2.535  0.3483 -0.5829 -0.4249
 4083SOL     OW23707   3.713   1.787   4.458 -0.6405  0.2903  0.8778
 4083SOL    HW123708   3.704   1.814   4.549  1.7532 -0.1229  1.2467
 4083SOL    HW223709   3.628   1.789   4.413  0.8302  0.2338 -1.9241
 4084SOL     OW23710   3.922   1.094  17.491  0.2860  0.1431 -0.1482
 4084SOL    HW123711   3.956   1.151  17.559 -1.5159 -0.3358  1.1683
 4084SOL    HW223712   3.919   1.151  17.414  0.2289  2.1811  1.3938
 4085SOL     OW23713   2.984   3.091  11.307 -0.4250 -0.0374 -0.3643
 4085SOL    HW123714   2.936   3.128  11.381 -0.1896 -1.1942  0.3650
 4085SOL    HW223715   2.918   3.122  11.245 -0.5485 -1.0514 -0.7495
 4086SOL     OW23716   4.323   3.765   4.968  0.0192 -0.2395 -0.0855
 4086SOL    HW123717   4.268   3.777   5.045 -1.8202  1.4031 -1.6589
 4086SOL    HW223718   4.369   3.683   4.989 -0.1330 -0.6014 -1.1775
 4087SOL     OW23719   1.689   1.181  11.140 -0.1860  0.0376  0.6555
 4087SOL    HW123720   1.636   1.251  11.179 -0.5046  0.5010 -0.6397
 4087SOL    HW223721   1.773   1.223  11.162  0.4351 -0.8721  0.0020
 4088SOL     OW23722   3.328   3.384  17.465 -0.6153 -0.4407 -0.4707
 4088SOL    HW123723   3.264   3.321  17.498 -0.5435 -0.8027 -1.0213
 4088SOL    HW223724   3.314   3.460  17.520  0.5639 -0.8494  0.3825
 4089SOL     OW23725   0.783   2.127   1.941 -0.3291  0.1596  0.4682
 4089SOL    HW123726   0.828   2.212   1.945  1.5861 -0.8551  0.7009
 4089SOL    HW223727   0.695   2.144   1.908 -0.0652  1.8602  0.6002
 4090SOL     OW23728   2.183   1.749   4.224 -0.1544  0.2791 -0.1549
 4090SOL    HW123729   2.158   1.660   4.197  2.1549 -0.4319  0.0733
 4090SOL    HW223730   2.135   1.805   4.163  2.1638  0.2610 -1.9513
 4091SOL     OW23731   0.138   3.594   4.065  0.1792 -0.0434 -0.2124
 4091SOL    HW123732   0.082   3.671   4.057  0.0993 -0.1372 -0.5650
 4091SOL    HW223733   0.083   3.538   4.120  0.4797 -0.0615  0.0665
 4092SOL     OW23734   2.186   3.715   7.219  0.5668 -0.5660  0.1860
 4092SOL    HW123735   2.229   3.635   7.188  1.3323  0.7532 -2.1357
 4092SOL    HW223736   2.104   3.681   7.256  1.1695 -1.3482  0.8183
 4093SOL     OW23737   4.664   0.028   7.301 -0.4286 -0.2992 -0.1113
 4093SOL    HW123738   4.639   0.043   7.392  0.7340  0.3840  0.1073
 4093SOL    HW223739   4.667   0.113   7.256 -1.7730 -0.0062  0.3352
 4094SOL     OW23740   2.397   4.174   3.311  0.2457  1.0763 -0.3749
 4094SOL    HW123741   2.310   4.159   3.347  0.4034 -0.6553 -0.7404
 4094SOL    HW223742   2.407   4.269   3.318  0.7793  0.8740  1.7009
 4095SOL     OW23743   2.709   3.306   7.621  0.4605  0.5745 -0.2625
 4095SOL    HW123744   2.701   3.212   7.638 -1.5229  0.6006 -0.9655
 4095SOL    HW223745   2.622   3.328   7.655  1.0914  2.9650 -0.1811
 4096SOL     OW23746   0.738   3.040   3.382  0.1946 -0.0671  0.3013
 4096SOL    HW123747   0.769   2.964   3.431 -1.4775 -1.2163 -0.4037
 4096SOL    HW223748   0.794   3.032   3.304 -0.2471 -0.8230  0.0560
 4097SOL     OW23749   0.486   2.519  11.026 -0.0776  0.0431 -0.3867
 4097SOL    HW123750   0.482   2.429  10.992  3.2988  0.2585 -1.3659
 4097SOL    HW223751   0.400   2.554  11.005 -0.6405 -1.7524 -1.1227
 4098SOL     OW23752   0.323   0.844   8.372  0.1184 -0.1790 -0.3303
 4098SOL    HW123753   0.288   0.773   8.319  0.5280 -0.8355  0.2879
 4098SOL    HW223754   0.246   0.901   8.375 -0.0696 -0.4946  1.2514
 4099SOL     OW23755   2.871   0.139  12.677  0.6340  0.1379  0.6854
 4099SOL    HW123756   2.921   0.097  12.607  0.5921  1.9404 -0.4116
 4099SOL    HW223757   2.853   0.228  12.647 -0.2440 -0.6560 -1.1015
 4100SOL     OW23758   0.135   4.016   0.759  0.0945  0.1662  0.1719
 4100SOL    HW123759   0.195   4.008   0.684 -0.3984  2.2960 -0.4399
 4100SOL    HW223760   0.058   4.053   0.716 -0.2104 -1.8220 -1.0153
 4101SOL     OW23761   1.189   4.628   6.362 -0.2545  0.3349 -0.2563
 4101SOL    HW123762   1.116   4.565   6.361 -1.4307  1.7121 -0.2458
 4101SOL    HW223763   1.241   4.579   6.426  1.4185  2.4288 -0.0167
 4102SOL     OW23764   3.446   4.498   4.526  0.7156  0.3635  0.0291
 4102SOL    HW123765   3.456   4.518   4.433  2.0045  1.2551  0.3542
 4102SOL    HW223766   3.541   4.509   4.540  0.8041 -1.5508  0.8983
 4103SOL     OW23767   0.673   2.930   1.962  0.4963 -0.1638  0.2187
 4103SOL    HW123768   0.608   2.949   2.029 -0.2606  1.6092 -1.0271
 4103SOL    HW223769   0.635   2.968   1.883  1.2540  0.7664  0.3026
 4104SOL     OW23770   1.909   0.737   4.340 -0.4665  0.0099 -0.2609
 4104SOL    HW123771   1.983   0.698   4.384 -0.5485 -1.4633 -1.4243
 4104SOL    HW223772   1.835   0.711   4.395  1.2957  2.8333  3.4065
 4105SOL     OW23773   0.874   3.481   4.582 -0.1916  0.7134 -0.0227
 4105SOL    HW123774   0.814   3.417   4.621 -0.8289  1.8843  0.9073
 4105SOL    HW223775   0.828   3.494   4.499  0.1282  0.0163 -0.3094
 4106SOL     OW23776   3.576   3.789   2.766 -0.5594  0.5256 -0.0392
 4106SOL    HW123777   3.670   3.805   2.763 -0.9475  2.5777 -1.6708
 4106SOL    HW223778   3.536   3.876   2.758 -0.4143  0.5113 -0.9243
 4107SOL     OW23779   1.709   1.408   3.202  0.0263 -0.1779  0.4549
 4107SOL    HW123780   1.725   1.389   3.294 -0.4262 -0.3648  0.4932
 4107SOL    HW223781   1.702   1.321   3.163 -1.0803  0.2845 -0.3787
 4108SOL     OW23782   3.714   3.847   5.461  0.2828 -0.3002  0.4529
 4108SOL    HW123783   3.671   3.770   5.498  0.1320 -0.2276  0.4288
 4108SOL    HW223784   3.683   3.910   5.526 -1.1026 -0.2660 -0.2530
 4109SOL     OW23785   0.051   1.227  10.881  0.2992 -0.3989 -0.1451
 4109SOL    HW123786   4.684   1.227  10.856 -0.4811  3.5806  2.7895
 4109SOL    HW223787   0.035   1.280  10.959  1.0182  0.0871 -0.3294
 4110SOL     OW23788   2.404   2.291   5.697 -0.8281 -0.0474  0.3309
 4110SOL    HW123789   2.447   2.360   5.746 -2.1409  0.1097  1.2799
 4110SOL    HW223790   2.467   2.267   5.630  0.4094 -2.9278  2.5143
 4111SOL     OW23791   4.534   2.302   1.721 -0.4032  0.0719  0.2001
 4111SOL    HW123792   4.513   2.376   1.664 -0.1313 -0.6369 -0.8032
 4111SOL    HW223793   4.576   2.237   1.666 -0.9197  0.5313 -0.7302
 4112SOL     OW23794   1.917   3.735  15.174  0.0865  0.9607 -0.1869
 4112SOL    HW123795   1.985   3.785  15.129  0.9908 -0.6456 -0.6190
 4112SOL    HW223796   1.978   3.698  15.237  1.0173  3.1987  0.2420
 4113SOL     OW23797   0.319   0.718   1.889  0.2388  0.3547 -0.1280
 4113SOL    HW123798   0.325   0.628   1.920 -1.3898  0.6710  1.1140
 4113SOL    HW223799   0.339   0.709   1.796  1.4666 -1.5080  0.3137
 4114SOL     OW23800   2.539   4.260   7.852  0.4384 -0.4442 -0.5952
 4114SOL    HW123801   2.498   4.178   7.825 -0.3278  0.7092 -2.9481
 4114SOL    HW223802   2.632   4.234   7.856  0.7543  0.7990  0.1786
 4115SOL     OW23803   2.861   0.912   7.633  0.5829  0.3056  0.1220
 4115SOL    HW123804   2.949   0.886   7.607  0.2547 -0.9699  0.2915
 4115SOL    HW223805   2.866   0.991   7.688  0.2693  0.8938 -0.7027
 4116SOL     OW23806   0.643   2.550   3.655  0.6773 -0.1638 -0.1985
 4116SOL    HW123807   0.600   2.528   3.737  0.0168  0.7272 -0.3006
 4116SOL    HW223808   0.655   2.645   3.667 -1.2586  0.0652 -0.0717
 4117SOL     OW23809   1.870   0.098   4.369  0.3556 -0.6087 -0.1688
 4117SOL    HW123810   1.859   0.090   4.274  0.0111 -0.8878 -0.1046
 4117SOL    HW223811   1.811   0.173   4.376 -0.3676 -1.2950  1.1548
 4118SOL     OW23812   1.079   0.376   6.296 -0.2986  0.1370 -0.1419
 4118SOL    HW123813   1.009   0.425   6.340  0.6708 -0.8118  2.4546
 4118SOL    HW223814   1.089   0.311   6.366 -0.8304  0.2132  0.0062
 4119SOL     OW23815   3.954   3.751   5.424 -0.3349  0.2562 -0.2353
 4119SOL    HW123816   3.939   3.658   5.408 -1.5431 -0.2420  3.9266
 4119SOL    HW223817   3.862   3.773   5.417 -0.9081 -1.9720  0.1916
 4120SOL     OW23818   4.238   0.536   8.667  0.1737 -0.1132 -0.3479
 4120SOL    HW123819   4.180   0.608   8.642 -0.5404 -0.3284  0.7022
 4120SOL    HW223820   4.183   0.460   8.646 -1.6000  1.6152 -1.8810
 4121SOL     OW23821   0.181   3.217  15.580  1.1679  0.3442 -0.0531
 4121SOL    HW123822   0.205   3.306  15.557 -1.9194  1.4742  1.0661
 4121SOL    HW223823   0.253   3.181  15.632  0.2317 -1.0637  0.2749
 4122SOL     OW23824   1.690   4.488   2.102 -0.2353  0.0474 -0.0499
 4122SOL    HW123825   1.687   4.582   2.119 -0.7081 -0.1598  1.0172
 4122SOL    HW223826   1.660   4.451   2.185  0.0476 -0.0217  0.0192
 4123SOL     OW23827   1.305   4.521   0.727 -0.1121  0.3100  0.1878
 4123SOL    HW123828   1.314   4.548   0.635  1.6675 -0.9890 -0.0136
 4123SOL    HW223829   1.256   4.442   0.708  0.9397 -0.8734  2.5066
 4124SOL     OW23830   1.101   4.082   1.692 -0.5439  0.1816 -0.8516
 4124SOL    HW123831   1.046   4.148   1.734 -1.2890 -1.1288  0.2403
 4124SOL    HW223832   1.155   4.050   1.764 -3.1319  0.4060  1.2143
 4125SOL     OW23833   2.501   4.504  12.995 -0.6024  0.7488  0.4824
 4125SOL    HW123834   2.416   4.462  12.989  0.0986 -0.3287 -1.9020
 4125SOL    HW223835   2.524   4.492  13.087  1.1607  1.8685  0.2011
 4126SOL     OW23836   3.864   3.258   1.729  0.4520 -0.1934 -0.4456
 4126SOL    HW123837   3.933   3.278   1.792  0.0509  0.7302 -0.3009
 4126SOL    HW223838   3.806   3.206   1.784 -0.7226 -1.7407 -3.1155
 4127SOL     OW23839   4.564   2.559  17.474  0.3049 -0.1427 -0.0096
 4127SOL    HW123840   4.579   2.654  17.478 -4.5722  0.6030  0.8286
 4127SOL    HW223841   4.612   2.530  17.552  0.7626 -0.3184 -0.3587
 4128SOL     OW23842   3.172   1.079  17.003 -0.3863  0.1360  0.3677
 4128SOL    HW123843   3.166   1.095  17.097 -0.3588  1.2643  0.1789
 4128SOL    HW223844   3.170   0.983  17.010 -0.0244  0.2065  1.4045
 4129SOL     OW23845   1.610   4.019  17.072  0.2289 -0.5586 -0.4952
 4129SOL    HW123846   1.633   4.011  17.165  0.0201 -0.5315 -0.4413
 4129SOL    HW223847   1.682   3.969  17.034  1.6616 -0.0462  1.4944
 4130SOL     OW23848   0.478   4.125   3.905  0.3281 -0.5614 -0.7664
 4130SOL    HW123849   0.429   4.048   3.935 -0.3455  0.9076  1.9834
 4130SOL    HW223850   0.570   4.099   3.913 -0.1502 -1.9766  0.1089
 4131SOL     OW23851   3.949   3.806  15.684 -0.4855 -0.1159  0.0285
 4131SOL    HW123852   3.993   3.874  15.634 -0.3926  0.1986  0.5373
 4131SOL    HW223853   3.858   3.824  15.660  0.1601  1.7582 -1.0069
 4132SOL     OW23854   3.107   3.771  11.930  0.2393 -0.0299 -0.5698
 4132SOL    HW123855   3.141   3.794  12.017  1.2801 -2.4071 -0.3409
 4132SOL    HW223856   3.022   3.731  11.951 -0.2927  0.8614 -1.0246
 4133SOL     OW23857   1.356   4.073  16.944  0.5926  1.2318  0.2764
 4133SOL    HW123858   1.363   4.115  16.858  1.8300  1.2343  0.3885
 4133SOL    HW223859   1.446   4.072  16.975  0.5635  2.3089  0.4052
 4134SOL     OW23860   3.124   0.782   9.817  0.7914  0.0690  0.8182
 4134SOL    HW123861   3.039   0.760   9.779  0.8087 -0.7688  1.2591
 4134SOL    HW223862   3.133   0.710   9.879 -1.4183 -0.5484  0.4242
 4135SOL     OW23863   2.963   2.907   6.854  0.3946 -0.4301  0.2532
 4135SOL    HW123864   2.930   2.981   6.804  0.1878  0.2033  1.3283
 4135SOL    HW223865   2.880   2.874   6.889 -1.1808  2.4276 -0.8198
 4136SOL     OW23866   1.511   0.272   5.925  0.5502 -0.1330  0.1355
 4136SOL    HW123867   1.478   0.311   5.844 -1.2250 -1.8621  0.0487
 4136SOL    HW223868   1.434   0.268   5.982  0.7008 -0.4701  0.3151
 4137SOL     OW23869   2.127   1.293   5.763 -0.2447  0.1136  0.6408
 4137SOL    HW123870   2.168   1.279   5.848 -0.7943  1.5208  1.1293
 4137SOL    HW223871   2.155   1.211   5.721  1.1135  0.7256  0.3663
 4138SOL     OW23872   3.645   0.509  15.048  0.0828 -0.1663  0.2424
 4138SOL    HW123873   3.615   0.418  15.053  1.0696 -0.4263  1.3184
 4138SOL    HW223874   3.730   0.502  15.004 -0.1053  0.2252 -0.1841
 4139SOL     OW23875   1.856   4.195   8.509  0.5539 -0.6451 -0.3114
 4139SOL    HW123876   1.836   4.149   8.427  0.3403 -0.3459 -0.4269
 4139SOL    HW223877   1.906   4.268   8.473  0.9126 -1.3701 -1.3143
 4140SOL     OW23878   3.787   1.415   2.867 -0.0623  0.5033  0.2474
 4140SOL    HW123879   3.846   1.491   2.878  1.0877 -0.1325 -1.5334
 4140SOL    HW223880   3.782   1.386   2.958 -0.0386  0.8063  0.3473
 4141SOL     OW23881   0.352   1.201   4.451  0.3726 -0.4326 -0.1906
 4141SOL    HW123882   0.435   1.154   4.446  0.8333  0.3122  0.4906
 4141SOL    HW223883   0.284   1.139   4.478  2.4265 -1.9305  1.4388
 4142SOL     OW23884   2.852   1.354   8.014  0.9204  0.4601  0.2452
 4142SOL    HW123885   2.758   1.340   8.002  1.3420 -1.7646 -0.3612
 4142SOL    HW223886   2.853   1.344   8.110  2.5248  0.2208  0.1951
 4143SOL     OW23887   3.094   2.428   8.021  0.3334 -0.6691  0.5194
 4143SOL    HW123888   3.030   2.375   7.975  1.7956 -0.1110 -2.1308
 4143SOL    HW223889   3.056   2.423   8.109 -0.4552  1.0958  0.2846
 4144SOL     OW23890   4.179   3.930  12.078  0.1877 -0.4322  0.6949
 4144SOL    HW123891   4.168   3.838  12.103 -0.0302  0.0505  2.3476
 4144SOL    HW223892   4.273   3.927  12.060 -0.0666 -0.7265 -0.5850
 4145SOL     OW23893   4.507   3.645   4.369 -0.1064  0.2317  0.4032
 4145SOL    HW123894   4.480   3.647   4.277  0.5369 -1.1714  0.1830
 4145SOL    HW223895   4.423   3.654   4.413  0.8657 -2.8612  2.8554
 4146SOL     OW23896   3.627   0.606   6.844  0.4681  0.0329  1.1407
 4146SOL    HW123897   3.706   0.555   6.864  0.3114 -1.7448 -2.8756
 4146SOL    HW223898   3.650   0.686   6.892  1.8555  0.3527 -0.0594
 4147SOL     OW23899   3.993   1.132  12.750  0.0563  0.5613  0.3266
 4147SOL    HW123900   4.000   1.206  12.810 -1.9447  1.6188 -0.7523
 4147SOL    HW223901   4.047   1.151  12.673 -1.1358  0.3393 -0.5737
 4148SOL     OW23902   2.981   3.061  16.080  0.2296 -0.6838 -0.2160
 4148SOL    HW123903   3.077   3.062  16.091  0.3646  1.2409 -1.5832
 4148SOL    HW223904   2.968   3.139  16.026 -1.7297 -1.7884 -1.3258
 4149SOL     OW23905   3.487   1.271   2.443 -0.0165 -0.1333  0.1911
 4149SOL    HW123906   3.563   1.276   2.385 -0.8419 -0.3029 -0.9090
 4149SOL    HW223907   3.406   1.292   2.396  0.0942 -1.3704 -0.5364
 4150SOL     OW23908   4.722   2.824   5.000  0.8335  0.0616 -0.0299
 4150SOL    HW123909   0.080   2.819   4.952  0.3787  0.2564 -0.8366
 4150SOL    HW223910   4.722   2.733   5.031  1.5238 -0.1457 -0.6057
 4151SOL     OW23911   4.149   3.602   6.649  0.1820 -0.8360  0.8469
 4151SOL    HW123912   4.228   3.555   6.677  1.0192  0.6414  0.9741
 4151SOL    HW223913   4.108   3.528   6.605 -1.7030  0.0243  1.1755
 4152SOL     OW23914   3.431   1.481   6.562 -0.0590  0.6438  0.4912
 4152SOL    HW123915   3.457   1.416   6.497 -0.0871 -0.9820  2.1244
 4152SOL    HW223916   3.365   1.427   6.604  0.7575  1.7389  3.1475
 4153SOL     OW23917   3.030   4.499   5.086  0.1910 -0.3317 -0.3641
 4153SOL    HW123918   2.989   4.416   5.061  0.2109 -0.1680 -0.9233
 4153SOL    HW223919   2.953   4.556   5.088  1.0067  0.7245  1.1467
 4154SOL     OW23920   3.116   3.571   7.231  0.4503 -0.3188 -0.2661
 4154SOL    HW123921   3.162   3.654   7.226 -1.5548  0.8187 -0.0139
 4154SOL    HW223922   3.190   3.516   7.205 -1.2135 -2.9270  0.4960
 4155SOL     OW23923   3.754   1.545   0.165 -0.2249 -0.2640 -0.3243
 4155SOL    HW123924   3.846   1.553   0.138  0.2136  0.5765  1.4234
 4155SOL    HW223925   3.711   1.625   0.135  2.1931  1.5054  0.8991
 4156SOL     OW23926   2.727   1.220  10.681 -0.6843  0.2099 -0.6502
 4156SOL    HW123927   2.730   1.304  10.635  1.1501 -0.7127 -2.2326
 4156SOL    HW223928   2.657   1.173  10.635  0.3323 -1.7569 -0.1997
 4157SOL     OW23929   0.666   3.278   8.479  0.0353 -0.1376  0.1388
 4157SOL    HW123930   0.679   3.348   8.542 -2.8382  0.6693 -0.1876
 4157SOL    HW223931   0.734   3.224   8.520  0.5301 -0.6078 -1.2706
 4158SOL     OW23932   3.942   4.471   6.562 -0.2778  0.0635  0.0031
 4158SOL    HW123933   3.983   4.429   6.638  0.7352  0.2019 -0.4629
 4158SOL    HW223934   3.870   4.523   6.599 -0.7808 -1.0217  0.5535
 4159SOL     OW23935   1.028   1.955  14.938 -0.3410  0.1011 -0.4164
 4159SOL    HW123936   1.095   1.984  14.876 -1.2785 -0.0752 -1.5097
 4159SOL    HW223937   0.946   1.977  14.893 -0.2852  2.3852  0.6110
 4160SOL     OW23938   2.402   0.015   6.655  0.3949 -0.1630 -0.1105
 4160SOL    HW123939   2.495   0.003   6.674  0.1920 -1.1823  0.2742
 4160SOL    HW223940   2.397   0.091   6.597  0.5888  0.8896  1.2701
 4161SOL     OW23941   3.809   3.354   8.951  0.4386  0.3287 -0.2130
 4161SOL    HW123942   3.809   3.264   8.920 -0.6190  0.4215 -0.4825
 4161SOL    HW223943   3.748   3.397   8.891  1.6443  1.8561 -0.3591
 4162SOL     OW23944   2.538   2.610  14.332 -0.0381 -0.1028 -0.0238
 4162SOL    HW123945   2.474   2.677  14.355  0.2401  0.1371  0.0494
 4162SOL    HW223946   2.624   2.653  14.333  0.6421 -1.5158  1.2453
 4163SOL     OW23947   3.048   1.745   5.997 -0.3065  0.1401  0.2859
 4163SOL    HW123948   3.046   1.651   6.015 -1.0166  0.2776  0.8869
 4163SOL    HW223949   2.953   1.758   5.990 -0.0370  0.6343 -2.7774
 4164SOL     OW23950   0.073   3.183  12.532  0.0524  0.4877 -0.2781
 4164SOL    HW123951   0.116   3.269  12.528  0.8723  0.0337 -1.2237
 4164SOL    HW223952   4.706   3.205  12.543  0.6520  2.8844  0.0864
 4165SOL     OW23953   2.392   4.126   5.900  0.3225 -0.2059 -0.2817
 4165SOL    HW123954   2.472   4.179   5.895  0.2681 -0.2919 -1.9671
 4165SOL    HW223955   2.337   4.185   5.952  2.4303  0.3139  1.3620
 4166SOL     OW23956   4.049   3.705  10.581 -0.3606  0.3702 -0.3221
 4166SOL    HW123957   4.092   3.674  10.502  0.2557  0.6796 -0.1042
 4166SOL    HW223958   4.112   3.757  10.631  1.1552 -1.3279 -0.4761
 4167SOL     OW23959   3.058   3.817   8.125  0.4778  0.0492 -0.0517
 4167SOL    HW123960   3.037   3.909   8.110  1.5717  0.4318  0.7877
 4167SOL    HW223961   3.000   3.789   8.196  3.2645  0.6288  2.4986
 4168SOL     OW23962   4.358   1.429   1.473  0.1008 -0.0111  0.0292
 4168SOL    HW123963   4.442   1.383   1.466  0.1266 -0.2073  1.4230
 4168SOL    HW223964   4.288   1.373   1.507  0.8391  0.6993  2.7259
 4169SOL     OW23965   0.419   0.022   2.430  0.1331 -0.0752  0.4164
 4169SOL    HW123966   0.325   0.032   2.419 -0.2392 -1.7539  2.1353
 4169SOL    HW223967   0.441   4.706   2.347 -1.5611 -1.2585  0.5688
 4170SOL     OW23968   3.019   2.148   5.929  0.3187 -0.1662 -0.1759
 4170SOL    HW123969   3.001   2.231   5.973  2.1662  0.5217 -0.7324
 4170SOL    HW223970   3.035   2.099   6.010  0.0265  1.3332  0.7791
 4171SOL     OW23971   1.992   1.650  17.483  0.7537 -0.0500 -0.0877
 4171SOL    HW123972   1.935   1.584  17.443 -1.1047  1.8001 -0.4846
 4171SOL    HW223973   2.004   1.614  17.571 -0.4599  0.3062  0.2255
 4172SOL     OW23974   1.523   0.267  14.912 -0.8236 -0.1539 -0.7586
 4172SOL    HW123975   1.541   0.301  14.824  0.5796  0.6803 -0.1683
 4172SOL    HW223976   1.432   0.294  14.918 -0.8416 -0.4639  0.3098
 4173SOL     OW23977   4.164   2.704  10.402 -0.1539  0.0070  0.3135
 4173SOL    HW123978   4.197   2.717  10.491 -0.6612  0.3289  0.4500
 4173SOL    HW223979   4.112   2.624  10.407  1.3455 -0.9846  0.0868
 4174SOL     OW23980   3.543   3.393  17.127  0.5047  0.2319  0.0608
 4174SOL    HW123981   3.623   3.441  17.105  0.7578 -0.0188  0.4307
 4174SOL    HW223982   3.579   3.350  17.205 -0.4230  0.2898  0.5168
 4175SOL     OW23983   3.568   3.723   8.472 -0.3669  0.3616  0.0524
 4175SOL    HW123984   3.600   3.738   8.561 -1.0952  0.2038  0.3437
 4175SOL    HW223985   3.565   3.628   8.474  1.7956  0.2919 -0.8271
 4176SOL     OW23986   2.454   3.344  13.136  0.1237 -0.1716 -0.1031
 4176SOL    HW123987   2.484   3.310  13.052 -1.2557 -1.4012 -0.0897
 4176SOL    HW223988   2.533   3.380  13.176  0.2609 -0.6771  0.0726
 4177SOL     OW23989   0.797   0.154   7.080 -0.5876 -0.4858 -0.0879
 4177SOL    HW123990   0.874   0.110   7.115 -0.8889 -2.3844 -1.7943
 4177SOL    HW223991   0.742   0.076   7.073 -0.8389 -0.3788  0.7551
 4178SOL     OW23992   0.778   1.719   4.256 -0.6782 -0.0964 -0.7212
 4178SOL    HW123993   0.763   1.774   4.178  0.6056  1.6584  0.2695
 4178SOL    HW223994   0.766   1.630   4.225  2.7725 -1.2655  1.3988
 4179SOL     OW23995   3.353   4.097  15.981  0.1713 -0.3687 -0.1887
 4179SOL    HW123996   3.391   4.177  16.019 -0.5399  1.6244 -3.7045
 4179SOL    HW223997   3.408   4.090  15.903 -0.8549  0.4448 -0.9923
 4180SOL     OW23998   0.991   2.805  16.134  0.1010 -0.5813  0.2501
 4180SOL    HW123999   0.984   2.877  16.072  0.9432 -2.2827 -1.8240
 4180SOL    HW224000   0.912   2.759  16.104  0.3869 -0.8494 -0.0819
 4181SOL     OW24001   0.660   2.485  12.167 -0.3307 -0.1748  0.1091
 4181SOL    HW124002   0.726   2.543  12.205  0.5324  0.7105 -2.6933
 4181SOL    HW224003   0.670   2.512  12.075 -0.8096  0.5451  0.2696
 4182SOL     OW24004   4.451   1.394   6.408 -0.4963  0.2508  0.3323
 4182SOL    HW124005   4.471   1.310   6.448 -1.5884  0.1027  0.5403
 4182SOL    HW224006   4.539   1.427   6.390 -0.3605  0.7167  1.8163
 4183SOL     OW24007   2.121   0.163   3.955  0.0578 -0.1921 -0.5032
 4183SOL    HW124008   2.213   0.162   3.980 -0.6111  0.6379  2.0200
 4183SOL    HW224009   2.088   0.073   3.950 -1.4577  0.2537  1.2385
 4184SOL     OW24010   0.615   3.146   0.440  0.1219 -0.5790  0.0423
 4184SOL    HW124011   0.617   3.217   0.504  1.5426 -0.3880 -0.2054
 4184SOL    HW224012   0.700   3.158   0.397 -1.3298  0.2083 -2.6008
 4185SOL     OW24013   0.756   4.040   7.766 -0.2013 -0.0213  0.0928
 4185SOL    HW124014   0.680   3.986   7.789  0.3298 -0.7007  0.2311
 4185SOL    HW224015   0.781   4.070   7.853  1.6738  0.5661 -0.6492
 4186SOL     OW24016   4.229   3.789   6.299 -0.1153 -0.0776  0.2925
 4186SOL    HW124017   4.233   3.871   6.250  0.2883  0.1453  0.7007
 4186SOL    HW224018   4.137   3.765   6.292  0.1025 -0.8351 -0.0129
 4187SOL     OW24019   4.214   4.540  12.954 -0.2271 -0.1702 -0.0590
 4187SOL    HW124020   4.298   4.562  12.915  0.2729  0.8065  1.5901
 4187SOL    HW224021   4.176   4.494  12.878  0.6728 -0.5162 -0.2999
 4188SOL     OW24022   2.788   0.397  10.267  0.4944 -0.3981  0.2897
 4188SOL    HW124023   2.747   0.329  10.213 -0.7044  0.6197 -0.0892
 4188SOL    HW224024   2.850   0.348  10.321  1.3247 -0.4498 -0.7174
 4189SOL     OW24025   1.744   3.256   3.845 -0.1968 -0.3413 -0.1861
 4189SOL    HW124026   1.828   3.289   3.876 -0.6492  0.2217  0.4571
 4189SOL    HW224027   1.756   3.162   3.850 -0.5643 -0.2912  1.6250
 4190SOL     OW24028   1.468   4.251   6.362 -0.0055 -0.4883  0.1295
 4190SOL    HW124029   1.435   4.178   6.414 -1.4625 -0.7621 -1.1657
 4190SOL    HW224030   1.563   4.257   6.374  0.0306 -0.1762 -0.3208
 4191SOL     OW24031   3.698   4.126  14.210  0.1958 -0.1378 -0.2758
 4191SOL    HW124032   3.754   4.068  14.260 -0.3331 -1.3863 -1.1412
 4191SOL    HW224033   3.772   4.175  14.173 -0.2497  1.8000  1.3956
 4192SOL     OW24034   4.674   2.490  15.025 -0.2062  0.2363 -0.0032
 4192SOL    HW124035   4.652   2.410  15.073 -0.3438  0.2658 -0.0161
 4192SOL    HW224036   4.586   2.526  15.014 -0.5240 -0.9886 -1.3934
 4193SOL     OW24037   0.522   1.774   8.965  0.0666 -0.4187  0.5446
 4193SOL    HW124038   0.484   1.697   9.006 -1.4436 -0.6922 -1.3887
 4193SOL    HW224039   0.443   1.822   8.941 -0.5856 -0.7327  2.0991
 4194SOL     OW24040   0.941   2.410   1.300  0.1538 -0.0769 -0.3421
 4194SOL    HW124041   0.979   2.425   1.214 -0.4650  0.6374 -0.4911
 4194SOL    HW224042   0.997   2.343   1.341  0.4353  1.2620  1.4252
 4195SOL     OW24043   1.225   2.622   5.821 -0.3214  0.5029 -0.1150
 4195SOL    HW124044   1.203   2.705   5.863  3.6067  0.7513  1.4613
 4195SOL    HW224045   1.171   2.625   5.742 -2.4573  1.2190  1.3754
 4196SOL     OW24046   2.804   0.107  14.536  0.0631  0.3467 -0.1938
 4196SOL    HW124047   2.769   0.137  14.452 -1.3049  1.6521  0.8371
 4196SOL    HW224048   2.880   0.054  14.513  1.1014  1.6098  0.3162
 4197SOL     OW24049   4.629   3.736  10.494 -0.3933  0.0383  0.9291
 4197SOL    HW124050   4.651   3.770  10.407  1.3451 -1.9643  0.6012
 4197SOL    HW224051   4.578   3.812  10.522 -2.3783  0.5069 -3.9557
 4198SOL     OW24052   0.052   2.316   3.042 -0.2398  0.2136 -0.6492
 4198SOL    HW124053   0.036   2.235   2.993 -0.8997  0.2366 -0.4714
 4198SOL    HW224054   4.692   2.325   3.084  0.1131  0.2225  0.0682
 4199SOL     OW24055   1.994   4.201  13.647 -0.3240  0.0449 -0.3267
 4199SOL    HW124056   2.007   4.171  13.737 -1.5584  2.9758  0.8351
 4199SOL    HW224057   1.958   4.116  13.620 -0.6862 -0.6583  2.2844
 4200SOL     OW24058   2.491   1.306   2.137 -0.4245 -0.1018 -0.0007
 4200SOL    HW124059   2.545   1.272   2.065  0.3861  1.4493 -0.1195
 4200SOL    HW224060   2.405   1.282   2.104 -0.8923  0.4332  0.8360
 4201SOL     OW24061   4.208   2.081   1.562  0.2884  0.4300 -0.9056
 4201SOL    HW124062   4.137   2.124   1.515  0.6604  1.6392 -0.3333
 4201SOL    HW224063   4.166   2.046   1.640  0.8403  0.7226 -0.4788
 4202SOL     OW24064   4.681   2.290   7.268  0.3956  0.5542 -0.6599
 4202SOL    HW124065   0.038   2.243   7.281  1.0895  2.4390  1.8750
 4202SOL    HW224066   4.626   2.223   7.308  0.8298 -0.0396 -1.0620
 4203SOL     OW24067   2.753   3.480   6.110 -0.6964  0.3200  0.2315
 4203SOL    HW124068   2.688   3.458   6.043 -1.2316  2.4068  0.0792
 4203SOL    HW224069   2.766   3.392   6.146  1.2038  0.2702 -0.5338
 4204SOL     OW24070   1.069   0.854   5.629 -0.3355  0.0115 -0.4630
 4204SOL    HW124071   1.012   0.923   5.594 -3.1505 -1.7647  0.6260
 4204SOL    HW224072   1.092   0.900   5.710 -1.6633 -0.1444  0.0049
 4205SOL     OW24073   0.795   2.668   5.828  0.3304 -0.0916 -0.3444
 4205SOL    HW124074   0.853   2.612   5.776  0.3409 -0.6005  0.2138
 4205SOL    HW224075   0.820   2.656   5.920 -0.6980 -2.5182 -0.3871
 4206SOL     OW24076   3.928   1.201   6.307 -0.7661  0.3109  0.2768
 4206SOL    HW124077   3.888   1.270   6.360 -0.8450  1.7971 -1.7115
 4206SOL    HW224078   3.861   1.191   6.239  0.2925 -2.8156 -0.3241
 4207SOL     OW24079   0.376   2.351   8.769 -0.1799  0.0660  0.2592
 4207SOL    HW124080   0.346   2.260   8.764  0.1651 -0.0534  0.3798
 4207SOL    HW224081   0.295   2.400   8.776 -0.9257 -1.2926  1.2345
 4208SOL     OW24082   4.074   2.267  11.261  0.5459  0.2425 -0.3672
 4208SOL    HW124083   4.073   2.288  11.167 -0.4949  1.3253 -0.1099
 4208SOL    HW224084   4.024   2.343  11.291  0.2505  0.3226 -1.0461
 4209SOL     OW24085   1.839   1.616   2.144 -0.3018  0.1496 -0.0002
 4209SOL    HW124086   1.832   1.579   2.057  1.7240 -0.5611  0.1545
 4209SOL    HW224087   1.876   1.703   2.128 -0.4556  0.2226  0.0313
 4210SOL     OW24088   2.336   2.682   8.489 -0.1483 -0.1716 -0.1835
 4210SOL    HW124089   2.332   2.599   8.443 -0.5499  0.2052 -0.8228
 4210SOL    HW224090   2.338   2.741   8.414  2.5294  0.3642  0.3066
 4211SOL     OW24091   2.148   2.662   3.449  0.0367  0.2880  0.6038
 4211SOL    HW124092   2.170   2.625   3.364 -0.7385 -1.7784  1.2985
 4211SOL    HW224093   2.078   2.600   3.469 -0.1756  0.3541  0.0651
 4212SOL     OW24094   1.407   3.197  12.579  0.1899  0.1608 -0.0531
 4212SOL    HW124095   1.486   3.202  12.525  1.3574 -1.2029  1.5204
 4212SOL    HW224096   1.453   3.199  12.663 -0.5374  0.9860  0.3318
 4213SOL     OW24097   2.741   2.733   9.454 -0.3579 -0.2176 -0.0701
 4213SOL    HW124098   2.812   2.755   9.393  1.0436  0.9768  1.9920
 4213SOL    HW224099   2.767   2.645   9.481 -0.8163 -1.1706 -2.8075
 4214SOL     OW24100   4.077   2.195  12.208  0.0035 -0.2277 -0.0012
 4214SOL    HW124101   4.034   2.261  12.155  1.3546  2.1521  1.8807
 4214SOL    HW224102   4.111   2.249  12.279  0.2082  0.5599 -0.7089
 4215SOL     OW24103   2.900   2.061   5.170  0.1875  0.0857 -0.0527
 4215SOL    HW124104   2.957   2.077   5.245 -1.2231 -3.4566  1.7955
 4215SOL    HW224105   2.954   2.090   5.097  1.5031 -0.2030  0.8066
 4216SOL     OW24106   1.712   4.509  13.857  0.1639 -0.5701  0.4572
 4216SOL    HW124107   1.784   4.481  13.800  0.3143  0.2469  0.2562
 4216SOL    HW224108   1.646   4.440  13.847  0.4570 -1.0539  1.8594
 4217SOL     OW24109   3.253   0.770   4.192 -0.2217 -0.1602  0.4039
 4217SOL    HW124110   3.278   0.836   4.127  0.9908 -1.8773 -0.8564
 4217SOL    HW224111   3.159   0.765   4.175 -0.4081  0.5660  1.1845
 4218SOL     OW24112   3.589   2.885   5.127 -0.0475 -0.1357  0.0262
 4218SOL    HW124113   3.527   2.859   5.194  0.5738 -0.2330  0.5644
 4218SOL    HW224114   3.672   2.841   5.146 -0.1028 -0.7214 -1.0520
 4219SOL     OW24115   3.666   0.672   3.376 -0.2552  0.8862 -0.5386
 4219SOL    HW124116   3.641   0.593   3.327 -0.9203  1.2697 -0.8213
 4219SOL    HW224117   3.717   0.712   3.306  0.7210  0.5182 -0.0309
 4220SOL     OW24118   4.039   2.033   8.060  0.9604 -0.6074 -0.2406
 4220SOL    HW124119   4.079   2.112   8.024 -0.4070  0.1264 -0.1361
 4220SOL    HW224120   4.042   2.052   8.154  1.2946 -0.0565 -0.3608
 4221SOL     OW24121   1.490   2.481   3.518 -0.2437 -0.2856 -0.2016
 4221SOL    HW124122   1.559   2.471   3.452  0.4358 -1.2368  0.6394
 4221SOL    HW224123   1.555   2.511   3.582  1.9740 -2.7837 -1.2843
 4222SOL     OW24124   1.981   2.780   6.536 -0.1332  0.0919 -0.2091
 4222SOL    HW124125   1.949   2.859   6.580  0.1298 -0.6027  1.2468
 4222SOL    HW224126   1.917   2.715   6.565 -1.3763  1.4656  0.1349
 4223SOL     OW24127   0.478   1.404   2.879 -0.4475 -0.4575 -0.5579
 4223SOL    HW124128   0.426   1.381   2.956 -1.2251  0.6799 -0.7344
 4223SOL    HW224129   0.560   1.376   2.917 -1.9575 -2.5570  1.1418
 4224SOL     OW24130   4.482   3.647  13.369 -0.3003 -0.2762  0.3598
 4224SOL    HW124131   4.439   3.700  13.302 -1.1091  1.8908  2.5648
 4224SOL    HW224132   4.405   3.622  13.421 -0.3825  1.3775  1.0377
 4225SOL     OW24133   0.504   3.511   4.637 -0.0845  0.0894  0.5913
 4225SOL    HW124134   0.522   3.560   4.718 -0.2451  0.5824  0.3274
 4225SOL    HW224135   0.461   3.571   4.576  1.5276  0.8188  0.1614
 4226SOL     OW24136   3.576   0.641   4.137  0.3832  0.1932  0.3025
 4226SOL    HW124137   3.530   0.652   4.220  0.0232  0.2160  0.1002
 4226SOL    HW224138   3.527   0.698   4.077 -0.5626  0.6123  1.4656
 4227SOL     OW24139   3.869   3.057   5.908 -0.6309  0.9231  0.5051
 4227SOL    HW124140   3.815   2.984   5.938  0.7788 -0.8386 -1.2018
 4227SOL    HW224141   3.882   3.111   5.986 -2.1749  1.1110  0.6348
 4228SOL     OW24142   3.212   2.999   5.434 -0.4469  0.1545 -0.4508
 4228SOL    HW124143   3.192   3.040   5.518 -0.1456  0.9683 -0.7866
 4228SOL    HW224144   3.185   3.068   5.374  1.3008  1.1691 -0.0548
 4229SOL     OW24145   3.717   1.494   3.558 -0.6650 -0.3533 -0.2714
 4229SOL    HW124146   3.670   1.456   3.632  0.4349 -1.5317 -0.1665
 4229SOL    HW224147   3.762   1.414   3.531 -0.9523 -0.3333 -0.8137
 4230SOL     OW24148   1.128   0.655   4.671 -0.1334 -0.1535  0.6427
 4230SOL    HW124149   1.154   0.718   4.604  0.5708 -0.3969  0.6845
 4230SOL    HW224150   1.170   0.573   4.644 -0.4965 -0.2269  0.2933
 4231SOL     OW24151   1.196   4.058  14.353  0.2561  0.2183  0.1022
 4231SOL    HW124152   1.286   4.053  14.384 -0.3129  0.0187  1.7254
 4231SOL    HW224153   1.185   4.150  14.379  2.3037  0.3612  0.4492
 4232SOL     OW24154   2.315   4.708   7.062 -0.4636 -0.7792  0.2430
 4232SOL    HW124155   2.234   0.005   7.108  0.1430 -2.0999  1.9521
 4232SOL    HW224156   2.332   0.069   7.023  3.0150 -0.9869  1.2966
 4233SOL     OW24157   2.846   1.454  14.435 -0.3340  0.0893 -0.0494
 4233SOL    HW124158   2.868   1.399  14.510  1.7248 -0.6357 -1.1771
 4233SOL    HW224159   2.932   1.492  14.416 -0.6128 -0.3043 -2.1494
 4234SOL     OW24160   2.155   2.974   2.712  0.2611 -0.2539 -0.0409
 4234SOL    HW124161   2.103   3.030   2.653 -0.0233 -0.9704 -0.4659
 4234SOL    HW224162   2.189   2.916   2.644  0.5918 -1.3491  1.0705
 4235SOL     OW24163   0.436   3.794  10.725  0.0639  0.4565 -0.0322
 4235SOL    HW124164   0.423   3.720  10.666  2.6757 -0.4606  0.5572
 4235SOL    HW224165   0.523   3.830  10.708  1.3397 -1.4077  2.5695
 4236SOL     OW24166   1.950   4.313  10.818 -0.6578  0.0874 -0.5324
 4236SOL    HW124167   1.869   4.320  10.768  0.1268 -0.5367 -1.9235
 4236SOL    HW224168   1.951   4.407  10.834  1.3607  0.1162 -0.7599
 4237SOL     OW24169   0.357   3.028  14.249  0.3235 -0.5494  0.0774
 4237SOL    HW124170   0.275   2.978  14.251 -0.1585  0.2460  0.1276
 4237SOL    HW224171   0.326   3.106  14.202  2.5059  1.3302  1.7462
 4238SOL     OW24172   0.901   3.771   4.330 -0.0596  0.2368  0.4022
 4238SOL    HW124173   0.896   3.866   4.339  0.4824  0.5449 -2.6925
 4238SOL    HW224174   0.824   3.754   4.277  1.6296 -0.3549 -1.8449
 4239SOL     OW24175   1.924   2.226  11.849 -0.2164  0.7555  0.1435
 4239SOL    HW124176   1.893   2.156  11.906 -0.2797  0.9906  0.3979
 4239SOL    HW224177   1.975   2.282  11.907 -0.3771  2.0138 -0.9153
 4240SOL     OW24178   3.523   2.980   3.058 -0.0908  0.3337 -0.1841
 4240SOL    HW124179   3.455   2.965   3.123 -0.3091  1.4983 -0.1412
 4240SOL    HW224180   3.600   2.956   3.109  0.3226  2.5829  0.2736
 4241SOL     OW24181   2.066   2.362  17.027 -0.0416  0.2045  0.1822
 4241SOL    HW124182   2.062   2.279  17.074  1.2498 -1.2513 -2.2068
 4241SOL    HW224183   2.161   2.374  17.027  0.0069 -0.1376 -0.4640
 4242SOL     OW24184   0.681   4.079  11.544 -0.1101 -0.1804  0.5066
 4242SOL    HW124185   0.753   4.137  11.569 -1.6446  1.2864  1.6250
 4242SOL    HW224186   0.707   4.008  11.602  1.7545 -0.6376 -0.9248
 4243SOL     OW24187   4.659   1.753   2.282  0.2256 -0.2872 -0.0829
 4243SOL    HW124188   0.026   1.748   2.308  0.1244  1.8805  0.7187
 4243SOL    HW224189   4.674   1.763   2.188 -0.9413  0.6821 -0.1603
 4244SOL     OW24190   1.808   1.391   2.848  0.1011 -0.7146 -0.1664
 4244SOL    HW124191   1.794   1.411   2.756 -0.7456 -1.0979 -0.1224
 4244SOL    HW224192   1.856   1.308   2.850 -2.2782 -2.0687  0.2417
 4245SOL     OW24193   2.837   4.287   5.118  0.3513 -0.2771 -0.1442
 4245SOL    HW124194   2.782   4.212   5.095 -1.0929  0.1014  2.1177
 4245SOL    HW224195   2.769   4.353   5.130  0.1600 -0.1371 -2.0157
 4246SOL     OW24196   1.863   1.641   8.691 -0.2508 -0.0381 -0.1238
 4246SOL    HW124197   1.907   1.678   8.615  3.9803 -1.1399  1.7832
 4246SOL    HW224198   1.907   1.555   8.695  0.4049  0.3407  1.1027
 4247SOL     OW24199   1.406   2.718   3.930 -0.0488  0.5544 -0.7998
 4247SOL    HW124200   1.356   2.797   3.908 -0.3676  0.2190 -1.2904
 4247SOL    HW224201   1.340   2.674   3.983  0.0748  1.2541 -0.0673
 4248SOL     OW24202   4.325   2.815   4.066  0.2604  0.2686 -0.1204
 4248SOL    HW124203   4.343   2.735   4.116  2.0595  0.7691 -0.0038
 4248SOL    HW224204   4.245   2.782   4.024  1.5434 -1.0095 -1.5781
 4249SOL     OW24205   3.760   2.532   3.548  0.3490  0.1546 -0.6329
 4249SOL    HW124206   3.821   2.514   3.476 -0.2114 -0.0954 -1.0414
 4249SOL    HW224207   3.710   2.450   3.555 -1.5913  1.3924 -0.1439
 4250SOL     OW24208   1.134   3.594   5.146  0.2041  0.0081 -0.1142
 4250SOL    HW124209   1.106   3.533   5.078 -0.8017 -1.0075  1.2297
 4250SOL    HW224210   1.194   3.651   5.098  1.5437 -0.5085  0.9418
 4251SOL     OW24211   3.196   1.604   7.059  0.2179  0.0894 -0.4213
 4251SOL    HW124212   3.112   1.632   7.022 -1.5682 -2.5804  1.6525
 4251SOL    HW224213   3.172   1.534   7.120 -1.1933 -0.1757 -1.2598
 4252SOL     OW24214   3.538   1.389   1.419  0.5869  0.6955 -0.1536
 4252SOL    HW124215   3.595   1.335   1.366 -1.6573  0.3930 -2.2726
 4252SOL    HW224216   3.483   1.427   1.350  1.2693  0.0515 -1.0474
 4253SOL     OW24217   4.605   0.399  11.162  0.6139 -0.1206  0.0826
 4253SOL    HW124218   4.697   0.371  11.163  0.8975  0.7733 -1.5088
 4253SOL    HW224219   4.588   0.420  11.254  0.7675  1.0460 -0.1562
 4254SOL     OW24220   3.782   2.216   1.843 -0.2056 -0.2853 -0.1994
 4254SOL    HW124221   3.873   2.228   1.870 -0.1650 -1.7208  0.2862
 4254SOL    HW224222   3.781   2.123   1.819 -0.2546 -0.6961  1.4128
 4255SOL     OW24223   2.490   0.052  16.305 -0.2441  0.2185 -0.0201
 4255SOL    HW124224   2.560   0.098  16.259  0.4272 -0.7942 -0.0009
 4255SOL    HW224225   2.412   0.106  16.290  0.2038  0.9829  0.3866
 4256SOL     OW24226   0.446   0.103   5.962  0.1583  0.2457  0.7624
 4256SOL    HW124227   0.471   0.172   6.023 -1.0767  0.7277  0.7233
 4256SOL    HW224228   0.523   0.094   5.907  1.0886 -1.6418  2.4080
 4257SOL     OW24229   0.811   2.366   6.612 -0.1892 -0.2985  0.6047
 4257SOL    HW124230   0.737   2.364   6.673 -0.2049 -4.5565  0.4822
 4257SOL    HW224231   0.849   2.453   6.623 -0.2508 -0.0834 -0.9406
 4258SOL     OW24232   2.091   0.179   5.599  0.1044 -0.1545  0.1642
 4258SOL    HW124233   2.147   0.130   5.538  0.0952 -1.6672  1.3634
 4258SOL    HW224234   2.067   0.250   5.540 -1.3096  0.1050  1.0603
 4259SOL     OW24235   4.240   2.612   8.611  0.1818  0.4145 -0.4163
 4259SOL    HW124236   4.273   2.637   8.697 -0.5736 -2.5341  0.7104
 4259SOL    HW224237   4.152   2.593   8.643  0.2190  2.4472  0.8915
 4260SOL     OW24238   0.896   0.563   2.120  0.0838  0.3870 -0.2545
 4260SOL    HW124239   0.854   0.626   2.178 -1.2172 -0.1815 -0.5961
 4260SOL    HW224240   0.904   0.609   2.037  1.7272 -0.6775 -0.6853
 4261SOL     OW24241   1.033   2.585   4.809  0.0547 -0.3620 -0.1142
 4261SOL    HW124242   1.062   2.660   4.756  0.5548 -0.9847 -0.7271
 4261SOL    HW224243   0.992   2.638   4.878 -2.1968 -1.3089 -0.7323
 4262SOL     OW24244   0.398   2.894  10.620 -0.2790  0.4553 -0.0331
 4262SOL    HW124245   0.399   2.822  10.557 -1.7943  2.1128 -1.9485
 4262SOL    HW224246   0.421   2.964  10.560  3.0252 -0.5071  0.0827
 4263SOL     OW24247   1.128   1.436   4.950 -0.1732  0.2689 -0.1162
 4263SOL    HW124248   1.159   1.455   5.039  1.5207  0.1977 -0.6832
 4263SOL    HW224249   1.051   1.383   4.968 -0.1269  0.7700  1.5509
 4264SOL     OW24250   2.769   1.017   2.980  0.0113  0.4482  0.5142
 4264SOL    HW124251   2.831   0.956   3.019 -0.1497 -0.1603 -0.1554
 4264SOL    HW224252   2.711   1.044   3.051 -0.5880 -0.9468  0.5583
 4265SOL     OW24253   1.048   3.065   5.843 -0.2444  0.0899 -0.2320
 4265SOL    HW124254   1.093   2.993   5.887  1.4635 -0.3863 -2.7558
 4265SOL    HW224255   0.984   3.018   5.790  0.7557 -1.8100  0.2380
 4266SOL     OW24256   3.676   0.435   1.593  0.0083 -0.0036  0.5232
 4266SOL    HW124257   3.734   0.511   1.580 -0.7771  0.2128 -1.6789
 4266SOL    HW224258   3.606   0.480   1.641 -0.6353 -1.5076  0.9846
 4267SOL     OW24259   4.449   2.206   7.902  0.2507 -0.0917  0.0106
 4267SOL    HW124260   4.490   2.212   7.988  0.9064  1.9394 -0.4256
 4267SOL    HW224261   4.526   2.199   7.845  0.9749 -0.4105  1.0225
 4268SOL     OW24262   0.993   4.366  14.601  0.1778  0.0633  0.0270
 4268SOL    HW124263   0.956   4.394  14.517  1.3642 -0.1192 -0.5592
 4268SOL    HW224264   1.044   4.437  14.640  1.2038 -0.8552  0.3716
 4269SOL     OW24265   1.219   0.838   7.774  0.1375 -0.0160 -0.2238
 4269SOL    HW124266   1.135   0.876   7.748 -1.1605 -0.7921  2.8101
 4269SOL    HW224267   1.195   0.752   7.741  0.2171 -0.9707  2.1632
 4270SOL     OW24268   2.466   1.449  12.533 -0.6878 -0.0466 -0.1075
 4270SOL    HW124269   2.526   1.521  12.554 -1.1223 -0.4730  2.5790
 4270SOL    HW224270   2.524   1.375  12.513  0.0889  0.6381 -0.3495
 4271SOL     OW24271   3.329   4.309   2.775  0.2118  0.0720  0.4862
 4271SOL    HW124272   3.312   4.281   2.865 -1.9297 -0.6461 -0.1582
 4271SOL    HW224273   3.423   4.331   2.782  0.3345  0.0548 -1.0582
 4272SOL     OW24274   0.583   0.502   3.382  0.2049  0.3900 -0.0310
 4272SOL    HW124275   0.668   0.514   3.341 -1.0541  0.6957 -2.5610
 4272SOL    HW224276   0.585   0.589   3.421 -0.1533 -0.2514  1.4422
 4273SOL     OW24277   0.361   3.203   2.006  0.5415 -0.2909 -0.4151
 4273SOL    HW124278   0.270   3.198   1.976  1.2233 -1.0000 -2.4007
 4273SOL    HW224279   0.360   3.282   2.060 -1.2349 -0.6933  0.1377
 4274SOL     OW24280   0.580   1.561  13.249 -0.4738  0.1408 -0.3280
 4274SOL    HW124281   0.619   1.606  13.323 -1.0177  0.0991 -0.0172
 4274SOL    HW224282   0.650   1.534  13.190 -2.1179 -0.3700 -2.0585
 4275SOL     OW24283   2.910   1.946   7.889  0.2770 -0.1593 -0.1367
 4275SOL    HW124284   2.969   1.934   7.815 -1.2425 -0.7812 -1.2469
 4275SOL    HW224285   2.834   1.900   7.851 -0.6602  0.2582  1.1980
 4276SOL     OW24286   1.725   2.572   7.134  0.0536 -0.1610  0.1915
 4276SOL    HW124287   1.672   2.551   7.057 -1.5243  0.2352  1.1726
 4276SOL    HW224288   1.670   2.643   7.166  0.0081  0.5940 -1.5288
 4277SOL     OW24289   3.828   4.334   9.048  0.2438  0.6733  0.5682
 4277SOL    HW124290   3.876   4.263   9.089  0.2234  1.2389  1.5735
 4277SOL    HW224291   3.899   4.364   8.991  0.1281  0.6628  0.4174
 4278SOL     OW24292   3.188   3.401   3.371 -0.4918  0.2011  0.3054
 4278SOL    HW124293   3.176   3.456   3.293  0.7007 -1.5350 -1.1018
 4278SOL    HW224294   3.096   3.386   3.390  0.5179 -2.3219  3.2516
 4279SOL     OW24295   2.323   2.388  14.254 -0.1928 -0.1722  0.9066
 4279SOL    HW124296   2.382   2.439  14.310  3.5351  0.6423 -3.7776
 4279SOL    HW224297   2.355   2.405  14.165  1.4728  0.9739  1.7152
 4280SOL     OW24298   3.625   3.462   6.557 -0.5924 -0.3827 -0.6924
 4280SOL    HW124299   3.694   3.516   6.518 -0.1348  0.2081  0.9328
 4280SOL    HW224300   3.670   3.447   6.640  2.0376  0.0537 -2.0366
 4281SOL     OW24301   2.614   1.334   7.699 -0.1474  0.6204  0.6971
 4281SOL    HW124302   2.565   1.365   7.623 -0.9150 -0.7029  0.6503
 4281SOL    HW224303   2.697   1.380   7.689  0.4588 -0.9750 -1.3827
 4282SOL     OW24304   4.185   1.817   4.788 -0.5886  0.2341  0.2636
 4282SOL    HW124305   4.116   1.876   4.818 -0.5268 -0.2270  1.2830
 4282SOL    HW224306   4.155   1.794   4.700  1.3006 -0.4211 -0.1911
 4283SOL     OW24307   1.143   0.378  16.123 -0.0918 -0.1715  0.1272
 4283SOL    HW124308   1.178   0.382  16.212  0.9899  0.7033 -0.3449
 4283SOL    HW224309   1.068   0.322  16.144 -0.0349 -0.3105 -0.0414
 4284SOL     OW24310   1.788   1.006   4.445  0.2093 -0.1509 -0.8907
 4284SOL    HW124311   1.866   1.000   4.391  0.6350  1.3673 -0.4373
 4284SOL    HW224312   1.768   0.913   4.456  0.3718 -0.3942 -2.6027
 4285SOL     OW24313   1.518   3.699  15.408 -0.3166 -0.2948  0.2359
 4285SOL    HW124314   1.566   3.656  15.338 -2.4706  2.2108 -2.8167
 4285SOL    HW224315   1.583   3.764  15.434 -0.5502  0.2484 -0.5337
 4286SOL     OW24316   3.917   0.253  13.901  0.5843 -0.2346  0.0254
 4286SOL    HW124317   3.836   0.298  13.880  0.5890 -0.4399 -0.4248
 4286SOL    HW224318   3.928   0.262  13.996  0.3698  0.8077 -0.0518
 4287SOL     OW24319   4.522   2.964   9.373  0.0519  0.1391 -0.5152
 4287SOL    HW124320   4.502   2.872   9.359  3.2762 -0.4958 -0.9460
 4287SOL    HW224321   4.543   2.948   9.465  0.6862  1.8879 -0.3582
 4288SOL     OW24322   1.335   4.312  14.418  0.1976 -0.3206 -0.1600
 4288SOL    HW124323   1.372   4.231  14.454  0.2923 -1.8392 -3.7129
 4288SOL    HW224324   1.351   4.305  14.324  0.7862 -1.0498 -0.0101
 4289SOL     OW24325   4.104   0.599   2.885  0.3234  0.8200 -0.7527
 4289SOL    HW124326   4.081   0.683   2.845  0.3825  0.7631 -0.9031
 4289SOL    HW224327   4.141   0.552   2.810 -0.3640 -1.4708  0.3322
 4290SOL     OW24328   3.014   0.621   7.039  0.0143 -0.0562 -0.0025
 4290SOL    HW124329   3.098   0.635   6.996 -0.6682  1.5464 -0.8080
 4290SOL    HW224330   2.948   0.668   6.987 -0.2514  0.2975  0.6533
 4291SOL     OW24331   3.378   0.794   2.061 -0.0765  0.3340 -0.5235
 4291SOL    HW124332   3.444   0.835   2.005  0.1273  1.2104  0.3516
 4291SOL    HW224333   3.299   0.834   2.026  1.6243  2.4120 -1.9556
 4292SOL     OW24334   0.862   3.411   3.579  0.0477  0.4995 -0.6889
 4292SOL    HW124335   0.831   3.496   3.549  0.3804  1.2308  1.0250
 4292SOL    HW224336   0.924   3.376   3.514 -2.1552 -2.1838 -1.3121
 4293SOL     OW24337   3.314   0.976  10.753  0.2962 -0.2254  0.4114
 4293SOL    HW124338   3.328   0.883  10.734  0.8128 -0.3602  1.4656
 4293SOL    HW224339   3.262   1.004  10.677 -0.4419 -2.2067  0.1928
 4294SOL     OW24340   2.576   4.495   8.063 -0.1669 -0.0510 -0.0416
 4294SOL    HW124341   2.562   4.410   8.021 -1.6613  0.4860 -0.6082
 4294SOL    HW224342   2.514   4.486   8.136  0.4736 -1.6109  0.3179
 4295SOL     OW24343   1.172   4.140   3.496 -0.4835  0.0742  0.1920
 4295SOL    HW124344   1.233   4.067   3.491  1.0516  1.2475  1.9959
 4295SOL    HW224345   1.235   4.211   3.480 -0.2767 -0.0253  0.5749
 4296SOL     OW24346   1.884   0.282  11.637  0.0501 -0.1180 -0.3309
 4296SOL    HW124347   1.927   0.304  11.555  0.2623 -0.6934 -0.3719
 4296SOL    HW224348   1.865   0.369  11.672  1.8968 -0.3355  1.2142
 4297SOL     OW24349   2.048   4.363   1.658 -0.5142 -0.1610 -0.1112
 4297SOL    HW124350   2.099   4.300   1.607 -1.0007 -0.2205 -0.5313
 4297SOL    HW224351   1.960   4.338   1.631 -0.3661 -0.6064 -0.1820
 4298SOL     OW24352   0.575   0.415  10.395  0.4649  0.5090 -0.3203
 4298SOL    HW124353   0.481   0.399  10.401  0.8558 -0.4848  3.1557
 4298SOL    HW224354   0.571   0.444  10.303  0.8132  2.4207  0.2586
 4299SOL     OW24355   2.880   1.860   4.164  0.0281  0.4938  0.6279
 4299SOL    HW124356   2.920   1.781   4.201  0.3917  0.0966 -0.5853
 4299SOL    HW224357   2.788   1.839   4.146  0.4629  0.6818 -1.8776
 4300SOL     OW24358   3.096   2.651  15.554 -0.2338 -0.2103 -0.3941
 4300SOL    HW124359   3.136   2.633  15.639 -2.1852 -1.4775  0.2462
 4300SOL    HW224360   3.114   2.569  15.508 -0.6536 -1.1110  1.0205
 4301SOL     OW24361   2.797   2.822  11.271 -0.1006 -0.1710  0.4389
 4301SOL    HW124362   2.890   2.832  11.295  0.0468 -1.8739  0.5892
 4301SOL    HW224363   2.780   2.912  11.243 -0.4334 -0.5803 -0.6709
 4302SOL     OW24364   3.595   1.986   8.011 -0.3167  0.2221  0.0693
 4302SOL    HW124365   3.624   2.073   8.039  0.9152 -0.0814 -0.2510
 4302SOL    HW224366   3.623   1.932   8.086  0.3187 -1.0787 -1.1065
 4303SOL     OW24367   3.703   3.278   2.898  0.0040 -0.2315  0.1578
 4303SOL    HW124368   3.619   3.281   2.943  0.9797  0.3808  1.9682
 4303SOL    HW224369   3.707   3.355   2.842 -0.1210 -0.5227 -0.2488
 4304SOL     OW24370   1.636   4.167  13.790 -0.1669  0.3325  0.3585
 4304SOL    HW124371   1.708   4.104  13.782 -0.3494  0.2532 -0.5488
 4304SOL    HW224372   1.632   4.196  13.699  1.7997 -0.8340 -0.1128
 4305SOL     OW24373   2.669   0.596   2.517  0.1825  0.5000 -0.6735
 4305SOL    HW124374   2.586   0.570   2.476 -0.2005  0.4606  0.1325
 4305SOL    HW224375   2.723   0.518   2.511  0.3609  0.4787  1.2629
 4306SOL     OW24376   3.059   0.143   9.746  0.1966  0.4838 -0.1097
 4306SOL    HW124377   3.131   0.081   9.758 -0.2886 -0.1045 -0.2988
 4306SOL    HW224378   2.987   0.098   9.790  0.7560  0.9495  1.2872
 4307SOL     OW24379   2.304   1.187   8.456 -0.7284 -0.6176  0.3482
 4307SOL    HW124380   2.237   1.125   8.484 -1.1384  0.6122  2.0698
 4307SOL    HW224381   2.255   1.261   8.419 -0.3382 -0.1670  0.7403
 4308SOL     OW24382   3.120   2.111   8.335  0.1173  0.2172  0.7057
 4308SOL    HW124383   3.213   2.099   8.358  0.3832  2.3069  0.6634
 4308SOL    HW224384   3.084   2.137   8.420 -1.2728  1.2396 -0.2110
 4309SOL     OW24385   3.018   4.226   3.741 -0.2909 -0.1718 -0.2960
 4309SOL    HW124386   3.050   4.137   3.726 -1.3928 -0.8906  1.6965
 4309SOL    HW224387   3.087   4.251   3.803 -0.1620 -0.3317 -0.3756
 4310SOL     OW24388   3.181   0.820   6.751  0.1173 -0.6487 -0.1695
 4310SOL    HW124389   3.095   0.778   6.747 -0.0975 -0.3132  1.0376
 4310SOL    HW224390   3.227   0.754   6.803 -0.0214  0.1749  0.9977
 4311SOL     OW24391   2.298   4.208  11.998  0.3450  0.3595 -0.2087
 4311SOL    HW124392   2.254   4.162  12.070  1.1284 -0.8533 -0.5154
 4311SOL    HW224393   2.352   4.266  12.053  1.7552 -0.6625 -0.5268
 4312SOL     OW24394   0.110   0.290  12.913  0.3097  0.2391  0.3304
 4312SOL    HW124395   0.138   0.217  12.968  0.8700 -1.7217 -2.5637
 4312SOL    HW224396   0.081   0.348  12.983 -1.7468  0.2030 -0.5070
 4313SOL     OW24397   2.840   0.388   5.751  0.1231  0.3547  0.2901
 4313SOL    HW124398   2.752   0.379   5.714  0.8253 -2.3876 -0.6931
 4313SOL    HW224399   2.830   0.452   5.822 -0.1606 -0.6659  1.1682
 4314SOL     OW24400   0.839   0.501   5.072 -0.5992 -0.2731 -0.8625
 4314SOL    HW124401   0.869   0.586   5.040  0.5492 -0.2383  0.3503
 4314SOL    HW224402   0.866   0.442   5.001  0.4460 -0.5672 -0.2162
 4315SOL     OW24403   4.073   0.411   7.470  0.2733  0.1746 -0.3762
 4315SOL    HW124404   4.045   0.327   7.431  3.5394 -0.9063 -0.3504
 4315SOL    HW224405   4.007   0.472   7.437 -1.0581 -1.2744 -0.4215
 4316SOL     OW24406   2.170   3.281   5.328  0.5857 -0.0872  0.1171
 4316SOL    HW124407   2.107   3.274   5.257  2.0186 -0.4850 -1.1119
 4316SOL    HW224408   2.217   3.199   5.314  1.5243  0.4862 -0.0972
 4317SOL     OW24409   0.589   3.199   8.241  0.3793  0.8243 -0.0732
 4317SOL    HW124410   0.627   3.231   8.322  0.9752  0.1794 -0.0956
 4317SOL    HW224411   0.497   3.196   8.267  1.1465 -0.1638  2.5444
 4318SOL     OW24412   2.604   0.050   9.172  0.2441 -0.0166  0.3207
 4318SOL    HW124413   2.632   0.086   9.256 -1.0010  0.8581  0.3612
 4318SOL    HW224414   2.575   4.692   9.207  1.7646  0.4322  2.6410
 4319SOL     OW24415   2.029   3.947   7.211 -0.0436  0.1154 -0.0403
 4319SOL    HW124416   2.116   3.981   7.231 -0.1529  1.6604 -2.2266
 4319SOL    HW224417   2.061   3.860   7.185 -0.1865 -0.8392  2.9650
 4320SOL     OW24418   2.184   4.575  13.653 -0.6319 -0.3361  0.1346
 4320SOL    HW124419   2.261   4.542  13.700  0.1779 -1.3838 -1.9324
 4320SOL    HW224420   2.226   4.655  13.623 -0.5539  0.0182  1.1777
 4321SOL     OW24421   1.145   2.465   3.140  0.2257 -0.4007 -0.5912
 4321SOL    HW124422   1.127   2.542   3.087 -1.3819  0.2023  0.8365
 4321SOL    HW224423   1.236   2.485   3.161 -0.3022 -0.2018  1.4817
 4322SOL     OW24424   0.157   2.712   7.370  0.2806  0.4153 -0.4539
 4322SOL    HW124425   0.213   2.645   7.332  0.3958  0.2344  0.0277
 4322SOL    HW224426   0.082   2.656   7.391  1.0074 -0.0285  0.9712
 4323SOL     OW24427   1.405   4.500   8.172  0.2234 -0.3557 -0.1346
 4323SOL    HW124428   1.452   4.490   8.090 -1.6055  0.4318 -1.2819
 4323SOL    HW224429   1.325   4.454   8.149 -0.3698  0.3037  0.6017
 4324SOL     OW24430   1.084   0.185   3.287  0.2011  0.5398  0.2066
 4324SOL    HW124431   1.173   0.219   3.284 -0.6965  2.8640  0.1254
 4324SOL    HW224432   1.079   0.145   3.201  0.5838 -0.5237  0.6779
 4325SOL     OW24433   0.218   3.535   4.441  0.0798 -0.0689  0.0261
 4325SOL    HW124434   0.304   3.539   4.400  0.0808  3.6142  0.3786
 4325SOL    HW224435   0.170   3.602   4.392 -1.1340 -0.2844  0.8966
 4326SOL     OW24436   0.008   0.564   2.040  0.4506  0.0208 -0.4944
 4326SOL    HW124437   0.043   0.640   2.087 -0.6073 -0.1233  0.5103
 4326SOL    HW224438   4.689   0.599   1.963 -0.7539  1.4958  0.8718
 4327SOL     OW24439   2.863   0.631   7.278  0.4996 -0.0608 -0.2241
 4327SOL    HW124440   2.800   0.697   7.248 -1.1254 -1.9313 -0.9557
 4327SOL    HW224441   2.925   0.628   7.205  0.7619  0.4386 -0.0194
 4328SOL     OW24442   3.172   3.796  10.457 -0.1367 -0.2500 -0.1915
 4328SOL    HW124443   3.177   3.763  10.367  1.4690  1.6324 -0.7948
 4328SOL    HW224444   3.126   3.874  10.426 -0.2532 -1.2275 -2.5485
 4329SOL     OW24445   2.270   4.150   3.740 -0.2219 -0.0817  0.3334
 4329SOL    HW124446   2.343   4.129   3.682 -1.2964 -1.6878 -0.4085
 4329SOL    HW224447   2.237   4.061   3.731  1.5944 -0.6768 -0.4220
 4330SOL     OW24448   4.272   0.237  11.800  0.1701 -0.0872  0.0391
 4330SOL    HW124449   4.336   0.300  11.835  0.1392 -0.6316  1.0908
 4330SOL    HW224450   4.315   0.200  11.723  0.5817 -1.0127  0.7020
 4331SOL     OW24451   2.245   4.190   1.987  0.5486 -0.0817  0.2156
 4331SOL    HW124452   2.238   4.146   2.072 -0.1906 -0.7297 -0.1850
 4331SOL    HW224453   2.278   4.114   1.939 -1.2089  1.1332 -2.9352
 4332SOL     OW24454   1.817   3.636   8.547 -0.3100  0.4266  0.8210
 4332SOL    HW124455   1.845   3.652   8.637 -2.5536  2.5764  1.1297
 4332SOL    HW224456   1.736   3.587   8.561 -0.2167  0.2454  0.7291
 4333SOL     OW24457   0.984   1.421  17.169  0.3772  0.4553  0.6580
 4333SOL    HW124458   0.939   1.506  17.168 -1.0731 -0.3045  0.4961
 4333SOL    HW224459   0.920   1.378  17.111 -0.3799  0.7545  1.2789
 4334SOL     OW24460   2.241   4.651   7.488  0.1911  0.2876  0.3386
 4334SOL    HW124461   2.193   4.584   7.538  1.6611  0.9574  2.6530
 4334SOL    HW224462   2.328   4.655   7.527  0.7337  1.1378 -0.9463
 4335SOL     OW24463   0.300   1.999   5.528 -0.3875  0.1108 -0.3955
 4335SOL    HW124464   0.213   2.017   5.564  0.4784  0.3520  1.5833
 4335SOL    HW224465   0.321   1.928   5.589  1.0499  1.5725  0.8179
 4336SOL     OW24466   0.242   2.681   4.029  0.6391 -0.2779 -0.1268
 4336SOL    HW124467   0.250   2.717   3.941 -3.3223  1.0911  0.0685
 4336SOL    HW224468   0.153   2.647   4.026  0.7615 -0.6053 -0.0142
 4337SOL     OW24469   4.276   3.247   5.292 -0.1808 -0.1806  0.5576
 4337SOL    HW124470   4.294   3.184   5.362  0.2101  0.5473  1.1168
 4337SOL    HW224471   4.351   3.305   5.308 -0.3788  0.6807 -1.6266
 4338SOL     OW24472   2.023   0.565   7.912  0.1056 -0.2695  0.2478
 4338SOL    HW124473   2.112   0.569   7.947 -0.0788 -2.7704  1.0354
 4338SOL    HW224474   1.974   0.629   7.964 -1.5849 -0.2833 -1.3207
 4339SOL     OW24475   4.163   1.417  17.351  0.0637 -0.3106  0.3756
 4339SOL    HW124476   4.191   1.367  17.428  1.6041  0.2371  0.1538
 4339SOL    HW224477   4.114   1.353  17.299  0.2869  3.0001 -3.8701
 4340SOL     OW24478   3.327   2.000  14.033  0.0674 -0.5328 -0.0520
 4340SOL    HW124479   3.320   1.913  14.072 -2.4011 -0.8560 -1.2825
 4340SOL    HW224480   3.413   1.994  13.990  0.6828  1.7446  0.8367
 4341SOL     OW24481   1.533   3.296   8.162 -0.1305  0.4668  0.4779
 4341SOL    HW124482   1.580   3.313   8.244 -1.0084 -2.2856  1.5782
 4341SOL    HW224483   1.554   3.202   8.166 -3.0682 -0.2885 -2.1189
 4342SOL     OW24484   4.654   2.524   7.410 -0.3505 -0.1744  0.1996
 4342SOL    HW124485   4.616   2.486   7.490  2.2089 -1.7468  0.6668
 4342SOL    HW224486   4.653   2.455   7.344 -0.0184  1.9611 -2.0258
 4343SOL     OW24487   2.506   3.138  10.110  0.8838 -0.7940  0.1979
 4343SOL    HW124488   2.555   3.109  10.187 -2.3536  0.4690  2.7335
 4343SOL    HW224489   2.495   3.230  10.134 -1.1629 -1.1247  0.5813
 4344SOL     OW24490   3.945   3.218   8.376 -0.4716  0.1469 -0.0783
 4344SOL    HW124491   3.896   3.206   8.458 -0.3636  0.8827  0.0898
 4344SOL    HW224492   3.999   3.138   8.379 -1.1517 -0.2759  0.9078
 4345SOL     OW24493   4.141   1.413   4.588  0.1473 -0.1901 -0.3432
 4345SOL    HW124494   4.193   1.466   4.648 -1.8299  1.2619  0.0884
 4345SOL    HW224495   4.070   1.400   4.651  0.8469 -0.7160  0.3341
 4346SOL     OW24496   0.528   0.908   2.855 -0.2157 -0.5649 -0.3334
 4346SOL    HW124497   0.486   0.854   2.922  0.3292 -0.1334  0.3589
 4346SOL    HW224498   0.478   0.988   2.869  0.0173 -0.4924  0.0784
 4347SOL     OW24499   1.654   3.798   2.350  0.6854  0.2461 -0.8747
 4347SOL    HW124500   1.593   3.742   2.302  0.4866  0.2244 -0.5963
 4347SOL    HW224501   1.735   3.772   2.306  0.6876 -1.4023  0.0927
 4348SOL     OW24502   1.717   1.688  12.886 -0.0993  0.6045  0.1693
 4348SOL    HW124503   1.673   1.728  12.962 -0.6051 -0.5613  0.4892
 4348SOL    HW224504   1.756   1.771  12.859 -0.5073  0.5335 -0.6274
 4349SOL     OW24505   3.110   3.519   8.839 -0.0782 -0.1995  0.5544
 4349SOL    HW124506   3.063   3.445   8.801 -0.0192  0.3187 -0.5374
 4349SOL    HW224507   3.103   3.498   8.932 -0.4745 -2.9234 -0.0879
 4350SOL     OW24508   1.091   2.625   7.577  0.0946 -0.4249  0.1527
 4350SOL    HW124509   1.135   2.565   7.638 -0.0140 -0.1714  0.4792
 4350SOL    HW224510   1.146   2.703   7.590  0.7362 -0.8999  0.3423
 4351SOL     OW24511   4.120   1.225   7.668 -0.6688 -0.2886  0.4564
 4351SOL    HW124512   4.127   1.148   7.725  0.8858 -1.8400 -1.8415
 4351SOL    HW224513   4.209   1.258   7.663  0.1808 -2.5756  0.5783
 4352SOL     OW24514   2.132   4.167   1.023 -0.1072  0.1730 -0.2371
 4352SOL    HW124515   2.171   4.211   0.948  1.5289  1.3356  1.3112
 4352SOL    HW224516   2.157   4.214   1.102 -0.6975  1.0179 -0.5530
 4353SOL     OW24517   1.037   0.521   3.083 -0.1313 -0.5205  0.0918
 4353SOL    HW124518   1.044   0.611   3.052 -2.8915 -0.8886 -1.5746
 4353SOL    HW224519   1.091   0.472   3.020 -1.9031 -1.5554 -0.6230
 4354SOL     OW24520   1.501   2.595   5.728  0.2331 -0.0418 -0.6073
 4354SOL    HW124521   1.506   2.672   5.672 -1.2368  0.5214  0.0362
 4354SOL    HW224522   1.413   2.606   5.764  1.2939  2.2209  1.3123
 4355SOL     OW24523   1.635   2.194   2.400  0.0331 -0.0384  0.4501
 4355SOL    HW124524   1.654   2.204   2.493  1.7718 -0.2022  0.1100
 4355SOL    HW224525   1.585   2.113   2.408 -2.1512  1.3817  1.4258
 4356SOL     OW24526   1.909   1.977   5.248 -0.1618  0.1170 -0.2670
 4356SOL    HW124527   1.932   2.015   5.163 -1.2576 -2.4379 -1.7088
 4356SOL    HW224528   1.932   2.049   5.306  1.4309 -0.3777 -0.2752
 4357SOL     OW24529   0.042   3.745   2.185 -0.5205 -0.1098  0.1209
 4357SOL    HW124530   4.682   3.783   2.166 -0.2127  0.6568  0.2959
 4357SOL    HW224531   0.060   3.770   2.276 -2.7346 -0.1896  0.5823
 4358SOL     OW24532   2.009   3.601   6.904  0.4846 -0.4914 -0.0895
 4358SOL    HW124533   2.032   3.508   6.917 -1.8005 -0.8912  1.0059
 4358SOL    HW224534   2.085   3.660   6.904  0.2736 -0.2319  3.2973
 4359SOL     OW24535   3.562   3.157  11.581  0.3955 -0.4210  0.3460
 4359SOL    HW124536   3.509   3.201  11.515  0.4205 -0.8409  0.0441
 4359SOL    HW224537   3.565   3.232  11.640  1.1631 -2.3090  2.6835
 4360SOL     OW24538   3.285   0.850   2.601 -0.1107  0.1526 -0.1408
 4360SOL    HW124539   3.272   0.834   2.508  1.0958 -2.4595  0.1345
 4360SOL    HW224540   3.198   0.825   2.633 -0.7725 -0.2845 -2.3464
 4361SOL     OW24541   0.869   2.139   8.887  0.1757  0.3652  0.1135
 4361SOL    HW124542   0.846   2.216   8.940  1.7753  1.2179 -0.4291
 4361SOL    HW224543   0.821   2.074   8.939  0.7049  1.5269  2.0363
 4362SOL     OW24544   1.341   4.466   1.225  0.1117 -0.0884 -0.2333
 4362SOL    HW124545   1.271   4.424   1.276 -0.6178  0.9636 -0.3705
 4362SOL    HW224546   1.336   4.438   1.133  1.1362  0.4552 -0.4592
 4363SOL     OW24547   2.780   0.212   5.453  0.4337 -0.2766  0.1233
 4363SOL    HW124548   2.808   0.163   5.530  1.6247 -1.6959 -1.2064
 4363SOL    HW224549   2.750   0.135   5.404  1.3216  0.2944 -1.3246
 4364SOL     OW24550   3.460   2.589  10.749 -0.3626  0.1248  0.6433
 4364SOL    HW124551   3.541   2.622  10.788 -0.3985 -1.1085  1.7714
 4364SOL    HW224552   3.392   2.648  10.783 -0.6485 -0.6843  1.4706
 4365SOL     OW24553   0.127   1.585   7.879 -0.2577 -0.0495 -0.1405
 4365SOL    HW124554   0.160   1.503   7.917  1.1814  0.6400  0.0849
 4365SOL    HW224555   0.060   1.618   7.939  0.7817  0.2392  0.8615
 4366SOL     OW24556   3.793   1.227   2.685  0.1860  0.1141 -0.2746
 4366SOL    HW124557   3.855   1.291   2.651  0.7176 -0.8022 -1.0327
 4366SOL    HW224558   3.757   1.286   2.751  0.3508  0.7859 -0.7879
 4367SOL     OW24559   3.389   4.396  15.856 -0.0793 -0.5214  0.0771
 4367SOL    HW124560   3.354   4.442  15.780  1.7128 -0.6227 -0.8135
 4367SOL    HW224561   3.418   4.318  15.808  0.2703 -1.5584  1.9678
 4368SOL     OW24562   0.487   3.869  16.082 -0.1020  0.1950 -0.3450
 4368SOL    HW124563   0.538   3.934  16.129 -0.3867 -0.7549  1.2841
 4368SOL    HW224564   0.543   3.861  16.005  0.8254  3.5367  0.0019
 4369SOL     OW24565   2.141   3.945   6.536 -0.0169 -0.2514 -0.2065
 4369SOL    HW124566   2.110   4.032   6.510 -0.4185 -0.2551  0.2689
 4369SOL    HW224567   2.082   3.923   6.608 -0.1582 -1.6357 -0.7437
 4370SOL     OW24568   2.089   3.589  14.500 -0.4541  0.4882 -0.3167
 4370SOL    HW124569   2.098   3.509  14.449 -3.9265 -0.7933  1.1205
 4370SOL    HW224570   1.996   3.609  14.493 -0.3589  1.0253 -0.0540
 4371SOL     OW24571   2.388   4.682   3.557 -0.1241 -0.5584  0.4345
 4371SOL    HW124572   2.402   0.016   3.483 -0.4096 -1.8063 -0.6193
 4371SOL    HW224573   2.443   4.723   3.624  1.7096  0.4760 -1.6855
 4372SOL     OW24574   3.646   4.300  17.596  0.3624 -0.0759  0.1171
 4372SOL    HW124575   3.713   4.248  17.552  0.4547  0.8364 -0.8012
 4372SOL    HW224576   3.562   4.288  17.551  0.6388 -1.7948  0.0484
 4373SOL     OW24577   3.647   2.864   4.114  0.0123 -0.0859 -0.6226
 4373SOL    HW124578   3.639   2.787   4.058 -3.5408  0.3466 -0.7227
 4373SOL    HW224579   3.625   2.927   4.046  0.2608 -1.3906 -1.9018
 4374SOL     OW24580   4.418   1.149   4.818 -0.5354 -0.0744  0.1935
 4374SOL    HW124581   4.406   1.055   4.810  1.8322 -0.4173  0.7597
 4374SOL    HW224582   4.350   1.166   4.883 -0.2207 -0.8695  0.7199
 4375SOL     OW24583   0.369   0.878  12.443  0.2819  0.1180 -0.7664
 4375SOL    HW124584   0.424   0.808  12.411  0.7360  0.2592 -0.3030
 4375SOL    HW224585   0.285   0.858  12.402  0.1782  1.8694 -1.3979
 4376SOL     OW24586   4.409   0.514   8.981  0.6679  0.3219 -0.1219
 4376SOL    HW124587   4.488   0.463   8.963  0.4907  0.6333 -1.8096
 4376SOL    HW224588   4.358   0.526   8.900 -0.4353  0.5429  0.6018
 4377SOL     OW24589   0.246   1.107  14.831  0.0082  0.0695  0.1427
 4377SOL    HW124590   0.197   1.072  14.758 -2.8852  1.9346  1.1975
 4377SOL    HW224591   0.266   1.020  14.866 -0.5189  0.3867  1.2281
 4378SOL     OW24592   0.434   1.499   8.211  0.2024 -0.0856  0.9965
 4378SOL    HW124593   0.472   1.419   8.174 -0.2834  0.5782 -0.9245
 4378SOL    HW224594   0.506   1.562   8.213 -1.8146  2.1999  0.2433
 4379SOL     OW24595   3.372   1.364   8.872  0.0558  0.0830 -0.2053
 4379SOL    HW124596   3.324   1.427   8.926 -1.3677 -2.5869  1.7025
 4379SOL    HW224597   3.457   1.367   8.916  1.1661  0.6851 -2.3905
 4380SOL     OW24598   2.252   1.671   6.055  0.5694 -0.2745  0.1673
 4380SOL    HW124599   2.290   1.750   6.092  2.2382 -1.0433  0.0849
 4380SOL    HW224600   2.234   1.700   5.965  0.2874  1.2361  0.7157
 4381SOL     OW24601   2.775   0.417   3.760  0.2247  0.2824  0.2387
 4381SOL    HW124602   2.853   0.362   3.766  0.4099  0.2966 -2.2917
 4381SOL    HW224603   2.777   0.455   3.848  1.5246 -0.7838  0.6613
 4382SOL     OW24604   4.603   1.817   2.920  0.3862  0.2842 -0.0345
 4382SOL    HW124605   4.595   1.868   2.839  1.1347 -0.9732 -0.8945
 4382SOL    HW224606   4.640   1.739   2.880 -0.9360 -1.3235  1.8702
 4383SOL     OW24607   1.318   2.571   4.201 -0.5783 -0.3565 -0.1310
 4383SOL    HW124608   1.371   2.649   4.217  1.6911 -2.1050  0.7889
 4383SOL    HW224609   1.235   2.581   4.249 -0.8071 -0.6477 -0.4624
 4384SOL     OW24610   3.144   0.315  13.654  0.3352  0.3153  0.4866
 4384SOL    HW124611   3.084   0.379  13.692 -0.2358  0.4755 -0.6912
 4384SOL    HW224612   3.187   0.373  13.591 -0.2074 -2.0546 -2.0538
 4385SOL     OW24613   0.670   3.999  10.823  0.1131 -0.6474 -0.3142
 4385SOL    HW124614   0.612   4.049  10.765 -0.3397  0.5454  1.1994
 4385SOL    HW224615   0.750   3.993  10.771 -0.7485 -1.2323 -1.5811
 4386SOL     OW24616   0.867   2.911   5.695  0.2264  0.7638 -0.1034
 4386SOL    HW124617   0.854   2.821   5.725 -0.2311  0.9417  0.2381
 4386SOL    HW224618   0.781   2.927   5.655  0.4427  1.1013 -0.4291
 4387SOL     OW24619   0.781   4.256   0.100 -0.0269  0.3579  0.2089
 4387SOL    HW124620   0.877   4.250   0.095  0.1873  2.4287  2.1421
 4387SOL    HW224621   0.754   4.167   0.076  2.5798 -0.3307 -0.2455
 4388SOL     OW24622   4.126   4.338   5.666  0.0831  0.5496  0.4925
 4388SOL    HW124623   4.208   4.301   5.635  0.3141  1.0801  0.4631
 4388SOL    HW224624   4.149   4.431   5.662 -1.2742  0.9397  1.8074
 4389SOL     OW24625   0.988   4.693   8.893 -0.7187  0.4999  0.6415
 4389SOL    HW124626   1.033   4.695   8.809  1.0442 -0.6895  1.5851
 4389SOL    HW224627   1.055   4.693   8.962  0.9357 -1.3085 -1.0009
 4390SOL     OW24628   4.067   4.616   4.963  0.2283  0.2076 -0.0878
 4390SOL    HW124629   4.057   4.604   5.058 -0.8629 -0.0463 -0.2402
 4390SOL    HW224630   3.974   4.611   4.944 -0.2060  0.3684  2.0051
 4391SOL     OW24631   3.851   1.244   3.520  0.5366  0.1987  0.2691
 4391SOL    HW124632   3.789   1.188   3.568 -0.0900  0.8197  0.1838
 4391SOL    HW224633   3.885   1.176   3.462  1.3598 -0.2292  1.2368
 4392SOL     OW24634   4.250   4.074  11.152  0.0745 -0.0904  0.0454
 4392SOL    HW124635   4.182   4.016  11.119  0.4098 -1.4302  1.7116
 4392SOL    HW224636   4.319   4.012  11.178  3.1742  3.0722 -0.6088
 4393SOL     OW24637   2.187   3.395   5.794 -0.4949  0.1225  0.1558
 4393SOL    HW124638   2.245   3.320   5.777 -1.4082 -0.7487  0.8532
 4393SOL    HW224639   2.206   3.409   5.886  1.4142  0.4728 -0.2773
 4394SOL     OW24640   0.505   3.809   5.966  0.3209  0.0784 -0.1094
 4394SOL    HW124641   0.443   3.790   6.037  2.5209  2.5542  2.4701
 4394SOL    HW224642   0.557   3.728   5.966 -2.3533 -1.6590 -2.6014
 4395SOL     OW24643   1.474   0.442   6.664  0.0629 -0.1993 -0.1783
 4395SOL    HW124644   1.465   0.427   6.758 -0.2827  2.2857  0.1893
 4395SOL    HW224645   1.564   0.474   6.662 -1.4612  4.0005  0.1026
 4396SOL     OW24646   3.787   0.734   9.500  0.0722 -0.1477  0.7546
 4396SOL    HW124647   3.715   0.693   9.548  1.0074 -0.3047  2.0133
 4396SOL    HW224648   3.734   0.803   9.461 -0.4735 -0.0370  1.7054
 4397SOL     OW24649   4.214   0.723   4.402 -0.3631 -0.4662  0.6346
 4397SOL    HW124650   4.198   0.757   4.314 -3.6186 -1.0773  0.9689
 4397SOL    HW224651   4.182   0.634   4.390  0.3330 -0.4403 -1.3230
 4398SOL     OW24652   2.322   3.716   0.834 -0.2207  0.0224  0.0463
 4398SOL    HW124653   2.416   3.730   0.847  0.1234 -2.2600  0.1331
 4398SOL    HW224654   2.306   3.794   0.886 -1.1305 -0.6901  0.8129
 4399SOL     OW24655   3.281   1.571   0.191 -0.0823  0.0057  0.1814
 4399SOL    HW124656   3.361   1.532   0.154  1.2836  2.2702  0.7131
 4399SOL    HW224657   3.283   1.656   0.146  0.6046  0.5473  1.2339
 4400SOL     OW24658   2.815   2.758   4.728 -0.1267  0.0820 -0.0694
 4400SOL    HW124659   2.737   2.812   4.739 -0.0748 -0.4079  2.6103
 4400SOL    HW224660   2.846   2.769   4.818  0.9586  2.1755 -0.7023
 4401SOL     OW24661   2.408   3.146   5.218  0.5822 -0.7649  0.0642
 4401SOL    HW124662   2.416   3.226   5.166  3.1848 -0.2441  1.3172
 4401SOL    HW224663   2.499   3.139   5.244  0.7476  0.4455 -0.1851
 4402SOL     OW24664   3.917   2.996  15.988 -0.0678  0.0657 -1.0071
 4402SOL    HW124665   3.997   3.032  16.026 -0.3586 -1.0439  0.6548
 4402SOL    HW224666   3.870   2.974  16.068  3.7657  0.2440  1.2980
 4403SOL     OW24667   4.573   2.658   8.703  0.0625  0.2608 -0.2308
 4403SOL    HW124668   4.484   2.674   8.735  0.4280 -1.2072  1.4802
 4403SOL    HW224669   4.628   2.667   8.781 -0.8358 -0.9071  0.5435
 4404SOL     OW24670   1.864   4.356   3.981  0.3793 -0.5605  0.4529
 4404SOL    HW124671   1.783   4.319   4.018 -1.1048 -0.2571 -2.5310
 4404SOL    HW224672   1.922   4.281   3.973 -0.9139 -1.4055 -1.0121
 4405SOL     OW24673   2.978   3.448   4.466  0.4372  0.4682 -0.2983
 4405SOL    HW124674   2.953   3.540   4.459  2.2703  1.0814  1.1957
 4405SOL    HW224675   2.969   3.435   4.560  1.1421 -1.5404 -0.5012
 4406SOL     OW24676   4.522   1.352  17.553  0.0981 -0.8120 -0.3099
 4406SOL    HW124677   4.438   1.311  17.533 -1.4129  1.8234  0.6906
 4406SOL    HW224678   4.586   1.289  17.520 -1.0779 -2.2934  0.2241
 4407SOL     OW24679   1.121   3.257   9.009  0.0294  0.2718 -0.3041
 4407SOL    HW124680   1.029   3.278   9.027  0.5921  2.4467 -0.0130
 4407SOL    HW224681   1.158   3.272   9.096 -0.2511  1.8162 -0.4524
 4408SOL     OW24682   2.848   0.035   3.741 -0.0317  0.7333 -0.1102
 4408SOL    HW124683   2.920   0.077   3.693 -1.0674  1.0366 -1.4027
 4408SOL    HW224684   2.843   4.673   3.704 -1.3171  0.8734 -0.2871
 4409SOL     OW24685   3.900   2.012  13.927 -0.1303 -0.5777 -0.7267
 4409SOL    HW124686   3.828   2.067  13.957 -0.4089 -0.6095 -1.3237
 4409SOL    HW224687   3.956   2.031  14.002  0.4587  2.0358 -1.8276
 4410SOL     OW24688   2.683   0.780   8.500 -0.0327  0.0231 -0.5296
 4410SOL    HW124689   2.777   0.797   8.512 -0.0134 -0.7614  0.4202
 4410SOL    HW224690   2.639   0.864   8.494  0.2290  0.2100  0.1616
 4411SOL     OW24691   1.392   1.166   4.297  0.5030  0.6296 -0.1015
 4411SOL    HW124692   1.334   1.208   4.359  0.1630 -2.9289  1.9890
 4411SOL    HW224693   1.428   1.086   4.335 -0.5580  1.1707  2.0230
 4412SOL     OW24694   3.532   2.794   2.226  0.1137  0.0218  0.1069
 4412SOL    HW124695   3.573   2.792   2.312 -2.3947  1.0202  1.3146
 4412SOL    HW224696   3.540   2.889   2.215 -1.0397 -0.0927 -1.7627
 4413SOL     OW24697   2.240   1.935  15.910  0.4901  0.2496  0.0861
 4413SOL    HW124698   2.282   1.887  15.838 -2.0494 -2.8708  0.6569
 4413SOL    HW224699   2.306   2.003  15.918  0.8831 -0.2008  0.6922
 4414SOL     OW24700   1.260   3.547  15.411  0.5861 -0.0232 -0.2314
 4414SOL    HW124701   1.286   3.457  15.392  1.7412  0.0452  1.0217
 4414SOL    HW224702   1.342   3.596  15.401  0.2094  0.1929 -2.1976
 4415SOL     OW24703   2.317   1.023  16.497 -0.1560 -0.3509  0.2413
 4415SOL    HW124704   2.283   1.062  16.578 -0.5148  0.3411 -0.2450
 4415SOL    HW224705   2.407   1.056  16.500 -0.0131 -0.7529  0.2890
 4416SOL     OW24706   4.484   2.738   5.693 -0.2760  0.0158 -0.1620
 4416SOL    HW124707   4.555   2.700   5.641  1.5313  0.7778  1.7203
 4416SOL    HW224708   4.514   2.829   5.693 -0.6614  0.1515  1.4265
 4417SOL     OW24709   2.917   4.310  16.355  0.1548 -0.0217 -0.6197
 4417SOL    HW124710   2.877   4.378  16.409 -2.1228 -0.9244 -1.1921
 4417SOL    HW224711   2.870   4.305  16.272 -2.3813  0.6574  0.7828
 4418SOL     OW24712   3.260   2.106   5.766  0.0764  0.2766 -0.2589
 4418SOL    HW124713   3.197   2.156   5.818  0.2849  0.3006 -0.0254
 4418SOL    HW224714   3.225   2.019   5.786 -2.4681  1.4978  0.5411
 4419SOL     OW24715   4.716   3.089   0.682  0.4778  0.0692 -0.1738
 4419SOL    HW124716   4.707   3.094   0.777  3.4729 -1.9270  0.2242
 4419SOL    HW224717   0.038   3.006   0.671  0.0357  0.3215 -4.0942
 4420SOL     OW24718   1.687   0.135   7.143  0.4205  0.0340  0.0754
 4420SOL    HW124719   1.758   0.101   7.088 -0.0102 -0.8950  0.0963
 4420SOL    HW224720   1.706   0.228   7.127  2.0060 -0.5306 -1.4100
 4421SOL     OW24721   2.995   2.783  11.800  0.0941  0.0801  0.2186
 4421SOL    HW124722   3.017   2.861  11.748 -1.4373 -0.2333 -0.8944
 4421SOL    HW224723   2.958   2.736  11.726 -0.5862  0.3118  0.4061
 4422SOL     OW24724   2.297   3.429   1.292 -0.4073 -0.0994  0.4629
 4422SOL    HW124725   2.266   3.339   1.294 -0.8268 -0.0138 -2.1942
 4422SOL    HW224726   2.364   3.429   1.223 -1.5558 -0.0991 -0.6465
 4423SOL     OW24727   4.667   0.216   5.700  0.3024  0.0967 -0.3632
 4423SOL    HW124728   4.613   0.146   5.665 -1.0293  1.2626 -0.6345
 4423SOL    HW224729   4.615   0.260   5.767 -0.0192  0.1322 -0.6366
 4424SOL     OW24730   2.312   3.911   8.117 -0.5795  0.3482  0.2763
 4424SOL    HW124731   2.398   3.870   8.110 -1.0093 -0.6176  0.6996
 4424SOL    HW224732   2.329   3.990   8.168  0.9128  1.1598 -1.4844
 4425SOL     OW24733   0.738   4.562   8.899  0.1323 -0.0834 -0.4663
 4425SOL    HW124734   0.802   4.611   8.849 -0.2309 -0.3922 -1.2409
 4425SOL    HW224735   0.775   4.576   8.986 -2.4181  0.0583  0.5967
 4426SOL     OW24736   0.436   2.892   3.672  0.3057 -0.6696 -0.2323
 4426SOL    HW124737   0.355   2.870   3.718 -0.7463  1.3714 -1.1051
 4426SOL    HW224738   0.421   2.849   3.587  0.5284  0.3524 -0.7923
 4427SOL     OW24739   2.170   3.782   8.311 -0.0426  0.7223  0.0399
 4427SOL    HW124740   2.202   3.846   8.374  1.0792  1.3442 -1.1659
 4427SOL    HW224741   2.223   3.818   8.240 -0.0563  0.1477 -0.2661
 4428SOL     OW24742   4.013   0.739   8.386  0.3659  0.8827 -0.2217
 4428SOL    HW124743   3.960   0.801   8.335 -1.6752 -0.6088  0.1032
 4428SOL    HW224744   3.949   0.684   8.431 -0.2644  1.9208  0.1450
 4429SOL     OW24745   3.082   1.039   9.940  0.3348 -0.2356  0.1051
 4429SOL    HW124746   3.047   1.018  10.027  1.7312 -1.0983  0.4643
 4429SOL    HW224747   3.106   0.957   9.896  0.3131 -1.6419  2.6712
 4430SOL     OW24748   1.530   2.749  15.880 -0.0646  0.5824 -0.1827
 4430SOL    HW124749   1.615   2.760  15.839 -0.0349 -0.0155 -0.2839
 4430SOL    HW224750   1.519   2.655  15.864  0.9725  0.1696  1.4729
 4431SOL     OW24751   2.470   2.424   8.318 -0.1648 -0.0316 -0.4972
 4431SOL    HW124752   2.392   2.447   8.266 -1.8439  0.5687  2.2859
 4431SOL    HW224753   2.524   2.399   8.243  1.0400 -0.0905  0.4074
 4432SOL     OW24754   0.136   0.755  15.855  0.4249  0.4252 -0.1541
 4432SOL    HW124755   0.052   0.774  15.814  0.5441  0.3238 -0.4435
 4432SOL    HW224756   0.098   0.714  15.933 -0.3445 -0.5430 -1.0389
 4433SOL     OW24757   3.034   1.670   1.120 -0.2285  0.4290 -0.0618
 4433SOL    HW124758   2.939   1.662   1.111  0.0229 -1.7438 -0.9785
 4433SOL    HW224759   3.061   1.720   1.043  0.2295 -0.6636 -0.6148
 4434SOL     OW24760   2.689   1.308   8.582 -0.6796  0.5639  0.1179
 4434SOL    HW124761   2.635   1.233   8.560 -1.1565  0.7739  0.5797
 4434SOL    HW224762   2.778   1.275   8.571 -1.3612 -1.6491  1.4362
 4435SOL     OW24763   3.431   4.211  17.420 -0.1599 -0.2784 -0.1194
 4435SOL    HW124764   3.347   4.168  17.401  0.1745 -1.5225  1.2072
 4435SOL    HW224765   3.415   4.299  17.385 -4.3872 -1.3940 -1.0801
 4436SOL     OW24766   2.670   3.124   8.652 -0.4195  0.1212 -0.9281
 4436SOL    HW124767   2.601   3.118   8.718  1.9744  0.1819  1.5754
 4436SOL    HW224768   2.675   3.032   8.624  1.4317  0.1706 -0.7930
 4437SOL     OW24769   1.301   2.384  10.275 -0.4175  0.3995  0.2671
 4437SOL    HW124770   1.222   2.343  10.312  0.6512 -1.8382  0.0580
 4437SOL    HW224771   1.337   2.420  10.356  0.1928 -2.4119  1.2479
 4438SOL     OW24772   4.384   0.863   1.037  0.9058  0.5332 -0.1297
 4438SOL    HW124773   4.390   0.768   1.042 -0.4433  0.5918  2.4106
 4438SOL    HW224774   4.364   0.876   0.945  1.5072 -1.0218 -0.4746
 4439SOL     OW24775   2.369   3.262   9.656 -0.2385  0.2339 -0.0353
 4439SOL    HW124776   2.286   3.223   9.627  0.5494 -1.1528 -0.4177
 4439SOL    HW224777   2.364   3.220   9.742  2.7287 -0.3763 -0.1702
 4440SOL     OW24778   2.744   4.420   0.598 -0.0933  0.1330  0.0269
 4440SOL    HW124779   2.818   4.459   0.552  1.3563 -1.7244  0.7921
 4440SOL    HW224780   2.725   4.481   0.670  0.7136 -0.6224  0.8741
 4441SOL     OW24781   4.264   1.359   0.272 -0.3975  0.0866 -0.1124
 4441SOL    HW124782   4.288   1.273   0.237 -1.8197 -1.7349  3.3939
 4441SOL    HW224783   4.342   1.403   0.239  0.6332 -0.8578  1.0385
 4442SOL     OW24784   0.718   2.242  10.736  0.2307  0.2272 -0.8160
 4442SOL    HW124785   0.672   2.321  10.706 -1.3161  0.7324  2.8055
 4442SOL    HW224786   0.641   2.186  10.746 -1.6965  2.8834 -0.6270
 4443SOL     OW24787   4.534   2.459   4.820 -0.2401  0.2612  0.5909
 4443SOL    HW124788   4.542   2.435   4.728 -1.4710 -1.6240  0.9799
 4443SOL    HW224789   4.444   2.489   4.833 -0.6379 -0.1354 -1.3251
 4444SOL     OW24790   4.345   1.602   2.088 -0.5404 -0.2816 -0.7179
 4444SOL    HW124791   4.385   1.677   2.044  1.1360  0.0755  1.3877
 4444SOL    HW224792   4.371   1.619   2.179  0.6444 -0.8280 -0.9496
 4445SOL     OW24793   4.069   4.379   3.155  0.2834 -0.1951 -0.2881
 4445SOL    HW124794   4.161   4.398   3.141  0.6438 -1.7419  0.0283
 4445SOL    HW224795   4.042   4.468   3.177 -0.9223  0.0641 -2.8170
 4446SOL     OW24796   0.883   4.618   4.763 -0.8021 -0.0507  0.0270
 4446SOL    HW124797   0.918   4.529   4.766 -1.4002 -0.3223 -1.0917
 4446SOL    HW224798   0.820   4.598   4.833  0.4471 -1.0455  0.8620
 4447SOL     OW24799   2.602   0.528   8.911 -0.0709 -0.5581  0.2994
 4447SOL    HW124800   2.638   0.440   8.908  3.3427  0.7255  2.9840
 4447SOL    HW224801   2.677   0.585   8.928 -1.0224  1.0556 -0.8201
 4448SOL     OW24802   4.115   4.411  13.632  0.8447  0.1170  0.2459
 4448SOL    HW124803   4.149   4.417  13.721 -0.9925  3.2901  0.7549
 4448SOL    HW224804   4.088   4.501  13.614 -0.2390 -0.5551 -1.5583
 4449SOL     OW24805   0.952   4.675   1.959 -0.2199 -0.1301  0.8794
 4449SOL    HW124806   1.036   4.663   1.916 -0.4861  0.1111  0.3017
 4449SOL    HW224807   0.951   4.613   2.032 -0.2237 -1.3460 -0.1592
 4450SOL     OW24808   3.223   3.520   6.840 -0.4552 -0.3408  0.2305
 4450SOL    HW124809   3.270   3.569   6.908  0.7988 -0.8277 -0.3005
 4450SOL    HW224810   3.292   3.460   6.815  0.1532 -0.4283  2.1112
 4451SOL     OW24811   3.340   0.545  15.653  0.9172  0.2662 -0.3102
 4451SOL    HW124812   3.252   0.540  15.614  0.8433 -0.3967 -0.0650
 4451SOL    HW224813   3.335   0.640  15.659  1.8420  0.3704 -1.0870
 4452SOL     OW24814   3.936   1.434   9.117  0.0726  0.2349 -0.2102
 4452SOL    HW124815   3.855   1.435   9.170 -0.0647  0.4309 -0.4277
 4452SOL    HW224816   3.967   1.523   9.130 -2.9305  1.0586  1.3940
 4453SOL     OW24817   3.977   4.304  13.392  0.4417 -0.1638 -0.4196
 4453SOL    HW124818   4.029   4.339  13.464 -2.7324 -1.9452  2.7941
 4453SOL    HW224819   4.043   4.319  13.325  1.5016 -0.1561  0.6255
 4454SOL     OW24820   1.084   1.457  15.734  0.4469  0.0654  0.0347
 4454SOL    HW124821   0.989   1.460  15.729  0.4396  0.5091  0.3939
 4454SOL    HW224822   1.090   1.362  15.739  0.4382  0.1147  1.1210
 4455SOL     OW24823   0.795   0.311  13.812  0.2336  0.4007 -0.3853
 4455SOL    HW124824   0.717   0.315  13.866  0.8186 -1.7266  0.6172
 4455SOL    HW224825   0.864   0.298  13.878  0.9716  0.5100 -1.1325
 4456SOL     OW24826   3.964   3.804  12.656  0.0039  0.0916  0.3430
 4456SOL    HW124827   3.914   3.880  12.685 -1.7695 -1.4197  1.2032
 4456SOL    HW224828   4.022   3.830  12.583  1.0946  0.9245  1.5066
 4457SOL     OW24829   0.950   1.897   1.925 -0.5768 -0.4254 -0.3490
 4457SOL    HW124830   0.879   1.952   1.892 -0.2063  1.1487  1.5020
 4457SOL    HW224831   0.998   1.963   1.975  1.2743 -0.8021 -1.6097
 4458SOL     OW24832   1.022   1.423   9.552  0.1623 -0.3056 -0.4557
 4458SOL    HW124833   0.931   1.412   9.581 -0.3793 -1.7515 -2.6917
 4458SOL    HW224834   1.067   1.344   9.580  1.3285  0.1659 -1.0263
 4459SOL     OW24835   0.900   0.877   3.004  0.3733  0.0316  0.5619
 4459SOL    HW124836   0.993   0.856   2.993  0.0358 -1.5660  0.7011
 4459SOL    HW224837   0.868   0.888   2.915  3.4209 -1.2177 -0.7257
 4460SOL     OW24838   2.932   2.188   9.850 -0.0887  0.0145 -0.5020
 4460SOL    HW124839   2.999   2.123   9.869 -0.1590 -0.2379 -1.1266
 4460SOL    HW224840   2.945   2.193   9.755  0.5168  1.8306 -0.3288
 4461SOL     OW24841   2.235   4.266   7.524 -0.2898 -0.3195 -0.0357
 4461SOL    HW124842   2.285   4.338   7.563 -0.1658 -0.4839  0.1040
 4461SOL    HW224843   2.239   4.197   7.590  1.4346 -1.0542 -0.8958
 4462SOL     OW24844   3.140   2.452   4.556  0.0654 -0.3634 -0.0943
 4462SOL    HW124845   3.129   2.403   4.474 -0.6504 -0.5336  0.1036
 4462SOL    HW224846   3.056   2.491   4.578  0.1806 -0.2281  0.1073
 4463SOL     OW24847   0.479   1.379   5.119 -0.3040 -0.0909  0.1557
 4463SOL    HW124848   0.562   1.337   5.097 -0.1637  0.2551  0.0293
 4463SOL    HW224849   0.418   1.311   5.089  1.4094 -1.7924  0.5692
 4464SOL     OW24850   1.196   2.358  17.162 -0.4634  0.3448  0.1989
 4464SOL    HW124851   1.216   2.451  17.175  0.7869  0.3909 -1.9822
 4464SOL    HW224852   1.147   2.337  17.241 -1.0042  2.0338  0.3211
 4465SOL     OW24853   0.834   2.559  16.033  0.4888  0.1607  0.2983
 4465SOL    HW124854   0.775   2.608  15.976  2.5140  0.3883 -1.6259
 4465SOL    HW224855   0.769   2.511  16.084  2.1132 -0.3977  1.8331
 4466SOL     OW24856   0.633   1.487  17.005 -0.1092  0.2569 -0.2203
 4466SOL    HW124857   0.641   1.507  16.912  4.7228  1.5477  0.4742
 4466SOL    HW224858   0.696   1.415  17.007 -0.3257  0.1257  1.4556
 4467SOL     OW24859   2.655   3.572   4.094  0.2164  0.0843  0.4841
 4467SOL    HW124860   2.610   3.612   4.168 -0.5756 -0.5916  0.3683
 4467SOL    HW224861   2.684   3.652   4.050 -1.3389 -0.3639 -1.3609
 4468SOL     OW24862   2.055   3.208   0.273  0.4524  0.3160  0.0602
 4468SOL    HW124863   2.035   3.300   0.255  1.3565  0.9590  2.3060
 4468SOL    HW224864   2.095   3.212   0.360  1.2908 -0.9639 -0.2626
 4469SOL     OW24865   2.660   2.976  10.867 -0.2150 -0.6772  0.4466
 4469SOL    HW124866   2.564   2.970  10.870 -0.3028 -1.8312 -3.8242
 4469SOL    HW224867   2.677   2.891  10.827 -1.7177 -0.3898 -0.8314
 4470SOL     OW24868   3.646   2.433   1.737 -0.0122 -0.8294 -0.0279
 4470SOL    HW124869   3.603   2.391   1.663  1.6704 -0.9330 -0.9185
 4470SOL    HW224870   3.694   2.359   1.771  0.7361 -0.0663  0.5702
 4471SOL     OW24871   2.123   1.530  13.545 -0.0177  0.1035 -0.2431
 4471SOL    HW124872   2.092   1.613  13.511 -1.6036 -0.2867  0.2481
 4471SOL    HW224873   2.211   1.559  13.569  0.9200 -1.6005 -1.5739
 4472SOL     OW24874   0.423   4.393   8.692 -0.0671 -0.2650 -0.3754
 4472SOL    HW124875   0.516   4.381   8.708 -0.0118 -0.8941 -1.1591
 4472SOL    HW224876   0.423   4.475   8.741  0.3404 -0.1592 -0.5587
 4473SOL     OW24877   2.999   3.560   9.846 -0.0445  0.0983 -0.3620
 4473SOL    HW124878   3.001   3.469   9.876 -0.5862 -0.1574 -1.0898
 4473SOL    HW224879   2.974   3.544   9.755 -0.1895 -1.6088 -0.0210
 4474SOL     OW24880   1.819   2.491  15.510  0.0630  0.6390 -0.6760
 4474SOL    HW124881   1.749   2.447  15.461  0.4452 -0.5200 -0.1734
 4474SOL    HW224882   1.874   2.415  15.528 -0.0139  1.3742  2.5891
 4475SOL     OW24883   1.891   3.936   2.972 -0.4658 -0.1655 -0.0344
 4475SOL    HW124884   1.930   4.016   3.007  0.7538 -0.8196  0.1109
 4475SOL    HW224885   1.802   3.958   2.946 -0.1795 -1.3652 -2.0325
 4476SOL     OW24886   3.219   0.333   5.144 -0.2321  0.5295  0.5888
 4476SOL    HW124887   3.160   0.335   5.220 -0.7250 -0.4255  0.2359
 4476SOL    HW224888   3.204   0.240   5.128  1.6804  0.5009 -0.9518
 4477SOL     OW24889   0.415   1.320   2.472 -0.3227  0.6282  0.5801
 4477SOL    HW124890   0.406   1.391   2.408 -0.0991  0.0480 -0.0941
 4477SOL    HW224891   0.425   1.238   2.424  1.1962  2.3794 -2.1404
 4478SOL     OW24892   1.154   4.342   4.501 -0.1670 -0.1733 -0.1536
 4478SOL    HW124893   1.238   4.325   4.458  0.2860 -0.0657  0.7055
 4478SOL    HW224894   1.191   4.347   4.589 -1.0039 -0.0234  0.1960
 4479SOL     OW24895   1.578   1.046  17.582  0.3966  0.7603  0.3401
 4479SOL    HW124896   1.665   1.085  17.577  1.0894 -0.8346  0.0665
 4479SOL    HW224897   1.560   1.034  17.489 -0.5147  2.3284  0.3152
 4480SOL     OW24898   3.073   0.314   7.824  0.1228  0.0852  1.0857
 4480SOL    HW124899   3.142   0.320   7.891  0.2217 -0.8494  1.0640
 4480SOL    HW224900   3.109   0.257   7.756 -0.6078  0.2322  0.5902
 4481SOL     OW24901   3.081   1.836   9.008  0.4648  0.0388 -0.4339
 4481SOL    HW124902   3.050   1.905   8.949 -1.6038  0.0408  0.6468
 4481SOL    HW224903   3.006   1.779   8.992 -1.2940  1.6383  2.1471
 4482SOL     OW24904   4.365   3.171   9.309 -0.0463  0.1268 -0.7042
 4482SOL    HW124905   4.435   3.114   9.341 -0.3178  1.6934  2.6239
 4482SOL    HW224906   4.293   3.108   9.299  0.0679 -0.2170  0.5845
 4483SOL     OW24907   4.267   3.782  12.863  0.3335  0.1260  0.3304
 4483SOL    HW124908   4.298   3.864  12.902  3.4028 -1.2881  0.8623
 4483SOL    HW224909   4.184   3.761  12.905  2.1337  1.2982  4.4363
 4484SOL     OW24910   4.107   0.785   5.323  0.2836 -0.2195  0.4107
 4484SOL    HW124911   4.083   0.788   5.415 -1.4026 -1.4522  0.0042
 4484SOL    HW224912   4.168   0.711   5.318  2.8713  1.8333  1.4367
 4485SOL     OW24913   3.441   4.093   1.467 -0.0929  0.5619  0.2535
 4485SOL    HW124914   3.378   4.077   1.537 -1.1113 -1.0668 -1.0175
 4485SOL    HW224915   3.508   4.036   1.503  1.2704  1.8389 -0.2207
 4486SOL     OW24916   3.893   3.498   8.370  0.2167  0.0299 -0.0598
 4486SOL    HW124917   3.976   3.528   8.407  0.8801 -3.1245  0.9857
 4486SOL    HW224918   3.905   3.404   8.383 -0.8327  0.1018  1.3790
 4487SOL     OW24919   1.745   2.543   1.076  0.2878 -0.4586  0.0266
 4487SOL    HW124920   1.714   2.609   1.015  2.3260  1.2491  0.8311
 4487SOL    HW224921   1.687   2.470   1.056  1.3618 -1.3929  0.3331
 4488SOL     OW24922   2.917   2.879   0.891 -0.1635 -0.1974 -0.3794
 4488SOL    HW124923   2.956   2.944   0.949 -1.7287  0.8939 -0.5381
 4488SOL    HW224924   2.825   2.880   0.920 -0.0516 -0.8566  0.0072
 4489SOL     OW24925   3.080   2.119   4.729  0.4428  0.4890  0.0799
 4489SOL    HW124926   3.148   2.077   4.782 -1.0675 -2.6277 -0.4571
 4489SOL    HW224927   3.091   2.209   4.760  0.3756  0.7892 -0.7778
 4490SOL     OW24928   1.662   3.733  14.299 -0.2496  0.7083  0.2899
 4490SOL    HW124929   1.595   3.668  14.318  1.6257 -1.4469 -0.3895
 4490SOL    HW224930   1.730   3.687  14.348 -1.2943 -0.1563  0.9255
 4491SOL     OW24931   2.704   2.910   2.788  0.0365  0.2862  0.3985
 4491SOL    HW124932   2.745   2.993   2.761 -0.6504  1.5891  3.3716
 4491SOL    HW224933   2.785   2.860   2.796  0.3578  0.3109 -2.8860
 4492SOL     OW24934   2.221   1.439   1.316  0.2497  0.2091  0.0161
 4492SOL    HW124935   2.300   1.474   1.357  0.1999 -1.7922  1.7783
 4492SOL    HW224936   2.257   1.391   1.242 -1.9566 -0.9549 -0.2842
 4493SOL     OW24937   1.677   1.074   5.091  0.2537 -0.2399  0.2339
 4493SOL    HW124938   1.625   1.072   5.172  0.4855 -0.0747  0.3839
 4493SOL    HW224939   1.668   0.983   5.061  0.5254 -1.0543  2.6279
 4494SOL     OW24940   1.866   3.664   2.238  0.1532 -0.4675 -0.0252
 4494SOL    HW124941   1.915   3.589   2.204 -0.5149 -1.7076  1.7454
 4494SOL    HW224942   1.893   3.654   2.329  1.6388  1.6263 -0.2611
 4495SOL     OW24943   2.331   0.519  17.174  0.3336  0.1318 -0.3056
 4495SOL    HW124944   2.314   0.460  17.247  3.1670 -1.0848 -0.6354
 4495SOL    HW224945   2.424   0.532  17.188 -0.1005  0.2668  2.3634
 4496SOL     OW24946   3.485   2.604   5.935 -0.3365  0.7228 -0.1280
 4496SOL    HW124947   3.576   2.573   5.941  0.5849  4.3718  4.0876
 4496SOL    HW224948   3.477   2.582   5.842 -0.5161 -0.6643  0.2102
 4497SOL     OW24949   2.864   2.801   4.409  0.2594  0.0300 -0.5700
 4497SOL    HW124950   2.886   2.792   4.316  1.2173  0.7551 -0.4180
 4497SOL    HW224951   2.936   2.754   4.452  1.0108  1.4776 -0.2530
 4498SOL     OW24952   0.866   2.159  11.334  0.1953  0.2108 -0.5483
 4498SOL    HW124953   0.952   2.117  11.335  0.1895  0.2006 -0.5055
 4498SOL    HW224954   0.830   2.154  11.245 -1.9552 -0.5669  0.3594
 4499SOL     OW24955   1.464   2.039   6.498  0.1114  0.0138 -0.3603
 4499SOL    HW124956   1.496   1.971   6.559  1.0841 -0.7707 -1.7409
 4499SOL    HW224957   1.485   2.000   6.413 -2.1323  1.4413 -1.5459
 4500SOL     OW24958   3.340   0.541   9.274  0.2242  0.1676 -0.1950
 4500SOL    HW124959   3.295   0.569   9.354  0.5325  0.1721 -0.0215
 4500SOL    HW224960   3.365   0.455   9.308  0.6625  0.0772 -0.7552
 4501SOL     OW24961   0.450   3.989   2.758 -0.4839 -0.2655  0.6490
 4501SOL    HW124962   0.513   3.927   2.794 -0.1367 -0.6557 -0.6365
 4501SOL    HW224963   0.481   4.076   2.781 -2.9664  0.6436  0.5218
 4502SOL     OW24964   2.651   3.841   8.642 -0.6037  0.0173  0.0237
 4502SOL    HW124965   2.594   3.793   8.583 -2.9209  1.4728  1.1027
 4502SOL    HW224966   2.686   3.767   8.693  1.4030 -0.2270 -1.7332
 4503SOL     OW24967   4.505   3.236   2.995 -0.2350 -0.4550  0.0747
 4503SOL    HW124968   4.424   3.218   2.948 -0.6288 -0.0927  0.6105
 4503SOL    HW224969   4.479   3.324   3.024 -1.3318 -0.9096  0.4874
 4504SOL     OW24970   0.873   3.130   4.795  0.2709  0.4086  0.3222
 4504SOL    HW124971   0.836   3.061   4.740  0.3527  2.5494 -2.4386
 4504SOL    HW224972   0.839   3.207   4.748 -1.2865 -1.1330 -1.0649
 4505SOL     OW24973   3.101   4.234   1.085 -0.1487  0.3178 -0.2221
 4505SOL    HW124974   3.127   4.187   1.006 -1.6691  0.9981 -1.1278
 4505SOL    HW224975   3.151   4.188   1.153 -0.4684 -1.3920 -1.1570
 4506SOL     OW24976   2.433   0.448  11.154 -0.3092 -0.2634  0.2727
 4506SOL    HW124977   2.406   0.501  11.229  2.3124  0.3481  0.7904
 4506SOL    HW224978   2.363   0.469  11.093  1.3187  2.3805 -0.7116
 4507SOL     OW24979   2.478   3.593   2.600 -0.0775 -1.0385  0.6846
 4507SOL    HW124980   2.386   3.570   2.611 -0.5483 -0.0600 -1.0836
 4507SOL    HW224981   2.502   3.550   2.518 -3.5265 -0.0682 -0.8783
 4508SOL     OW24982   2.387   3.034   8.533  0.1440  0.0750  0.2445
 4508SOL    HW124983   2.355   2.947   8.553  0.8393 -0.2200  0.0732
 4508SOL    HW224984   2.397   3.067   8.623  2.1159  0.8725 -0.2741
 4509SOL     OW24985   1.266   1.769   3.224  0.4127  0.2489 -0.1978
 4509SOL    HW124986   1.220   1.692   3.190 -0.8977  1.1827 -0.5749
 4509SOL    HW224987   1.224   1.842   3.179  0.2111  1.3921  1.8296
 4510SOL     OW24988   1.838   4.096   5.299 -1.0706  0.0276 -0.2473
 4510SOL    HW124989   1.844   4.190   5.281 -2.3537 -0.4015 -2.9515
 4510SOL    HW224990   1.758   4.108   5.351 -0.2488 -3.0591  1.7095
 4511SOL     OW24991   1.836   0.763   3.205 -0.3064 -0.3074 -0.7252
 4511SOL    HW124992   1.758   0.783   3.153  0.5062  2.5417 -0.8207
 4511SOL    HW224993   1.881   0.847   3.209  1.0723 -1.0392 -0.9356
 4512SOL     OW24994   3.300   3.278  17.141 -0.3896 -0.4193 -0.1223
 4512SOL    HW124995   3.283   3.237  17.225  1.9313  2.0773  1.5710
 4512SOL    HW224996   3.369   3.339  17.164 -1.6240  1.1643 -0.5755
 4513SOL     OW24997   0.397   3.615   7.366 -0.3243 -0.3719 -0.2055
 4513SOL    HW124998   0.466   3.563   7.324 -1.2310 -3.3086  1.9685
 4513SOL    HW224999   0.431   3.616   7.455 -1.1459  0.3821  0.0995
 4514SOL     OW25000   0.692   3.384   1.331  0.4490 -0.1119  0.1011
 4514SOL    HW125001   0.777   3.374   1.288  1.2579 -0.1615  1.7150
 4514SOL    HW225002   0.668   3.292   1.337  1.4040 -0.3571  0.1705
 4515SOL     OW25003   0.811   0.538   7.524  0.1667  0.0720 -0.1038
 4515SOL    HW125004   0.879   0.497   7.577  0.5874  1.3445  0.3288
 4515SOL    HW225005   0.843   0.521   7.435  1.8906  1.9665  0.1502
 4516SOL     OW25006   2.004   4.278  13.390  0.3857  0.1444 -0.3172
 4516SOL    HW125007   2.020   4.186  13.369 -3.4605 -0.3185 -1.3778
 4516SOL    HW225008   1.983   4.272  13.484  1.6101 -2.3073 -0.2158
 4517SOL     OW25009   1.507   2.597   9.318  0.0509  0.4157  0.5635
 4517SOL    HW125010   1.415   2.621   9.322 -0.2654 -0.5492 -0.9492
 4517SOL    HW225011   1.506   2.504   9.339 -0.0560 -0.2110 -2.3038
 4518SOL     OW25012   2.036   0.042   7.708 -0.2058  0.3148 -0.0114
 4518SOL    HW125013   2.071   4.678   7.701 -1.1995 -0.0854  0.1151
 4518SOL    HW225014   1.984   0.044   7.788  1.7262  2.1000  1.2002
 4519SOL     OW25015   0.800   4.290   9.401  0.2834  0.1078  0.2655
 4519SOL    HW125016   0.806   4.365   9.460  4.7502 -0.7986  0.9353
 4519SOL    HW225017   0.866   4.232   9.437  2.3081  1.4575 -1.2180
 4520SOL     OW25018   4.258   3.557  13.480 -0.3358  0.0611 -0.3748
 4520SOL    HW125019   4.191   3.605  13.431  0.0235 -0.3630 -1.2865
 4520SOL    HW225020   4.219   3.471  13.494  0.5984 -0.2628  0.1776
 4521SOL     OW25021   3.399   2.705   1.541 -0.3460  0.3778  0.0197
 4521SOL    HW125022   3.326   2.645   1.556 -0.9188  0.8124 -1.0298
 4521SOL    HW225023   3.462   2.666   1.480  0.3845 -0.1208  1.0912
 4522SOL     OW25024   4.116   0.520  10.519 -0.0296  0.2598  0.2310
 4522SOL    HW125025   4.152   0.432  10.510 -0.9820 -0.2715  1.6727
 4522SOL    HW225026   4.095   0.542  10.428 -0.5032  0.4444  0.3870
 4523SOL     OW25027   1.448   2.692  10.389 -0.0827 -0.4116 -0.2195
 4523SOL    HW125028   1.532   2.734  10.409  0.2365 -1.0633 -0.2062
 4523SOL    HW225029   1.404   2.761  10.340 -0.2495 -0.0877  0.3907
 4524SOL     OW25030   0.095   3.940   1.753 -0.3562  0.1808 -0.3717
 4524SOL    HW125031   0.034   4.014   1.749 -0.9375 -0.3718 -1.6713
 4524SOL    HW225032   0.140   3.948   1.669 -0.0604 -2.5364 -0.4710
 4525SOL     OW25033   3.692   0.523   4.981  0.8736 -0.1208 -0.3273
 4525SOL    HW125034   3.740   0.465   5.041 -0.6097 -2.0835 -1.0083
 4525SOL    HW225035   3.755   0.545   4.913  0.4724 -0.7302 -0.8971
 4526SOL     OW25036   3.671   0.562  12.424  0.0628  0.5548 -0.2570
 4526SOL    HW125037   3.609   0.622  12.465 -2.0607  0.7381 -3.7263
 4526SOL    HW225038   3.658   0.484  12.477  4.0753  1.4560  2.0440
 4527SOL     OW25039   1.417   3.822   8.185  0.0655 -0.5382  0.2994
 4527SOL    HW125040   1.370   3.886   8.238 -0.6517 -0.4013 -0.5113
 4527SOL    HW225041   1.492   3.875   8.159  2.0842 -3.5693  0.0175
 4528SOL     OW25042   1.336   4.026   4.967  0.3925 -0.1247 -0.0754
 4528SOL    HW125043   1.418   4.070   4.989 -0.3069  1.3039 -0.3356
 4528SOL    HW225044   1.343   4.025   4.872  1.2538  0.7242 -0.0235
 4529SOL     OW25045   1.602   3.037   8.177 -0.4092 -0.3915  0.1246
 4529SOL    HW125046   1.676   3.030   8.237  0.3991  1.7036 -0.6305
 4529SOL    HW225047   1.544   3.005   8.246  0.1073  0.3026  0.8708
 4530SOL     OW25048   3.171   0.538   2.577 -0.0948  0.0348  0.1339
 4530SOL    HW125049   3.108   0.567   2.512 -0.0778  0.1258  0.1575
 4530SOL    HW225050   3.241   0.515   2.516 -0.6916  1.2603 -1.0090
 4531SOL     OW25051   3.290   2.137  17.345 -0.6018 -0.5144 -0.6716
 4531SOL    HW125052   3.340   2.198  17.291 -0.5298  0.0041 -0.0213
 4531SOL    HW225053   3.207   2.135  17.298 -0.3865  1.6024 -1.1012
 4532SOL     OW25054   1.205   1.726   3.685  0.1988  0.0656  0.3155
 4532SOL    HW125055   1.253   1.767   3.614 -1.5808  1.5686 -0.0004
 4532SOL    HW225056   1.176   1.802   3.734 -0.0746  0.3837 -0.3477
 4533SOL     OW25057   3.544   2.303  12.859  0.0854  0.1163 -0.0702
 4533SOL    HW125058   3.454   2.336  12.861 -0.3643 -1.1307  0.7637
 4533SOL    HW225059   3.524   2.220  12.816 -1.3815  0.3974  0.0711
 4534SOL     OW25060   2.180   2.979   3.566 -0.7470 -0.0064 -0.5755
 4534SOL    HW125061   2.200   2.925   3.643 -0.4912 -0.0925 -0.7034
 4534SOL    HW225062   2.257   2.960   3.512 -1.6274 -1.4807 -1.3037
 4535SOL     OW25063   1.120   3.660   4.426 -0.0489  0.2849 -0.4356
 4535SOL    HW125064   1.035   3.683   4.389  0.3952  0.8391 -1.1140
 4535SOL    HW225065   1.126   3.739   4.481 -0.9023 -0.5229  0.8250
 4536SOL     OW25066   0.017   1.362   3.694 -0.2038  0.6370 -0.2616
 4536SOL    HW125067   4.722   1.454   3.679 -2.0464  0.2876  0.0608
 4536SOL    HW225068   0.081   1.337   3.628 -1.4846 -0.3529 -1.1374
 4537SOL     OW25069   2.704   1.191   6.718  0.2707  0.4898  0.5800
 4537SOL    HW125070   2.687   1.113   6.666  1.0600 -0.2344  1.3943
 4537SOL    HW225071   2.616   1.207   6.751 -0.4239 -2.1542 -0.0186
 4538SOL     OW25072   3.153   0.361   2.780  0.0344 -0.1403 -0.4135
 4538SOL    HW125073   3.152   0.440   2.727  1.1812  0.7187  0.8329
 4538SOL    HW225074   3.241   0.326   2.766 -0.3184 -1.6171  0.9319
 4539SOL     OW25075   1.444   2.906   6.834 -0.0138  0.0298 -0.0850
 4539SOL    HW125076   1.483   2.950   6.758 -0.7162  2.1363  0.7492
 4539SOL    HW225077   1.384   2.842   6.798  0.6350 -0.0917 -0.9500
 4540SOL     OW25078   0.461   3.813   0.513 -0.0500 -0.7073  0.2750
 4540SOL    HW125079   0.520   3.809   0.589 -0.1381 -1.7948  0.2888
 4540SOL    HW225080   0.527   3.843   0.450  0.2951 -0.5547  0.7098
 4541SOL     OW25081   2.026   2.372  11.623  0.2743 -0.2737 -0.1899
 4541SOL    HW125082   2.120   2.382  11.610  0.8107 -4.0895  0.7981
 4541SOL    HW225083   2.022   2.285  11.663 -0.2033 -0.8940 -1.5811
 4542SOL     OW25084   4.082   1.127   9.946 -0.1699  0.1970  0.2930
 4542SOL    HW125085   4.011   1.063   9.946  0.7473 -0.8346 -0.6316
 4542SOL    HW225086   4.042   1.190  10.006 -0.3914  1.6256 -1.3783
 4543SOL     OW25087   4.653   1.733   9.124 -0.5012  0.2785  0.0567
 4543SOL    HW125088   0.004   1.708   9.176  0.1254  1.6918 -0.1737
 4543SOL    HW225089   4.582   1.683   9.165 -3.0321  1.5514 -2.8089
 4544SOL     OW25090   2.632   2.229  15.220 -0.0307 -0.1172 -0.1950
 4544SOL    HW125091   2.657   2.207  15.310  1.7118 -0.3989 -0.7359
 4544SOL    HW225092   2.714   2.234  15.169 -0.6585  0.2023 -1.1833
 4545SOL     OW25093   4.019   1.243   8.942  0.4571 -0.0724  0.1772
 4545SOL    HW125094   4.000   1.298   9.018 -1.6920 -0.1564 -0.2878
 4545SOL    HW225095   3.937   1.195   8.936  1.6739 -2.0089 -0.8828
 4546SOL     OW25096   1.664   0.746   7.155 -0.1552 -0.1422 -0.1669
 4546SOL    HW125097   1.588   0.691   7.138  0.6317 -0.5904 -2.1681
 4546SOL    HW225098   1.721   0.712   7.086  0.2348  0.0528  0.0534
 4547SOL     OW25099   0.219   2.004   0.845  0.2749 -0.0489  0.1504
 4547SOL    HW125100   0.277   2.022   0.771  0.6031  2.0161  0.9148
 4547SOL    HW225101   0.135   2.039   0.816 -0.2273 -0.3407  1.2479
 4548SOL     OW25102   1.710   3.391   4.599  0.8291  0.2802 -0.1984
 4548SOL    HW125103   1.631   3.342   4.578  2.5234 -1.5817 -2.1956
 4548SOL    HW225104   1.772   3.321   4.621  0.3285 -0.3946 -0.9712
 4549SOL     OW25105   0.926   3.566   1.712  0.2757  0.1232 -0.3988
 4549SOL    HW125106   0.868   3.575   1.636 -0.8347  0.2437  0.4835
 4549SOL    HW225107   0.885   3.617   1.782  0.9060  0.7610 -0.4858
 4550SOL     OW25108   0.525   2.447  12.897 -0.0796  0.2122 -0.2928
 4550SOL    HW125109   0.558   2.407  12.816 -0.4761  1.7975 -1.2416
 4550SOL    HW225110   0.564   2.534  12.905 -3.5049  1.5087  2.1184
 4551SOL     OW25111   2.100   0.959   5.844  0.0667  0.1582  0.1458
 4551SOL    HW125112   2.014   0.968   5.883 -0.2780 -0.3752 -0.4778
 4551SOL    HW225113   2.158   0.971   5.919 -1.4837 -1.8795  1.6405
 4552SOL     OW25114   2.059   2.768  10.690 -0.0853  0.3293 -0.0207
 4552SOL    HW125115   1.994   2.742  10.624 -1.0388  0.6157  0.8096
 4552SOL    HW225116   2.065   2.861  10.669 -0.5650  0.1038 -1.1652
 4553SOL     OW25117   2.782   4.450  15.595 -0.0675 -0.3739  0.0915
 4553SOL    HW125118   2.710   4.388  15.592  1.4983 -2.2857  1.6071
 4553SOL    HW225119   2.818   4.453  15.506  0.4591 -0.4833  0.3006
 4554SOL     OW25120   2.776   1.319   6.078  0.5630  0.3137 -0.0004
 4554SOL    HW125121   2.800   1.384   6.011 -1.8447 -0.0827 -1.2617
 4554SOL    HW225122   2.741   1.249   6.023 -1.3209 -0.5498  2.3248
 4555SOL     OW25123   1.424   0.378  16.862 -0.1020  0.2757  0.0526
 4555SOL    HW125124   1.368   0.357  16.787 -2.4180 -0.5192  1.9874
 4555SOL    HW225125   1.509   0.372  16.819 -1.2964  1.7767 -2.4978
 4556SOL     OW25126   4.671   2.932   4.648  0.3035  0.1793 -0.6673
 4556SOL    HW125127   4.705   2.978   4.570 -0.5935 -1.6966 -2.1438
 4556SOL    HW225128   4.590   2.902   4.608 -0.0770 -0.6570  0.7821
 4557SOL     OW25129   1.137   2.788  11.571  0.5818  0.6018 -0.6920
 4557SOL    HW125130   1.084   2.723  11.616  0.7963  0.6163 -0.4202
 4557SOL    HW225131   1.148   2.749  11.485  1.4757  1.1885 -0.8488
 4558SOL     OW25132   4.203   0.969   4.599 -0.1578  0.6572 -1.5573
 4558SOL    HW125133   4.258   0.911   4.652 -0.8351  1.1181 -0.3471
 4558SOL    HW225134   4.173   0.913   4.528 -0.6297  1.5820 -2.0793
 4559SOL     OW25135   2.210   0.537  11.307 -0.1684  0.2546 -0.0264
 4559SOL    HW125136   2.167   0.594  11.371  0.4763 -2.1626  2.5330
 4559SOL    HW225137   2.193   0.575  11.221 -0.0690  1.1850  0.3695
 4560SOL     OW25138   2.001   0.977   7.793  0.2498  0.3179  0.1347
 4560SOL    HW125139   2.082   0.977   7.842 -1.2042  1.1860  2.5303
 4560SOL    HW225140   1.944   0.917   7.842  1.1768 -1.9452 -1.5383
 4561SOL     OW25141   3.909   2.645  13.903  0.3308  0.2701  0.0100
 4561SOL    HW125142   3.908   2.560  13.859 -2.4064 -0.7547  2.0719
 4561SOL    HW225143   3.986   2.678  13.857  1.9790 -0.2204  2.3928
 4562SOL     OW25144   1.964   0.824  16.972 -0.0938 -0.1707 -0.9491
 4562SOL    HW125145   2.021   0.876  16.916  0.3634 -0.5125 -0.8024
 4562SOL    HW225146   2.022   0.756  17.008  2.0285  1.9947 -0.3379
 4563SOL     OW25147   2.857   1.499   5.817 -0.3431  0.1294  0.5939
 4563SOL    HW125148   2.838   1.593   5.822  0.5501  0.3606 -0.3552
 4563SOL    HW225149   2.786   1.464   5.764  0.0070  1.0927 -0.5045
 4564SOL     OW25150   3.681   3.550   2.180 -0.6431  0.3300 -0.1601
 4564SOL    HW125151   3.706   3.639   2.203 -1.7109  0.0252  2.2706
 4564SOL    HW225152   3.639   3.513   2.258  1.5156 -1.8433 -0.0459
 4565SOL     OW25153   2.847   4.688   5.077  0.5916  0.0993  0.0878
 4565SOL    HW125154   2.807   0.003   5.154  3.1257  0.4306  1.2413
 4565SOL    HW225155   2.770   4.679   5.021 -0.0207  2.2336  0.5984
 4566SOL     OW25156   3.466   3.240   4.223 -0.2316  0.0674 -0.3458
 4566SOL    HW125157   3.382   3.230   4.268  0.2691  2.6986  1.1558
 4566SOL    HW225158   3.461   3.149   4.193  1.0458 -0.8532  2.1999
 4567SOL     OW25159   1.712   2.339   3.709  0.2621 -0.0074  0.4237
 4567SOL    HW125160   1.663   2.405   3.757  1.4502  1.1018  0.0972
 4567SOL    HW225161   1.801   2.349   3.743  0.9107 -0.6012 -1.0678
 4568SOL     OW25162   2.016   1.770  15.089  0.2532 -0.5027  0.0331
 4568SOL    HW125163   2.097   1.742  15.132 -0.3989 -0.5954  1.2292
 4568SOL    HW225164   1.951   1.717  15.136 -0.7282  0.8432  0.1883
 4569SOL     OW25165   3.874   0.534  17.672 -0.1837 -0.0616 -0.1301
 4569SOL    HW125166   3.807   0.557  17.607 -1.4534  2.9344  2.2604
 4569SOL    HW225167   3.808   0.518   0.036  1.8351  2.5243  2.3974
 4570SOL     OW25168   0.955   1.838   6.710  0.1372 -0.4058 -0.2882
 4570SOL    HW125169   0.994   1.751   6.709  0.7363 -0.1396 -0.1701
 4570SOL    HW225170   0.862   1.818   6.696 -0.1385  0.5929  0.1140
 4571SOL     OW25171   3.348   2.698   9.010 -0.2779 -0.0735  0.0654
 4571SOL    HW125172   3.400   2.624   8.977 -0.1691  0.1597 -0.2864
 4571SOL    HW225173   3.260   2.679   8.979 -1.2894  2.4955  1.4146
 4572SOL     OW25174   4.531   2.632   3.192  0.3259  0.0898  0.2026
 4572SOL    HW125175   4.544   2.722   3.161  0.2100 -0.9284 -2.7838
 4572SOL    HW225176   4.451   2.603   3.149  0.6454  0.0117 -0.3341
 4573SOL     OW25177   4.589   2.900   6.667 -0.2958 -0.2531 -0.1798
 4573SOL    HW125178   4.605   2.988   6.632  1.3507 -0.9179 -1.0464
 4573SOL    HW225179   4.494   2.903   6.680 -0.2405  1.3785 -0.1956
 4574SOL     OW25180   0.207   3.194   7.010 -0.1855  0.1663 -0.1091
 4574SOL    HW125181   0.161   3.243   6.942 -3.1690 -2.3826  0.1275
 4574SOL    HW225182   0.263   3.260   7.052  0.5039 -0.1158 -0.5830
 4575SOL     OW25183   3.798   0.971   3.695  0.8390  0.0385  0.0863
 4575SOL    HW125184   3.702   0.976   3.697  0.7036 -1.9906 -1.9986
 4575SOL    HW225185   3.816   0.933   3.610 -2.8044 -0.3638 -0.5094
 4576SOL     OW25186   0.150   1.923   4.061 -0.5892  0.3935  0.0748
 4576SOL    HW125187   0.181   1.834   4.079 -0.6172 -0.0119 -1.9134
 4576SOL    HW225188   0.152   1.925   3.965 -0.0421 -1.0037  0.0514
 4577SOL     OW25189   2.062   0.543   2.104 -0.0848 -0.1204  0.2913
 4577SOL    HW125190   2.065   0.544   2.008  1.7253  1.4961  0.3915
 4577SOL    HW225191   2.128   0.474   2.106 -0.6872 -0.7528 -1.0670
 4578SOL     OW25192   4.541   2.717   7.168 -0.1449 -0.2051 -0.2563
 4578SOL    HW125193   4.553   2.704   7.262  0.2685 -1.5307 -0.4904
 4578SOL    HW225194   4.504   2.804   7.160 -0.8634 -0.5230 -0.4102
 4579SOL     OW25195   2.415   1.835  17.068  0.0360 -0.1984  0.0089
 4579SOL    HW125196   2.352   1.903  17.042 -0.2977  0.5138  2.6317
 4579SOL    HW225197   2.381   1.798  17.149  1.6333  0.2220  0.8791
 4580SOL     OW25198   2.498   1.658   7.975 -0.3845  0.2616 -0.1058
 4580SOL    HW125199   2.521   1.566   7.959 -3.6593 -0.2820 -1.8202
 4580SOL    HW225200   2.584   1.693   7.956 -0.7072  1.1139  0.0176
 4581SOL     OW25201   2.255   4.442   3.872 -0.1457  0.1723 -0.4476
 4581SOL    HW125202   2.274   4.361   3.824  3.2719 -0.1022  1.3608
 4581SOL    HW225203   2.339   4.488   3.870  0.1447 -0.4212 -1.6504
 4582SOL     OW25204   0.315   0.259   7.323 -0.5100  0.6546 -0.0416
 4582SOL    HW125205   0.315   0.196   7.251 -1.2280  1.3829 -0.6842
 4582SOL    HW225206   0.317   0.212   7.406 -1.3731 -0.7275 -0.8059
 4583SOL     OW25207   3.527   2.542   8.672  0.0766  0.2295 -0.2311
 4583SOL    HW125208   3.432   2.533   8.659 -0.3368  2.7352  1.0365
 4583SOL    HW225209   3.549   2.567   8.582 -1.4502  0.3729 -0.5684
 4584SOL     OW25210   4.423   0.880   7.498  0.3961 -0.2671  1.0074
 4584SOL    HW125211   4.409   0.973   7.486 -1.8077 -0.6319  0.8057
 4584SOL    HW225212   4.362   0.868   7.571 -0.3880  1.8662  0.6732
 4585SOL     OW25213   4.714   1.423   9.244 -0.4322 -0.0089  0.5685
 4585SOL    HW125214   4.652   1.495   9.253  0.8955  0.9149  2.4528
 4585SOL    HW225215   4.688   1.360   9.311 -0.5583 -1.9015 -1.2745
 4586SOL     OW25216   2.743   2.095   2.817 -0.4462 -0.6343  0.6112
 4586SOL    HW125217   2.810   2.150   2.778 -0.6301 -2.0474 -1.7549
 4586SOL    HW225218   2.681   2.085   2.745 -0.8204 -0.7748  0.9538
 4587SOL     OW25219   0.063   0.181   8.703 -0.4827  0.1719  0.5303
 4587SOL    HW125220   4.725   0.111   8.718 -0.2513  0.2638  1.9264
 4587SOL    HW225221   0.075   0.179   8.608 -0.9458 -0.9936  0.5035
 4588SOL     OW25222   1.350   1.181   3.980  0.4677  0.2316 -0.1393
 4588SOL    HW125223   1.301   1.247   4.029 -1.2496 -1.6860  0.7119
 4588SOL    HW225224   1.403   1.140   4.048  1.8502  0.4337 -1.0836
 4589SOL     OW25225   0.089   1.494   5.159 -0.2889 -0.2918 -0.4520
 4589SOL    HW125226   0.067   1.562   5.223 -1.3199 -2.2815  1.3053
 4589SOL    HW225227   0.180   1.520   5.147 -0.1133 -1.6057 -1.9013
 4590SOL     OW25228   1.360   4.273  14.136 -0.6248 -0.3995 -0.3389
 4590SOL    HW125229   1.450   4.295  14.112 -0.9460 -0.6446 -1.7802
 4590SOL    HW225230   1.333   4.229  14.055 -0.5137  1.4142 -1.3620
 4591SOL     OW25231   3.065   1.505   3.926 -0.0562 -0.2578  0.1175
 4591SOL    HW125232   3.014   1.586   3.926 -0.8766 -0.7770  0.0457
 4591SOL    HW225233   3.016   1.451   3.988  0.4707 -2.3190 -1.2617
 4592SOL     OW25234   2.673   2.595   7.742  0.5273 -0.0151 -0.3209
 4592SOL    HW125235   2.645   2.542   7.667  1.5282  1.5014 -1.7639
 4592SOL    HW225236   2.762   2.617   7.715  0.1319  0.7815 -0.9765
 4593SOL     OW25237   1.632   3.781   7.192  0.2002 -0.0751 -0.0830
 4593SOL    HW125238   1.604   3.746   7.277  0.3430  2.1585  0.8838
 4593SOL    HW225239   1.701   3.840   7.223 -0.6463  1.9326 -2.0913
 4594SOL     OW25240   0.743   0.589   8.006  0.7266 -0.8370 -0.3102
 4594SOL    HW125241   0.772   0.655   8.068 -1.1534  1.0973 -1.4536
 4594SOL    HW225242   0.726   0.512   8.060 -1.9257  1.6567  2.4261
 4595SOL     OW25243   2.028   2.821   0.547 -0.4440 -0.6720  0.2116
 4595SOL    HW125244   2.047   2.835   0.454  1.6594  0.3198  0.8149
 4595SOL    HW225245   1.983   2.902   0.572 -0.1711 -0.9899  1.7434
 4596SOL     OW25246   1.447   0.556  11.892  0.8971 -0.1756  0.2924
 4596SOL    HW125247   1.391   0.558  11.969 -1.8582 -1.7789 -1.6924
 4596SOL    HW225248   1.487   0.643  11.899 -2.2997  1.5162 -2.2250
 4597SOL     OW25249   3.363   2.554   5.438  0.5636  0.3953 -0.2961
 4597SOL    HW125250   3.272   2.545   5.409  0.7326  0.4265 -0.8239
 4597SOL    HW225251   3.375   2.645   5.412  0.6982 -0.1163 -1.9848
 4598SOL     OW25252   3.849   3.754   2.855 -0.1757  0.4805  0.5104
 4598SOL    HW125253   3.827   3.752   2.948 -0.0896  1.2018  0.5407
 4598SOL    HW225254   3.860   3.846   2.833 -1.5190  0.7791  1.1364
 4599SOL     OW25255   2.239   2.743   3.691  0.0997 -0.4949 -0.2531
 4599SOL    HW125256   2.205   2.728   3.603 -0.9541 -1.6402  0.3590
 4599SOL    HW225257   2.248   2.655   3.728  1.7440 -0.0553  0.4165
 4600SOL     OW25258   2.772   1.748   6.004  0.0051 -0.0339 -0.3569
 4600SOL    HW125259   2.753   1.757   5.911 -2.4853 -2.4619 -0.1112
 4600SOL    HW225260   2.747   1.833   6.041  0.4575 -0.2449  0.4354
 4601SOL     OW25261   3.439   0.025   4.774  0.3528  0.0276 -0.3430
 4601SOL    HW125262   3.467   0.100   4.826  1.0885 -2.2931  2.6243
 4601SOL    HW225263   3.466   0.051   4.686  1.2968  2.2876  0.6315
 4602SOL     OW25264   3.297   1.379   0.708 -0.2749  0.1727  0.2317
 4602SOL    HW125265   3.220   1.336   0.744  0.5246 -0.3845  1.2880
 4602SOL    HW225266   3.258   1.464   0.689  3.0413  1.6556 -0.0523
 4603SOL     OW25267   4.710   3.132   1.548  0.1018  0.3277 -0.5948
 4603SOL    HW125268   4.675   3.048   1.518  0.4459 -0.8381  2.2319
 4603SOL    HW225269   4.639   3.159   1.607 -0.6243 -1.2026 -0.7459
 4604SOL     OW25270   1.079   1.870   2.206 -0.3295  0.4324 -0.0107
 4604SOL    HW125271   0.996   1.914   2.222 -1.1155 -0.9165 -0.4359
 4604SOL    HW225272   1.048   1.780   2.202 -0.3522  0.4159  0.5921
 4605SOL     OW25273   2.635   2.143   5.123 -0.1982  0.3965 -0.6383
 4605SOL    HW125274   2.628   2.231   5.162 -0.8187 -0.5897  1.4577
 4605SOL    HW225275   2.708   2.103   5.168 -3.4048 -2.9124  1.5629
 4606SOL     OW25276   4.260   2.583  17.445 -0.0883 -0.3959  0.1755
 4606SOL    HW125277   4.258   2.678  17.460  1.4434  0.0136 -2.2001
 4606SOL    HW225278   4.314   2.561  17.522 -0.5331 -1.4388  0.1810
 4607SOL     OW25279   0.707   1.097  10.163  0.4503 -0.0712  0.8951
 4607SOL    HW125280   0.621   1.102  10.122  0.0572 -0.6987  1.6289
 4607SOL    HW225281   0.722   1.183  10.202 -0.3824  0.9228 -0.9570
 4608SOL     OW25282   4.142   3.513   7.137  0.2383  0.4137  0.2582
 4608SOL    HW125283   4.164   3.536   7.227 -3.3141  2.1659  0.6891
 4608SOL    HW225284   4.171   3.592   7.091 -2.4076 -0.3388 -2.7364
 4609SOL     OW25285   1.963   2.451  10.837 -0.2397  0.0609 -0.1053
 4609SOL    HW125286   2.008   2.500  10.768  0.0337 -0.2678 -0.1616
 4609SOL    HW225287   1.880   2.435  10.793  0.5762 -2.6943 -0.6436
 4610SOL     OW25288   3.145   3.913   0.807  0.1216  0.1808  0.0459
 4610SOL    HW125289   3.220   3.853   0.813  0.6734  0.9386  0.7744
 4610SOL    HW225290   3.081   3.867   0.862  0.0585 -0.2302 -0.3739
 4611SOL     OW25291   1.412   2.944  14.741 -0.0608 -0.3083 -0.0084
 4611SOL    HW125292   1.353   2.892  14.687  0.4113 -0.1772 -0.6618
 4611SOL    HW225293   1.470   2.974  14.671  0.5759  0.1680  0.7268
 4612SOL     OW25294   0.618   2.186  13.422 -0.3738  0.0432  0.4257
 4612SOL    HW125295   0.581   2.128  13.355 -1.1464  2.4437 -1.2322
 4612SOL    HW225296   0.706   2.212  13.397  0.2552 -2.8637 -0.3795
 4613SOL     OW25297   2.455   4.698  10.027 -0.1716  0.4835 -0.5736
 4613SOL    HW125298   2.521   4.687   9.959  0.7314 -0.2778  0.4227
 4613SOL    HW225299   2.442   4.607  10.053  0.7740  0.2623 -0.8822
 4614SOL     OW25300   1.553   4.460   0.281 -0.2720 -0.3412 -0.8479
 4614SOL    HW125301   1.638   4.478   0.240  0.6052 -0.5422  0.8942
 4614SOL    HW225302   1.517   4.391   0.226 -0.8895 -0.3740 -0.3940
 4615SOL     OW25303   3.642   0.270   2.888 -0.0909 -0.4146 -0.0742
 4615SOL    HW125304   3.666   0.332   2.957  0.0357 -0.9395  0.3502
 4615SOL    HW225305   3.702   0.290   2.816 -0.3086  3.1145  0.7013
 4616SOL     OW25306   1.213   3.536   0.525  0.0030 -0.2479  0.3133
 4616SOL    HW125307   1.301   3.572   0.541  0.0515 -1.1737  2.0903
 4616SOL    HW225308   1.167   3.544   0.608 -1.6316  0.4214 -0.6620
 4617SOL     OW25309   4.149   1.023   3.566  0.2406 -0.1520 -0.3848
 4617SOL    HW125310   4.235   1.064   3.567  0.4558 -0.6466  1.2095
 4617SOL    HW225311   4.112   1.054   3.649  2.3299  1.3361 -0.0088
 4618SOL     OW25312   2.527   0.498   4.910 -0.1819 -0.0408 -0.4369
 4618SOL    HW125313   2.523   0.587   4.874 -0.6832 -0.4108 -1.3128
 4618SOL    HW225314   2.606   0.466   4.867 -1.3699 -1.7040 -1.3670
 4619SOL     OW25315   0.166   3.451   6.738  0.1991 -0.4566 -0.3609
 4619SOL    HW125316   0.070   3.458   6.743  0.4737  0.7084  3.1191
 4619SOL    HW225317   0.186   3.511   6.809 -0.2211 -0.9705  0.1879
 4620SOL     OW25318   3.166   1.375   1.042 -0.7120 -0.1825  0.0528
 4620SOL    HW125319   3.178   1.468   1.060  0.4878 -0.3614  0.1430
 4620SOL    HW225320   3.071   1.376   1.032 -0.5921 -0.7247 -1.1751
 4621SOL     OW25321   1.643   3.957  15.833  0.0718 -0.2508 -0.5126
 4621SOL    HW125322   1.736   3.936  15.839  0.1295  0.1503  0.0893
 4621SOL    HW225323   1.647   4.010  15.753 -0.2302  0.3182 -0.1519
 4622SOL     OW25324   2.103   4.712   7.250 -0.1574  0.1048 -0.7411
 4622SOL    HW125325   2.142   4.636   7.295  0.1750 -0.4288 -1.9414
 4622SOL    HW225326   2.013   4.680   7.243 -0.1693  0.3271 -1.5827
 4623SOL     OW25327   0.817   2.288   6.935  0.7352 -0.0903  0.0125
 4623SOL    HW125328   0.862   2.354   6.987 -3.4282  0.7799  2.4956
 4623SOL    HW225329   0.882   2.223   6.909  1.2684  0.2949  0.3725
 4624SOL     OW25330   1.409   4.573  17.176  0.1042 -0.6607 -0.3838
 4624SOL    HW125331   1.385   4.614  17.093 -3.3123  1.4037  1.6085
 4624SOL    HW225332   1.474   4.505  17.156 -3.3578 -3.9840 -0.4927
 4625SOL     OW25333   3.777   1.279   0.079  0.3330  0.1315 -0.0853
 4625SOL    HW125334   3.736   1.360   0.111 -2.0025 -0.9283 -0.4427
 4625SOL    HW225335   3.837   1.259   0.151 -0.8415  2.3821  1.5331
 4626SOL     OW25336   2.047   2.468   6.801 -0.1924 -0.2553 -0.1362
 4626SOL    HW125337   2.052   2.462   6.896 -1.5143  0.6398 -0.0101
 4626SOL    HW225338   1.973   2.411   6.778 -0.8677  0.0845  1.2500
 4627SOL     OW25339   0.414   4.710   6.684 -0.0612 -0.1998 -0.6897
 4627SOL    HW125340   0.423   0.067   6.730 -1.1010 -0.7490  0.4852
 4627SOL    HW225341   0.400   4.648   6.755  1.3613  2.3082  1.7969
 4628SOL     OW25342   2.304   3.352  16.282  0.1691 -0.7199  0.8126
 4628SOL    HW125343   2.224   3.403  16.279  0.4386 -0.3788 -0.3723
 4628SOL    HW225344   2.279   3.274  16.233 -0.8972 -0.2957  0.7021
 4629SOL     OW25345   1.905   0.070   1.094  0.2149  0.4490  0.1999
 4629SOL    HW125346   1.841   0.106   1.033 -0.5787  1.0266  1.3826
 4629SOL    HW225347   1.883   0.133   1.163 -2.3352 -1.5265  1.2164
 4630SOL     OW25348   1.968   2.512   8.716  0.2544 -0.2783  0.0602
 4630SOL    HW125349   2.048   2.565   8.721  0.4549 -0.6035  0.2600
 4630SOL    HW225350   2.010   2.451   8.656  0.5625  0.9803 -1.0187
 4631SOL     OW25351   1.526   0.172   7.938 -0.2027  0.4802  0.6504
 4631SOL    HW125352   1.473   0.128   7.871  1.7840 -0.9022  0.0029
 4631SOL    HW225353   1.519   0.113   8.013 -1.6219  0.6867  0.6871
 4632SOL     OW25354   1.572   4.500  17.456 -0.0114  0.2820  0.1225
 4632SOL    HW125355   1.629   4.460  17.390 -0.9819 -2.1197  0.7615
 4632SOL    HW225356   1.563   4.592  17.430 -0.3095  0.4750  0.9142
 4633SOL     OW25357   1.274   3.011   1.711  0.3692 -0.8110 -0.2664
 4633SOL    HW125358   1.256   3.017   1.805 -0.4070 -0.8163 -0.4166
 4633SOL    HW225359   1.310   2.922   1.707  1.3257 -0.4424  0.2246
 4634SOL     OW25360   0.108   3.976  12.468  0.3408 -0.3664  0.0881
 4634SOL    HW125361   0.104   3.962  12.563 -1.6279 -0.9702 -0.0971
 4634SOL    HW225362   0.195   3.940  12.450  0.8426  0.2719  1.1995
 4635SOL     OW25363   2.647   0.055   2.858  0.0133  0.5002 -0.7465
 4635SOL    HW125364   2.628   4.690   2.879 -0.4700  1.0760  1.2461
 4635SOL    HW225365   2.668   0.033   2.767  1.0150  0.6441 -0.5572
 4636SOL     OW25366   1.881   3.078  15.492 -0.4939 -0.0801 -0.1430
 4636SOL    HW125367   1.826   3.003  15.470  0.5982 -0.1443 -2.6403
 4636SOL    HW225368   1.831   3.137  15.437 -1.9241 -0.4609  0.7578
 4637SOL     OW25369   1.221   2.794  15.819  0.7433  0.4896 -0.5683
 4637SOL    HW125370   1.256   2.801  15.908  0.8202 -0.6218 -0.5138
 4637SOL    HW225371   1.279   2.850  15.767  0.2762  1.3048 -0.2075
 4638SOL     OW25372   2.237   3.236   9.296 -0.4121 -0.1887 -0.0967
 4638SOL    HW125373   2.315   3.292   9.304  0.3789 -1.1898 -0.7844
 4638SOL    HW225374   2.179   3.294   9.246  0.8874  0.1507 -1.2090
 4639SOL     OW25375   0.442   2.019   7.372 -0.6858  0.2606  0.0113
 4639SOL    HW125376   0.450   2.044   7.464  0.4165 -0.6136  0.1445
 4639SOL    HW225377   0.408   1.930   7.375 -1.1986  0.4899  1.1886
 4640SOL     OW25378   0.722   3.204   6.901 -0.3077 -0.0677 -0.2150
 4640SOL    HW125379   0.646   3.260   6.882  0.8415  1.3359 -0.6506
 4640SOL    HW225380   0.794   3.261   6.928 -0.1601  0.4875 -1.7831
 4641SOL     OW25381   0.446   1.139   5.580 -0.1843 -0.4271 -0.3481
 4641SOL    HW125382   0.421   1.133   5.488  1.1384  0.4352 -0.7601
 4641SOL    HW225383   0.361   1.144   5.623  0.5288 -1.7245  1.2315
 4642SOL     OW25384   3.002   0.023   1.856 -0.1383 -0.1298  0.1239
 4642SOL    HW125385   2.933   4.684   1.871 -0.8275  0.9512  1.4909
 4642SOL    HW225386   2.947   0.090   1.815 -1.6195 -0.2395  1.9795
 4643SOL     OW25387   0.218   3.265   4.442  0.3415 -0.2772  0.0870
 4643SOL    HW125388   0.246   3.258   4.351 -1.1585  0.2606 -0.4080
 4643SOL    HW225389   0.194   3.358   4.443 -1.9558 -0.8966  2.3998
 4644SOL     OW25390   1.125   1.140   7.609  0.5305 -0.1091  0.4213
 4644SOL    HW125391   1.149   1.229   7.635 -0.6147  0.1703  0.5255
 4644SOL    HW225392   1.046   1.133   7.663  0.2771 -1.4650 -0.1369
 4645SOL     OW25393   2.505   0.723   8.201  0.1035  0.0906  0.4551
 4645SOL    HW125394   2.599   0.706   8.210 -0.2153 -2.4269 -1.0098
 4645SOL    HW225395   2.470   0.639   8.230  0.5462 -0.4613 -0.6286
 4646SOL     OW25396   0.063   3.870   8.645  0.3955 -0.1255  0.0779
 4646SOL    HW125397   0.030   3.959   8.649  0.2780 -0.2104  0.9165
 4646SOL    HW225398   4.725   3.825   8.701  2.2688 -3.9539 -0.8368
 4647SOL     OW25399   3.801   3.688   8.926 -0.0990  0.2897 -0.1767
 4647SOL    HW125400   3.767   3.606   8.961  0.1208 -0.0931 -0.8550
 4647SOL    HW225401   3.896   3.675   8.934  0.1341  0.4780 -2.6286
 4648SOL     OW25402   2.475   3.465   7.318  0.1513 -0.0462 -0.3401
 4648SOL    HW125403   2.458   3.395   7.381  0.9481  1.1175  1.1824
 4648SOL    HW225404   2.402   3.457   7.258  0.6509 -4.3234 -0.3771
 4649SOL     OW25405   4.155   3.054  16.331 -0.7175  0.0988 -0.1079
 4649SOL    HW125406   4.238   3.013  16.357 -0.6258  0.3424 -0.0189
 4649SOL    HW225407   4.172   3.148  16.340 -1.7251  0.3699 -0.9967
 4650SOL     OW25408   1.777   3.840  16.904 -0.1626  0.5045  0.2222
 4650SOL    HW125409   1.701   3.781  16.900  0.6419 -0.4350 -1.3052
 4650SOL    HW225410   1.851   3.783  16.924  0.4399  0.1157 -3.0593
 4651SOL     OW25411   4.508   2.960   8.125 -0.4675 -0.0007 -0.6476
 4651SOL    HW125412   4.515   2.865   8.112 -1.5516 -0.2613  0.7240
 4651SOL    HW225413   4.528   2.976   8.217 -1.5258 -0.5370 -0.3304
 4652SOL     OW25414   4.017   0.268   3.336 -0.0577 -0.4626  0.0615
 4652SOL    HW125415   3.950   0.276   3.404  0.0804  0.8211  0.0536
 4652SOL    HW225416   3.968   0.205   3.283  0.6704 -2.6313  1.9753
 4653SOL     OW25417   2.385   2.776   1.338  0.3916  0.0882  0.1594
 4653SOL    HW125418   2.363   2.856   1.385  1.4887  2.2473 -3.0240
 4653SOL    HW225419   2.418   2.811   1.255 -1.6455 -0.6942 -0.9953
 4654SOL     OW25420   3.619   3.965   6.795 -0.0857 -0.5976  0.3164
 4654SOL    HW125421   3.649   3.999   6.879  0.6971  0.3081 -0.3344
 4654SOL    HW225422   3.692   3.967   6.734 -1.5848 -2.2407 -1.5291
 4655SOL     OW25423   1.915   3.493  13.230  0.3752 -0.5517  0.0490
 4655SOL    HW125424   1.892   3.503  13.137  3.0950 -1.7778 -0.7681
 4655SOL    HW225425   1.856   3.422  13.254  0.5760 -0.8427 -0.3120
 4656SOL     OW25426   1.972   4.656   8.196 -0.2803 -0.0576  0.1942
 4656SOL    HW125427   2.015   4.572   8.177  0.1735  0.6816 -2.1186
 4656SOL    HW225428   1.881   4.636   8.177 -0.1307  0.1361 -0.7684
 4657SOL     OW25429   1.640   1.127   6.811  0.0975  0.0295 -0.9169
 4657SOL    HW125430   1.638   1.210   6.859 -1.6215 -1.2273  1.1578
 4657SOL    HW225431   1.598   1.153   6.729 -0.1771  1.5658 -0.2781
 4658SOL     OW25432   1.737   4.720   7.641 -0.4508  0.3213 -0.4359
 4658SOL    HW125433   1.693   0.059   7.585  0.8938  2.1995  0.6522
 4658SOL    HW225434   1.817   4.698   7.592 -0.3176 -2.5747  1.0954
 4659SOL     OW25435   1.792   3.362   6.226 -0.2141 -0.1487 -0.1463
 4659SOL    HW125436   1.792   3.312   6.144 -0.8468 -0.2963 -0.0518
 4659SOL    HW225437   1.864   3.425   6.215 -1.8629  1.9801  1.2494
 4660SOL     OW25438   2.685   4.666   0.717  0.0726 -0.2487  0.0485
 4660SOL    HW125439   2.739   0.015   0.745  0.3741 -0.4852  0.1038
 4660SOL    HW225440   2.598   4.705   0.717  0.3604  0.3818 -2.0497
 4661SOL     OW25441   1.135   3.108   5.469 -0.6969 -0.5354 -0.6365
 4661SOL    HW125442   1.081   3.170   5.517 -1.1988 -2.0940  0.8076
 4661SOL    HW225443   1.071   3.057   5.418 -0.5290 -1.0248 -0.3610
 4662SOL     OW25444   3.846   2.864   0.145 -0.1585  0.3735 -0.2597
 4662SOL    HW125445   3.762   2.906   0.129 -0.3561 -0.0828 -0.4018
 4662SOL    HW225446   3.846   2.787   0.088  0.1690  1.1478 -1.3063
 4663SOL     OW25447   2.432   3.515   9.795  0.3196  0.7243 -0.1060
 4663SOL    HW125448   2.353   3.508   9.849  0.4011 -0.6624 -0.1625
 4663SOL    HW225449   2.405   3.459   9.722  0.3843 -0.4691  0.7902
 4664SOL     OW25450   3.794   0.280   3.538  0.7283  0.6414 -0.0053
 4664SOL    HW125451   3.815   0.347   3.603  0.2635  1.6529 -0.8900
 4664SOL    HW225452   3.702   0.288   3.514  0.5769 -0.5927  0.1470
 4665SOL     OW25453   1.407   4.398   0.964 -0.5692 -0.0733  0.6224
 4665SOL    HW125454   1.390   4.462   0.894  0.1133 -0.6352 -0.0538
 4665SOL    HW225455   1.467   4.335   0.924  0.6431  0.4218  1.6461
 4666SOL     OW25456   1.126   1.090  10.674  0.5019  0.1475 -1.2433
 4666SOL    HW125457   1.121   1.138  10.592  0.6429  0.2420 -1.1957
 4666SOL    HW225458   1.124   1.000  10.641  0.4292  0.1998 -1.3784
 4667SOL     OW25459   2.136   3.901   8.887  0.0706  0.4337  0.4103
 4667SOL    HW125460   2.052   3.935   8.856 -0.2661 -1.0333 -0.2806
 4667SOL    HW225461   2.198   3.890   8.815  0.1506 -1.8134  0.8033
 4668SOL     OW25462   4.653   4.432   5.720 -0.5103  0.0354  0.3927
 4668SOL    HW125463   0.006   4.471   5.681 -0.0410 -0.3877  0.9112
 4668SOL    HW225464   4.613   4.512   5.753  0.2095  0.3396  0.5300
 4669SOL     OW25465   0.456   0.311   3.531  0.4100 -0.1023 -0.1411
 4669SOL    HW125466   0.395   0.384   3.536  2.1942  1.5455 -2.4786
 4669SOL    HW225467   0.519   0.345   3.467  0.7301  1.5090  1.0181
 4670SOL     OW25468   3.660   1.574   3.303  0.4110 -0.0690 -0.2966
 4670SOL    HW125469   3.662   1.531   3.389 -0.1833  0.6339  0.0705
 4670SOL    HW225470   3.670   1.666   3.331  0.1112 -0.4574  1.0921
 4671SOL     OW25471   4.290   2.486   6.358  0.1193 -0.4692  0.5231
 4671SOL    HW125472   4.202   2.521   6.371  0.1085 -0.4727  0.4590
 4671SOL    HW225473   4.349   2.561   6.355 -0.1598 -0.2265  1.0916
 4672SOL     OW25474   3.456   1.637  14.347 -0.1711  0.3266 -0.2917
 4672SOL    HW125475   3.411   1.560  14.383  0.5591  0.2776  0.5293
 4672SOL    HW225476   3.405   1.709  14.385 -0.2457 -0.5470  1.3004
 4673SOL     OW25477   1.387   4.190   3.157 -0.3704 -0.8652 -0.1206
 4673SOL    HW125478   1.346   4.156   3.077  0.4722 -1.2834 -0.3702
 4673SOL    HW225479   1.458   4.126   3.168  0.5541  0.5864  2.2312
 4674SOL     OW25480   1.921   0.345   1.204  0.0038  0.7385  0.1431
 4674SOL    HW125481   1.845   0.381   1.160  0.4813  0.7220 -0.6926
 4674SOL    HW225482   1.985   0.411   1.178 -1.1663  1.7431 -0.1836
 4675SOL     OW25483   3.162   4.131   5.079 -0.2651 -0.0444  0.8209
 4675SOL    HW125484   3.225   4.081   5.132  1.3109 -0.3087 -1.3209
 4675SOL    HW225485   3.218   4.195   5.035 -1.9741 -1.2886 -3.1511
 4676SOL     OW25486   0.615   2.207   0.027 -0.2466 -0.1342  0.3394
 4676SOL    HW125487   0.630   2.302   0.023 -2.1220  0.1121 -0.3406
 4676SOL    HW225488   0.520   2.208   0.038 -0.1748 -0.5140  1.0351
 4677SOL     OW25489   1.282   0.018   8.045 -0.0315  0.1088  0.1052
 4677SOL    HW125490   1.332   4.682   8.100  0.1995 -0.2171 -0.4762
 4677SOL    HW225491   1.194   4.708   8.061  0.4042 -2.3035 -2.9262
 4678SOL     OW25492   1.810   2.206   6.465  0.3751  0.3965  0.0232
 4678SOL    HW125493   1.871   2.167   6.403  0.8240  1.6290 -0.3238
 4678SOL    HW225494   1.741   2.236   6.406  0.5313 -2.5942 -1.6641
 4679SOL     OW25495   0.648   1.908  14.567  0.3353 -0.1067 -0.4455
 4679SOL    HW125496   0.581   1.851  14.606  1.3752 -0.5425  0.7180
 4679SOL    HW225497   0.594   1.981  14.537 -0.0901 -0.1090  0.3195
 4680SOL     OW25498   1.837   1.734   4.546  0.4808 -0.3780  0.6405
 4680SOL    HW125499   1.814   1.786   4.469  1.4240  1.3647  1.5105
 4680SOL    HW225500   1.820   1.801   4.613 -2.5229  0.4548 -0.9675
 4681SOL     OW25501   2.462   3.539   6.418  0.5245 -0.5178  0.1834
 4681SOL    HW125502   2.472   3.599   6.345  0.8143  0.6449  1.1702
 4681SOL    HW225503   2.376   3.573   6.444  0.2032 -2.3529  1.5119
 4682SOL     OW25504   0.420   0.924  13.812 -0.7905 -0.2211 -0.1174
 4682SOL    HW125505   0.407   0.987  13.882  0.9644 -0.6759  0.6285
 4682SOL    HW225506   0.343   0.868  13.817  0.2037 -1.4222  1.6059
 4683SOL     OW25507   1.297   2.973   3.898 -0.4406  0.1326  0.3839
 4683SOL    HW125508   1.276   2.993   3.989  0.1625 -2.2283  1.0413
 4683SOL    HW225509   1.277   3.053   3.849  1.1209  0.6872  0.6599
 4684SOL     OW25510   4.175   4.551   7.983  0.6102  0.2007  0.0611
 4684SOL    HW125511   4.250   4.506   8.020  0.4765  1.8218  2.2534
 4684SOL    HW225512   4.188   4.626   8.041 -0.8361 -2.2500  3.5799
 4685SOL     OW25513   3.286   3.213   5.226  0.1041  0.1171 -0.0597
 4685SOL    HW125514   3.374   3.182   5.204  0.6853  1.5152  0.3037
 4685SOL    HW225515   3.249   3.237   5.140  1.4987 -0.5070 -0.8253
 4686SOL     OW25516   2.719   2.665   5.973  0.0967 -0.1861  0.0857
 4686SOL    HW125517   2.626   2.648   5.991 -0.3673  1.2226 -0.9354
 4686SOL    HW225518   2.731   2.602   5.903 -1.2509  0.8744 -1.1018
 4687SOL     OW25519   2.905   0.924   6.123 -0.0680 -0.5355  0.1690
 4687SOL    HW125520   2.825   0.923   6.071 -0.9925 -0.0159  1.5818
 4687SOL    HW225521   2.966   0.952   6.054  0.2485  0.4377  0.8448
 4688SOL     OW25522   0.789   0.876   2.731  0.4623 -0.5158 -0.3913
 4688SOL    HW125523   0.826   0.955   2.691 -1.0060 -0.1552 -1.0728
 4688SOL    HW225524   0.700   0.908   2.745  0.0491 -1.6053 -0.5107
 4689SOL     OW25525   0.242   3.822   3.201  0.1979  0.0688 -0.0028
 4689SOL    HW125526   0.227   3.849   3.291  0.1467 -0.8427  0.2688
 4689SOL    HW225527   0.183   3.746   3.198  0.1681  0.0700  0.5546
 4690SOL     OW25528   4.187   0.692  11.168 -0.1667 -0.1021  0.2646
 4690SOL    HW125529   4.129   0.623  11.200 -1.6911  1.0525  0.0079
 4690SOL    HW225530   4.206   0.651  11.083 -1.2314  0.8723 -0.4481
 4691SOL     OW25531   0.611   1.497   7.419  0.3451  0.1859  0.2125
 4691SOL    HW125532   0.699   1.473   7.446  0.6762 -1.4773 -2.2654
 4691SOL    HW225533   0.572   1.559   7.480  0.2968 -0.0342  0.4032
 4692SOL     OW25534   2.582   2.878  11.595  0.2600 -0.2506 -0.1044
 4692SOL    HW125535   2.597   2.806  11.656  1.3518 -1.1816 -1.4715
 4692SOL    HW225536   2.548   2.834  11.517 -0.2640  2.0869 -1.1929
 4693SOL     OW25537   3.595   3.244   3.262 -0.3770  0.1416 -0.2085
 4693SOL    HW125538   3.580   3.241   3.167 -0.9922  0.7754 -0.1344
 4693SOL    HW225539   3.617   3.155   3.290 -1.0090 -0.8761 -2.9030
 4694SOL     OW25540   0.857   0.912   2.076 -0.2095 -0.0994  0.0282
 4694SOL    HW125541   0.772   0.871   2.062 -1.9659  2.6779  2.4119
 4694SOL    HW225542   0.915   0.889   2.003 -0.1075  0.4989 -0.0819
 4695SOL     OW25543   2.562   3.639   0.938 -0.5221 -0.0089  0.5960
 4695SOL    HW125544   2.540   3.568   0.999  1.0635 -1.0293 -0.0371
 4695SOL    HW225545   2.587   3.592   0.858 -0.6709  1.6074 -0.3824
 4696SOL     OW25546   0.205   4.065   2.846  0.7278  0.5072 -0.1699
 4696SOL    HW125547   0.162   4.077   2.761  0.3455  0.1737 -0.0232
 4696SOL    HW225548   0.292   4.041   2.813  1.0957 -0.0493  1.1897
 4697SOL     OW25549   2.477   4.725   5.524 -0.2022  0.6608  0.5028
 4697SOL    HW125550   2.461   4.634   5.500  1.5013  0.7786 -1.0963
 4697SOL    HW225551   2.482   0.007   5.619 -1.1635  0.7926  0.5417
 4698SOL     OW25552   0.372   0.130   2.794  0.1189 -0.2066 -0.5090
 4698SOL    HW125553   0.284   0.100   2.772 -0.8545  0.8563  2.0309
 4698SOL    HW225554   0.392   0.198   2.729  3.5048 -0.3238  0.3781
 4699SOL     OW25555   2.869   0.645   0.883 -0.8727  0.2372  0.2404
 4699SOL    HW125556   2.827   0.565   0.851  0.5171 -1.2422  2.1176
 4699SOL    HW225557   2.817   0.712   0.839 -0.9061 -0.4244 -0.7167
 4700SOL     OW25558   2.948   1.531  16.513 -0.2391  0.0737  0.2939
 4700SOL    HW125559   2.967   1.617  16.551  1.9088 -0.1168 -0.3500
 4700SOL    HW225560   2.918   1.553  16.424 -0.7748  1.6213  0.8513
 4701SOL     OW25561   1.692   2.970  12.006 -0.2580  0.3194  0.3853
 4701SOL    HW125562   1.677   2.892  11.953  1.4866 -0.1173  0.5356
 4701SOL    HW225563   1.637   3.028  11.953  1.3883  0.4238 -1.1694
 4702SOL     OW25564   1.064   4.110   1.260  0.6314  0.1116  0.4306
 4702SOL    HW125565   1.002   4.050   1.219  1.4278 -0.5075  0.1323
 4702SOL    HW225566   1.104   4.140   1.178 -0.0661 -0.9546 -0.3055
 4703SOL     OW25567   3.985   3.584  15.849  0.1485 -0.2522 -0.3926
 4703SOL    HW125568   3.901   3.539  15.837 -0.9103  1.6021  0.1214
 4703SOL    HW225569   3.988   3.664  15.796 -0.7295 -0.2834 -0.4798
 4704SOL     OW25570   3.268   4.075   7.064  0.9276  0.4588  0.1424
 4704SOL    HW125571   3.179   4.042   7.057  0.8445  1.0930 -1.6294
 4704SOL    HW225572   3.306   4.067   6.976  1.1476  0.8563  0.2030
 4705SOL     OW25573   3.913   4.489   9.365 -0.2857 -0.3651  0.5015
 4705SOL    HW125574   3.929   4.402   9.402 -0.3812 -1.4090 -1.8799
 4705SOL    HW225575   3.975   4.489   9.292 -0.3011 -1.4852  0.4831
 4706SOL     OW25576   3.109   2.924   3.064 -0.0913  0.1054  0.0323
 4706SOL    HW125577   3.081   2.838   3.095  1.1724 -0.0103  0.8532
 4706SOL    HW225578   3.055   2.986   3.114  2.3459  3.1332 -1.0609
 4707SOL     OW25579   1.282   3.508  11.407 -0.3210 -0.4837 -0.5110
 4707SOL    HW125580   1.355   3.446  11.409 -1.0038 -1.3146 -1.2140
 4707SOL    HW225581   1.321   3.577  11.461 -1.4114 -0.7351  0.6016
 4708SOL     OW25582   4.459   0.969  10.374 -0.3686  0.4878 -0.2303
 4708SOL    HW125583   4.503   1.049  10.400 -2.3171  1.5314 -0.1271
 4708SOL    HW225584   4.379   1.010  10.339  0.4125  1.9796 -0.2417
 4709SOL     OW25585   1.806   3.860   4.578  0.4143  0.1965  0.2239
 4709SOL    HW125586   1.750   3.812   4.516 -0.0315  0.1681  0.6468
 4709SOL    HW225587   1.750   3.934   4.602 -0.7898 -0.8637  0.7445
 4710SOL     OW25588   2.327   1.658  16.821  0.2554  0.4327 -0.6086
 4710SOL    HW125589   2.365   1.722  16.882  1.1489 -2.8646  2.2754
 4710SOL    HW225590   2.393   1.667  16.752 -0.1361 -0.4423 -1.0898
 4711SOL     OW25591   2.586   1.819   4.933 -0.4167  0.4943 -0.4817
 4711SOL    HW125592   2.528   1.890   4.908 -0.5400  1.0868  1.4567
 4711SOL    HW225593   2.530   1.747   4.960  0.2446  0.1676  0.0496
 4712SOL     OW25594   0.770   2.023  13.581 -0.1266 -0.0641 -0.2787
 4712SOL    HW125595   0.838   2.049  13.519  0.7183 -0.1957  0.5925
 4712SOL    HW225596   0.695   2.069  13.545 -1.6234 -2.2897  0.0155
 4713SOL     OW25597   1.701   2.845   1.653 -0.2735  0.6221 -0.3189
 4713SOL    HW125598   1.748   2.814   1.731  2.4324 -1.0002 -2.5466
 4713SOL    HW225599   1.646   2.911   1.694 -1.0238  0.0492 -0.4013
 4714SOL     OW25600   1.024   1.508   1.446  0.3592 -0.1070 -0.0764
 4714SOL    HW125601   1.088   1.475   1.509  0.0905 -1.2431 -0.3860
 4714SOL    HW225602   1.085   1.531   1.377  1.6830 -1.7685  0.5462
 4715SOL     OW25603   1.266   0.473  13.993  0.1109 -0.0105  0.6459
 4715SOL    HW125604   1.301   0.394  13.951  0.0710  0.1201  0.3647
 4715SOL    HW225605   1.319   0.544  13.955  1.7868 -1.7447 -0.2731
 4716SOL     OW25606   2.352   4.283   5.252  0.2424 -0.4058  1.0686
 4716SOL    HW125607   2.405   4.285   5.173  1.0730  1.3572  1.6691
 4716SOL    HW225608   2.382   4.205   5.299  1.4486 -0.2733  0.5176
 4717SOL     OW25609   0.532   3.529  12.421 -0.1095  0.1627  0.3710
 4717SOL    HW125610   0.627   3.536  12.432  0.2828 -0.9053 -2.2210
 4717SOL    HW225611   0.537   3.438  12.390  1.4205  0.5691 -0.5897
 4718SOL     OW25612   4.327   4.579   5.106 -0.4604 -0.5243 -0.3017
 4718SOL    HW125613   4.325   4.585   5.010 -1.1493 -2.0491 -0.3942
 4718SOL    HW225614   4.232   4.573   5.118 -0.3676 -0.7401  0.3065
 4719SOL     OW25615   2.810   0.978  16.809  0.6307  0.5777  0.3011
 4719SOL    HW125616   2.853   0.896  16.786 -0.4562  0.1174 -0.0680
 4719SOL    HW225617   2.843   1.036  16.739  0.4007 -0.9066 -1.0397
 4720SOL     OW25618   2.464   4.238   2.951  0.2893 -0.1463  0.1486
 4720SOL    HW125619   2.383   4.200   2.986 -0.5417  1.6266  0.1693
 4720SOL    HW225620   2.527   4.166   2.951  0.4156 -0.0481 -1.1725
 4721SOL     OW25621   3.430   1.729   6.649  0.2499  0.2092  0.5099
 4721SOL    HW125622   3.433   1.680   6.732 -0.2307 -0.2486  0.2497
 4721SOL    HW225623   3.431   1.651   6.594 -0.9073  1.7441 -1.6772
 4722SOL     OW25624   4.635   0.292   2.863  0.1048 -0.2976 -0.6313
 4722SOL    HW125625   4.543   0.269   2.874  0.0466  0.6148  0.7505
 4722SOL    HW225626   4.678   0.230   2.921  0.0559 -1.2148 -1.5669
 4723SOL     OW25627   0.181   0.152   6.260  0.4024 -0.2013 -0.4374
 4723SOL    HW125628   0.242   0.085   6.292  2.0609  0.5552 -1.9865
 4723SOL    HW225629   0.205   0.227   6.314  1.5315  0.4194 -1.7837
 4724SOL     OW25630   4.042   2.679  16.406 -0.1071  0.2549  0.2340
 4724SOL    HW125631   4.126   2.708  16.442  0.2062  1.5248 -1.5089
 4724SOL    HW225632   4.059   2.587  16.425  2.4567  0.1362 -2.6511
 4725SOL     OW25633   0.294   1.199   8.459  0.5428 -0.6463 -0.1492
 4725SOL    HW125634   0.228   1.167   8.521  0.2432  2.3436  1.0656
 4725SOL    HW225635   0.351   1.239   8.524 -1.3925  1.6503  0.1380
 4726SOL     OW25636   0.345   0.500   2.546 -0.2231 -0.1777 -0.1683
 4726SOL    HW125637   0.266   0.456   2.516  0.5567 -1.4973 -0.3201
 4726SOL    HW225638   0.405   0.426   2.555 -0.5561 -0.7011 -2.2085
 4727SOL     OW25639   0.828   3.978   4.507  0.0079 -0.1490 -0.4425
 4727SOL    HW125640   0.848   3.892   4.544 -1.8125  0.0865  1.0899
 4727SOL    HW225641   0.762   4.014   4.566  1.7941  1.0907  0.7893
 4728SOL     OW25642   2.745   4.160   0.705  0.4585 -0.0024  0.4212
 4728SOL    HW125643   2.730   4.203   0.789 -1.3590 -2.2579  1.2215
 4728SOL    HW225644   2.753   4.241   0.654 -3.6463  0.2384  0.1623
 4729SOL     OW25645   3.905   1.869   5.800 -0.0792 -0.2755 -0.1076
 4729SOL    HW125646   3.853   1.948   5.781  0.8436  0.5293  0.7801
 4729SOL    HW225647   3.905   1.863   5.895  0.3910 -1.7236 -0.1911
 4730SOL     OW25648   0.880   4.272   2.312  0.2559 -0.0051  0.0021
 4730SOL    HW125649   0.952   4.230   2.359  1.2505  0.5839 -0.9979
 4730SOL    HW225650   0.844   4.187   2.285 -1.7862  1.1923 -1.0490
 4731SOL     OW25651   2.208   2.765   9.005  0.3822 -0.1672  0.2747
 4731SOL    HW125652   2.236   2.856   8.999  0.9603 -0.3957 -0.5707
 4731SOL    HW225653   2.188   2.741   8.915 -0.0896  0.4021  0.2321
 4732SOL     OW25654   1.056   2.823   8.715 -0.2138 -0.4035 -0.3139
 4732SOL    HW125655   1.150   2.812   8.700 -0.1727 -1.6006  0.8548
 4732SOL    HW225656   1.059   2.871   8.797  2.0584 -2.1565  0.6205
 4733SOL     OW25657   1.340   3.124  16.957  0.0948  0.7015  0.4542
 4733SOL    HW125658   1.303   3.068  16.889  1.7652  0.6693 -0.4239
 4733SOL    HW225659   1.265   3.157  17.007 -0.2270  1.8544 -0.8093
 4734SOL     OW25660   3.209   2.903   8.804 -0.1206 -0.3209 -0.0262
 4734SOL    HW125661   3.124   2.885   8.845 -1.0398  2.9972 -0.4260
 4734SOL    HW225662   3.225   2.997   8.813 -1.0973  0.0015 -1.5497
 4735SOL     OW25663   2.599   2.748   2.995  0.3002 -0.1942  0.1806
 4735SOL    HW125664   2.552   2.819   3.039  0.2577  0.5934 -1.1404
 4735SOL    HW225665   2.627   2.779   2.909  0.6335 -1.4619 -0.1658
 4736SOL     OW25666   2.109   3.831   5.042 -0.3256 -1.0055  0.1451
 4736SOL    HW125667   2.046   3.866   5.105  1.3942 -1.5661  2.1556
 4736SOL    HW225668   2.066   3.849   4.959 -1.5930 -0.2761  0.9607
 4737SOL     OW25669   0.259   0.824  16.948 -0.2230  0.2010  0.5039
 4737SOL    HW125670   0.269   0.858  17.037 -0.8769  1.6584  0.0054
 4737SOL    HW225671   0.276   0.730  16.961  1.5219  0.5503  0.8057
 4738SOL     OW25672   4.343   0.985   6.331 -0.2443  0.3717 -0.6524
 4738SOL    HW125673   4.276   1.023   6.274 -1.4364 -2.0016 -0.8183
 4738SOL    HW225674   4.302   0.984   6.418  1.1195 -2.0087 -0.0437
 4739SOL     OW25675   1.364   0.978  11.557  0.1343 -0.4720  0.3685
 4739SOL    HW125676   1.406   1.028  11.487  1.5934 -0.8100  1.0051
 4739SOL    HW225677   1.349   1.050  11.618  0.0386  0.6447 -0.9932
 4740SOL     OW25678   3.251   3.695   9.839 -0.1175  0.4172 -0.5913
 4740SOL    HW125679   3.204   3.614   9.855  1.0683  0.2454  1.9846
 4740SOL    HW225680   3.170   3.744   9.825 -0.3582  0.9181  2.5974
 4741SOL     OW25681   0.824   4.368  13.619 -0.1445  0.5717 -1.2015
 4741SOL    HW125682   0.758   4.437  13.606 -1.9798 -1.0398 -0.4949
 4741SOL    HW225683   0.868   4.380  13.535  0.2538 -2.7363 -1.4447
 4742SOL     OW25684   0.392   3.697   4.080 -0.4283  0.2566  0.4171
 4742SOL    HW125685   0.307   3.655   4.070 -0.3393  0.3025 -0.4756
 4742SOL    HW225686   0.383   3.771   4.020 -0.5950  1.8939  2.4673
 4743SOL     OW25687   1.295   3.459   5.306 -0.1264 -0.1217  0.0461
 4743SOL    HW125688   1.253   3.490   5.385 -1.2412  2.0463 -1.4030
 4743SOL    HW225689   1.257   3.517   5.241 -1.7008  0.4559  1.5109
 4744SOL     OW25690   1.914   1.763  12.633 -0.1559 -0.7673  0.2278
 4744SOL    HW125691   1.842   1.701  12.643 -2.1618  1.2788 -1.4427
 4744SOL    HW225692   1.996   1.715  12.645 -0.0043 -0.9937 -1.6028
 4745SOL     OW25693   1.736   3.016   4.340  0.5270 -0.1899 -0.3479
 4745SOL    HW125694   1.792   3.090   4.318  0.8676 -0.3293  0.0472
 4745SOL    HW225695   1.677   3.017   4.265 -0.2581 -4.7542  0.1738
 4746SOL     OW25696   2.601   2.513   6.344 -0.0778 -0.0006 -0.5446
 4746SOL    HW125697   2.694   2.535   6.354 -0.3395 -0.6795  3.6017
 4746SOL    HW225698   2.603   2.456   6.421  1.4144 -1.5149 -1.7237
 4747SOL     OW25699   3.107   0.727   7.464 -0.0530  0.2789  0.0020
 4747SOL    HW125700   3.125   0.801   7.406 -4.7557  0.7416 -0.8646
 4747SOL    HW225701   3.025   0.699   7.422 -0.2744  1.1306 -0.1333
 4748SOL     OW25702   0.715   3.409   4.984  0.4789  0.0710 -0.2215
 4748SOL    HW125703   0.784   3.352   4.950  0.0167  0.4209 -1.7385
 4748SOL    HW225704   0.652   3.338   4.997  1.0663 -0.4033  0.0257
 4749SOL     OW25705   0.126   4.119  11.696  0.0398 -0.4933  0.1962
 4749SOL    HW125706   0.216   4.087  11.692  0.3238  0.4294 -0.7956
 4749SOL    HW225707   0.138   4.177  11.772 -0.3357  2.1929 -1.7910
 4750SOL     OW25708   4.613   3.763   6.788 -0.2519 -0.1491 -0.2677
 4750SOL    HW125709   4.596   3.838   6.844 -1.7817 -2.0512  1.8361
 4750SOL    HW225710   4.581   3.793   6.702  2.5718  2.6465 -0.3434
 4751SOL     OW25711   0.832   1.915   8.734  0.4270  0.7231  0.2509
 4751SOL    HW125712   0.842   2.002   8.772  0.3610  0.2426  1.3557
 4751SOL    HW225713   0.748   1.936   8.693 -0.4829  0.7336  2.1170
 4752SOL     OW25714   0.178   1.297   3.349  0.5569  0.1410 -0.0317
 4752SOL    HW125715   0.185   1.390   3.369  1.0255  0.4412 -1.6181
 4752SOL    HW225716   0.086   1.280   3.328  0.4817  0.9417 -0.3568
 4753SOL     OW25717   2.928   2.897   8.192 -0.6163 -0.0365 -0.1860
 4753SOL    HW125718   2.918   2.827   8.128 -0.4727 -1.8440  1.7415
 4753SOL    HW225719   2.969   2.967   8.142 -1.8625  1.5880  1.0930
 4754SOL     OW25720   2.882   1.622   7.453  0.5419 -0.3534 -0.0384
 4754SOL    HW125721   2.946   1.688   7.427  2.3196 -2.0246  0.0811
 4754SOL    HW225722   2.860   1.593   7.365 -2.8489 -0.4688  0.8132
 4755SOL     OW25723   0.993   2.030   2.499  0.1015  0.2864  0.1914
 4755SOL    HW125724   0.924   2.044   2.434  0.3199  2.6399  0.4546
 4755SOL    HW225725   1.068   2.058   2.446 -0.3513  0.3431 -0.4115
 4756SOL     OW25726   3.925   2.293   8.728 -0.0854  0.0968 -0.4555
 4756SOL    HW125727   3.940   2.386   8.712 -2.1638  0.0110 -2.8894
 4756SOL    HW225728   3.829   2.291   8.726 -0.1580 -0.5631  3.0187
 4757SOL     OW25729   2.638   3.716   9.790 -0.0646  0.3458  0.8400
 4757SOL    HW125730   2.681   3.695   9.874  0.5823  0.1950  0.4711
 4757SOL    HW225731   2.570   3.649   9.785  0.1691  0.2232 -0.7133
 4758SOL     OW25732   3.919   0.477  14.948 -0.2962  0.0188  0.0747
 4758SOL    HW125733   3.922   0.413  15.019  1.6980  1.8379  1.6173
 4758SOL    HW225734   3.973   0.434  14.882 -0.4583 -2.8110  1.7898
 4759SOL     OW25735   4.567   2.069   3.241  0.0191 -0.4471  0.1447
 4759SOL    HW125736   4.513   2.014   3.183  2.0701 -1.3733 -0.8889
 4759SOL    HW225737   4.563   2.146   3.184 -0.8025 -1.9432 -1.7938
 4760SOL     OW25738   3.953   4.142  17.674  0.1924 -1.1662 -0.7752
 4760SOL    HW125739   4.039   4.131   0.012  0.2486 -0.4390 -0.6875
 4760SOL    HW225740   3.901   4.118   0.047 -0.3429  2.3720 -0.0098
 4761SOL     OW25741   4.249   1.904   7.252 -0.0238 -0.3845 -0.0150
 4761SOL    HW125742   4.334   1.860   7.261 -1.1198 -2.6025 -0.5396
 4761SOL    HW225743   4.270   1.993   7.279 -0.4614 -0.3527  0.2127
 4762SOL     OW25744   2.014   4.129   1.809  0.3680 -0.4060 -0.3770
 4762SOL    HW125745   2.096   4.164   1.844 -0.3506 -0.6740  1.5615
 4762SOL    HW225746   1.948   4.180   1.856 -1.5852 -1.1842 -2.3017
 4763SOL     OW25747   1.448   0.363   4.184 -0.1826 -0.5495 -0.1612
 4763SOL    HW125748   1.438   0.334   4.093 -3.0722  1.0064 -0.3317
 4763SOL    HW225749   1.529   0.413   4.176 -1.1227  1.1032  0.7120
 4764SOL     OW25750   1.326   3.466   7.305  0.0261  0.1379 -0.2565
 4764SOL    HW125751   1.310   3.497   7.394  0.4875  0.5379 -0.3080
 4764SOL    HW225752   1.286   3.539   7.257  1.5954  2.1604  1.4647
 4765SOL     OW25753   1.709   1.968   3.250 -0.0786  0.3827  0.6525
 4765SOL    HW125754   1.657   1.890   3.269  0.7474  0.2741  2.4923
 4765SOL    HW225755   1.799   1.941   3.229  0.9033  3.4625  0.9392
 4766SOL     OW25756   1.891   2.299   8.887 -0.4651 -0.1268  0.6723
 4766SOL    HW125757   1.897   2.383   8.842  0.4361  0.6655  2.2465
 4766SOL    HW225758   1.923   2.331   8.972  0.6769 -0.0627  0.2291
 4767SOL     OW25759   3.768   1.205   4.148  0.3415 -0.3901  0.5217
 4767SOL    HW125760   3.678   1.176   4.165  0.0772  0.0253 -0.1451
 4767SOL    HW225761   3.757   1.248   4.063  2.6927  1.0535  0.9842
 4768SOL     OW25762   2.641   2.416   8.099 -0.0553 -0.7236 -0.1698
 4768SOL    HW125763   2.671   2.499   8.063  0.6338 -0.7226  0.4152
 4768SOL    HW225764   2.691   2.354   8.045  1.8201 -0.6460  1.5012
 4769SOL     OW25765   3.351   1.938   8.526 -0.2092 -0.6693 -0.4731
 4769SOL    HW125766   3.388   1.859   8.486 -0.1786 -0.0948 -1.5749
 4769SOL    HW225767   3.426   1.989   8.557 -1.2490  1.8856 -2.1516
 4770SOL     OW25768   3.789   1.350   2.032 -0.2227  0.8266  0.0714
 4770SOL    HW125769   3.718   1.377   1.973 -0.4133 -2.4505 -1.1782
 4770SOL    HW225770   3.794   1.426   2.090  0.9401  1.4260 -0.7958
 4771SOL     OW25771   1.788   0.972  14.485 -0.4848 -0.2734  0.1040
 4771SOL    HW125772   1.718   1.030  14.455 -1.0652 -0.6823  0.6730
 4771SOL    HW225773   1.750   0.930  14.562  1.3941  0.8317  1.6385
 4772SOL     OW25774   4.589   1.996   4.679  0.5012  0.6825 -0.1244
 4772SOL    HW125775   4.612   2.013   4.588  2.3413 -0.4882  0.1167
 4772SOL    HW225776   4.494   1.992   4.669  0.5220 -0.9553  0.3813
 4773SOL     OW25777   4.345   2.100   9.109  0.5118  0.5386  0.2103
 4773SOL    HW125778   4.400   2.127   9.182  0.3460 -0.7818  0.8182
 4773SOL    HW225779   4.405   2.048   9.056 -1.4781 -1.7326  0.1474
 4774SOL     OW25780   2.109   2.397   2.441 -0.5569  0.6195 -0.1537
 4774SOL    HW125781   2.161   2.470   2.406  0.5182  1.0133  2.2188
 4774SOL    HW225782   2.153   2.373   2.523 -1.5136 -1.7516 -0.3208
 4775SOL     OW25783   1.538   3.292  10.991  0.4516  0.0153  0.3643
 4775SOL    HW125784   1.523   3.312  11.084 -0.0099 -0.2215  0.3450
 4775SOL    HW225785   1.601   3.220  10.998 -0.2109 -0.4806  1.3155
 4776SOL     OW25786   2.070   2.505   6.341  0.1780  0.1754  0.5958
 4776SOL    HW125787   1.986   2.515   6.385 -0.4258  0.7709 -0.6805
 4776SOL    HW225788   2.118   2.505   6.424 -0.8012 -0.9600  1.1649
 4777SOL     OW25789   4.274   3.936  10.369  0.1499  0.4222 -0.4036
 4777SOL    HW125790   4.321   3.961  10.448 -0.2926  1.9622 -0.6129
 4777SOL    HW225791   4.338   3.915  10.301 -0.6326 -0.4178 -0.8748
 4778SOL     OW25792   0.064   0.320   1.920  0.1842  0.5242  0.0768
 4778SOL    HW125793   0.109   0.247   1.963  0.7222  0.8500  0.0641
 4778SOL    HW225794   0.035   0.385   1.983 -0.7501 -1.6638  1.9181
 4779SOL     OW25795   2.349   4.476   4.594  0.2895 -0.5480  0.8032
 4779SOL    HW125796   2.436   4.492   4.557 -0.1247 -0.4517 -0.1184
 4779SOL    HW225797   2.297   4.512   4.522  2.8151  0.3311 -0.5811
 4780SOL     OW25798   1.931   1.642  11.838  0.0501 -0.5172 -0.0945
 4780SOL    HW125799   1.864   1.701  11.803 -0.3782 -1.4659 -0.8711
 4780SOL    HW225800   2.011   1.693  11.826 -1.0317  1.3220  0.5291
 4781SOL     OW25801   2.047   2.057  11.685  0.3058  0.0012  0.1174
 4781SOL    HW125802   2.108   2.017  11.747 -0.6987 -2.5667 -0.5359
 4781SOL    HW225803   2.001   2.119  11.742  0.4147 -0.1513  0.3707
 4782SOL     OW25804   4.064   1.045  17.109 -0.6299  0.2029 -0.5516
 4782SOL    HW125805   4.018   1.116  17.153  0.5611 -0.1214  1.2024
 4782SOL    HW225806   4.146   1.081  17.073  1.9247 -2.5841  2.4611
 4783SOL     OW25807   1.962   0.139  15.808  0.3165 -0.5232  0.1758
 4783SOL    HW125808   1.900   0.067  15.803 -0.1640 -0.1850  1.3383
 4783SOL    HW225809   1.908   0.203  15.761  0.2192 -0.5352  0.2714
 4784SOL     OW25810   2.776   4.528   6.335 -0.1213  0.1286 -0.4598
 4784SOL    HW125811   2.832   4.591   6.289 -0.9877 -0.1200 -1.8601
 4784SOL    HW225812   2.828   4.488   6.404  0.2397  0.4554 -0.5413
 4785SOL     OW25813   3.390   0.707   5.405  0.1576  0.0507  0.4450
 4785SOL    HW125814   3.295   0.693   5.409  0.5183 -2.0383  1.3618
 4785SOL    HW225815   3.411   0.734   5.316 -1.1613 -0.1974  0.0491
 4786SOL     OW25816   2.931   4.043   2.748 -0.8003  0.7819  0.0417
 4786SOL    HW125817   2.971   3.964   2.786 -0.9000  0.1355 -1.1968
 4786SOL    HW225818   2.853   4.016   2.700  0.6331  0.4130 -2.0495
 4787SOL     OW25819   1.389   1.518   3.722  0.8084  0.1074 -0.2265
 4787SOL    HW125820   1.342   1.449   3.676  2.5101 -0.1591 -1.5853
 4787SOL    HW225821   1.324   1.588   3.733  0.6962 -0.0705  0.2386
 4788SOL     OW25822   2.308   3.131   0.457 -0.0040  0.1833 -0.3082
 4788SOL    HW125823   2.284   3.060   0.516 -2.3644 -0.7752 -2.4026
 4788SOL    HW225824   2.326   3.083   0.376 -0.1115 -1.2886  0.5378
 4789SOL     OW25825   1.560   3.694   5.900  0.2841  0.4742 -0.2875
 4789SOL    HW125826   1.603   3.609   5.887 -0.0296 -0.0618  2.1317
 4789SOL    HW225827   1.584   3.727   5.987 -0.6431 -0.1621  0.2133
 4790SOL     OW25828   1.574   2.188   6.985  0.7123 -0.1924 -0.4296
 4790SOL    HW125829   1.526   2.265   6.954 -0.7591 -1.0449 -0.2533
 4790SOL    HW225830   1.567   2.178   7.080 -1.8111 -1.5637 -0.7704
 4791SOL     OW25831   1.504   4.465   8.943 -0.2701 -0.2295  0.3784
 4791SOL    HW125832   1.520   4.484   9.036 -2.2700  1.3523  0.3885
 4791SOL    HW225833   1.523   4.550   8.904  0.4165 -0.4281  0.2785
 4792SOL     OW25834   3.325   4.096   8.664  0.4046  0.0243 -0.3453
 4792SOL    HW125835   3.231   4.094   8.683 -0.0093  0.2739 -2.3349
 4792SOL    HW225836   3.333   4.010   8.705  3.3283 -0.0542 -1.0789
 4793SOL     OW25837   2.381   4.612  15.689  0.4748 -0.5880  0.1226
 4793SOL    HW125838   2.389   4.522  15.656  0.2326  0.0827 -1.7422
 4793SOL    HW225839   2.295   4.618  15.731  0.5481 -2.6331  0.5672
 4794SOL     OW25840   3.293   1.116   8.007  0.0570  0.4482  0.2037
 4794SOL    HW125841   3.311   1.122   7.913 -1.2088  0.1914 -0.0565
 4794SOL    HW225842   3.211   1.164   8.013 -0.2554  0.0112 -0.6300
 4795SOL     OW25843   2.924   1.232   9.229  0.3659 -0.3974 -0.5901
 4795SOL    HW125844   2.953   1.285   9.303  0.6665  0.7804 -1.5527
 4795SOL    HW225845   3.003   1.229   9.174  1.2099 -0.8696  0.6526
 4796SOL     OW25846   0.216   2.956   8.518  0.1028  0.4040  0.3979
 4796SOL    HW125847   0.278   2.892   8.482 -0.7446  0.2003 -0.7137
 4796SOL    HW225848   0.226   2.957   8.613 -0.4727  1.9397  0.4431
 4797SOL     OW25849   4.510   1.920   5.322 -0.5188 -0.0718  0.0446
 4797SOL    HW125850   4.460   1.946   5.245  2.7985 -1.3835 -2.5850
 4797SOL    HW225851   4.447   1.871   5.374 -1.0577  2.3641  1.6290
 4798SOL     OW25852   0.975   3.291   7.008  0.0415 -0.2267 -0.0169
 4798SOL    HW125853   0.944   3.276   7.098  0.3854  1.6349  0.4067
 4798SOL    HW225854   0.962   3.385   7.002  0.8868 -0.1373 -0.4015
 4799SOL     OW25855   2.963   1.021  15.939 -0.5677 -0.9215 -0.5103
 4799SOL    HW125856   2.970   1.051  16.030 -0.3777 -3.1899  0.2233
 4799SOL    HW225857   2.928   0.934  15.961 -1.3224 -0.7359 -0.9879
 4800SOL     OW25858   0.937   0.623   5.783  0.4732  0.3385 -0.2117
 4800SOL    HW125859   0.970   0.675   5.710 -0.2789 -1.4387 -1.8304
 4800SOL    HW225860   0.879   0.676   5.838  0.9906 -0.6801  1.3512
 4801SOL     OW25861   2.898   4.131   2.429  0.4753  0.3232  0.2382
 4801SOL    HW125862   2.976   4.077   2.429  0.5131  0.3865 -0.3694
 4801SOL    HW225863   2.841   4.077   2.484 -0.2265  0.6990 -0.1226
 4802SOL     OW25864   2.769   2.040  11.091  1.1221  0.2970 -0.2319
 4802SOL    HW125865   2.766   2.024  11.185 -0.6836  0.0598 -0.3111
 4802SOL    HW225866   2.858   2.019  11.065  1.7354  0.4320  1.8189
 4803SOL     OW25867   0.096   0.361   2.395 -0.2570  0.2013  0.5867
 4803SOL    HW125868   0.045   0.441   2.400  0.0456  0.5483 -2.2108
 4803SOL    HW225869   0.078   0.320   2.311 -1.2070 -0.6652  1.2090
 4804SOL     OW25870   4.509   4.307   2.994 -0.2530  0.0765 -0.0876
 4804SOL    HW125871   4.547   4.383   2.950  1.7841 -0.5600  0.5570
 4804SOL    HW225872   4.564   4.303   3.072 -0.7116 -0.6107  0.2067
 4805SOL     OW25873   4.345   4.148   5.591  0.0769 -0.3976 -0.1609
 4805SOL    HW125874   4.439   4.161   5.604 -0.0311  1.1911 -0.9629
 4805SOL    HW225875   4.331   4.102   5.674 -0.4342  0.8349  0.4399
 4806SOL     OW25876   0.285   4.160   1.573 -0.1802 -0.2483  0.0749
 4806SOL    HW125877   0.280   4.176   1.479  0.5792  0.5501  0.1708
 4806SOL    HW225878   0.190   4.159   1.587 -0.6006  0.2370 -2.8428
 4807SOL     OW25879   2.303   0.901   9.470  0.0290  0.4882  0.1337
 4807SOL    HW125880   2.213   0.887   9.440  0.2413 -2.8190  1.0804
 4807SOL    HW225881   2.310   0.846   9.548  2.1814  1.9299  0.9611
 4808SOL     OW25882   1.019   2.748   9.257 -0.1089 -0.0166 -0.2525
 4808SOL    HW125883   0.932   2.708   9.262 -0.3493  0.5978  0.4798
 4808SOL    HW225884   0.991   2.837   9.279  1.3812  0.4219 -0.1452
 4809SOL     OW25885   1.703   1.723   6.178  0.0828  0.2381 -0.0652
 4809SOL    HW125886   1.795   1.700   6.188 -0.1005 -0.4924 -0.1182
 4809SOL    HW225887   1.657   1.653   6.225 -2.1949  1.0560 -1.0864
 4810SOL     OW25888   1.577   0.503   8.306 -0.9946  0.1315 -0.4960
 4810SOL    HW125889   1.494   0.459   8.291 -0.5950 -1.5134  2.0741
 4810SOL    HW225890   1.644   0.440   8.283 -0.6459  0.6664 -0.9489
 4811SOL     OW25891   4.673   2.939   7.781  0.5089  0.1596  0.1350
 4811SOL    HW125892   4.702   2.880   7.850  1.2561  0.9356  0.4860
 4811SOL    HW225893   0.034   2.975   7.763  0.2406  1.9386  2.4483
 4812SOL     OW25894   2.394   0.414   5.310 -0.0981  0.6436  0.4839
 4812SOL    HW125895   2.389   0.388   5.402 -0.3427 -1.2628 -0.0676
 4812SOL    HW225896   2.317   0.471   5.311 -0.5149  0.0819  0.4204
 4813SOL     OW25897   4.160   0.025   8.178  0.1402  0.3278  0.2590
 4813SOL    HW125898   4.238   0.067   8.213 -0.4446  1.0426  0.6873
 4813SOL    HW225899   4.108   0.102   8.156 -3.8743 -2.2651  0.6091
 4814SOL     OW25900   1.236   0.117  14.235  0.1605 -0.4832 -0.0264
 4814SOL    HW125901   1.262   0.025  14.231 -2.2572 -1.1014 -1.6642
 4814SOL    HW225902   1.223   0.131  14.141  0.9306  0.9928  0.0857
 4815SOL     OW25903   0.140   4.136   4.947  0.5849 -0.1737 -0.6284
 4815SOL    HW125904   0.139   4.164   4.856  2.6671  3.4885  0.4704
 4815SOL    HW225905   0.227   4.096   4.959  1.2494  1.0304 -1.4067
 4816SOL     OW25906   1.195   0.337   5.378  0.0316  0.1064  0.4170
 4816SOL    HW125907   1.282   0.375   5.391  0.5896 -1.1452  0.3512
 4816SOL    HW225908   1.134   0.407   5.402 -0.3175  0.1643 -0.6444
 4817SOL     OW25909   2.030   3.377   5.581 -0.1106  0.2353 -0.1102
 4817SOL    HW125910   2.099   3.389   5.646 -1.3465 -3.5405  1.8626
 4817SOL    HW225911   2.077   3.365   5.499  3.2468  2.3025  1.5018
 4818SOL     OW25912   0.707   3.311   0.732  0.7270 -0.0842  0.3487
 4818SOL    HW125913   0.631   3.331   0.788  0.7056 -1.5130  0.8491
 4818SOL    HW225914   0.681   3.336   0.644  0.8792 -1.4919 -0.1043
 4819SOL     OW25915   1.409   3.214   5.794 -0.2468  0.6884  0.1265
 4819SOL    HW125916   1.326   3.233   5.838 -0.8588 -0.8038 -0.3717
 4819SOL    HW225917   1.369   3.195   5.709 -0.9797  3.3209 -0.1232
 4820SOL     OW25918   3.252   4.305   4.612  0.1474 -0.3796  0.8398
 4820SOL    HW125919   3.299   4.386   4.592  1.5438 -0.5896  3.2500
 4820SOL    HW225920   3.169   4.312   4.566  1.3239  0.0266 -1.2689
 4821SOL     OW25921   4.303   1.330   3.911  0.0584  0.1310 -0.7314
 4821SOL    HW125922   4.311   1.404   3.971 -0.9372  0.5059 -1.0606
 4821SOL    HW225923   4.266   1.376   3.836  1.0040  0.3767 -1.0442
 4822SOL     OW25924   3.819   2.748   5.195 -0.1767 -0.1392 -0.4859
 4822SOL    HW125925   3.907   2.778   5.172 -0.4657  1.9210  1.0325
 4822SOL    HW225926   3.834   2.715   5.284 -1.0776  1.5054  0.2857
 4823SOL     OW25927   0.261   0.527   0.368 -0.2423  0.4517  0.0022
 4823SOL    HW125928   0.219   0.468   0.431 -0.5804  0.8778  0.1728
 4823SOL    HW225929   0.319   0.570   0.430 -0.0580  0.2544 -0.0324
 4824SOL     OW25930   0.756   4.664   9.778  0.3391  0.0496  0.4314
 4824SOL    HW125931   0.666   4.694   9.777  0.2828 -0.1853 -1.1536
 4824SOL    HW225932   0.808   4.723   9.834  1.5603 -1.2555  0.6792
 4825SOL     OW25933   0.427   0.618   4.114 -0.4569  0.2171 -0.1061
 4825SOL    HW125934   0.428   0.647   4.023 -0.0171  1.1842  0.2089
 4825SOL    HW225935   0.338   0.584   4.109 -1.4505  2.7609  0.2529
 4826SOL     OW25936   1.265   0.832   6.247 -0.1428 -0.4783  0.8391
 4826SOL    HW125937   1.288   0.883   6.170  1.8050 -2.7637 -0.1038
 4826SOL    HW225938   1.290   0.746   6.212  0.3104 -1.1434  2.7796
 4827SOL     OW25939   0.241   3.039   3.362 -0.0531  0.0418 -0.0775
 4827SOL    HW125940   0.205   3.019   3.276 -1.7346  1.0514  0.3860
 4827SOL    HW225941   0.169   3.054   3.423 -0.4128  1.4716 -0.8512
 4828SOL     OW25942   1.517   3.361   4.287 -0.1223 -0.3517 -0.1026
 4828SOL    HW125943   1.579   3.329   4.352 -1.8875  1.1657  2.3411
 4828SOL    HW225944   1.485   3.440   4.330 -1.3752 -0.7267 -0.3302
 4829SOL     OW25945   3.304   0.019   7.323 -0.4369 -0.1933 -0.4982
 4829SOL    HW125946   3.240   0.087   7.300  0.5806  1.1943  0.7394
 4829SOL    HW225947   3.322   0.052   7.411 -0.7196 -0.8673 -0.1885
 4830SOL     OW25948   0.590   1.670   2.342  0.1527 -0.3445 -0.0233
 4830SOL    HW125949   0.637   1.677   2.259  0.8781  1.5101  0.5413
 4830SOL    HW225950   0.521   1.618   2.302 -0.9505 -0.1680  1.6480
 4831SOL     OW25951   4.641   0.392   4.998  0.5752  0.5274 -0.2879
 4831SOL    HW125952   4.563   0.371   5.049  2.2184  0.0576  2.0237
 4831SOL    HW225953   4.707   0.368   5.063 -0.2087 -0.9247 -0.0357
 4832SOL     OW25954   4.669   3.057   3.189  0.8619  0.5032  1.0599
 4832SOL    HW125955   4.621   3.065   3.106  0.6328 -0.3654  1.1027
 4832SOL    HW225956   4.692   2.965   3.178  0.2235  0.4633  0.0355
 4833SOL     OW25957   1.602   0.034   5.241 -0.5281  0.1494 -0.2382
 4833SOL    HW125958   1.626   4.718   5.324 -0.4908 -0.0928 -0.3691
 4833SOL    HW225959   1.508   0.015   5.242 -0.5693  0.3473 -1.1901
 4834SOL     OW25960   3.260   3.105  16.087  0.6704 -0.6420  0.2119
 4834SOL    HW125961   3.284   3.082  16.177  4.1824 -2.2743 -1.1645
 4834SOL    HW225962   3.322   3.049  16.041  0.1925  1.8621 -3.4995
 4835SOL     OW25963   2.495   0.027  13.175 -0.2015  0.0715 -0.0656
 4835SOL    HW125964   2.459   0.097  13.229 -2.4069 -1.7957  0.8843
 4835SOL    HW225965   2.421   4.692  13.179 -0.3585  0.3108  0.6350
 4836SOL     OW25966   3.281   4.397   5.589  0.0259  0.2367  0.5459
 4836SOL    HW125967   3.194   4.407   5.550 -0.1018 -1.1779  0.4594
 4836SOL    HW225968   3.291   4.474   5.645  0.2000 -2.1496  3.8226
 4837SOL     OW25969   4.555   1.964   3.496 -0.3427  0.0917 -0.1201
 4837SOL    HW125970   4.469   1.924   3.484  0.9059 -2.2279 -1.3712
 4837SOL    HW225971   4.571   2.013   3.416 -0.1797 -1.5624 -1.0932
 4838SOL     OW25972   0.147   0.066   6.970  0.9556  0.0066 -0.7006
 4838SOL    HW125973   0.053   0.054   6.962  0.7512  2.5463 -2.3974
 4838SOL    HW225974   0.160   0.158   6.945 -1.2471  0.0791 -1.6009
 4839SOL     OW25975   4.503   1.825   8.230  0.4301 -0.3648 -0.0161
 4839SOL    HW125976   4.450   1.897   8.263  2.5204  0.1239  2.2438
 4839SOL    HW225977   4.537   1.793   8.313 -1.5147 -2.1325  0.1055
 4840SOL     OW25978   1.230   0.890  16.585  0.2980 -0.2989  0.7013
 4840SOL    HW125979   1.201   0.896  16.494  0.1907  0.2897  0.7696
 4840SOL    HW225980   1.149   0.916  16.629 -0.5689  0.2398 -1.2178
 4841SOL     OW25981   3.383   1.336   2.838 -0.0824 -0.0392 -0.1674
 4841SOL    HW125982   3.341   1.289   2.910 -1.8159  1.2154 -0.3709
 4841SOL    HW225983   3.389   1.266   2.773  0.9994 -1.2386  1.2175
 4842SOL     OW25984   1.916   2.517   7.926 -0.4864 -0.2285 -0.0600
 4842SOL    HW125985   1.952   2.448   7.983  0.7595  1.3153  1.0070
 4842SOL    HW225986   1.903   2.587   7.990 -0.6050  1.4876 -1.9701
 4843SOL     OW25987   3.419   2.387   4.105  0.0484  0.3888  0.1546
 4843SOL    HW125988   3.479   2.463   4.104  1.0460 -0.3713  2.1691
 4843SOL    HW225989   3.490   2.323   4.109 -2.4785 -2.5295 -2.1228
 4844SOL     OW25990   4.163   0.257   3.731 -0.1502 -0.3760 -0.1200
 4844SOL    HW125991   4.211   0.285   3.809  0.4662  3.0391 -1.7167
 4844SOL    HW225992   4.208   0.295   3.655 -1.5377 -0.5427 -1.0287
 4845SOL     OW25993   0.823   4.683  11.959 -0.0006  0.3816  0.0351
 4845SOL    HW125994   0.914   4.655  11.966 -0.4001 -1.1898 -1.2097
 4845SOL    HW225995   0.836   0.052  11.966 -3.1367  0.8045  0.2384
 4846SOL     OW25996   0.829   3.973  17.398  0.5232 -0.1640  0.0151
 4846SOL    HW125997   0.773   4.007  17.328  0.5367 -0.7974 -0.2953
 4846SOL    HW225998   0.867   4.058  17.422  2.1148 -0.7657 -0.4196
 4847SOL     OW25999   2.223   2.845   2.033 -0.0508  0.1299 -0.1177
 4847SOL    HW126000   2.147   2.869   2.086 -0.2383 -0.6319 -0.0431
 4847SOL    HW226001   2.194   2.793   1.958 -0.3943  0.3597 -0.1454
 4848SOL     OW26002   1.890   3.929   2.560  0.6998  0.2533 -0.0264
 4848SOL    HW126003   1.875   4.011   2.608  0.7595  0.0773  0.2906
 4848SOL    HW226004   1.804   3.913   2.523  0.9375  0.7809 -0.8199
 4849SOL     OW26005   1.456   4.491   3.606 -0.4503 -0.6162 -0.0704
 4849SOL    HW126006   1.424   4.453   3.524 -2.0598 -1.3272  0.8914
 4849SOL    HW226007   1.442   4.585   3.601 -0.5161 -0.6289 -0.1235
 4850SOL     OW26008   0.938   2.656   6.444 -0.2550  0.3452  0.3195
 4850SOL    HW126009   0.871   2.619   6.387 -1.5425  0.9924  1.4262
 4850SOL    HW226010   0.948   2.748   6.421  0.0423  0.4978  1.0614
 4851SOL     OW26011   3.574   0.670   8.578  0.3654 -0.7074  0.2379
 4851SOL    HW126012   3.521   0.750   8.586 -1.4720 -1.8117 -0.7394
 4851SOL    HW226013   3.534   0.638   8.497  1.4468 -0.0064 -0.5727
 4852SOL     OW26014   0.363   1.373   1.234 -0.3253  0.4927  0.4064
 4852SOL    HW126015   0.366   1.409   1.146  1.9333  1.7234  0.9853
 4852SOL    HW226016   0.394   1.286   1.208 -1.4199 -0.6250  2.8065
 4853SOL     OW26017   4.638   4.497   1.929  0.0906 -0.0111 -0.1676
 4853SOL    HW126018   4.601   4.561   1.989  0.6488 -0.4728  0.6676
 4853SOL    HW226019   4.682   4.553   1.865 -1.4277  0.9909 -0.3333
 4854SOL     OW26020   0.714   2.739   3.119  0.2115 -0.0825  0.2670
 4854SOL    HW126021   0.795   2.790   3.119 -0.3233  0.7811 -2.0422
 4854SOL    HW226022   0.740   2.666   3.174  0.7381 -0.1414 -0.0598
 4855SOL     OW26023   1.651   3.325   0.016 -0.4913 -0.6507 -0.1963
 4855SOL    HW126024   1.679   3.415   0.002 -0.6324 -0.5362  0.2597
 4855SOL    HW226025   1.649   3.290  17.630  0.2715 -0.4971 -0.2725
 4856SOL     OW26026   4.368   1.224   8.843 -0.0681  0.2204 -0.4344
 4856SOL    HW126027   4.341   1.170   8.917 -1.5370  1.5195 -0.0345
 4856SOL    HW226028   4.368   1.310   8.884  0.5003 -0.0079  0.0585
 4857SOL     OW26029   1.801   2.180   3.416  0.4765 -0.1377  0.1980
 4857SOL    HW126030   1.757   2.174   3.501 -1.1885 -1.5438 -0.7813
 4857SOL    HW226031   1.765   2.111   3.360 -1.6832  1.0311  0.1368
 4858SOL     OW26032   4.497   3.434   1.823 -0.0959 -0.6739  0.0438
 4858SOL    HW126033   4.497   3.407   1.915  0.2803  1.4760  0.6614
 4858SOL    HW226034   4.423   3.494   1.816 -0.9267 -1.5450  1.2175
 4859SOL     OW26035   4.555   3.504   3.416  0.1900  0.0840 -0.0911
 4859SOL    HW126036   4.465   3.475   3.430  0.5800 -0.8983  0.3692
 4859SOL    HW226037   4.607   3.424   3.404  0.5091 -0.0809  2.4089
 4860SOL     OW26038   3.226   0.683   6.006  0.6775  0.1463  0.3211
 4860SOL    HW126039   3.212   0.637   5.923 -1.4630 -0.4183  1.0179
 4860SOL    HW226040   3.140   0.673   6.045 -0.4535  0.9859 -1.9664
 4861SOL     OW26041   1.801   1.189   2.472 -0.1344  0.3606 -0.2913
 4861SOL    HW126042   1.896   1.181   2.463 -0.2155  2.3981 -2.8063
 4861SOL    HW226043   1.789   1.268   2.525 -1.0853 -1.2069  1.8402
 4862SOL     OW26044   2.823   0.653   2.755 -0.0539 -0.5593 -0.1622
 4862SOL    HW126045   2.750   0.716   2.761  1.3955  0.9278  1.7505
 4862SOL    HW226046   2.803   0.620   2.667  0.3161  0.5605 -0.6695
 4863SOL     OW26047   4.651   1.060   2.885  0.5437 -0.6543  0.0131
 4863SOL    HW126048   4.565   1.072   2.844  0.9652  1.5782 -0.2252
 4863SOL    HW226049   4.719   1.075   2.820  0.7417  0.2438  0.4142
 4864SOL     OW26050   3.606   3.459   8.773 -0.0191  0.1336 -0.4211
 4864SOL    HW126051   3.528   3.499   8.734 -0.5985 -1.6398 -1.0587
 4864SOL    HW226052   3.579   3.369   8.755 -0.0870  0.2262 -0.7812
 4865SOL     OW26053   0.882   3.182   3.108 -0.1699  0.4372  0.0172
 4865SOL    HW126054   0.818   3.253   3.119  1.4319  1.5235  2.5284
 4865SOL    HW226055   0.822   3.113   3.081  1.6185 -1.3262  0.5689
 4866SOL     OW26056   3.919   0.064  14.325 -0.5449  0.0802 -0.0204
 4866SOL    HW126057   3.933   4.707  14.372 -0.6722  0.8090  1.3208
 4866SOL    HW226058   4.011   0.088  14.321 -0.0099 -1.6098  1.8239
 4867SOL     OW26059   0.947   3.845   7.472 -0.1858 -0.0613 -0.0163
 4867SOL    HW126060   0.877   3.813   7.530 -0.9168 -1.5931 -1.7400
 4867SOL    HW226061   1.001   3.904   7.523 -2.2081  0.7704  1.1657
 4868SOL     OW26062   4.539   4.031   1.665 -0.4225 -0.0740 -0.4653
 4868SOL    HW126063   4.562   4.119   1.695 -0.4455 -0.5243  0.8586
 4868SOL    HW226064   4.444   4.038   1.671 -0.5431 -0.9883 -1.3099
 4869SOL     OW26065   0.497   2.735   4.110 -0.5541 -0.2470  0.8099
 4869SOL    HW126066   0.414   2.688   4.098 -0.0505 -0.3400 -2.2969
 4869SOL    HW226067   0.555   2.677   4.061  1.4749  0.3870  2.4848
 4870SOL     OW26068   4.141   0.593   8.154 -0.3282  0.0856 -0.5791
 4870SOL    HW126069   4.166   0.662   8.216 -1.3709 -0.1552  0.0936
 4870SOL    HW226070   4.158   0.644   8.074 -0.3094  0.3161 -0.4268
 4871SOL     OW26071   3.038   3.399   2.505  0.4927 -0.1173 -0.2566
 4871SOL    HW126072   3.074   3.391   2.594  2.4895 -0.9236 -1.1216
 4871SOL    HW226073   3.106   3.355   2.454  0.6637  0.4373 -0.5068
 4872SOL     OW26074   1.844   0.773   7.906  0.0972 -0.0580 -0.0462
 4872SOL    HW126075   1.778   0.709   7.933  0.0641  0.2679  0.6358
 4872SOL    HW226076   1.797   0.815   7.834  0.7279  0.0011 -0.4247
 4873SOL     OW26077   0.624   1.717   3.022 -0.1545  0.1681 -0.2080
 4873SOL    HW126078   0.711   1.696   3.057 -0.7041  1.7472  2.0865
 4873SOL    HW226079   0.605   1.795   3.074  0.3564  1.9608 -2.7132
 4874SOL     OW26080   1.695   2.395   5.405  0.1613 -0.6618 -0.1751
 4874SOL    HW126081   1.702   2.407   5.310 -0.4311 -0.2660 -0.1685
 4874SOL    HW226082   1.777   2.429   5.442 -0.2093 -0.1945  0.2125
 4875SOL     OW26083   4.496   0.240   2.208  0.1846 -0.4422  0.0845
 4875SOL    HW126084   4.457   0.326   2.223  0.6946 -0.0645 -0.7709
 4875SOL    HW226085   4.500   0.246   2.112  0.1106  0.4682  0.1424
 4876SOL     OW26086   0.851   3.667   2.254 -0.1396 -0.4398 -0.2869
 4876SOL    HW126087   0.918   3.666   2.322 -0.1660 -1.2050 -0.2735
 4876SOL    HW226088   0.890   3.734   2.199  0.7337 -0.6257  0.1014
 4877SOL     OW26089   2.830   2.265   7.599 -0.3132  0.0339 -0.0507
 4877SOL    HW126090   2.810   2.242   7.690 -0.7190 -0.4442 -0.2575
 4877SOL    HW226091   2.818   2.178   7.560 -1.5463  0.2212 -0.1106
 4878SOL     OW26092   4.130   0.004  12.370  0.0380 -0.0413  0.0118
 4878SOL    HW126093   4.179   4.648  12.364  0.1273 -0.0478  0.8299
 4878SOL    HW226094   4.192   0.053  12.422 -0.7028 -1.9283  2.7023
 4879SOL     OW26095   0.574   1.986  11.463  0.2462  0.4291  0.0305
 4879SOL    HW126096   0.545   1.907  11.419  2.2914 -0.1577 -0.2930
 4879SOL    HW226097   0.519   2.049  11.416  0.4633  1.1067  0.6769
 4880SOL     OW26098   3.037   4.508   3.567  0.7427 -1.1299  0.4195
 4880SOL    HW126099   3.098   4.557   3.623  0.2350  0.0856 -0.1107
 4880SOL    HW226100   2.955   4.499   3.615  1.6700 -0.2163  2.1873
 4881SOL     OW26101   0.947   3.545   7.021 -0.0162  0.5436  0.5290
 4881SOL    HW126102   1.016   3.612   7.026  1.0804 -0.4788 -1.0800
 4881SOL    HW226103   0.935   3.548   6.926  1.0330 -0.5669  0.3602
 4882SOL     OW26104   2.781   3.594  16.936  0.6129 -0.5846  0.2676
 4882SOL    HW126105   2.783   3.513  16.886 -1.7782 -0.8892  0.6946
 4882SOL    HW226106   2.736   3.660  16.883 -1.5357 -2.3446 -0.0779
 4883SOL     OW26107   0.400   0.823  17.673  0.3798 -0.2190 -0.1315
 4883SOL    HW126108   0.469   0.758  17.659  0.6773  0.0645 -0.0067
 4883SOL    HW226109   0.336   0.785  17.613 -0.1730 -0.1195  0.3955
 4884SOL     OW26110   4.707   0.003   2.982  0.3625 -0.8276  0.3088
 4884SOL    HW126111   4.701   4.705   3.075 -0.3539 -0.8331  0.2556
 4884SOL    HW226112   0.013   4.642   2.956  1.5388 -0.5928  0.9439
 4885SOL     OW26113   4.018   3.583  13.316 -0.0803  1.2225  0.0410
 4885SOL    HW126114   3.937   3.533  13.311 -1.3906  3.3875 -0.6173
 4885SOL    HW226115   3.985   3.659  13.364 -3.2103 -1.9074  2.7687
 4886SOL     OW26116   3.495   3.978  16.544 -0.2437 -0.2468  0.2891
 4886SOL    HW126117   3.400   3.973  16.540 -0.4308  1.2503  2.9642
 4886SOL    HW226118   3.511   4.069  16.568  0.3280 -0.6804  1.5125
 4887SOL     OW26119   1.155   0.269   4.636  0.8104  0.7262  0.6321
 4887SOL    HW126120   1.199   0.294   4.554  1.5112 -0.5681  0.6014
 4887SOL    HW226121   1.157   0.174   4.645 -0.7580  0.9112  2.6977
 4888SOL     OW26122   0.755   3.163   3.632  0.6943 -0.0673  0.1211
 4888SOL    HW126123   0.717   3.133   3.550 -3.8448  0.4539  2.0189
 4888SOL    HW226124   0.790   3.251   3.615 -0.3234  0.2773 -0.2219
 4889SOL     OW26125   3.696   2.160  12.217  0.7797 -0.2205 -0.8137
 4889SOL    HW126126   3.756   2.230  12.245 -0.1598  0.1775  0.1899
 4889SOL    HW226127   3.762   2.103  12.177 -0.1222 -2.1242  0.4355
 4890SOL     OW26128   0.241   3.802   9.458  0.1079  0.8810 -0.4159
 4890SOL    HW126129   0.274   3.753   9.382  1.2301 -0.1063  0.7046
 4890SOL    HW226130   0.317   3.857   9.480  0.9835 -0.8962  0.9575
 4891SOL     OW26131   2.599   4.142  16.748 -0.1151  0.1746  0.2454
 4891SOL    HW126132   2.618   4.149  16.655 -0.3917  0.8549  0.2324
 4891SOL    HW226133   2.664   4.077  16.774 -0.5229 -0.5877 -0.6500
 4892SOL     OW26134   3.100   0.056   2.516  0.0881  0.3894  0.4992
 4892SOL    HW126135   3.109   0.084   2.425  1.5060 -0.8317  0.2603
 4892SOL    HW226136   3.175   0.101   2.556  2.5014 -2.5792 -0.6680
 4893SOL     OW26137   1.141   2.161   8.151 -0.0790  0.1251  0.3468
 4893SOL    HW126138   1.048   2.139   8.155 -0.3595  1.3855  0.7062
 4893SOL    HW226139   1.181   2.074   8.142  1.7119  0.8062  1.7428
 4894SOL     OW26140   0.944   2.890  10.957 -0.1419  0.1692  0.0576
 4894SOL    HW126141   0.932   2.966  10.901 -2.3222 -1.1353 -1.2234
 4894SOL    HW226142   0.973   2.813  10.907 -1.7629 -0.2494 -0.2253
 4895SOL     OW26143   4.198   3.040   7.854  0.8881  0.0180  0.5970
 4895SOL    HW126144   4.270   2.982   7.878  0.7021  0.1946  1.5932
 4895SOL    HW226145   4.250   3.120   7.861  1.8223 -0.6733  1.5701
 4896SOL     OW26146   2.465   3.927   7.767  0.1489  0.0119  0.3793
 4896SOL    HW126147   2.552   3.943   7.730  0.1862  1.0028  0.8937
 4896SOL    HW226148   2.482   3.909   7.860 -0.2092 -0.8052  0.2836
 4897SOL     OW26149   4.261   4.139   2.389 -0.5292 -0.0297 -0.0966
 4897SOL    HW126150   4.171   4.119   2.414 -0.8535 -0.3695 -1.5344
 4897SOL    HW226151   4.274   4.225   2.430  1.6328  0.3573 -1.5658
 4898SOL     OW26152   4.171   0.839   7.345  0.4186  0.0210  1.0436
 4898SOL    HW126153   4.181   0.763   7.287 -0.8607  0.4096  0.3304
 4898SOL    HW226154   4.261   0.864   7.365  1.4623  0.4408 -4.2589
 4899SOL     OW26155   1.710   1.981  12.529 -0.1199  0.5485  0.5864
 4899SOL    HW126156   1.714   2.067  12.571 -0.4100  1.4304 -1.2025
 4899SOL    HW226157   1.790   1.983  12.476 -0.4245  2.4732  0.2305
 4900SOL     OW26158   0.749   1.264   6.213  0.0059  0.2755  0.1821
 4900SOL    HW126159   0.767   1.172   6.232 -0.4493  0.2756  0.5982
 4900SOL    HW226160   0.688   1.263   6.139  1.8236  1.5523 -1.3595
 4901SOL     OW26161   3.056   4.609   6.575  0.5558  0.4121  0.1339
 4901SOL    HW126162   3.041   4.687   6.522 -1.2022 -0.8916 -1.2552
 4901SOL    HW226163   2.996   4.622   6.649  0.4551 -1.7452  0.4161
 4902SOL     OW26164   2.764   1.018   0.503  0.6494  0.0864  0.0343
 4902SOL    HW126165   2.717   1.097   0.531 -0.6898 -0.2512 -1.2382
 4902SOL    HW226166   2.762   1.031   0.409 -1.5116  0.3374  0.1002
 4903SOL     OW26167   0.689   2.092   6.086 -0.3017 -0.6489 -0.1103
 4903SOL    HW126168   0.696   2.135   6.171 -0.5391 -0.1048 -0.3647
 4903SOL    HW226169   0.687   2.163   6.021 -3.5149 -1.7813 -1.2331
 4904SOL     OW26170   2.484   4.402   7.590 -0.3057 -0.3780 -0.2195
 4904SOL    HW126171   2.524   4.375   7.673  0.0402  1.1515  0.1091
 4904SOL    HW226172   2.480   4.497   7.599  0.2515 -0.1730 -2.1464
 4905SOL     OW26173   0.129   3.840   5.248  0.2476 -0.3188 -0.7648
 4905SOL    HW126174   0.124   3.745   5.244 -3.3954 -0.1350 -0.8323
 4905SOL    HW226175   0.048   3.865   5.204 -1.1919 -0.7304  1.6855
 4906SOL     OW26176   0.157   2.810   2.566  0.1890  0.4932  0.0114
 4906SOL    HW126177   0.187   2.871   2.499 -0.2214  2.1550  1.3468
 4906SOL    HW226178   0.158   2.870   2.641 -0.9360  1.5806 -0.8413
 4907SOL     OW26179   3.531   2.340   1.496  0.1299 -0.3576 -0.2180
 4907SOL    HW126180   3.538   2.431   1.467  3.3810  0.2136  2.3416
 4907SOL    HW226181   3.439   2.328   1.471 -0.1028  0.3652  0.2906
 4908SOL     OW26182   3.668   2.713  15.944 -0.7704 -0.6497 -0.2013
 4908SOL    HW126183   3.743   2.756  15.903 -0.0138  0.7508  2.7025
 4908SOL    HW226184   3.722   2.668  16.008  0.2106 -0.3632 -0.8292
 4909SOL     OW26185   2.657   3.375  12.539 -0.0984  0.0956  0.1688
 4909SOL    HW126186   2.751   3.362  12.555 -0.2616 -1.1122  0.0919
 4909SOL    HW226187   2.631   3.285  12.520  0.5468  0.3127 -1.6889
 4910SOL     OW26188   3.543   3.056   6.169 -0.7968  0.2663 -0.0763
 4910SOL    HW126189   3.474   3.001   6.206  0.9837 -0.6217  1.9519
 4910SOL    HW226190   3.494   3.138   6.176 -2.2763 -0.6579  0.4449
 4911SOL     OW26191   4.361   0.729  10.239  0.6164  0.2252 -0.0729
 4911SOL    HW126192   4.385   0.817  10.268  0.5145  0.4659 -0.7262
 4911SOL    HW226193   4.440   0.694  10.199 -0.0249 -3.9056  2.2700
 4912SOL     OW26194   3.309   0.413   7.552 -0.0073 -0.1613 -0.4987
 4912SOL    HW126195   3.259   0.486   7.587  0.4048  0.5719 -1.4513
 4912SOL    HW226196   3.336   0.451   7.469  2.0120  1.3074  0.8571
 4913SOL     OW26197   2.659   0.880   4.269  0.9082  0.1636  0.2879
 4913SOL    HW126198   2.610   0.818   4.215  1.6043  0.8590 -1.1336
 4913SOL    HW226199   2.643   0.858   4.361 -1.8007 -1.0474 -0.4595
 4914SOL     OW26200   3.796   4.531   5.890 -0.1941  0.0524 -0.6465
 4914SOL    HW126201   3.807   4.498   5.801 -0.5560 -0.9073 -0.3349
 4914SOL    HW226202   3.759   4.619   5.885  0.4698  0.3742  0.2290
 4915SOL     OW26203   4.591   3.674   9.581 -0.4328 -0.1958  0.0676
 4915SOL    HW126204   4.534   3.718   9.643  2.1943  1.0967  1.5655
 4915SOL    HW226205   4.639   3.612   9.636  0.3767 -0.6884 -1.1831
 4916SOL     OW26206   4.420   2.281  15.417 -0.3780 -0.2345  0.1408
 4916SOL    HW126207   4.331   2.288  15.384 -0.1421 -2.8498 -1.0485
 4916SOL    HW226208   4.451   2.371  15.401 -2.1953  0.5279  0.8610
 4917SOL     OW26209   0.154   2.640   6.190  0.5011  0.6783 -0.0577
 4917SOL    HW126210   0.216   2.573   6.218 -0.1877  0.3529  0.7037
 4917SOL    HW226211   0.130   2.615   6.101  0.2339  0.0899  0.1740
 4918SOL     OW26212   2.226   1.060   3.824  0.2884  0.1807 -0.3308
 4918SOL    HW126213   2.300   1.072   3.883 -1.2365  0.4906  1.5077
 4918SOL    HW226214   2.147   1.059   3.877  1.1173  1.9307  0.9371
 4919SOL     OW26215   3.603   0.885  10.814  0.6963 -0.8810 -0.6039
 4919SOL    HW126216   3.538   0.954  10.800  0.8936 -0.3797  0.8836
 4919SOL    HW226217   3.688   0.911  10.777 -0.0020  1.1816 -0.7880
 4920SOL     OW26218   0.485   3.735   3.419 -0.3669 -0.0592  0.0480
 4920SOL    HW126219   0.566   3.785   3.430  0.5411 -1.1951 -1.3211
 4920SOL    HW226220   0.449   3.735   3.507 -2.0071 -0.2166 -0.6172
 4921SOL     OW26221   0.592   0.135  10.361 -0.2734 -0.4140 -0.0089
 4921SOL    HW126222   0.623   0.103  10.276  1.7144  1.9163 -0.1556
 4921SOL    HW226223   0.561   0.220  10.328 -1.0458 -0.7987 -0.2825
 4922SOL     OW26224   0.113   3.537   6.160 -0.2618  0.5116  0.1923
 4922SOL    HW126225   0.097   3.443   6.164 -0.2494  0.5007  0.0154
 4922SOL    HW226226   0.206   3.540   6.136 -0.6607  1.0723 -1.2887
 4923SOL     OW26227   4.419   0.680  15.498 -0.0346  0.0624 -0.1493
 4923SOL    HW126228   4.382   0.698  15.585  0.8871 -0.2763  0.3163
 4923SOL    HW226229   4.431   0.768  15.462 -1.0230  0.7580  1.1941
 4924SOL     OW26230   2.198   4.183   1.513  0.0435 -0.3850  0.1232
 4924SOL    HW126231   2.139   4.108   1.517  1.1603 -1.3101 -0.7792
 4924SOL    HW226232   2.278   4.148   1.553 -0.4464 -0.9455  0.6254
 4925SOL     OW26233   0.642   2.446   4.894 -0.4751  0.5044 -0.4138
 4925SOL    HW126234   0.619   2.504   4.967 -0.1617  1.2672 -0.9252
 4925SOL    HW226235   0.702   2.396   4.950 -0.5158  1.7309  0.7271
 4926SOL     OW26236   0.806   0.820   7.551  0.4067 -0.2972 -0.3277
 4926SOL    HW126237   0.746   0.827   7.477  2.2099  1.3939 -1.6029
 4926SOL    HW226238   0.816   0.725   7.557  0.2135 -0.2760  0.3603
 4927SOL     OW26239   4.651   2.017   4.220 -0.1328  0.0439  0.1512
 4927SOL    HW126240   4.661   1.982   4.309  0.5327 -0.9175 -0.3002
 4927SOL    HW226241   0.012   1.990   4.188  0.1490 -0.6705  1.4990
 4928SOL     OW26242   0.081   2.497  14.124 -0.0607  0.4954 -0.1478
 4928SOL    HW126243   4.717   2.465  14.132  0.5983 -0.8338  2.1135
 4928SOL    HW226244   0.110   2.462  14.040  1.0162 -1.6183  1.1078
 4929SOL     OW26245   2.322   2.655   7.156  0.4889 -0.5903 -0.3905
 4929SOL    HW126246   2.275   2.580   7.193  1.8730 -0.9954  0.5295
 4929SOL    HW226247   2.390   2.668   7.222  0.6719 -2.7897 -0.1521
 4930SOL     OW26248   3.359   3.149   3.759  0.0066  0.0832  0.5082
 4930SOL    HW126249   3.401   3.070   3.724 -0.0248 -0.1177  0.9173
 4930SOL    HW226250   3.306   3.169   3.682  1.1917 -1.8232 -0.8219
 4931SOL     OW26251   2.270   0.660  12.575 -0.2096  0.3696  0.1187
 4931SOL    HW126252   2.358   0.680  12.605 -0.5972  0.9937  0.8517
 4931SOL    HW226253   2.257   0.739  12.522 -0.5760  0.7331  0.7445
 4932SOL     OW26254   3.973   4.311   9.969  0.3136 -0.8707 -0.1853
 4932SOL    HW126255   3.950   4.337  10.058 -2.1625 -1.8682 -0.5337
 4932SOL    HW226256   3.966   4.398   9.930 -2.0730 -0.9735 -0.0312
 4933SOL     OW26257   1.093   3.279  14.758  0.1170 -0.1279 -0.0819
 4933SOL    HW126258   1.070   3.260  14.667  1.2499  2.5828 -0.9480
 4933SOL    HW226259   1.033   3.352  14.772  2.1511  1.2757  1.4570
 4934SOL     OW26260   1.954   3.671   3.060 -0.2207 -0.1335 -0.8331
 4934SOL    HW126261   2.037   3.697   3.019  1.4474 -2.1027  1.3187
 4934SOL    HW226262   1.908   3.755   3.057 -0.3138 -0.1889 -0.9215
 4935SOL     OW26263   0.571   2.467   8.912 -0.1527 -0.2978  0.2692
 4935SOL    HW126264   0.513   2.420   8.852 -0.8989  2.3880 -1.1357
 4935SOL    HW226265   0.660   2.459   8.877 -0.9514 -0.3165 -1.7680
 4936SOL     OW26266   2.295   2.162   4.247  0.0704  0.3335 -0.0922
 4936SOL    HW126267   2.258   2.178   4.334  2.4122  0.4548  0.8695
 4936SOL    HW226268   2.315   2.068   4.243 -1.2489  0.0559 -0.3920
 4937SOL     OW26269   3.779   0.843  16.467  0.2963 -0.5342 -0.0859
 4937SOL    HW126270   3.838   0.917  16.460 -1.1722  0.7984  1.7371
 4937SOL    HW226271   3.831   0.786  16.523  1.4111  2.4864  1.9444
 4938SOL     OW26272   0.825   4.265   5.802 -0.3325  0.1712 -0.6913
 4938SOL    HW126273   0.903   4.227   5.762  1.2083  1.7173  0.8626
 4938SOL    HW226274   0.851   4.343   5.851 -2.2727  0.8494 -0.7408
 4939SOL     OW26275   0.925   2.450  17.696 -0.4778 -0.3096  0.3421
 4939SOL    HW126276   0.830   2.440  17.682 -0.5313 -0.5576  0.8881
 4939SOL    HW226277   0.941   2.397   0.070 -1.3193 -1.7294 -0.4611
 4940SOL     OW26278   1.384   1.616  13.092  0.0839  0.9754  0.1597
 4940SOL    HW126279   1.386   1.666  13.010 -5.5247  0.3278 -0.3996
 4940SOL    HW226280   1.446   1.550  13.061 -1.1029 -0.3840  0.7000
 4941SOL     OW26281   2.943   1.454  16.038  0.5218 -0.2954 -0.4772
 4941SOL    HW126282   2.981   1.540  16.023 -2.0991  1.0233  0.4908
 4941SOL    HW226283   3.012   1.396  16.070  1.3252  0.0554 -1.5731
 4942SOL     OW26284   2.581   4.536   9.265 -0.4629  0.0612  0.0685
 4942SOL    HW126285   2.639   4.467   9.233 -0.5930 -0.8223  1.7301
 4942SOL    HW226286   2.548   4.507   9.350  1.1622  1.6297  1.2196
 4943SOL     OW26287   1.183   4.457   2.049  0.3966  0.0493 -0.1135
 4943SOL    HW126288   1.098   4.475   2.090  0.7756 -0.7880  1.0243
 4943SOL    HW226289   1.239   4.474   2.124  1.1650  1.9811 -1.1238
 4944SOL     OW26290   3.587   3.739   3.848  0.1439  0.2769 -0.4408
 4944SOL    HW126291   3.547   3.795   3.915  2.4511  1.7845 -0.3171
 4944SOL    HW226292   3.508   3.692   3.824  0.0154 -0.0177  0.5515
 4945SOL     OW26293   4.161   3.054   7.053  0.2361 -0.0338 -0.1432
 4945SOL    HW126294   4.081   3.048   7.107 -0.0694  0.7304 -0.5103
 4945SOL    HW226295   4.151   2.982   6.991  1.0757  0.5585 -0.9629
 4946SOL     OW26296   0.805   1.945  12.220  0.2117 -0.5922  0.2132
 4946SOL    HW126297   0.826   1.979  12.307 -0.8124 -3.0080  1.4200
 4946SOL    HW226298   0.859   1.867  12.212  1.4569  0.0832  2.0166
 4947SOL     OW26299   2.636   3.763  16.778  0.1552 -0.1858  0.0162
 4947SOL    HW126300   2.705   3.829  16.775 -0.7726  0.8286  1.5570
 4947SOL    HW226301   2.609   3.763  16.686  0.1935 -0.2382  0.0049
 4948SOL     OW26302   0.735   0.907   3.239  0.6704 -0.3915  0.5216
 4948SOL    HW126303   0.776   0.901   3.152 -1.3311 -0.9392 -0.3786
 4948SOL    HW226304   0.776   0.833   3.284  0.7283 -0.0658  1.0032
 4949SOL     OW26305   3.460   3.142   1.882  0.0352  0.6274  0.4862
 4949SOL    HW126306   3.534   3.096   1.844 -0.5053  1.4404 -1.5639
 4949SOL    HW226307   3.408   3.068   1.911  1.7335 -0.5413  0.5199
 4950SOL     OW26308   1.666   3.802   8.965  0.2863 -0.2994  0.5131
 4950SOL    HW126309   1.631   3.835   8.882  1.3077 -2.0872 -0.6153
 4950SOL    HW226310   1.679   3.884   9.013  0.0874  1.8551 -3.1377
 4951SOL     OW26311   2.221   1.453  10.251  0.2520  0.6114  0.7154
 4951SOL    HW126312   2.275   1.444  10.172  1.5889 -0.7962  1.7843
 4951SOL    HW226313   2.137   1.480  10.214  0.1112 -1.0411 -0.1446
 4952SOL     OW26314   3.240   2.740   4.407 -0.3129  0.1821 -0.1276
 4952SOL    HW126315   3.182   2.724   4.481  2.4057 -2.1776  1.5125
 4952SOL    HW226316   3.281   2.655   4.392  2.3228  1.6332 -1.0901
 4953SOL     OW26317   4.208   1.503   6.531 -0.1772  0.1728  0.1309
 4953SOL    HW126318   4.225   1.418   6.571 -0.4046  0.3621  0.6344
 4953SOL    HW226319   4.253   1.484   6.449 -0.3293  3.6780 -0.7568
 4954SOL     OW26320   3.436   3.180   7.860  0.1450 -0.3000 -0.8971
 4954SOL    HW126321   3.353   3.222   7.883 -0.0432 -0.9722 -0.3300
 4954SOL    HW226322   3.451   3.125   7.937 -1.6867 -0.4850 -0.6785
 4955SOL     OW26323   1.104   1.662  16.389  0.9841 -0.7162  0.1251
 4955SOL    HW126324   1.175   1.725  16.403  0.3004 -0.3016  1.7078
 4955SOL    HW226325   1.051   1.706  16.322  2.7468 -2.2215 -2.2443
 4956SOL     OW26326   0.515   3.753  17.221  0.4355 -0.1640 -0.2262
 4956SOL    HW126327   0.437   3.805  17.200 -0.1321 -1.0120 -0.2258
 4956SOL    HW226328   0.473   3.672  17.192 -0.6607  0.1652  0.4105
 4957SOL     OW26329   1.440   2.832  16.724 -0.3344  0.1696 -0.2919
 4957SOL    HW126330   1.371   2.890  16.691 -1.4353 -0.1526  1.4210
 4957SOL    HW226331   1.507   2.894  16.752 -1.1281  0.8807  0.0166
 4958SOL     OW26332   4.417   1.257  12.783  0.5378 -0.4211 -0.0244
 4958SOL    HW126333   4.411   1.226  12.873 -0.2398  2.6513  0.9666
 4958SOL    HW226334   4.382   1.177  12.744  1.0087  0.1382 -1.6084
 4959SOL     OW26335   4.053   2.063   7.090  0.3940 -0.2898 -0.4979
 4959SOL    HW126336   4.114   2.066   7.164  0.4664 -2.6568 -0.4642
 4959SOL    HW226337   4.085   1.985   7.044  1.6944 -0.1694  0.1903
 4960SOL     OW26338   3.066   4.325   8.431 -0.3536 -0.5681 -0.1215
 4960SOL    HW126339   2.991   4.372   8.395 -0.5865  0.4538  1.6638
 4960SOL    HW226340   3.043   4.233   8.437  1.1641 -0.9328  0.1017
 4961SOL     OW26341   0.095   4.350   7.904  0.4846 -0.0565  0.4727
 4961SOL    HW126342   0.081   4.281   7.969  1.5515  0.8083  1.6313
 4961SOL    HW226343   0.185   4.326   7.881 -0.0596 -0.6256 -1.0122
 4962SOL     OW26344   1.876   3.228  17.526 -0.1852 -0.0839  0.7642
 4962SOL    HW126345   1.796   3.206  17.479  1.0430 -0.7119 -1.0261
 4962SOL    HW226346   1.883   3.157  17.589  0.4590 -1.3016 -0.6853
 4963SOL     OW26347   2.947   2.748   2.829  0.5669 -0.5502  0.0144
 4963SOL    HW126348   2.967   2.714   2.917 -1.0088 -0.7466  0.2971
 4963SOL    HW226349   3.018   2.810   2.816 -0.7438  1.4704  2.3571
 4964SOL     OW26350   1.400   2.799   1.783  0.4164 -0.4229 -0.6344
 4964SOL    HW126351   1.482   2.836   1.815 -0.7711  1.6264  0.0024
 4964SOL    HW226352   1.421   2.709   1.757  1.7068  0.0047 -1.1287
 4965SOL     OW26353   0.239   2.984  13.517 -0.0364  0.2324 -0.3089
 4965SOL    HW126354   0.283   2.977  13.601 -0.1073 -1.0226 -0.3733
 4965SOL    HW226355   0.274   2.909  13.469 -1.4312 -0.0625 -0.8527
 4966SOL     OW26356   1.064   4.122  14.783  0.1172  0.3503 -0.0765
 4966SOL    HW126357   1.074   4.188  14.714  0.7533  1.6189  1.2238
 4966SOL    HW226358   1.139   4.068  14.758 -0.3744 -0.7184  0.7653
 4967SOL     OW26359   0.024   0.400   4.366 -0.5267  0.1456 -0.2652
 4967SOL    HW126360   0.115   0.421   4.343  0.0600 -0.7103  1.2686
 4967SOL    HW226361   4.705   0.482   4.389 -0.8230 -0.7709  2.4912
 4968SOL     OW26362   3.047   2.559   0.780  1.0260  0.0906  0.6304
 4968SOL    HW126363   3.066   2.611   0.858  1.7447 -0.0634  0.5564
 4968SOL    HW226364   3.134   2.519   0.780 -0.6228 -3.4927  0.8417
 4969SOL     OW26365   4.317   0.609   7.536  0.4325 -0.4982  0.3350
 4969SOL    HW126366   4.238   0.575   7.495  0.0503  0.7004  0.0958
 4969SOL    HW226367   4.296   0.701   7.551  0.8406 -0.2219 -0.8476
 4970SOL     OW26368   2.285   1.237   7.175 -0.1792  0.0959 -0.1951
 4970SOL    HW126369   2.375   1.267   7.189 -1.0048  2.2287  0.5159
 4970SOL    HW226370   2.248   1.284   7.101 -0.6607  1.5616  0.9727
 4971SOL     OW26371   1.109   1.596   5.553 -0.0018 -0.4600  0.3556
 4971SOL    HW126372   1.198   1.566   5.572  0.5453  0.6756 -0.4114
 4971SOL    HW226373   1.069   1.510   5.566  3.8540 -2.4215 -0.7854
 4972SOL     OW26374   3.854   3.787  13.058  0.1651 -0.4001 -0.5282
 4972SOL    HW126375   3.785   3.832  13.010 -0.4676  0.4963  1.2199
 4972SOL    HW226376   3.850   3.840  13.137  2.7971  0.9448 -1.2824
 4973SOL     OW26377   1.684   2.701   0.887  0.3839 -0.5783  0.0883
 4973SOL    HW126378   1.748   2.675   0.822 -0.3474 -1.3049 -0.3422
 4973SOL    HW226379   1.607   2.673   0.838 -0.9064  2.4367  0.3334
 4974SOL     OW26380   4.515   4.664   5.752 -0.2814  0.0434 -0.0057
 4974SOL    HW126381   4.430   4.623   5.735  0.5683 -1.7046 -0.0365
 4974SOL    HW226382   4.512   4.706   5.838  0.7644  1.3033 -0.5792
 4975SOL     OW26383   2.825   1.845   1.510  0.1850  0.5163  0.1838
 4975SOL    HW126384   2.795   1.893   1.433 -2.4490 -2.8619 -0.8821
 4975SOL    HW226385   2.919   1.846   1.496  0.3713  1.0984  1.4665
 4976SOL     OW26386   4.571   1.672   5.898 -0.3120  0.5595 -0.1188
 4976SOL    HW126387   4.595   1.584   5.929  0.2892  0.2657 -1.4401
 4976SOL    HW226388   4.520   1.721   5.963 -0.2961 -0.3088  0.5462
 4977SOL     OW26389   4.306   3.344  11.975 -0.2346  0.6187 -0.0985
 4977SOL    HW126390   4.352   3.279  12.028  2.0202  1.6176 -0.8028
 4977SOL    HW226391   4.237   3.363  12.038 -0.5581  0.0700 -0.2858
 4978SOL     OW26392   0.167   4.214  17.594  0.3660 -0.0066 -0.5071
 4978SOL    HW126393   0.192   4.253  17.678  0.1288  0.3143 -0.5882
 4978SOL    HW226394   0.073   4.220  17.612  0.5663  0.8474  0.2863
 4979SOL     OW26395   4.538   3.754  12.767  0.1537  0.2738 -0.4225
 4979SOL    HW126396   4.451   3.788  12.787 -0.3451 -0.6646 -0.9749
 4979SOL    HW226397   4.519   3.666  12.733  0.6031 -1.4698  3.7994
 4980SOL     OW26398   0.159   2.575   3.202  0.3300  0.0142 -0.8273
 4980SOL    HW126399   0.229   2.515   3.228  0.4671 -0.0766 -1.4058
 4980SOL    HW226400   0.105   2.515   3.151  0.9792  0.0467 -1.5459
 4981SOL     OW26401   2.493   2.675   9.320 -0.1797 -0.1219 -0.6825
 4981SOL    HW126402   2.569   2.676   9.378 -1.4816  1.5612  1.0018
 4981SOL    HW226403   2.434   2.716   9.383 -0.6044  0.1999 -1.2865
 4982SOL     OW26404   2.299   0.473   8.523  0.5170 -0.4423 -0.4679
 4982SOL    HW126405   2.313   0.408   8.591 -0.7432 -2.1599 -1.8403
 4982SOL    HW226406   2.347   0.543   8.568 -0.6501  0.1360 -0.1216
 4983SOL     OW26407   2.520   4.451  13.260  0.3777  0.5501 -0.4104
 4983SOL    HW126408   2.548   4.368  13.299 -0.1944 -0.3727 -2.0096
 4983SOL    HW226409   2.494   4.487  13.345  1.2797 -1.1250  0.5771
 4984SOL     OW26410   3.617   4.379   6.943  0.0176  0.4740 -0.3234
 4984SOL    HW126411   3.537   4.400   6.896 -0.5550 -1.8428 -0.4025
 4984SOL    HW226412   3.614   4.284   6.957 -0.2643  0.4924 -0.2644
 4985SOL     OW26413   0.720   0.132   3.595 -0.3415  0.3542 -0.4470
 4985SOL    HW126414   0.751   0.172   3.514 -0.7354 -2.0908 -1.8042
 4985SOL    HW226415   0.725   0.206   3.656 -0.4217  0.1351 -0.1767
 4986SOL     OW26416   2.562   4.125   2.011  0.4847  0.0035 -0.0085
 4986SOL    HW126417   2.512   4.089   2.085 -0.4923 -0.3686 -0.8549
 4986SOL    HW226418   2.547   4.050   1.954 -0.7210  0.0358  0.2722
 4987SOL     OW26419   1.182   3.588   7.613 -0.4382 -0.2298  0.1775
 4987SOL    HW126420   1.155   3.556   7.699 -0.2101 -0.5215  0.1407
 4987SOL    HW226421   1.273   3.557   7.604 -0.0208  0.3585  2.4883
 4988SOL     OW26422   1.493   4.072  11.424 -0.0894 -0.4780 -0.3286
 4988SOL    HW126423   1.403   4.061  11.394 -0.3591 -0.4586  0.4776
 4988SOL    HW226424   1.482   4.045  11.515 -1.2608 -0.6146 -0.5094
 4989SOL     OW26425   3.746   3.974   4.324 -0.2938  0.0996  0.0079
 4989SOL    HW126426   3.778   4.045   4.380  1.6632 -2.1141  1.6864
 4989SOL    HW226427   3.721   3.914   4.395 -1.0574 -2.5375 -2.5015
 4990SOL     OW26428   2.795   4.160   2.133  0.1807  0.9192 -0.4755
 4990SOL    HW126429   2.716   4.136   2.085  0.2177  2.4683 -1.2985
 4990SOL    HW226430   2.860   4.101   2.096 -1.3183 -1.3149  0.4502
 4991SOL     OW26431   2.303   0.013   2.429 -0.4998 -0.1297  0.1343
 4991SOL    HW126432   2.259   4.710   2.510  0.0590 -0.9945  0.1375
 4991SOL    HW226433   2.267   4.674   2.368 -0.2274  1.6650 -1.8977
 4992SOL     OW26434   3.759   0.062   1.529 -0.4692  0.3307 -0.5437
 4992SOL    HW126435   3.692   0.083   1.593  0.7478  3.1485 -0.1859
 4992SOL    HW226436   3.828   0.118   1.567 -0.4145  0.0900 -0.2879
 4993SOL     OW26437   0.811   0.138   4.102  0.3058 -0.0000 -0.4583
 4993SOL    HW126438   0.818   0.081   4.025 -1.4203 -1.5982  0.5824
 4993SOL    HW226439   0.893   0.123   4.149 -1.4668 -1.7600  2.0826
 4994SOL     OW26440   2.957   1.465  13.655  0.1843 -0.0624 -0.5872
 4994SOL    HW126441   2.988   1.475  13.746 -0.4415  0.9318 -0.4817
 4994SOL    HW226442   2.924   1.376  13.663 -1.0231  0.4032 -0.4192
 4995SOL     OW26443   3.519   3.203   8.722 -0.2520 -0.2429 -0.2274
 4995SOL    HW126444   3.520   3.191   8.627  0.0464 -0.8930 -0.1394
 4995SOL    HW226445   3.561   3.126   8.760 -0.5495  0.6289  1.8310
 4996SOL     OW26446   0.731   2.259  12.328  0.4380 -1.1818 -0.0544
 4996SOL    HW126447   0.747   2.336  12.274  1.2324  0.9857  3.2480
 4996SOL    HW226448   0.787   2.273  12.404 -0.2674  1.6978 -0.0883
 4997SOL     OW26449   4.447   2.683  10.283 -0.3625 -0.2694  0.1864
 4997SOL    HW126450   4.415   2.594  10.301 -1.0088 -0.2802 -0.9905
 4997SOL    HW226451   4.379   2.738  10.323  0.3388  0.6083  0.1680
 4998SOL     OW26452   0.750   0.644  15.572 -0.4013  0.0710  0.0035
 4998SOL    HW126453   0.744   0.738  15.555  2.3096  0.5435  1.6578
 4998SOL    HW226454   0.686   0.651  15.643  1.4227  0.4829  1.6122
 4999SOL     OW26455   3.879   2.519  13.512 -0.4747  0.2932  0.1889
 4999SOL    HW126456   3.904   2.478  13.595 -0.0291  0.8683  0.3419
 4999SOL    HW226457   3.837   2.602  13.536  0.8545  0.4183  2.1294
 5000SOL     OW26458   3.352   0.368   2.343 -0.1549  0.9100 -0.4320
 5000SOL    HW126459   3.399   0.304   2.289 -0.1315 -0.5974  1.4051
 5000SOL    HW226460   3.414   0.411   2.402  1.4938 -0.3221 -1.2422
 5001SOL     OW26461   3.973   3.500   2.109  0.2367  0.2147  0.1366
 5001SOL    HW126462   3.907   3.489   2.177  0.8694  0.7091  0.8300
 5001SOL    HW226463   4.034   3.559   2.154 -0.8322  1.9226 -0.6681
 5002SOL     OW26464   3.781   2.223   5.679  0.1498 -0.2744 -0.3905
 5002SOL    HW126465   3.704   2.209   5.734 -0.3655  1.0245 -0.7780
 5002SOL    HW226466   3.775   2.317   5.658 -0.0320  0.1743  1.6454
 5003SOL     OW26467   4.541   1.424   0.204  0.0430  0.6396  0.8939
 5003SOL    HW126468   4.528   1.433   0.110  0.2949 -3.5015  0.4848
 5003SOL    HW226469   4.629   1.387   0.207  0.1075  0.7683  0.6085
 5004SOL     OW26470   0.645   4.439   3.699 -0.7009  0.5679  0.7980
 5004SOL    HW126471   0.609   4.506   3.757  0.8239  0.9074  1.3518
 5004SOL    HW226472   0.715   4.490   3.659 -0.8054 -0.4476 -0.6948
 5005SOL     OW26473   1.114   3.006  13.249  0.3502 -0.0884 -0.5714
 5005SOL    HW126474   1.158   2.926  13.279  0.0345  0.5160  1.4868
 5005SOL    HW226475   1.182   3.073  13.256 -0.8629  1.1012 -0.1530
 5006SOL     OW26476   0.710   4.643   3.264  0.1379  0.3809  0.4478
 5006SOL    HW126477   0.696   4.723   3.316  3.5443  0.7484  0.7487
 5006SOL    HW226478   0.623   4.628   3.226 -0.3842  1.2612  1.2742
 5007SOL     OW26479   4.126   2.885  12.611 -0.1803 -0.4517  0.6585
 5007SOL    HW126480   4.221   2.876  12.620  0.0967  1.0875 -0.6172
 5007SOL    HW226481   4.107   2.962  12.665  0.8276 -0.0716  0.4781
 5008SOL     OW26482   4.445   2.215   3.699 -0.4304 -0.5943  0.5458
 5008SOL    HW126483   4.448   2.221   3.795  0.7847  0.3178  0.4479
 5008SOL    HW226484   4.371   2.154   3.692  0.9436 -2.0718 -1.1552
 5009SOL     OW26485   1.079   2.696   8.439 -0.4805  0.1233 -0.4509
 5009SOL    HW126486   1.102   2.678   8.348 -0.0192  0.1016 -0.3278
 5009SOL    HW226487   1.163   2.677   8.479 -0.2789  0.7137 -0.5856
 5010SOL     OW26488   4.179   3.931   3.906  0.7069  0.2696  0.3265
 5010SOL    HW126489   4.257   3.987   3.897  0.3577  0.7837  0.4998
 5010SOL    HW226490   4.116   3.960   3.841 -1.6750 -2.7055  1.3284
 5011SOL     OW26491   3.876   1.574   3.082  0.2824  0.4242  0.0755
 5011SOL    HW126492   3.813   1.543   3.147  1.8608  1.3977  2.0698
 5011SOL    HW226493   3.960   1.570   3.127 -1.1392 -1.0420  2.5907
 5012SOL     OW26494   2.813   0.236  12.323 -0.1891 -0.2811 -0.6219
 5012SOL    HW126495   2.788   0.287  12.400 -1.9127 -1.4378 -0.4008
 5012SOL    HW226496   2.893   0.192  12.353 -0.1326  0.6072  0.5280
 5013SOL     OW26497   4.457   3.644   1.084  0.2147 -0.0877 -0.1384
 5013SOL    HW126498   4.425   3.719   1.133 -0.0538 -0.4844  0.2960
 5013SOL    HW226499   4.379   3.633   1.029  1.0028 -3.2867 -0.6218
 5014SOL     OW26500   4.627   2.779   2.445  0.3622 -1.0294 -0.2902
 5014SOL    HW126501   4.558   2.747   2.503 -1.4196 -0.5543 -2.1257
 5014SOL    HW226502   4.700   2.780   2.507  0.4265  0.4490 -0.3867
 5015SOL     OW26503   2.975   0.647   6.151  0.3284 -0.3616 -0.3583
 5015SOL    HW126504   2.984   0.626   6.244 -0.7018 -1.5203 -0.5268
 5015SOL    HW226505   2.913   0.720   6.158  1.5879  0.5622  1.3245
 5016SOL     OW26506   2.779   3.418   5.252  0.3431  0.0423  0.6757
 5016SOL    HW126507   2.868   3.384   5.261  0.2164 -0.5993 -0.3902
 5016SOL    HW226508   2.789   3.504   5.291 -0.8109  0.7524 -0.5860
 5017SOL     OW26509   0.046   4.628   8.006 -0.2851  0.2713 -0.1397
 5017SOL    HW126510   0.109   4.621   8.078 -0.4975 -0.1646  0.0019
 5017SOL    HW226511   4.689   4.595   8.041 -0.6857  0.0522 -1.3225
 5018SOL     OW26512   1.142   2.474   6.500  0.1440  0.2423  0.1428
 5018SOL    HW126513   1.072   2.534   6.523 -0.4827  0.2098 -1.6418
 5018SOL    HW226514   1.217   2.534   6.492 -1.3840  2.1672  0.4006
 5019SOL     OW26515   2.258   3.600   8.495  0.0871 -0.0128 -0.0286
 5019SOL    HW126516   2.191   3.610   8.564  0.3447  0.4246  0.1557
 5019SOL    HW226517   2.214   3.641   8.421 -0.9693 -0.6937  0.2182
 5020SOL     OW26518   2.335   4.405  11.641 -0.3556  0.4321  0.0717
 5020SOL    HW126519   2.263   4.468  11.643 -0.2654  0.5599 -0.6830
 5020SOL    HW226520   2.290   4.325  11.670  1.7760  0.9002  4.6480
 5021SOL     OW26521   3.965   4.304   5.037 -0.2569  0.0327  0.3712
 5021SOL    HW126522   3.973   4.314   5.132  1.8466 -0.4863  0.2596
 5021SOL    HW226523   3.902   4.373   5.017  0.8443  1.0486  0.4070
 5022SOL     OW26524   2.938   1.889  11.736 -0.4612  0.5366 -0.3564
 5022SOL    HW126525   3.011   1.827  11.738 -1.7701 -0.9636  1.7995
 5022SOL    HW226526   2.973   1.960  11.683  0.4094  1.4387  1.4184
 5023SOL     OW26527   0.639   4.042   3.342  0.2783 -0.2942  0.3138
 5023SOL    HW126528   0.594   4.082   3.416  0.3906 -0.1813  0.3228
 5023SOL    HW226529   0.732   4.058   3.361 -0.0313 -0.3429  1.9103
 5024SOL     OW26530   0.290   3.666   2.950 -0.5128  0.0514 -0.2911
 5024SOL    HW126531   0.331   3.597   3.001 -0.9224  1.6351  2.1686
 5024SOL    HW226532   0.271   3.734   3.015  1.2639 -0.1843  0.4518
 5025SOL     OW26533   1.719   0.340   4.834  0.6517  0.0392  0.0550
 5025SOL    HW126534   1.739   0.248   4.848 -0.5462 -0.1219  0.6800
 5025SOL    HW226535   1.733   0.368   4.925  0.0649  1.5966 -0.3411
 5026SOL     OW26536   0.455   3.455   6.219  0.3674  0.2938 -0.3765
 5026SOL    HW126537   0.515   3.470   6.292 -0.9423  0.2323  0.7144
 5026SOL    HW226538   0.511   3.470   6.142 -0.6929  2.0200 -0.8227
 5027SOL     OW26539   0.888   0.128   4.618 -0.5367 -0.2965  0.4048
 5027SOL    HW126540   0.879   0.187   4.693 -2.5915 -1.3657  0.9904
 5027SOL    HW226541   0.886   0.045   4.664  0.5873 -0.6076 -0.1135
 5028SOL     OW26542   4.518   3.921   6.133  0.4452 -0.2791  0.3453
 5028SOL    HW126543   4.441   3.974   6.155 -0.8821 -2.8116  1.7902
 5028SOL    HW226544   4.573   3.973   6.192 -1.0807  0.0620  1.4545
 5029SOL     OW26545   1.737   0.635  12.357  0.1129  0.2116 -0.4487
 5029SOL    HW126546   1.753   0.546  12.388 -0.6208  0.0143 -0.6543
 5029SOL    HW226547   1.709   0.622  12.266  1.1225  0.4652 -0.8048
 5030SOL     OW26548   2.073   2.051   9.083  0.0027  0.4260  0.0219
 5030SOL    HW126549   2.162   2.020   9.064  0.2047  0.5670  0.7453
 5030SOL    HW226550   2.077   2.145   9.068 -0.1432  0.2477 -1.1316
 5031SOL     OW26551   1.952   2.850   2.116  0.2773  0.0830  0.1044
 5031SOL    HW126552   1.881   2.785   2.123  1.7221 -1.3579  1.3425
 5031SOL    HW226553   1.958   2.857   2.021  0.0789  2.0635  0.2429
 5032SOL     OW26554   2.913   2.126  16.541  0.3378 -0.0042  0.0675
 5032SOL    HW126555   2.880   2.133  16.630  1.8979 -3.8149  0.9485
 5032SOL    HW226556   2.861   2.199  16.506 -0.8857 -0.2246  1.4344
 5033SOL     OW26557   4.236   1.260   6.647 -0.1826 -0.0016  0.0440
 5033SOL    HW126558   4.317   1.212   6.628  0.3259  1.7834 -2.3332
 5033SOL    HW226559   4.169   1.193   6.657 -0.4444  0.0921 -1.1320
 5034SOL     OW26560   2.001   2.418  17.359  0.8803 -0.4318  0.1417
 5034SOL    HW126561   2.068   2.398  17.425  0.4077  0.3268  0.8511
 5034SOL    HW226562   2.046   2.483  17.305  1.2666 -0.3381  0.5668
 5035SOL     OW26563   3.660   0.247   7.360  0.7104 -0.0567  0.1503
 5035SOL    HW126564   3.690   0.182   7.296 -0.7995 -1.7313  1.1138
 5035SOL    HW226565   3.663   0.194   7.440 -1.2016 -0.5775 -0.1308
 5036SOL     OW26566   3.529   2.297   2.810 -0.3558  0.1028  0.1970
 5036SOL    HW126567   3.450   2.307   2.757 -0.7129 -1.9382  0.3381
 5036SOL    HW226568   3.539   2.390   2.830 -0.2978  0.0238  0.5486
 5037SOL     OW26569   3.127   3.163   5.636 -0.0229 -0.1957 -0.0439
 5037SOL    HW126570   3.077   3.174   5.717 -0.7675  0.5004 -0.5984
 5037SOL    HW226571   3.159   3.253   5.630  2.1111 -0.9874 -0.7276
 5038SOL     OW26572   0.103   0.147  13.954  0.1065  0.2138  0.3886
 5038SOL    HW126573   0.176   0.086  13.954  0.7003  0.9148  0.3127
 5038SOL    HW226574   0.128   0.199  14.031 -0.0934 -0.0234  0.6122
 5039SOL     OW26575   1.288   3.893   9.181  0.0261  0.0064  0.3998
 5039SOL    HW126576   1.273   3.808   9.222 -0.8941  0.5740  1.2253
 5039SOL    HW226577   1.379   3.908   9.208 -0.6732 -0.0822  2.8341
 5040SOL     OW26578   1.401   4.173   0.470  0.3402 -0.0516 -0.3132
 5040SOL    HW126579   1.398   4.173   0.374  1.2223  0.8476 -0.3371
 5040SOL    HW226580   1.406   4.078   0.484 -0.9564 -0.1232 -0.3828
 5041SOL     OW26581   3.040   0.356   5.386  0.3613  0.2396  0.0770
 5041SOL    HW126582   2.961   0.304   5.400  1.4853 -1.4574  0.2232
 5041SOL    HW226583   3.007   0.441   5.357 -2.2168 -1.7821 -2.9546
 5042SOL     OW26584   0.625   3.406   7.444  0.2669  0.7217  0.3520
 5042SOL    HW126585   0.558   3.438   7.505 -0.3803 -0.5696  0.3294
 5042SOL    HW226586   0.637   3.314   7.469 -4.3849  0.0897  0.4155
 5043SOL     OW26587   0.684   0.764  10.561 -0.2240  0.1714  0.2911
 5043SOL    HW126588   0.610   0.746  10.503  1.2528 -2.4995 -0.7671
 5043SOL    HW226589   0.696   0.677  10.598 -0.2579  0.4461  0.9515
 5044SOL     OW26590   1.882   1.230   7.838  0.3925  0.1006  0.6909
 5044SOL    HW126591   1.801   1.222   7.786  0.9676  0.6614 -0.2934
 5044SOL    HW226592   1.930   1.148   7.827  4.0288  2.3192  0.1680
 5045SOL     OW26593   2.418   4.137   0.562  0.2322 -0.1766 -0.2148
 5045SOL    HW126594   2.469   4.200   0.512 -1.7337  1.3550 -0.2704
 5045SOL    HW226595   2.351   4.118   0.496  0.5619 -0.9602 -0.3287
 5046SOL     OW26596   4.087   3.817   4.173  0.1085 -0.3579 -0.3512
 5046SOL    HW126597   4.002   3.854   4.151  1.0766  1.2185 -1.4075
 5046SOL    HW226598   4.132   3.846   4.094 -0.9381  3.1517  0.3232
 5047SOL     OW26599   0.362   4.424   4.448  0.3236 -0.4460  0.1713
 5047SOL    HW126600   0.361   4.330   4.468  4.4238 -1.2625 -3.5200
 5047SOL    HW226601   0.408   4.427   4.364  0.7673 -0.8735  0.3961
 5048SOL     OW26602   2.687   0.725   5.939 -0.4538 -0.4590 -0.1783
 5048SOL    HW126603   2.738   0.793   5.896 -2.1189  0.4786 -0.6836
 5048SOL    HW226604   2.607   0.778   5.937  1.6630  2.7602 -0.3482
 5049SOL     OW26605   2.440   2.339   7.119 -0.9501 -0.3340  0.3142
 5049SOL    HW126606   2.465   2.291   7.198 -0.9435  0.7170  0.9478
 5049SOL    HW226607   2.423   2.428   7.151  1.5774  0.7681 -1.4466
 5050SOL     OW26608   0.437   4.043   3.622  0.2138 -0.4701  0.4660
 5050SOL    HW126609   0.394   4.095   3.554  0.9727 -0.7938 -0.2677
 5050SOL    HW226610   0.413   4.076   3.709  1.2533  1.6430 -0.0543
 5051SOL     OW26611   4.442   3.516   2.505  0.0649  0.2014 -0.2503
 5051SOL    HW126612   4.445   3.446   2.440  2.4800 -0.4723  0.5798
 5051SOL    HW226613   4.433   3.461   2.583  1.9671  1.0541  0.5660
 5052SOL     OW26614   3.731   3.582   4.368 -0.0063  0.0944  0.2329
 5052SOL    HW126615   3.725   3.592   4.273 -1.0392 -1.0920  0.1783
 5052SOL    HW226616   3.706   3.490   4.378  1.2914 -0.2060  0.6392
 5053SOL     OW26617   3.528   0.820   7.745 -0.5889 -0.5140  0.2185
 5053SOL    HW126618   3.558   0.897   7.697  1.1866 -1.7289 -0.6205
 5053SOL    HW226619   3.535   0.750   7.680 -0.6333  1.3047 -1.7817
 5054SOL     OW26620   2.705   1.966   6.138  0.2216 -0.0611  0.5954
 5054SOL    HW126621   2.632   2.001   6.189  0.6138  0.4366  0.8174
 5054SOL    HW226622   2.774   1.967   6.205 -0.5802  3.3171  1.3984
 5055SOL     OW26623   0.031   2.896  10.028 -0.0252 -0.0208 -0.1855
 5055SOL    HW126624   4.701   2.972  10.012 -0.6142 -0.7831 -1.7973
 5055SOL    HW226625   0.093   2.943  10.085  0.3230  0.4520 -0.9506
 5056SOL     OW26626   4.720   2.465   1.322  0.1507  0.2160  0.6340
 5056SOL    HW126627   0.013   2.374   1.346 -1.2354  0.1729  1.5317
 5056SOL    HW226628   0.080   2.494   1.291 -0.3467  2.9987  1.8833
 5057SOL     OW26629   2.923   0.123  16.427  0.2531  0.0340 -0.4429
 5057SOL    HW126630   2.873   0.068  16.368  2.2560 -1.8518 -0.3820
 5057SOL    HW226631   2.875   0.205  16.422 -0.5848 -0.3671  1.1544
 5058SOL     OW26632   3.652   2.155  12.539 -0.3804 -0.0423 -0.1859
 5058SOL    HW126633   3.591   2.117  12.602  0.2966 -0.5929  0.1371
 5058SOL    HW226634   3.592   2.146  12.465 -0.1432 -0.6538 -0.3019
 5059SOL     OW26635   1.948   0.033   0.526  0.5455 -0.0172 -0.4008
 5059SOL    HW126636   1.912   4.670   0.534  2.5456 -0.9184 -1.1696
 5059SOL    HW226637   1.980   0.034   0.436  0.1411  0.4897 -0.5390
 5060SOL     OW26638   3.112   2.826   7.470  0.1627 -0.2483 -0.2145
 5060SOL    HW126639   3.189   2.882   7.475 -1.3606  1.8241  0.0070
 5060SOL    HW226640   3.077   2.862   7.389  2.2854 -0.8597 -1.3879
 5061SOL     OW26641   1.869   3.488   0.977  0.0708  0.7865 -1.2792
 5061SOL    HW126642   1.872   3.436   0.896 -0.8453  0.4446 -1.0986
 5061SOL    HW226643   1.959   3.519   0.982  0.2474  0.3468 -1.7441
 5062SOL     OW26644   1.183   2.284   6.295 -0.0428 -0.3717 -0.3333
 5062SOL    HW126645   1.265   2.328   6.271  0.1860  0.1125  1.3510
 5062SOL    HW226646   1.146   2.350   6.354 -1.3783 -2.6149  1.3088
 5063SOL     OW26647   2.980   2.931   6.116 -0.4402 -0.7806 -0.1378
 5063SOL    HW126648   2.919   2.999   6.145 -0.3638 -0.3158 -1.0599
 5063SOL    HW226649   3.066   2.974   6.115 -0.2272 -1.2188 -1.2098
 5064SOL     OW26650   0.976   4.489  17.263  0.0483 -0.9292  0.0850
 5064SOL    HW126651   1.038   4.555  17.295 -2.9775  0.9736  2.1003
 5064SOL    HW226652   0.907   4.548  17.233  0.6161 -0.2118  0.1676
 5065SOL     OW26653   4.439   4.605  12.822 -0.1912 -0.1787  0.0502
 5065SOL    HW126654   4.532   4.617  12.842  0.1277 -3.0773  0.3513
 5065SOL    HW226655   4.426   4.692  12.784  0.2895  0.4643  1.3478
 5066SOL     OW26656   0.016   0.314   7.246  0.5070  0.4436 -0.1543
 5066SOL    HW126657   0.109   0.316   7.227  0.3550 -0.2668 -0.9758
 5066SOL    HW226658   0.019   0.311   7.341 -0.1182 -2.7783 -0.2322
 5067SOL     OW26659   2.316   4.349   2.311  0.1956  0.2273 -0.3059
 5067SOL    HW126660   2.238   4.294   2.310  0.6493 -0.4521  1.0899
 5067SOL    HW226661   2.295   4.405   2.386  1.8543 -1.5495  1.4664
 5068SOL     OW26662   0.205   3.497   2.304  0.0773  0.2396  0.1303
 5068SOL    HW126663   0.171   3.531   2.386  0.6958 -1.9201  1.2979
 5068SOL    HW226664   0.148   3.541   2.242  1.1598  1.0281 -0.3097
 5069SOL     OW26665   2.594   2.462   5.785 -0.3335 -0.2521 -0.2184
 5069SOL    HW126666   2.617   2.527   5.718 -0.6422  1.3203  1.2002
 5069SOL    HW226667   2.652   2.391   5.760 -2.9458 -1.9631 -1.3999
 5070SOL     OW26668   4.192   2.201   3.390  0.8300  0.0612 -0.2920
 5070SOL    HW126669   4.146   2.143   3.451 -0.1371  0.0250 -1.0584
 5070SOL    HW226670   4.182   2.179   3.298 -2.7797  0.3761  0.0241
 5071SOL     OW26671   1.829   0.697   9.402 -0.1969 -0.0363  0.4180
 5071SOL    HW126672   1.827   0.687   9.306  0.8205 -1.5374  0.5529
 5071SOL    HW226673   1.736   0.705   9.423 -0.1367  1.1140  0.2482
 5072SOL     OW26674   2.901   1.106  16.180  0.1582 -0.0987  0.5632
 5072SOL    HW126675   2.835   1.172  16.200 -0.0995 -0.4083  0.7283
 5072SOL    HW226676   2.928   1.079  16.268 -0.9155  0.7697  1.1679
 5073SOL     OW26677   4.699   3.826   5.939  0.3308 -0.1666 -0.2202
 5073SOL    HW126678   0.061   3.830   5.976  0.9194 -3.3983 -1.2474
 5073SOL    HW226679   4.644   3.869   6.005  0.7121  0.0907 -0.0717
 5074SOL     OW26680   0.524   2.323   5.307  0.4155 -0.3339 -0.8179
 5074SOL    HW126681   0.535   2.228   5.297  0.8482 -0.3851  0.1547
 5074SOL    HW226682   0.452   2.328   5.245  0.5341 -2.6742 -1.1325
 5075SOL     OW26683   4.341   1.626  11.629 -0.3550  1.0517 -0.3563
 5075SOL    HW126684   4.334   1.591  11.540  0.5657  1.3620 -0.5602
 5075SOL    HW226685   4.373   1.545  11.669 -1.6661  2.2305  3.0589
 5076SOL     OW26686   4.074   1.138   2.428 -0.0176 -0.3139 -0.5404
 5076SOL    HW126687   4.157   1.177   2.398 -0.9030  0.0719 -2.5144
 5076SOL    HW226688   4.057   1.073   2.359 -1.9725  0.3263 -0.6469
 5077SOL     OW26689   2.641   0.471  14.419 -0.0972 -0.5334  0.1744
 5077SOL    HW126690   2.627   0.398  14.480 -0.4952 -1.2579 -0.7918
 5077SOL    HW226691   2.572   0.445  14.358  0.4799 -1.4954 -0.0650
 5078SOL     OW26692   1.256   0.880   4.072 -0.3667 -0.0749  0.1260
 5078SOL    HW126693   1.296   0.817   4.011  0.6910  0.4495  0.2776
 5078SOL    HW226694   1.260   0.964   4.026 -0.8532  0.5105  1.1528
 5079SOL     OW26695   0.802   0.992   6.260  0.5288  0.1863 -0.2797
 5079SOL    HW126696   0.864   0.942   6.314 -1.1428  0.2373  1.6646
 5079SOL    HW226697   0.727   0.975   6.318 -1.0975  0.7235 -2.2286
 5080SOL     OW26698   3.937   0.239   4.232  0.2992 -0.2032  0.1999
 5080SOL    HW126699   3.923   0.232   4.326  1.0107  1.2447  0.4167
 5080SOL    HW226700   3.894   0.324   4.218  1.1782  0.3192  0.6717
 5081SOL     OW26701   1.752   3.110   5.445 -0.7828 -0.5853  0.1607
 5081SOL    HW126702   1.661   3.138   5.455 -1.0963 -1.9383  1.1143
 5081SOL    HW226703   1.791   3.143   5.526  1.3618  2.9906 -2.3330
 5082SOL     OW26704   1.993   2.434   2.036 -0.5449  0.0329 -0.3243
 5082SOL    HW126705   2.053   2.363   2.060 -0.8048  0.5405  1.8489
 5082SOL    HW226706   2.041   2.461   1.958  0.0252 -1.5029 -0.5133
 5083SOL     OW26707   0.602   1.872   2.510 -0.1727  0.3557 -0.7803
 5083SOL    HW126708   0.560   1.844   2.592  1.5076  1.7129  0.5307
 5083SOL    HW226709   0.607   1.789   2.462 -0.9094 -0.3933  0.4162
 5084SOL     OW26710   1.108   2.743   4.080  0.2857 -0.3104 -0.0331
 5084SOL    HW126711   1.044   2.772   4.145 -0.5150  0.1060 -1.0070
 5084SOL    HW226712   1.167   2.817   4.090 -1.6408  0.8149  2.9991
 5085SOL     OW26713   4.125   2.174   3.122 -0.3404 -0.1307 -0.1149
 5085SOL    HW126714   4.080   2.090   3.129 -1.5286  0.4627 -0.6862
 5085SOL    HW226715   4.189   2.165   3.051 -0.4317  0.9276 -0.3287
 5086SOL     OW26716   1.110   1.193   4.617  0.3091  0.1177  0.0123
 5086SOL    HW126717   1.168   1.244   4.561  0.6451  0.3554  0.5800
 5086SOL    HW226718   1.130   1.104   4.588  0.4756  0.1000  0.1897
 5087SOL     OW26719   2.095   3.244   0.569 -0.2070  0.0235  0.1061
 5087SOL    HW126720   2.170   3.186   0.557 -1.4233 -0.9535 -2.6516
 5087SOL    HW226721   2.141   3.325   0.590  0.7540 -0.2745 -0.8795
 5088SOL     OW26722   2.624   3.057   8.135  0.7652  0.0031  0.3133
 5088SOL    HW126723   2.619   2.970   8.173  0.4191  0.4095  1.2097
 5088SOL    HW226724   2.601   3.112   8.210  1.3350  0.5785  0.0732
 5089SOL     OW26725   0.331   0.383   4.532  0.4052  0.2040  0.6047
 5089SOL    HW126726   0.385   0.408   4.457  0.7553  1.0904  1.1424
 5089SOL    HW226727   0.376   0.305   4.565 -0.1847 -0.3039  0.2167
 5090SOL     OW26728   0.213   3.210  14.461  0.9505  0.8021 -0.3246
 5090SOL    HW126729   0.271   3.215  14.385  1.6780  0.0399  0.1804
 5090SOL    HW226730   0.137   3.166  14.423  1.0519  0.0637  0.3159
 5091SOL     OW26731   2.597   0.987   5.507 -0.1168  0.4354 -0.1294
 5091SOL    HW126732   2.626   1.058   5.565  0.7170 -0.0958  0.0950
 5091SOL    HW226733   2.670   0.978   5.445  0.9492  1.4498  0.9597
 5092SOL     OW26734   2.552   2.321   0.001  0.5081  0.4584 -0.8724
 5092SOL    HW126735   2.526   2.246  17.651 -0.1653 -0.9986  1.5030
 5092SOL    HW226736   2.523   2.312   0.092 -1.4235  0.3604 -1.5027
 5093SOL     OW26737   3.009   4.313  16.881 -0.0706  0.0358 -0.1586
 5093SOL    HW126738   3.097   4.297  16.915  0.5083 -1.1041 -2.2025
 5093SOL    HW226739   3.029   4.385  16.822  1.8804 -2.0833 -2.0979
 5094SOL     OW26740   1.913   4.156   4.915 -0.0373 -0.0688  0.0934
 5094SOL    HW126741   1.992   4.175   4.966 -0.5917 -0.1660  0.9875
 5094SOL    HW226742   1.860   4.116   4.984 -0.2132  0.8020  0.4606
 5095SOL     OW26743   0.131   0.216   2.669 -0.5160 -0.0016  0.2660
 5095SOL    HW126744   0.064   0.277   2.699 -0.4508 -0.9088  2.2228
 5095SOL    HW226745   0.133   0.247   2.578 -2.4470  0.8852  0.5269
 5096SOL     OW26746   1.561   1.976   4.530 -0.3863 -0.0610 -0.4414
 5096SOL    HW126747   1.614   1.916   4.477  0.4280 -0.9787  1.4107
 5096SOL    HW226748   1.509   1.918   4.586 -2.8797  2.1912 -0.4228
 5097SOL     OW26749   2.459   3.457  11.618  0.2768 -0.2184 -0.4090
 5097SOL    HW126750   2.532   3.460  11.681  2.4619  0.2882 -2.9665
 5097SOL    HW226751   2.425   3.546  11.612 -0.5932 -0.4093  1.7048
 5098SOL     OW26752   2.501   1.145   2.338  0.5212 -0.5121 -0.0962
 5098SOL    HW126753   2.495   1.202   2.261 -3.7713  0.5190  1.0242
 5098SOL    HW226754   2.439   1.189   2.396 -0.7677 -1.7627 -0.5187
 5099SOL     OW26755   2.418   0.675   1.599  0.0184  0.1482 -0.2700
 5099SOL    HW126756   2.513   0.667   1.601  0.1918  2.3382  0.0771
 5099SOL    HW226757   2.393   0.615   1.669 -1.6391  2.0754  0.7730
 5100SOL     OW26758   3.067   4.027   3.407 -0.0496  0.2207  0.2613
 5100SOL    HW126759   3.052   4.118   3.433  0.6848  0.7783 -1.2341
 5100SOL    HW226760   3.049   3.977   3.486  1.0497 -1.9699 -0.8892
 5101SOL     OW26761   0.663   0.130   5.533 -0.3863 -0.1420 -0.0353
 5101SOL    HW126762   0.685   0.098   5.445  0.9572 -0.3863  0.3891
 5101SOL    HW226763   0.638   0.222   5.526 -2.0841 -0.5844  0.2077
 5102SOL     OW26764   4.323   1.691   8.962 -0.1721  0.1204  0.2477
 5102SOL    HW126765   4.337   1.725   8.874  0.4692  0.2807  0.4156
 5102SOL    HW226766   4.320   1.768   9.019  0.7778  0.0876  0.3448
 5103SOL     OW26767   0.426   3.834  11.530 -0.3267  0.5833  0.3024
 5103SOL    HW126768   0.420   3.929  11.546  0.0557  0.9903 -1.9822
 5103SOL    HW226769   0.497   3.844  11.467 -0.7057  0.6550 -0.1096
 5104SOL     OW26770   1.751   4.470  12.747 -0.1735  0.7991  0.3484
 5104SOL    HW126771   1.802   4.399  12.786 -0.4915  1.6031  2.2161
 5104SOL    HW226772   1.740   4.437  12.658  0.2913 -1.6465  1.1866
 5105SOL     OW26773   2.956   0.314   9.356  0.5018  0.5245 -0.0009
 5105SOL    HW126774   2.933   0.242   9.415 -2.7819  0.7222 -1.0612
 5105SOL    HW226775   2.897   0.387   9.377 -0.2846  0.4999 -2.1335
 5106SOL     OW26776   4.225   4.391   2.525 -0.7325  0.7701 -0.3995
 5106SOL    HW126777   4.166   4.452   2.570  0.1093 -0.0990  1.8870
 5106SOL    HW226778   4.308   4.431   2.551 -1.3939  1.6702  0.3209
 5107SOL     OW26779   0.269   3.873  14.792  0.4494  0.0002  0.6402
 5107SOL    HW126780   0.356   3.840  14.815  0.0764 -1.5011 -0.1163
 5107SOL    HW226781   0.275   3.851  14.699  0.4884 -0.7026  0.8092
 5108SOL     OW26782   2.485   4.398  16.787 -0.9123 -0.5509  0.4966
 5108SOL    HW126783   2.507   4.311  16.754  0.6723 -1.3385  3.6773
 5108SOL    HW226784   2.408   4.378  16.840 -1.0171  0.9051  0.8995
 5109SOL     OW26785   4.577   2.178   4.004 -0.4054  0.6694  0.4452
 5109SOL    HW126786   4.507   2.223   4.050 -0.6012 -0.1413  0.9291
 5109SOL    HW226787   4.606   2.128   4.080 -0.0382 -1.4273 -1.0755
 5110SOL     OW26788   3.872   0.817   0.716 -0.0719  0.6416 -0.2740
 5110SOL    HW126789   3.902   0.746   0.771 -0.0621  1.2264  0.4724
 5110SOL    HW226790   3.916   0.803   0.632  3.5601  2.4455  1.3137
 5111SOL     OW26791   2.099   2.902   4.322 -0.2605 -0.4772  0.3803
 5111SOL    HW126792   2.177   2.848   4.336  0.6597 -0.0084 -3.0219
 5111SOL    HW226793   2.096   2.911   4.227 -0.7822  1.3370  0.5699
 5112SOL     OW26794   0.934   2.942   1.103 -0.3596  0.1181 -0.1374
 5112SOL    HW126795   0.899   2.878   1.166 -1.5091  0.7576 -0.1262
 5112SOL    HW226796   0.853   2.970   1.060  0.7049 -0.9685 -2.8244
 5113SOL     OW26797   3.917   0.465   1.800 -0.6330  0.0168  0.9148
 5113SOL    HW126798   3.965   0.473   1.883 -2.1537  1.1298  1.6759
 5113SOL    HW226799   3.919   0.550   1.756 -2.3327  0.2801  1.3520
 5114SOL     OW26800   3.774   2.740   8.337 -0.4451 -0.5599 -1.1107
 5114SOL    HW126801   3.820   2.755   8.420 -0.3100  2.2337 -1.6691
 5114SOL    HW226802   3.708   2.677   8.365 -0.8418 -0.2240 -1.2859
 5115SOL     OW26803   0.179   0.851  11.777  0.0789 -0.1761 -0.0860
 5115SOL    HW126804   0.273   0.853  11.795  0.6210  0.4609 -3.1347
 5115SOL    HW226805   0.158   0.758  11.767  0.3857 -0.1012 -1.2964
 5116SOL     OW26806   3.295   4.137  12.668 -0.1711 -0.3744 -0.8568
 5116SOL    HW126807   3.239   4.099  12.600 -0.7682  0.9693 -1.1336
 5116SOL    HW226808   3.326   4.222  12.636  0.5359 -0.8427 -1.4091
 5117SOL     OW26809   3.125   0.321   9.152 -0.2026 -0.7135 -0.1430
 5117SOL    HW126810   3.119   0.416   9.163 -0.2717 -0.6085 -1.0956
 5117SOL    HW226811   3.067   0.300   9.225  0.7839  0.1436  0.8843
 5118SOL     OW26812   4.642   2.473   3.373  0.6439 -0.2620 -0.3783
 5118SOL    HW126813   4.605   2.527   3.303  0.4073 -0.3241 -0.2985
 5118SOL    HW226814   4.560   2.456   3.419 -1.1894  2.1632 -2.7595
 5119SOL     OW26815   0.706   0.369   8.154  0.7044  0.3148  0.2737
 5119SOL    HW126816   0.704   0.275   8.136 -2.0763  0.3452  0.4700
 5119SOL    HW226817   0.625   0.383   8.204  0.2202 -1.8758  0.0696
 5120SOL     OW26818   1.970   4.370   5.980  0.2391  0.6434 -0.5463
 5120SOL    HW126819   2.017   4.454   5.989 -2.7025  2.1175  1.0324
 5120SOL    HW226820   1.886   4.409   5.957  0.0910 -0.3087 -1.6123
 5121SOL     OW26821   4.283   1.995   7.839 -0.5012 -0.0536 -0.0098
 5121SOL    HW126822   4.201   2.041   7.821  0.6211  1.0601 -2.3288
 5121SOL    HW226823   4.341   2.071   7.835 -1.9454  1.0937  0.5438
 5122SOL     OW26824   2.120   0.935   4.723  0.3872 -0.2531 -0.0385
 5122SOL    HW126825   2.182   0.923   4.795  1.6381  0.5881 -0.9855
 5122SOL    HW226826   2.104   1.029   4.726 -0.1930 -0.3547  0.1136
 5123SOL     OW26827   4.392   2.357  13.857 -0.1408 -0.3294 -0.1036
 5123SOL    HW126828   4.330   2.404  13.914  0.8481  0.9493 -0.0846
 5123SOL    HW226829   4.357   2.269  13.865 -0.3896 -0.3241 -1.1682
 5124SOL     OW26830   1.887   0.544   3.633  0.5044  0.8256 -0.2121
 5124SOL    HW126831   1.952   0.570   3.567  0.9746  0.8435  0.2618
 5124SOL    HW226832   1.909   0.452   3.647  4.0787  1.2973 -2.7672
 5125SOL     OW26833   3.384   4.370  10.675  0.2148 -0.2380  0.1070
 5125SOL    HW126834   3.470   4.332  10.688 -0.2884 -1.5165 -0.3783
 5125SOL    HW226835   3.397   4.389  10.582  0.4303 -0.0667  0.1702
 5126SOL     OW26836   0.441   3.079  11.222  0.3122 -0.5156 -0.2452
 5126SOL    HW126837   0.429   3.139  11.149  0.4185 -0.9982 -0.6629
 5126SOL    HW226838   0.361   3.102  11.268 -0.8784 -3.2045 -0.9729
 5127SOL     OW26839   0.163   3.482  13.545  0.2722 -0.1478 -0.1035
 5127SOL    HW126840   0.083   3.451  13.586  0.5807  1.5410  1.7487
 5127SOL    HW226841   0.177   3.430  13.466  2.7577 -1.3439  1.1199
 5128SOL     OW26842   0.517   0.868   7.610  0.2026 -0.3831 -0.3801
 5128SOL    HW126843   0.528   0.781   7.650  0.4534 -0.4329 -0.5570
 5128SOL    HW226844   0.579   0.855   7.538 -0.8866 -0.2554 -1.3287
 5129SOL     OW26845   3.986   0.203   7.313 -0.0874 -0.0153  0.0008
 5129SOL    HW126846   4.040   0.157   7.249 -1.0269  1.1609 -1.6315
 5129SOL    HW226847   3.921   0.133   7.316 -0.5075  0.3177 -1.4588
 5130SOL     OW26848   1.053   4.230   0.130 -0.1787  0.2353  0.0482
 5130SOL    HW126849   1.042   4.325   0.137  1.5764  0.5706 -1.7536
 5130SOL    HW226850   1.104   4.225   0.049 -0.4178  0.0736 -0.0934
 5131SOL     OW26851   3.090   1.806   1.491  0.0751 -0.1831 -0.4399
 5131SOL    HW126852   3.125   1.730   1.444  1.0723 -0.7059  1.1817
 5131SOL    HW226853   3.154   1.873   1.468  1.9894 -1.7913  0.1824
 5132SOL     OW26854   0.929   0.038   6.677  0.3128 -0.5095  0.5635
 5132SOL    HW126855   0.908   4.671   6.674  0.7548 -0.5402 -1.5405
 5132SOL    HW226856   0.840   0.068   6.657  0.0248 -1.6228  0.1699
 5133SOL     OW26857   1.418   4.186   7.615 -0.1170 -0.0827  0.1496
 5133SOL    HW126858   1.345   4.125   7.604 -1.0578  1.2723 -1.0338
 5133SOL    HW226859   1.483   4.123   7.646  1.4937 -0.4015 -3.8090
 5134SOL     OW26860   2.880   0.757   9.724  0.5290 -0.3292  0.4330
 5134SOL    HW126861   2.822   0.744   9.799 -1.8128 -1.0371 -1.4897
 5134SOL    HW226862   2.847   0.839   9.686  1.3477 -0.2940 -0.2252
 5135SOL     OW26863   1.979   1.592   3.004  0.0929 -0.0770  0.1429
 5135SOL    HW126864   1.982   1.506   2.962 -2.3438 -0.1095  0.0364
 5135SOL    HW226865   1.885   1.586   3.016 -0.1065  1.7116 -0.5639
 5136SOL     OW26866   3.987   4.684   0.095 -0.1373 -0.2438  0.6018
 5136SOL    HW126867   3.912   4.717   0.143 -1.6702 -3.8354  0.6806
 5136SOL    HW226868   4.040   4.680   0.175  2.3041  0.7415 -0.9528
 5137SOL     OW26869   1.023   3.561  17.599 -0.0584 -0.3035  0.4652
 5137SOL    HW126870   0.948   3.618  17.586  2.7454  3.2539 -0.1121
 5137SOL    HW226871   1.039   3.569  17.693 -0.8065  0.5752  0.5188
 5138SOL     OW26872   0.614   3.441   1.901  0.1081  0.2009  0.0185
 5138SOL    HW126873   0.564   3.522   1.900 -1.7819 -0.9709 -0.6387
 5138SOL    HW226874   0.546   3.379   1.927 -1.0019  1.1982 -0.4977
 5139SOL     OW26875   0.531   4.624   2.664 -0.0024  0.4875 -0.0431
 5139SOL    HW126876   0.501   4.671   2.586  2.5409  1.2777 -0.5286
 5139SOL    HW226877   0.453   4.621   2.720  1.6239 -0.2006  2.1727
 5140SOL     OW26878   3.264   4.410  16.618  0.3385 -0.3326 -0.2127
 5140SOL    HW126879   3.325   4.338  16.638  1.2864  1.0180  1.6837
 5140SOL    HW226880   3.274   4.392  16.525  3.2109  0.9486 -0.1368
 5141SOL     OW26881   0.593   4.103   5.491  0.1171 -1.0734  0.2728
 5141SOL    HW126882   0.609   4.093   5.585 -0.4750 -2.1246  0.2570
 5141SOL    HW226883   0.515   4.158   5.488  2.6304  2.5107  0.1076
 5142SOL     OW26884   3.412   4.460  17.342 -0.1224  0.4074 -0.3372
 5142SOL    HW126885   3.448   4.529  17.287  1.2223 -0.8990 -1.0908
 5142SOL    HW226886   3.337   4.504  17.382  0.6626  4.0037 -2.8400
 5143SOL     OW26887   2.064   1.190  14.589 -0.4111  0.1406 -0.2730
 5143SOL    HW126888   1.972   1.195  14.562 -0.7984 -1.6063  0.7341
 5143SOL    HW226889   2.067   1.252  14.662  2.2386  0.5645 -0.7465
 5144SOL     OW26890   0.959   3.281   8.052 -0.1995 -0.2360 -0.4803
 5144SOL    HW126891   1.027   3.222   8.085 -0.4640 -1.1712 -1.5925
 5144SOL    HW226892   0.915   3.329   8.121  0.4187  0.6893 -0.7337
 5145SOL     OW26893   0.171   0.369   1.626 -0.9067 -0.8337 -0.2533
 5145SOL    HW126894   0.252   0.345   1.582  0.8844  1.6264  1.7722
 5145SOL    HW226895   0.197   0.430   1.694 -1.2972 -1.5876  0.5844
 5146SOL     OW26896   1.029   3.517   0.723  0.1808 -0.1634  0.6318
 5146SOL    HW126897   1.053   3.534   0.814  1.0187  1.1865  0.1607
 5146SOL    HW226898   0.943   3.477   0.733 -0.0815  0.5515  1.2317
 5147SOL     OW26899   3.861   2.569   2.164 -0.0318  0.3757 -0.4829
 5147SOL    HW126900   3.861   2.654   2.209  0.3398  0.8950 -1.4529
 5147SOL    HW226901   3.850   2.604   2.075 -0.1294  1.6589  0.0425
 5148SOL     OW26902   2.164   1.664   8.227  0.1209  1.0365  0.0495
 5148SOL    HW126903   2.227   1.598   8.254 -1.3893 -1.0250 -1.4520
 5148SOL    HW226904   2.173   1.660   8.132  1.9220  2.4370  0.1644
 5149SOL     OW26905   4.320   2.009   4.656  0.0717  0.1684 -0.2411
 5149SOL    HW126906   4.280   2.088   4.693 -2.2859 -0.6792 -0.9802
 5149SOL    HW226907   4.270   1.941   4.700 -1.5499  0.5680 -1.4504
 5150SOL     OW26908   2.110   4.688   4.873  0.5292  0.0561  0.1373
 5150SOL    HW126909   2.040   4.672   4.936 -1.6283  2.9421 -1.5494
 5150SOL    HW226910   2.097   0.055   4.855  0.5806 -0.2069 -1.2654
 5151SOL     OW26911   2.390   2.464   3.424  0.4270  0.1585  0.3211
 5151SOL    HW126912   2.303   2.489   3.395  0.3478 -1.0153 -0.4842
 5151SOL    HW226913   2.431   2.473   3.338  1.5044  0.5708  0.8772
 5152SOL     OW26914   4.210   1.401   6.005 -0.2189  0.2998  0.6603
 5152SOL    HW126915   4.239   1.446   6.084  0.6585  0.1373  0.4335
 5152SOL    HW226916   4.204   1.310   6.032  1.0525 -0.0220 -0.1709
 5153SOL     OW26917   3.622   2.572   4.206  0.1286  0.0843  0.2428
 5153SOL    HW126918   3.661   2.579   4.293 -1.6231 -1.8085  1.1854
 5153SOL    HW226919   3.597   2.663   4.190  1.1614  0.6268  1.7036
 5154SOL     OW26920   1.475   3.345   3.253  0.5901  0.3557  0.7598
 5154SOL    HW126921   1.413   3.393   3.199  0.4148 -0.9211 -0.1642
 5154SOL    HW226922   1.421   3.269   3.273 -1.9725  1.7951 -0.7804
 5155SOL     OW26923   2.260   3.668   1.979 -0.2594  0.0323  0.3152
 5155SOL    HW126924   2.238   3.651   2.070  1.3803  0.7501  0.8568
 5155SOL    HW226925   2.350   3.636   1.989  0.0818 -0.3114 -4.0431
 5156SOL     OW26926   1.126   4.065   0.336  0.2894  0.6364 -0.4677
 5156SOL    HW126927   1.090   4.101   0.254 -1.5955  0.1521  0.1534
 5156SOL    HW226928   1.072   4.105   0.404 -0.1857  0.0616 -0.5109
 5157SOL     OW26929   1.184   4.346   2.986  0.1477  0.1939 -0.4761
 5157SOL    HW126930   1.145   4.379   2.905 -0.3138  1.0598  0.1064
 5157SOL    HW226931   1.195   4.252   2.967 -2.6670 -0.8048  2.6666
 5158SOL     OW26932   0.080   0.250   4.125 -0.1206  0.1653  0.2054
 5158SOL    HW126933   0.026   0.260   4.203  0.7072 -1.5842  0.9964
 5158SOL    HW226934   0.134   0.174   4.147 -0.0293 -0.0236 -0.6597
 5159SOL     OW26935   1.253   0.587   3.562  0.6908  0.9225  0.3148
 5159SOL    HW126936   1.179   0.574   3.503  1.2416 -0.5888 -0.0660
 5159SOL    HW226937   1.292   0.671   3.538 -0.7955  2.0140  1.7821
 5160SOL     OW26938   1.836   0.382   6.140  0.7064 -0.0392  0.1010
 5160SOL    HW126939   1.834   0.462   6.087 -0.2338 -1.3979 -1.9068
 5160SOL    HW226940   1.761   0.335   6.105  0.8850  0.5502 -1.0716
 5161SOL     OW26941   3.490   3.698   7.321 -0.1322 -0.1356  0.2432
 5161SOL    HW126942   3.544   3.627   7.289  0.5942 -0.0958  1.3683
 5161SOL    HW226943   3.511   3.767   7.257 -2.7466  1.2696  0.8927
 5162SOL     OW26944   3.166   4.587   0.073  0.1107 -0.0700  0.1339
 5162SOL    HW126945   3.072   4.571   0.061 -0.3481  2.4695  0.2835
 5162SOL    HW226946   3.203   4.503   0.047 -2.2366 -1.8535  2.5699
 5163SOL     OW26947   1.755   3.906  13.774  0.2220  0.3667 -0.1588
 5163SOL    HW126948   1.764   3.823  13.822 -3.3255 -1.0463 -1.9516
 5163SOL    HW226949   1.831   3.898  13.716  0.5304  2.1064  0.0079
 5164SOL     OW26950   2.640   2.298   5.551 -0.3342  0.3372  0.0025
 5164SOL    HW126951   2.715   2.257   5.596  0.8634 -1.1237 -3.3262
 5164SOL    HW226952   2.682   2.347   5.481 -3.7039  1.3530 -1.2854
 5165SOL     OW26953   2.079   1.874   7.006 -0.3472  0.3469 -0.0806
 5165SOL    HW126954   2.087   1.967   7.028  0.6163  0.2342  0.0383
 5165SOL    HW226955   2.151   1.843   7.061 -0.8877  0.2220  0.5578
 5166SOL     OW26956   3.327   4.587   6.628 -0.0092  0.1706 -0.2406
 5166SOL    HW126957   3.348   4.533   6.703 -1.4551  1.5642  1.1700
 5166SOL    HW226958   3.233   4.576   6.622 -0.1447  0.7546  0.8267
 5167SOL     OW26959   1.686   0.547   4.195  0.1828 -0.8196  0.1160
 5167SOL    HW126960   1.713   0.564   4.105  2.0366  0.2650  0.8529
 5167SOL    HW226961   1.650   0.634   4.216  0.8925 -0.3437 -0.6504
 5168SOL     OW26962   0.580   1.724  13.478 -0.2344  0.1036  0.0090
 5168SOL    HW126963   0.665   1.736  13.521  0.0278  0.1923 -0.5423
 5168SOL    HW226964   0.551   1.812  13.455 -3.1190 -0.5087  1.2670
 5169SOL     OW26965   3.786   3.867   7.274 -0.2901  0.1479  0.2075
 5169SOL    HW126966   3.880   3.860   7.294  0.0956  0.3615 -1.5110
 5169SOL    HW226967   3.733   3.805   7.323  0.3919 -0.9019 -0.3878
 5170SOL     OW26968   2.958   0.547   0.309 -0.0487 -0.3304 -0.2511
 5170SOL    HW126969   2.991   0.488   0.241 -1.6640 -2.5316  0.8625
 5170SOL    HW226970   3.004   0.630   0.291 -1.2808  0.1442 -1.1593
 5171SOL     OW26971   1.100   2.647   0.389 -0.0533  0.1804  0.0473
 5171SOL    HW126972   1.038   2.591   0.435 -2.3878  2.0748 -0.7837
 5171SOL    HW226973   1.049   2.661   0.308 -0.1790 -2.1085 -0.2890
 5172SOL     OW26974   0.359   2.317   2.535  0.2767  0.1445 -0.6907
 5172SOL    HW126975   0.428   2.351   2.592 -0.6134  0.1767  0.3803
 5172SOL    HW226976   0.390   2.237   2.494  1.0049  0.1025 -0.0603
 5173SOL     OW26977   1.938   3.476   5.158  0.5619 -0.8405  0.6279
 5173SOL    HW126978   1.893   3.393   5.141 -0.1126 -0.1704 -0.8682
 5173SOL    HW226979   1.869   3.542   5.157  1.9714  0.6089  0.3631
 5174SOL     OW26980   3.122   1.176   3.480 -0.3211  0.2184  0.2857
 5174SOL    HW126981   3.134   1.095   3.529  0.6569  0.3382  0.2421
 5174SOL    HW226982   3.192   1.235   3.506  0.2392 -0.4386  0.2619
 5175SOL     OW26983   1.743   2.676   6.675  0.1918  1.3895  0.7632
 5175SOL    HW126984   1.702   2.762   6.669 -0.4574  1.1256  1.4460
 5175SOL    HW226985   1.671   2.622   6.709  1.9429 -1.3295  0.1787
 5176SOL     OW26986   0.876   4.303   5.103  0.5116  0.2784  0.4770
 5176SOL    HW126987   0.849   4.342   5.019  1.3765  0.2872  0.2090
 5176SOL    HW226988   0.897   4.213   5.077 -0.5991  0.1446 -0.0043
 5177SOL     OW26989   1.389   4.582   0.477  0.1573  0.1232  0.5621
 5177SOL    HW126990   1.437   4.527   0.415  0.3168 -0.3462  1.1010
 5177SOL    HW226991   1.387   4.665   0.431  2.9708  0.4609  1.0917
 5178SOL     OW26992   4.345   4.140   3.889  0.2859  0.0185  0.2421
 5178SOL    HW126993   4.293   4.190   3.951 -0.5525  0.9762 -1.2364
 5178SOL    HW226994   4.324   4.196   3.814 -1.0906 -2.0628 -0.9543
 5179SOL     OW26995   1.748   3.621   9.723 -0.3791 -0.5155 -0.4709
 5179SOL    HW126996   1.742   3.554   9.655  3.2856  1.0449 -2.3439
 5179SOL    HW226997   1.790   3.695   9.679  0.1506 -0.6397 -0.1772
 5180SOL     OW26998   3.642   1.532  10.067 -0.0892 -0.2157 -0.2135
 5180SOL    HW126999   3.690   1.611  10.041 -0.3961  0.7761  2.2538
 5180SOL    HW227000   3.690   1.517  10.148  0.1722  2.4325  0.1049
 5181SOL     OW27001   2.789   0.842   3.936 -0.4355 -0.2326  0.0917
 5181SOL    HW127002   2.725   0.773   3.923  0.1129 -0.5871 -0.6898
 5181SOL    HW227003   2.794   0.864   3.843  1.5965 -0.3534  0.1683
 5182SOL     OW27004   3.354   4.260  11.723  0.0737 -0.0914  0.3468
 5182SOL    HW127005   3.425   4.274  11.660  0.1303  0.3318  0.5057
 5182SOL    HW227006   3.406   4.270  11.802 -0.1814  0.5852  0.4265
 5183SOL     OW27007   0.801   1.274  16.978 -0.0617 -0.0138  0.1502
 5183SOL    HW127008   0.877   1.256  16.922 -0.7517 -0.5742 -0.6209
 5183SOL    HW227009   0.735   1.209  16.954 -0.2769 -0.5880  2.3939
 5184SOL     OW27010   3.082   1.722  13.370 -0.1112 -0.2551  0.4496
 5184SOL    HW127011   3.007   1.682  13.414 -1.4234  1.7939  0.0966
 5184SOL    HW227012   3.137   1.643  13.369 -0.4694 -0.4898 -0.5979
 5185SOL     OW27013   2.434   3.724   6.234 -0.5250 -0.1440 -0.4806
 5185SOL    HW127014   2.375   3.782   6.281 -0.3316  0.2536 -0.7257
 5185SOL    HW227015   2.497   3.787   6.199  1.3601 -2.0872 -0.6153
 5186SOL     OW27016   2.022   4.166   5.760  0.0418 -0.1095  0.0365
 5186SOL    HW127017   2.001   4.234   5.825 -1.0861 -0.2430 -0.1957
 5186SOL    HW227018   1.935   4.138   5.733 -0.7751  0.5202  1.9891
 5187SOL     OW27019   3.792   1.930  11.778 -0.4711  0.0457  0.0997
 5187SOL    HW127020   3.782   2.024  11.787  0.1810 -0.0259  1.5662
 5187SOL    HW227021   3.720   1.904  11.720  0.1230 -2.2795  0.4079
 5188SOL     OW27022   0.732   4.650   7.607  0.6018 -0.2490  0.0586
 5188SOL    HW127023   0.715   0.008   7.562 -0.1573 -0.1906  0.4526
 5188SOL    HW227024   0.774   4.595   7.541 -1.7404 -2.4292  0.3804
 5189SOL     OW27025   4.664   4.365  15.121 -0.0562 -0.0668  0.2888
 5189SOL    HW127026   0.012   4.402  15.169  1.3738 -0.6565 -1.4176
 5189SOL    HW227027   4.599   4.364  15.191  0.4394 -2.8276  0.7269
 5190SOL     OW27028   3.064   4.224   8.791 -0.2527  0.0260  0.0410
 5190SOL    HW127029   2.996   4.257   8.732 -2.4078  0.3720  2.7129
 5190SOL    HW227030   3.068   4.291   8.859 -0.2337 -0.3607  0.4205
 5191SOL     OW27031   4.538   4.173   9.375  0.2915 -0.1958 -0.5326
 5191SOL    HW127032   4.501   4.259   9.393 -1.8388 -0.9771 -1.1919
 5191SOL    HW227033   4.509   4.114   9.444 -0.1680 -1.4187 -1.7609
 5192SOL     OW27034   1.421   1.062   3.209 -0.5328 -0.3197 -0.0876
 5192SOL    HW127035   1.332   1.040   3.182  0.9722 -1.3515 -4.2655
 5192SOL    HW227036   1.421   1.036   3.301 -1.9713  0.9632  0.2861
 5193SOL     OW27037   4.270   1.705   0.077 -0.2076 -0.3931 -0.0959
 5193SOL    HW127038   4.345   1.669   0.030  0.3427  0.1643  0.3627
 5193SOL    HW227039   4.207   1.720   0.007  1.0148  0.0819 -1.0904
 5194SOL     OW27040   1.477   0.039  14.596 -0.1778  0.4293 -0.1403
 5194SOL    HW127041   1.422   4.687  14.600 -0.4501  0.6255 -0.0978
 5194SOL    HW227042   1.554   0.010  14.644 -0.4377  1.5373  0.9496
 5195SOL     OW27043   1.459   0.809  16.433  0.7866  0.6578  0.1100
 5195SOL    HW127044   1.408   0.817  16.513  0.5203  0.3675 -0.0304
 5195SOL    HW227045   1.543   0.795  16.478  0.6464 -2.8729 -0.7467
 5196SOL     OW27046   4.201   3.673  10.331  0.2415  0.0867  0.1046
 5196SOL    HW127047   4.233   3.679  10.241  0.9949  0.8894  0.4181
 5196SOL    HW227048   4.218   3.762  10.362 -1.3957  0.1109  0.9278
 5197SOL     OW27049   3.880   0.514   2.504 -0.5457  0.0783  0.3563
 5197SOL    HW127050   3.870   0.517   2.409 -2.4297 -0.4589  0.5375
 5197SOL    HW227051   3.839   0.599   2.524 -0.7806  0.0633 -0.0639
 5198SOL     OW27052   1.599   2.809   2.914 -0.4577 -0.2872 -0.2170
 5198SOL    HW127053   1.540   2.806   2.990 -1.9863  0.9300 -1.3592
 5198SOL    HW227054   1.661   2.740   2.939  0.8051  2.1429  3.3027
 5199SOL     OW27055   1.771   2.727  16.786  0.3469  0.9044 -0.1476
 5199SOL    HW127056   1.844   2.670  16.810 -2.2234 -1.4312  2.1038
 5199SOL    HW227057   1.727   2.661  16.732 -0.4079  1.6132 -0.4020
 5200SOL     OW27058   0.469   3.968   4.277  0.0667  0.5601 -0.3693
 5200SOL    HW127059   0.560   3.976   4.248  0.0614  1.6924 -0.0857
 5200SOL    HW227060   0.462   4.028   4.352  1.9440 -0.0347  0.2801
 5201SOL     OW27061   1.341   0.853   7.507  0.0154  0.4698  0.1988
 5201SOL    HW127062   1.357   0.761   7.527 -0.3424  0.5273  0.7577
 5201SOL    HW227063   1.325   0.885   7.596 -0.3647  0.0694  0.2753
 5202SOL     OW27064   2.635   2.501  10.205  0.0515 -0.4550 -0.1039
 5202SOL    HW127065   2.574   2.508  10.279  1.5127 -1.7948  1.2288
 5202SOL    HW227066   2.569   2.485  10.137  0.8475 -1.7569 -0.5817
 5203SOL     OW27067   2.008   4.307  16.330  0.0064 -0.1034  0.5626
 5203SOL    HW127068   1.927   4.299  16.280  1.2645 -0.0641 -1.5203
 5203SOL    HW227069   2.060   4.371  16.280  0.1464 -0.9896 -0.4428
 5204SOL     OW27070   4.309   1.971   5.130  0.3514 -0.6275 -0.3335
 5204SOL    HW127071   4.221   1.980   5.167  0.9341 -2.9331  1.6451
 5204SOL    HW227072   4.336   2.062   5.129 -0.7731 -0.2805  0.5766
 5205SOL     OW27073   3.981   1.626  11.062 -0.5405  0.5440  0.2130
 5205SOL    HW127074   3.968   1.597  10.972 -0.1396 -2.5203  1.1268
 5205SOL    HW227075   4.072   1.656  11.060 -0.9845  1.7359 -2.2071
 5206SOL     OW27076   3.854   3.092  13.516 -0.2161  0.2167  0.5813
 5206SOL    HW127077   3.793   3.165  13.521  0.2635  0.6730 -0.3329
 5206SOL    HW227078   3.846   3.057  13.605 -0.2132  0.4938  0.6885
 5207SOL     OW27079   1.723   2.230   2.710 -0.6466 -0.0623 -0.7201
 5207SOL    HW127080   1.717   2.155   2.768  1.2276 -0.1423 -0.6038
 5207SOL    HW227081   1.703   2.308   2.763  1.0568  0.7358 -1.2454
 5208SOL     OW27082   2.338   0.568   9.807  0.4810  0.4030  0.0499
 5208SOL    HW127083   2.352   0.479   9.776  1.5349  0.0050  1.6467
 5208SOL    HW227084   2.351   0.546   9.899  1.9366 -0.1263 -0.2736
 5209SOL     OW27085   0.350   1.559  12.410 -0.1820 -0.2101 -0.4728
 5209SOL    HW127086   0.443   1.583  12.407 -0.2154  0.0551  0.7115
 5209SOL    HW227087   0.333   1.605  12.492 -1.8469 -0.0654 -0.9011
 5210SOL     OW27088   2.813   2.154  17.655 -0.4931  0.6537  0.2172
 5210SOL    HW127089   2.874   2.181   0.020 -1.0911  2.0985  0.1847
 5210SOL    HW227090   2.724   2.174  17.683 -1.5633 -0.1340 -2.6574
 5211SOL     OW27091   4.163   2.142   6.706  0.0713 -0.0535 -0.3441
 5211SOL    HW127092   4.122   2.066   6.664 -1.8230  0.2285  1.0224
 5211SOL    HW227093   4.208   2.190   6.636 -0.0141 -0.1374 -0.4567
 5212SOL     OW27094   0.644   4.008  15.891 -0.1650 -0.4742  0.2673
 5212SOL    HW127095   0.592   4.073  15.844  3.3974  1.7459 -0.5990
 5212SOL    HW227096   0.727   4.056  15.899  1.2826 -2.7033 -1.4193
 5213SOL     OW27097   4.027   1.891   6.670 -0.4149 -0.3042  0.2927
 5213SOL    HW127098   3.935   1.903   6.647 -0.2699 -2.2867 -1.3258
 5213SOL    HW227099   4.035   1.797   6.656 -1.9980 -0.2924 -0.6032
 5214SOL     OW27100   4.236   2.654   3.386  0.6843  0.2041 -0.1865
 5214SOL    HW127101   4.174   2.582   3.399  0.7629  0.5062  1.8025
 5214SOL    HW227102   4.237   2.656   3.290  0.7720  0.3038 -0.1836
 5215SOL     OW27103   4.327   3.535   2.146  0.7802 -0.5893  0.1436
 5215SOL    HW127104   4.335   3.598   2.218 -1.3073  1.3689 -1.3357
 5215SOL    HW227105   4.261   3.587   2.100  1.0781 -2.4873 -2.4558
 5216SOL     OW27106   3.628   2.121   3.403  0.4229 -0.1154  0.0985
 5216SOL    HW127107   3.713   2.094   3.437  0.7623 -0.8086 -1.2825
 5216SOL    HW227108   3.664   2.165   3.326 -0.7088  1.1923  0.3092
 5217SOL     OW27109   2.243   1.736   2.206  0.0588 -0.4772 -0.6083
 5217SOL    HW127110   2.303   1.675   2.250 -0.1185 -1.5752 -1.9042
 5217SOL    HW227111   2.242   1.818   2.256  3.0018 -0.7392 -0.0830
 5218SOL     OW27112   4.335   3.961   6.966 -0.7411  0.3948  0.4467
 5218SOL    HW127113   4.293   3.993   7.046  0.4446  2.0674  0.4031
 5218SOL    HW227114   4.325   3.866   6.962 -1.9387  0.4892  1.1636
 5219SOL     OW27115   4.399   3.504   8.877  0.1148 -0.1069 -0.2237
 5219SOL    HW127116   4.476   3.550   8.910  0.7394 -0.5515 -1.0599
 5219SOL    HW227117   4.390   3.439   8.947 -1.6065  0.4233  0.0455
 5220SOL     OW27118   0.817   2.624  12.426  0.7275 -0.4110 -0.1717
 5220SOL    HW127119   0.744   2.629  12.487 -0.5578 -0.5096 -1.7148
 5220SOL    HW227120   0.870   2.550  12.457  0.7840 -0.6728 -0.9072
 5221SOL     OW27121   4.019   4.372   3.709 -0.0018 -0.6476 -0.1904
 5221SOL    HW127122   3.941   4.326   3.741 -1.4058  0.1667 -2.4267
 5221SOL    HW227123   3.988   4.463   3.706  0.2758 -0.6195 -2.4360
 5222SOL     OW27124   4.395   2.371   3.449  0.4607  0.0661 -0.6915
 5222SOL    HW127125   4.432   2.309   3.511  1.0697  0.8396 -0.2762
 5222SOL    HW227126   4.324   2.320   3.410 -0.0825 -0.6504  1.2289
 5223SOL     OW27127   1.357   4.336   3.376  0.4772  0.1873 -0.0517
 5223SOL    HW127128   1.276   4.377   3.345 -0.7160 -1.6764  0.5979
 5223SOL    HW227129   1.374   4.286   3.297  1.3365  2.0256 -1.0208
 5224SOL     OW27130   2.927   0.943  10.176 -0.2582  0.3721 -0.7573
 5224SOL    HW127131   2.847   0.904  10.141  0.8246 -0.9899 -1.7017
 5224SOL    HW227132   2.968   0.858  10.195 -0.8703 -0.4212 -2.9856
 5225SOL     OW27133   1.477   2.496   1.696  0.3585 -0.1346  0.2407
 5225SOL    HW127134   1.529   2.499   1.776  1.6433 -1.3784 -0.5420
 5225SOL    HW227135   1.401   2.456   1.739  1.4211 -1.2455  1.1001
 5226SOL     OW27136   3.039   4.316   7.349  0.0839 -0.3490  0.0275
 5226SOL    HW127137   3.088   4.300   7.268  2.5329  2.3200  1.0019
 5226SOL    HW227138   3.037   4.411   7.338  0.7720 -0.2900  0.4575
 5227SOL     OW27139   4.595   3.192   4.022  0.1002 -0.3142  0.2192
 5227SOL    HW127140   4.570   3.282   4.042  0.5133 -0.5594  1.8260
 5227SOL    HW227141   4.531   3.172   3.954 -0.9218  0.2594  1.0100
 5228SOL     OW27142   3.320   0.445  12.565 -0.5684 -0.1489 -0.3187
 5228SOL    HW127143   3.353   0.439  12.475  0.9506 -1.7966  0.3366
 5228SOL    HW227144   3.269   0.525  12.557  3.8255  2.4925 -1.6135
 5229SOL     OW27145   1.262   2.289  17.639 -0.6018  0.1014 -0.1817
 5229SOL    HW127146   1.202   2.258   0.004  0.2687 -1.9886 -0.3411
 5229SOL    HW227147   1.341   2.241  17.665 -0.6185  1.0548  1.6006
 5230SOL     OW27148   2.653   2.298   7.839  0.2095  0.6431 -0.6485
 5230SOL    HW127149   2.682   2.378   7.795  0.5158 -0.1277 -1.8512
 5230SOL    HW227150   2.560   2.311   7.857  0.2972 -0.3391  0.4880
 5231SOL     OW27151   2.741   1.412   9.479 -0.8853  0.2337 -0.2100
 5231SOL    HW127152   2.831   1.407   9.448  0.0164 -3.4264  3.0632
 5231SOL    HW227153   2.743   1.395   9.573 -0.1253 -1.0074 -0.4599
 5232SOL     OW27154   3.308   0.975   3.162 -0.1268  0.0791  0.2192
 5232SOL    HW127155   3.256   0.911   3.113 -1.0577  2.0487 -1.3413
 5232SOL    HW227156   3.273   1.057   3.128 -2.6344 -2.0971 -2.3748
 5233SOL     OW27157   4.488   4.100   2.069 -0.3559 -0.0375 -0.1057
 5233SOL    HW127158   4.417   4.138   2.120  0.7264 -0.2337  1.5310
 5233SOL    HW227159   4.536   4.178   2.040 -4.1150  1.1452 -3.2548
 5234SOL     OW27160   3.507   3.806   4.147  0.6894 -0.0346 -0.2740
 5234SOL    HW127161   3.504   3.710   4.151 -5.0176  0.1329  0.0811
 5234SOL    HW227162   3.460   3.829   4.228 -0.9774 -0.4245 -1.1246
 5235SOL     OW27163   4.108   3.866   6.702  0.5130 -0.1146  0.0766
 5235SOL    HW127164   4.096   3.874   6.797  0.9156 -0.8722  0.1953
 5235SOL    HW227165   4.127   3.773   6.687  0.8355  0.1922 -1.4138
 5236SOL     OW27166   2.280   1.643  14.890 -0.2705 -0.3969  0.7315
 5236SOL    HW127167   2.270   1.548  14.882  1.0807 -0.5963  1.3840
 5236SOL    HW227168   2.358   1.659  14.836 -0.3117 -0.6844  0.5845
 5237SOL     OW27169   0.292   2.804   1.190 -0.1596  0.3701 -0.3092
 5237SOL    HW127170   0.284   2.820   1.284 -1.0345 -2.5829  0.0984
 5237SOL    HW227171   0.348   2.881   1.175 -0.4952  0.6433 -0.1532
 5238SOL     OW27172   2.166   2.881   7.064 -0.3572 -0.2094 -0.3351
 5238SOL    HW127173   2.139   2.828   6.989 -0.1222 -1.1506  0.2431
 5238SOL    HW227174   2.210   2.810   7.111 -3.4752  0.2797  3.3503
 5239SOL     OW27175   1.353   2.571   8.414  0.1989 -0.2703  0.0259
 5239SOL    HW127176   1.345   2.523   8.332 -1.7966 -0.5864  0.4077
 5239SOL    HW227177   1.441   2.542   8.439  0.0722  0.3084  1.1407
 5240SOL     OW27178   2.948   2.875   8.655  0.0896 -0.5801 -0.0158
 5240SOL    HW127179   3.012   2.808   8.630  0.0428 -0.8833  0.6808
 5240SOL    HW227180   2.943   2.882   8.750  0.4986  0.3234 -0.0638
 5241SOL     OW27181   1.235   1.884   8.838 -0.4795  0.5124  0.0039
 5241SOL    HW127182   1.327   1.905   8.856 -0.0458 -1.7024  0.3728
 5241SOL    HW227183   1.250   1.813   8.776 -2.2920 -0.5929  0.8494
 5242SOL     OW27184   1.388   1.510   5.632  0.0792 -0.4018 -0.4413
 5242SOL    HW127185   1.359   1.582   5.687 -1.2878 -1.5992  0.4378
 5242SOL    HW227186   1.464   1.484   5.684  0.5434  0.2082 -0.8204
 5243SOL     OW27187   4.426   2.912   7.862 -0.0331  0.1004 -0.3835
 5243SOL    HW127188   4.461   2.948   7.943 -0.7848  0.7219 -0.3342
 5243SOL    HW227189   4.507   2.913   7.812  0.2829 -0.1116  0.1287
 5244SOL     OW27190   1.944   3.338  10.582  0.4252 -0.0169 -0.1565
 5244SOL    HW127191   1.902   3.408  10.533 -1.9815 -0.4278  1.3093
 5244SOL    HW227192   1.924   3.263  10.526 -0.1921 -2.3467  3.1760
 5245SOL     OW27193   1.091   1.889   7.317 -0.4620 -0.1236 -0.4023
 5245SOL    HW127194   1.057   1.969   7.277  0.9703  0.3262 -0.7335
 5245SOL    HW227195   1.011   1.837   7.329 -0.3063  0.0823  1.4829
 5246SOL     OW27196   3.960   4.127   2.438 -0.3175 -0.3548  0.4340
 5246SOL    HW127197   3.945   4.187   2.511  0.6984 -0.2908  0.5862
 5246SOL    HW227198   3.907   4.158   2.364 -0.7916  0.5155  1.1376
 5247SOL     OW27199   2.487   0.609   8.671 -0.2518  0.0218  0.6845
 5247SOL    HW127200   2.566   0.659   8.648 -2.3118  3.1423  0.3657
 5247SOL    HW227201   2.513   0.560   8.749 -0.8951 -1.0684  0.2051
 5248SOL     OW27202   2.293   3.049   9.045  0.4199  0.7205 -0.2776
 5248SOL    HW127203   2.301   3.072   9.137 -2.4690  1.6172 -0.2357
 5248SOL    HW227204   2.212   3.098   9.032 -1.7722 -2.1488  2.7593
 5249SOL     OW27205   2.344   2.271   4.985  0.3953 -0.0616 -0.1159
 5249SOL    HW127206   2.404   2.294   4.915 -0.8473  0.0766 -1.1315
 5249SOL    HW227207   2.319   2.184   4.956  1.9488 -0.8114  0.8500
 5250SOL     OW27208   4.375   3.295   9.062 -0.1915  0.4318 -0.2075
 5250SOL    HW127209   4.350   3.233   8.993 -1.7199  1.3778 -0.5052
 5250SOL    HW227210   4.338   3.257   9.141 -1.6898  1.2821 -0.5022
 5251SOL     OW27211   2.566   3.078   1.281  0.0153 -0.0710  0.3562
 5251SOL    HW127212   2.534   3.011   1.221  2.3919 -1.0698  0.1999
 5251SOL    HW227213   2.614   3.130   1.218  1.1100 -0.6555  0.7113
 5252SOL     OW27214   4.443   2.186   6.798 -0.3424 -0.0995  0.5565
 5252SOL    HW127215   4.508   2.234   6.747 -1.1358 -0.6504 -0.9474
 5252SOL    HW227216   4.371   2.194   6.736  0.8767  0.2569 -0.8005
 5253SOL     OW27217   2.666   3.112   1.993  0.9847  0.1822  0.0037
 5253SOL    HW127218   2.739   3.114   2.055  2.2634 -0.4173 -1.4743
 5253SOL    HW227219   2.696   3.135   1.905  0.5915 -0.3530 -0.2767
 5254SOL     OW27220   1.418   0.112   7.066 -0.0045  0.2624 -0.2190
 5254SOL    HW127221   1.433   0.032   7.015 -1.4548  0.7301 -1.3777
 5254SOL    HW227222   1.505   0.128   7.103 -1.6906  2.2848  2.8098
 5255SOL     OW27223   4.139   0.645   9.172 -0.0932  0.0643 -0.0098
 5255SOL    HW127224   4.204   0.661   9.104 -0.0786 -2.0032 -0.4898
 5255SOL    HW227225   4.188   0.669   9.250 -1.7120 -0.1459  1.0807
 5256SOL     OW27226   3.750   3.696   9.439 -0.2519  0.0822  0.1471
 5256SOL    HW127227   3.738   3.780   9.394 -0.9879  0.5343  1.2161
 5256SOL    HW227228   3.805   3.733   9.508 -0.8765  2.1996 -0.4796
 5257SOL     OW27229   3.501   4.510   8.365  0.2812 -0.2799  0.7574
 5257SOL    HW127230   3.518   4.555   8.448  2.0892  2.5919 -1.1687
 5257SOL    HW227231   3.558   4.561   8.308  0.6360  0.7662  2.0542
 5258SOL     OW27232   4.370   1.776   8.721  0.1762  0.0265  0.7709
 5258SOL    HW127233   4.307   1.784   8.650  2.0187 -0.2234 -0.9070
 5258SOL    HW227234   4.441   1.834   8.693  0.8746 -1.1251  0.1869
 5259SOL     OW27235   3.574   4.682   9.574 -0.2826  0.3874  0.5437
 5259SOL    HW127236   3.563   4.682   9.479  1.9365  0.7418  0.2832
 5259SOL    HW227237   3.630   4.605   9.586 -1.6471 -0.5959  0.5645
 5260SOL     OW27238   4.151   3.286   5.614 -0.0282 -0.2944  0.1138
 5260SOL    HW127239   4.130   3.380   5.610 -0.6173 -0.4437 -0.2375
 5260SOL    HW227240   4.126   3.257   5.702 -0.9641  0.2319  0.0332
 5261SOL     OW27241   1.494   4.497   2.548  0.7552  0.3448  0.2077
 5261SOL    HW127242   1.560   4.533   2.608 -0.1742  0.1134  1.3492
 5261SOL    HW227243   1.411   4.536   2.574  1.5490  2.6266 -0.6411
 5262SOL     OW27244   2.882   2.176   9.430  0.3290  0.2412  0.2138
 5262SOL    HW127245   2.954   2.180   9.494  0.7851  0.2705 -0.3016
 5262SOL    HW227246   2.916   2.092   9.399  1.1821 -0.2679  2.4861
 5263SOL     OW27247   0.198   2.743   4.308  0.4197 -0.1276  0.2034
 5263SOL    HW127248   0.185   2.742   4.213 -2.0318 -1.2353  0.5600
 5263SOL    HW227249   0.215   2.649   4.317 -0.7236 -0.5415 -1.9670
 5264SOL     OW27250   4.710   2.986   3.809 -0.4303 -0.1576 -0.4131
 5264SOL    HW127251   4.711   3.072   3.850  2.1245 -1.0134  1.3249
 5264SOL    HW227252   4.639   2.941   3.853 -1.7923  1.4050 -1.0229
 5265SOL     OW27253   3.381   1.571  14.687 -0.3583 -0.5396 -0.0766
 5265SOL    HW127254   3.475   1.554  14.679 -0.1176 -0.1856  1.9674
 5265SOL    HW227255   3.387   1.665  14.669 -0.5546 -0.3816  0.6541
 5266SOL     OW27256   4.328   2.629   8.005 -0.0673  0.5047  0.1818
 5266SOL    HW127257   4.272   2.706   8.014 -0.3010  0.3200  0.3156
 5266SOL    HW227258   4.268   2.584   7.945  2.2381 -0.7381 -1.2233
 5267SOL     OW27259   3.887   3.726  16.377 -0.2411  0.3951  0.4871
 5267SOL    HW127260   3.828   3.801  16.387  0.2860  0.5592  2.3772
 5267SOL    HW227261   3.969   3.763  16.410  1.0207 -0.3208 -1.8945
 5268SOL     OW27262   1.861   0.868  13.956 -0.2480  0.2228  0.3241
 5268SOL    HW127263   1.851   0.871  14.051 -2.1112  0.3113  0.1172
 5268SOL    HW227264   1.944   0.910  13.933  0.6858 -1.9044 -0.2477
 5269SOL     OW27265   0.928   4.635  14.314 -0.0197  0.3075 -0.2035
 5269SOL    HW127266   0.899   4.553  14.274 -0.8744 -0.1467  1.3798
 5269SOL    HW227267   0.904   4.703  14.250 -1.5622 -0.5250 -0.4887
 5270SOL     OW27268   1.559   1.455   7.587  0.3021 -0.1571  0.0351
 5270SOL    HW127269   1.503   1.380   7.568  1.7869 -1.6946  1.7560
 5270SOL    HW227270   1.492   1.513   7.625 -0.3968 -0.0681 -1.3298
 5271SOL     OW27271   3.664   0.464   5.445 -0.3358  0.2433  0.6331
 5271SOL    HW127272   3.671   0.389   5.504 -0.8618 -1.2975 -1.2633
 5271SOL    HW227273   3.667   0.543   5.500 -2.9426 -1.0077  2.5467
 5272SOL     OW27274   0.801   2.157   7.631  0.1105 -0.0145  0.1647
 5272SOL    HW127275   0.829   2.201   7.551 -2.8103 -1.0631 -1.4234
 5272SOL    HW227276   0.756   2.225   7.682  1.5884  0.8714  0.2720
 5273SOL     OW27277   1.895   2.614   4.142  0.0065 -0.1175 -0.1915
 5273SOL    HW127278   1.918   2.664   4.220  2.2696 -0.6022 -0.5353
 5273SOL    HW227279   1.815   2.657   4.112  0.6991 -0.3076 -2.2753
 5274SOL     OW27280   1.670   3.805   6.165 -0.8673  0.7818  0.4802
 5274SOL    HW127281   1.585   3.849   6.168 -1.4402 -0.3153  0.6609
 5274SOL    HW227282   1.659   3.724   6.215  2.5357  0.7964  1.2175
 5275SOL     OW27283   3.015   3.153   4.579  0.7166 -0.5018  0.3036
 5275SOL    HW127284   3.033   3.091   4.509 -3.3895 -0.2061 -1.0504
 5275SOL    HW227285   2.996   3.230   4.525 -1.0938 -0.5630  0.8352
 5276SOL     OW27286   1.543   3.061   6.129  0.6294  0.0685 -0.0763
 5276SOL    HW127287   1.632   3.039   6.156  0.8157 -1.1753 -1.7229
 5276SOL    HW227288   1.524   3.011   6.050  1.7463 -0.9206  0.2788
 5277SOL     OW27289   0.355   0.523   6.755  0.2613 -0.1519  0.2443
 5277SOL    HW127290   0.397   0.571   6.827  0.5779 -0.8689  0.5362
 5277SOL    HW227291   0.308   0.594   6.710 -2.3442 -3.2370 -1.9685
 5278SOL     OW27292   4.447   2.631  15.049  0.0418  0.0040  0.2646
 5278SOL    HW127293   4.359   2.617  15.016  0.1208  0.7773 -0.2629
 5278SOL    HW227294   4.437   2.707  15.105 -1.2300  0.4218 -0.5314
 5279SOL     OW27295   3.618   1.415   4.891 -0.4976 -0.0513  0.0898
 5279SOL    HW127296   3.584   1.504   4.888 -0.2929 -0.0710 -2.4976
 5279SOL    HW227297   3.534   1.376   4.914 -0.8427  0.2097 -0.7295
 5280SOL     OW27298   3.841   0.439   6.598 -0.3904  0.0407 -0.1160
 5280SOL    HW127299   3.849   0.443   6.693 -1.0169 -0.8849 -0.0266
 5280SOL    HW227300   3.761   0.390   6.580 -1.0132  0.7760  0.6476
 5281SOL     OW27301   2.457   2.051   3.662 -0.0194 -0.1706 -0.0933
 5281SOL    HW127302   2.365   2.066   3.684 -0.2307 -0.1590 -0.9907
 5281SOL    HW227303   2.452   1.986   3.592  0.1099 -0.6028  0.2942
 5282SOL     OW27304   1.563   2.988  10.530 -0.6035  0.6562 -0.3091
 5282SOL    HW127305   1.513   3.030  10.600  1.5186  0.2520  1.4554
 5282SOL    HW227306   1.560   3.060  10.467  0.9572 -0.6732 -1.9034
 5283SOL     OW27307   3.174   3.007  12.510 -0.3987 -0.5834  0.3402
 5283SOL    HW127308   3.236   3.009  12.584 -0.9467 -3.2652  0.8461
 5283SOL    HW227309   3.189   3.085  12.457 -0.1812  0.2732  1.6492
 5284SOL     OW27310   0.658   3.747  11.388  0.4068  0.1789  0.5732
 5284SOL    HW127311   0.704   3.695  11.454 -0.8060 -2.8004 -0.9456
 5284SOL    HW227312   0.657   3.684  11.316 -0.6116 -1.1423  1.7442
 5285SOL     OW27313   2.157   3.668   4.033  0.6424 -0.0882  0.2205
 5285SOL    HW127314   2.200   3.599   3.982  1.7755  0.2164  0.7770
 5285SOL    HW227315   2.071   3.678   3.992  0.8149 -0.7454 -0.3031
 5286SOL     OW27316   3.207   3.659  15.981  0.2054 -0.6248  0.2738
 5286SOL    HW127317   3.287   3.678  15.933 -0.7396 -1.2706 -1.5368
 5286SOL    HW227318   3.246   3.629  16.063 -2.7753  0.6128  2.1358
 5287SOL     OW27319   1.809   1.276   4.561  0.2603 -0.6795 -0.3876
 5287SOL    HW127320   1.762   1.316   4.488  0.8538  2.0576  0.7387
 5287SOL    HW227321   1.818   1.185   4.532  1.5063 -1.6897  3.2029
 5288SOL     OW27322   1.230   3.571   2.886  0.1952  0.6472  0.1595
 5288SOL    HW127323   1.242   3.526   2.803  0.3290  0.7380  0.1311
 5288SOL    HW227324   1.147   3.526   2.905  0.1246 -0.2215 -2.1789
 5289SOL     OW27325   0.754   3.767   4.100  0.8227 -0.4375  0.0314
 5289SOL    HW127326   0.820   3.825   4.063  0.1898 -1.6487 -2.9559
 5289SOL    HW227327   0.692   3.759   4.028 -0.4859  1.1515  0.9706
 5290SOL     OW27328   0.026   3.552   2.836 -0.1025  0.2671 -0.4766
 5290SOL    HW127329   0.111   3.592   2.852 -0.7618  0.7549  1.8012
 5290SOL    HW227330   0.015   3.488   2.907 -2.3730 -0.0150 -1.0895
 5291SOL     OW27331   1.032   2.314   8.625 -0.3495 -0.1001  0.1077
 5291SOL    HW127332   0.962   2.312   8.690 -0.5829  0.4543 -0.1175
 5291SOL    HW227333   0.974   2.327   8.550  0.2940  0.5684 -0.2737
 5292SOL     OW27334   4.098   1.449   5.419 -0.0967 -0.1783 -0.3380
 5292SOL    HW127335   4.081   1.426   5.328  0.7929 -1.0370 -0.2835
 5292SOL    HW227336   4.190   1.478   5.421 -0.1494 -0.0640  0.8431
 5293SOL     OW27337   1.599   1.298   4.978  0.1215 -0.3680  0.0207
 5293SOL    HW127338   1.643   1.218   5.006 -0.1102  0.2657  2.1846
 5293SOL    HW227339   1.609   1.351   5.058  1.3572 -1.1186  0.3661
 5294SOL     OW27340   4.278   4.080   1.713 -0.5522 -0.1645  0.1438
 5294SOL    HW127341   4.234   4.048   1.634 -0.7426 -0.6549  0.4506
 5294SOL    HW227342   4.286   4.174   1.693  1.1354 -0.6837 -1.6106
 5295SOL     OW27343   4.129   2.569   8.300 -1.1430  0.0055 -0.4632
 5295SOL    HW127344   4.163   2.505   8.363  0.4094  2.7472  1.4400
 5295SOL    HW227345   4.205   2.620   8.273 -0.8076 -0.2953 -0.0688
 5296SOL     OW27346   0.046   4.616   8.737  0.0133 -0.3244 -0.2586
 5296SOL    HW127347   0.109   4.653   8.676 -1.6812  0.1409 -1.7584
 5296SOL    HW227348   0.095   4.612   8.819 -1.9671  1.2537  1.0074
 5297SOL     OW27349   1.771   2.009   0.373 -0.6640 -0.1931  0.1471
 5297SOL    HW127350   1.781   1.925   0.417  0.9571  1.2629  2.5559
 5297SOL    HW227351   1.842   2.013   0.309 -1.3893 -0.8846 -0.7142
 5298SOL     OW27352   1.572   1.052   2.414 -0.0159  0.0050 -0.4931
 5298SOL    HW127353   1.665   1.069   2.430  0.4406 -1.0050 -2.0126
 5298SOL    HW227354   1.567   0.958   2.430  2.5489 -0.3090 -1.5495
 5299SOL     OW27355   2.154   2.913   7.904  0.2035 -0.4504  0.4133
 5299SOL    HW127356   2.188   2.910   7.993 -1.9123  0.5834  1.2745
 5299SOL    HW227357   2.176   2.824   7.876  2.1928  0.4087 -0.7729
 5300SOL     OW27358   0.521   3.875   5.695 -0.1788 -0.5448  0.0508
 5300SOL    HW127359   0.549   3.964   5.716  1.6521 -1.2036  0.3459
 5300SOL    HW227360   0.511   3.852   5.788  0.6886  1.2501  0.5872
 5301SOL     OW27361   2.702   2.070  15.759 -0.2810  0.0388 -0.1504
 5301SOL    HW127362   2.793   2.096  15.771  0.3368 -0.1768 -4.3798
 5301SOL    HW227363   2.702   1.986  15.805 -0.9889  0.5309  0.7416
 5302SOL     OW27364   3.354   0.964   0.631 -0.2386  0.0539  0.1994
 5302SOL    HW127365   3.375   0.897   0.565 -0.7847  0.2237 -0.1438
 5302SOL    HW227366   3.271   0.938   0.670 -0.0817  0.3220  0.7113
 5303SOL     OW27367   1.035   3.171   6.691 -0.9613 -0.0616  0.0120
 5303SOL    HW127368   0.986   3.112   6.748 -0.2189  1.0735  1.8238
 5303SOL    HW227369   1.028   3.125   6.608  0.7233  0.8934 -0.6489
 5304SOL     OW27370   3.293   1.579   7.557  0.5787  0.1698  0.5113
 5304SOL    HW127371   3.340   1.508   7.513 -1.6056 -1.0991  0.2767
 5304SOL    HW227372   3.285   1.638   7.482 -1.3166  0.4716  0.9629
 5305SOL     OW27373   0.089   4.627   7.612  0.5438  0.3214 -0.0186
 5305SOL    HW127374   0.008   4.607   7.565  0.1054  0.1266  0.8114
 5305SOL    HW227375   0.132   4.544   7.594 -0.2640 -0.6863  2.6556
 5306SOL     OW27376   0.308   0.033   4.589  0.1288 -0.5052 -0.2096
 5306SOL    HW127377   0.274   0.119   4.611  5.3167  1.2069  1.0935
 5306SOL    HW227378   0.248   0.004   4.520 -0.2469 -2.0899  0.7895
 5307SOL     OW27379   4.558   0.097   8.492 -0.1956 -0.3285  0.4617
 5307SOL    HW127380   4.548   0.141   8.577  0.7675 -0.4687  0.6488
 5307SOL    HW227381   4.623   0.152   8.449 -0.0535 -0.6528  0.2610
 5308SOL     OW27382   3.629   4.371   8.814 -0.0357 -0.3181 -0.0636
 5308SOL    HW127383   3.695   4.341   8.877  1.2414  3.5818  0.4577
 5308SOL    HW227384   3.544   4.349   8.852 -0.2563 -0.5103 -0.6733
 5309SOL     OW27385   1.100   1.257  15.169  0.5810  0.4485  0.2086
 5309SOL    HW127386   1.190   1.228  15.162 -0.0118 -0.9793 -1.4717
 5309SOL    HW227387   1.107   1.343  15.211  1.5466 -0.5090  1.9652
 5310SOL     OW27388   4.450   3.385   0.433  0.2684  0.0593  0.4784
 5310SOL    HW127389   4.390   3.365   0.361  0.7407  3.7372 -0.9227
 5310SOL    HW227390   4.458   3.475   0.403  1.3964 -0.2483 -0.1301
 5311SOL     OW27391   1.076   3.879  12.190  0.3099  0.3073 -0.1271
 5311SOL    HW127392   0.997   3.850  12.234  1.4980 -2.0322  0.4931
 5311SOL    HW227393   1.118   3.798  12.160  1.2694  0.2445  1.3796
 5312SOL     OW27394   3.440   0.827   5.083  0.0017 -0.2302  0.4931
 5312SOL    HW127395   3.450   0.918   5.055 -2.0615 -1.0926 -3.0982
 5312SOL    HW227396   3.386   0.797   5.009  3.1112 -0.5746 -1.6554
 5313SOL     OW27397   2.938   3.122   3.214 -0.0278 -0.1669  0.2902
 5313SOL    HW127398   2.861   3.161   3.256 -0.6292  0.1101 -1.0646
 5313SOL    HW227399   2.988   3.192   3.172  1.2183  0.2676  2.4925
 5314SOL     OW27400   1.854   2.712   4.853 -0.2088 -0.2509  0.3861
 5314SOL    HW127401   1.902   2.696   4.772 -0.8651 -0.8329  0.1156
 5314SOL    HW227402   1.783   2.650   4.841  0.7464 -1.1170 -0.7268
 5315SOL     OW27403   3.260   4.600  10.215 -0.5501 -0.2847  0.6134
 5315SOL    HW127404   3.290   4.630  10.129  0.5125 -1.0384  0.7058
 5315SOL    HW227405   3.338   4.569  10.261  0.1078  0.8274  0.2431
 5316SOL     OW27406   1.658   2.594   4.347  0.3436  0.1161 -0.0496
 5316SOL    HW127407   1.653   2.604   4.442  0.4852  0.7451 -0.1100
 5316SOL    HW227408   1.735   2.648   4.331  0.0631  0.2639 -0.9025
 5317SOL     OW27409   1.302   4.225  17.268  0.2055 -0.6440  0.3232
 5317SOL    HW127410   1.393   4.258  17.270 -0.0651  0.1117  0.3448
 5317SOL    HW227411   1.267   4.289  17.331 -0.8873  0.0314 -0.9602
 5318SOL     OW27412   3.310   1.619   7.969 -0.7768 -0.6744 -0.1081
 5318SOL    HW127413   3.330   1.700   7.922  1.0100 -1.1146 -0.1334
 5318SOL    HW227414   3.299   1.653   8.058  3.2901  0.1851  0.0904
 5319SOL     OW27415   2.535   1.906   4.133 -0.2672  0.7986 -0.7773
 5319SOL    HW127416   2.552   2.000   4.138 -2.2203  1.1588 -1.0002
 5319SOL    HW227417   2.489   1.899   4.216 -0.5997 -1.2884 -1.1463
 5320SOL     OW27418   2.422   3.363   4.188 -0.2571  0.3175  0.2129
 5320SOL    HW127419   2.515   3.351   4.174  0.3248  3.2317  1.5800
 5320SOL    HW227420   2.402   3.294   4.251 -2.5860 -1.2334 -2.2258
 5321SOL     OW27421   1.565   0.026  13.805 -0.1852 -0.3901 -0.0009
 5321SOL    HW127422   1.610   0.091  13.858  0.1967  0.5904 -1.5341
 5321SOL    HW227423   1.615   4.679  13.842 -0.9792 -1.0907 -0.2808
 5322SOL     OW27424   3.915   3.076   6.768  0.1125  0.1034  0.2185
 5322SOL    HW127425   3.895   3.044   6.856  2.7180  0.4532  0.9561
 5322SOL    HW227426   3.843   3.041   6.716 -0.3287  1.2444  0.0721
 5323SOL     OW27427   3.905   2.422  13.779 -0.2579  0.2845 -0.1664
 5323SOL    HW127428   3.961   2.345  13.773  1.1015  1.2758 -0.1566
 5323SOL    HW227429   3.821   2.383  13.805  1.1691 -2.1134  0.8885
 5324SOL     OW27430   3.567   2.449  11.170  0.3859  0.0628  0.1060
 5324SOL    HW127431   3.500   2.514  11.150 -0.2876 -0.2457  1.3333
 5324SOL    HW227432   3.640   2.493  11.128  2.1286 -0.6235  2.4228
 5325SOL     OW27433   3.354   2.933   4.957  0.5415 -0.1007  0.1616
 5325SOL    HW127434   3.423   2.927   5.024 -0.2490  0.3913  1.0025
 5325SOL    HW227435   3.402   2.965   4.881 -0.7139 -0.3046 -0.7074
 5326SOL     OW27436   2.221   3.798   6.889 -0.8698  0.0096  0.4856
 5326SOL    HW127437   2.300   3.778   6.839 -0.2725  2.2240  0.5437
 5326SOL    HW227438   2.244   3.860   6.959  0.3093 -0.5111  0.5591
 5327SOL     OW27439   0.256   2.206   6.245 -0.9326  0.0068  0.1693
 5327SOL    HW127440   0.251   2.176   6.335  1.3542 -0.3826  0.1699
 5327SOL    HW227441   0.313   2.146   6.196 -0.3090  0.8385 -0.1212
 5328SOL     OW27442   0.593   2.659   8.643 -0.6828 -0.0430 -0.0366
 5328SOL    HW127443   0.565   2.715   8.715  0.9880 -0.2978  0.8155
 5328SOL    HW227444   0.686   2.683   8.644 -1.0330  1.2051  2.4138
 5329SOL     OW27445   2.711   2.506   7.448  0.9368  0.5761  1.0078
 5329SOL    HW127446   2.781   2.566   7.425  2.3240 -2.2263 -2.0604
 5329SOL    HW227447   2.756   2.423   7.464 -0.2702 -0.1603  0.5704
 5330SOL     OW27448   4.532   3.987  10.944 -0.2368  0.1649  0.3233
 5330SOL    HW127449   4.602   3.923  10.956  1.9161  2.1570 -1.5878
 5330SOL    HW227450   4.494   3.990  11.032  0.4064 -0.6009  0.6240
 5331SOL     OW27451   4.629   0.917  13.933  0.1676  1.0578  0.4347
 5331SOL    HW127452   4.569   0.984  13.903  1.1776  1.5425 -0.4866
 5331SOL    HW227453   4.709   0.952  13.893  0.9708  0.4038  1.4343
 5332SOL     OW27454   3.769   2.137   2.510 -0.4825 -0.3794 -0.4129
 5332SOL    HW127455   3.701   2.092   2.458 -1.6676 -0.2979  1.0749
 5332SOL    HW227456   3.756   2.082   2.588  0.1048  0.7957  0.5026
 5333SOL     OW27457   3.461   1.100  15.764  0.3368 -0.3940  0.0947
 5333SOL    HW127458   3.527   1.043  15.724 -1.6971 -1.2333 -2.0660
 5333SOL    HW227459   3.376   1.068  15.733 -0.2856  1.9498 -0.6640
 5334SOL     OW27460   4.206   2.659  10.086  0.0302 -0.2245  0.5148
 5334SOL    HW127461   4.233   2.751  10.086  0.0590 -0.2321  1.1954
 5334SOL    HW227462   4.171   2.642  10.174 -2.3256  0.3453 -0.3059
 5335SOL     OW27463   3.045   2.712   5.763  0.2599 -0.0807  0.0697
 5335SOL    HW127464   3.134   2.743   5.779  0.1788  1.0162 -1.5412
 5335SOL    HW227465   2.996   2.774   5.818  0.8604  0.3338  0.1414
 5336SOL     OW27466   2.618   3.121   6.809  0.0692  0.3727 -0.4445
 5336SOL    HW127467   2.608   3.040   6.758 -0.0898 -0.7635  1.3686
 5336SOL    HW227468   2.554   3.176   6.764 -1.2551 -0.2463  0.6786
 5337SOL     OW27469   0.424   2.767   3.203 -0.3422  0.4253  0.0546
 5337SOL    HW127470   0.451   2.858   3.206 -1.6147  0.7126  2.3995
 5337SOL    HW227471   0.449   2.736   3.116 -0.8666  1.0045 -0.3052
 5338SOL     OW27472   0.989   3.707  14.596  0.4860 -0.4525  0.3297
 5338SOL    HW127473   1.035   3.630  14.562 -1.5906 -0.9540 -1.3781
 5338SOL    HW227474   0.981   3.685  14.689 -1.7428 -3.9593 -0.6930
 5339SOL     OW27475   3.016   1.400   5.198  0.1635  0.4865 -0.3901
 5339SOL    HW127476   2.981   1.382   5.110  3.6881  1.5086 -1.9858
 5339SOL    HW227477   2.983   1.487   5.220  1.6936  0.7842  0.6942
 5340SOL     OW27478   4.064   4.417   8.872 -0.3563 -0.0137 -0.0994
 5340SOL    HW127479   4.060   4.356   8.799 -0.0902  2.5255 -2.2704
 5340SOL    HW227480   4.023   4.498   8.841 -3.2179 -1.3016  0.3003
 5341SOL     OW27481   4.422   0.699  13.059  0.2185 -0.2181  0.7600
 5341SOL    HW127482   4.463   0.739  13.135  0.8161  0.9589 -0.1744
 5341SOL    HW227483   4.460   0.612  13.052 -2.3569 -1.3101  0.1461
 5342SOL     OW27484   3.452   1.544   3.118 -0.2692  0.4283  0.4490
 5342SOL    HW127485   3.482   1.558   3.028  2.1677  2.8108  1.6256
 5342SOL    HW227486   3.537   1.560   3.160 -1.0314  2.4434  1.2230
 5343SOL     OW27487   2.721   3.533   4.728 -0.3322  0.8256 -0.0971
 5343SOL    HW127488   2.705   3.510   4.819 -1.5933  2.3152  0.0585
 5343SOL    HW227489   2.647   3.593   4.718  0.4386  1.7197 -0.5408
 5344SOL     OW27490   2.062   0.815   9.331  0.0011 -0.1105  0.1198
 5344SOL    HW127491   2.002   0.749   9.365 -1.0912 -1.2499 -4.0760
 5344SOL    HW227492   2.015   0.888   9.293 -0.7387 -0.6387  0.0300
 5345SOL     OW27493   0.530   4.570   6.047  0.6214  0.3357  0.4627
 5345SOL    HW127494   0.502   4.662   6.044  2.1823  0.7902 -0.0474
 5345SOL    HW227495   0.543   4.553   5.954 -1.0376  0.2775  0.2341
 5346SOL     OW27496   1.507   3.571   8.332 -0.6147 -0.1503  0.6631
 5346SOL    HW127497   1.497   3.625   8.410  0.0440 -1.1076  1.4091
 5346SOL    HW227498   1.479   3.639   8.270  3.6868  1.1354  0.0756
 5347SOL     OW27499   0.846   1.921   3.975 -0.8387 -0.7631  0.4528
 5347SOL    HW127500   0.788   1.950   4.045 -1.0155  2.9267 -1.2467
 5347SOL    HW227501   0.787   1.914   3.900 -1.1611 -1.7672  0.7869
 5348SOL     OW27502   3.015   3.718   9.197 -0.1099 -0.1123 -0.0127
 5348SOL    HW127503   3.007   3.743   9.289  1.2188 -0.5683  0.2329
 5348SOL    HW227504   2.923   3.732   9.176  0.1435 -0.3141 -1.2841
 5349SOL     OW27505   1.587   1.426  11.208  0.1870 -0.3075  0.0572
 5349SOL    HW127506   1.589   1.521  11.201 -3.1769 -0.2252  0.2283
 5349SOL    HW227507   1.589   1.418  11.304 -2.3116  1.7179  0.2828
 5350SOL     OW27508   0.616   0.381  15.698  0.2775  0.5996 -0.4370
 5350SOL    HW127509   0.587   0.309  15.642 -1.1450  2.4252 -2.0529
 5350SOL    HW227510   0.710   0.366  15.696  0.2194 -0.0289  1.7732
 5351SOL     OW27511   2.180   4.060   2.428 -0.1355  0.3681  0.3749
 5351SOL    HW127512   2.093   4.084   2.396 -1.0753 -1.7534  1.2927
 5351SOL    HW227513   2.164   4.053   2.522  1.4318  2.5972  0.8081
 5352SOL     OW27514   1.035   3.652   3.468  0.5083 -0.0289 -0.9661
 5352SOL    HW127515   1.064   3.561   3.476 -1.5070 -0.3947  2.0652
 5352SOL    HW227516   0.950   3.640   3.425  0.6677  0.8231 -1.5075
 5353SOL     OW27517   2.172   1.164   5.361  0.7288  0.1035  0.0201
 5353SOL    HW127518   2.162   1.249   5.402 -3.3333 -0.5323  0.4034
 5353SOL    HW227519   2.153   1.099   5.429  0.0917 -0.6301 -0.8588
 5354SOL     OW27520   1.872   3.145   9.858 -0.5168  0.0240  0.7497
 5354SOL    HW127521   1.805   3.128   9.792  0.2754 -0.5258  0.0803
 5354SOL    HW227522   1.817   3.181   9.928 -0.8124 -1.5456  1.3208
 5355SOL     OW27523   1.712   0.309   8.204 -0.1191 -0.2175 -0.2907
 5355SOL    HW127524   1.800   0.333   8.232 -0.4458  2.1481 -1.2622
 5355SOL    HW227525   1.723   0.307   8.109 -0.3721  1.3774 -0.3598
 5356SOL     OW27526   1.714   4.668  16.036 -0.4152 -0.3903 -0.3673
 5356SOL    HW127527   1.808   4.662  16.052 -0.5568 -1.2840  0.1304
 5356SOL    HW227528   1.711   0.024  15.986 -0.7011 -0.3446 -0.2785
 5357SOL     OW27529   3.417   4.305   6.397 -0.0358 -0.3735  0.1806
 5357SOL    HW127530   3.481   4.376   6.394  1.0640 -1.4055 -0.6214
 5357SOL    HW227531   3.455   4.258   6.323 -0.1117 -0.1068 -0.0302
 5358SOL     OW27532   1.061   2.121   3.588  0.0271  1.0484 -0.2021
 5358SOL    HW127533   1.113   2.041   3.598  0.8699  1.5075 -0.9320
 5358SOL    HW227534   0.999   2.092   3.521  1.1379  0.4660 -0.9836
 5359SOL     OW27535   4.438   3.149  12.104  0.2895 -0.7024  0.0022
 5359SOL    HW127536   4.352   3.108  12.093 -0.5829  1.3366 -0.8790
 5359SOL    HW227537   4.437   3.188  12.192  1.8808  3.4252 -1.7792
 5360SOL     OW27538   3.928   4.626   8.775 -0.1529  0.4313  0.3214
 5360SOL    HW127539   3.876   4.585   8.706  0.3051  1.9970 -0.9716
 5360SOL    HW227540   3.898   4.716   8.760 -1.9831 -0.5537 -1.9107
 5361SOL     OW27541   4.422   0.233   8.021  0.2124 -0.1553  0.8017
 5361SOL    HW127542   4.352   0.295   8.002  1.2455  0.8655  0.3347
 5361SOL    HW227543   4.404   0.212   8.112  1.5900  0.8368  1.3016
 5362SOL     OW27544   1.040   0.174   3.792 -0.1840 -0.2526  0.0081
 5362SOL    HW127545   0.981   0.248   3.802  1.3782  1.0421 -0.4066
 5362SOL    HW227546   0.989   0.106   3.837  1.3178 -1.9518 -0.8470
 5363SOL     OW27547   0.542   3.588   8.327 -0.7064  0.7301 -0.3710
 5363SOL    HW127548   0.512   3.652   8.263 -0.2808  1.6241  0.3188
 5363SOL    HW227549   0.459   3.542   8.338 -0.0796 -0.0656  1.0581
 5364SOL     OW27550   0.739   2.399   5.469 -0.6152 -0.0843  0.2176
 5364SOL    HW127551   0.697   2.422   5.552 -0.5526 -0.3082  0.3108
 5364SOL    HW227552   0.665   2.376   5.413  0.6716 -1.2841 -1.0043
 5365SOL     OW27553   4.016   1.714   9.160  0.0422 -0.0151 -0.3526
 5365SOL    HW127554   4.086   1.687   9.220 -0.0503 -0.2580 -0.3519
 5365SOL    HW227555   3.945   1.749   9.213  0.8303 -0.1096  0.7617
 5366SOL     OW27556   1.415   4.465  15.634 -0.1496 -0.3545 -0.3184
 5366SOL    HW127557   1.358   4.488  15.560  0.4699  0.0023 -0.6913
 5366SOL    HW227558   1.381   4.516  15.707  3.8156  1.6092  0.1380
 5367SOL     OW27559   4.470   3.002   2.009 -0.1227 -0.2201  0.5945
 5367SOL    HW127560   4.488   2.982   2.101  0.4495  1.2754  0.8045
 5367SOL    HW227561   4.375   2.997   2.002 -0.0574  0.8323 -1.0074
 5368SOL     OW27562   4.045   2.399  16.446  0.2389 -0.3143 -0.5577
 5368SOL    HW127563   4.127   2.351  16.456 -0.1251 -0.4863  1.5710
 5368SOL    HW227564   3.986   2.358  16.510 -0.6956 -0.4069 -1.4720
 5369SOL     OW27565   0.690   1.671   3.765 -0.2150 -0.4529 -0.3252
 5369SOL    HW127566   0.757   1.697   3.701  0.0772 -2.0955 -0.6731
 5369SOL    HW227567   0.618   1.716   3.721 -0.2416 -0.1458  0.0342
 5370SOL     OW27568   4.572   0.101   5.968 -0.3699 -0.6896 -0.1021
 5370SOL    HW127569   4.580   0.121   6.062  0.5297 -2.5132  0.2014
 5370SOL    HW227570   4.663   0.077   5.949  0.2242  2.2821 -1.1151
 5371SOL     OW27571   4.689   1.830  13.494  0.1842  0.4887  0.3407
 5371SOL    HW127572   4.667   1.737  13.496  0.0459  0.5155 -0.0021
 5371SOL    HW227573   4.613   1.872  13.454 -0.7473 -0.8903  0.6491
 5372SOL     OW27574   0.804   3.899   8.590 -0.2587 -0.3420 -0.1544
 5372SOL    HW127575   0.741   3.934   8.653  0.0034 -2.4004  1.2350
 5372SOL    HW227576   0.800   3.804   8.600 -3.4598 -0.0864  1.0634
 5373SOL     OW27577   4.107   2.060   4.460  0.1952 -0.2304 -0.4072
 5373SOL    HW127578   4.195   2.044   4.426 -0.7100  0.2974 -2.9644
 5373SOL    HW227579   4.126   2.117   4.535  1.0719  0.2797 -1.0070
 5374SOL     OW27580   4.203   1.937   5.977  0.0285 -0.0456 -0.5343
 5374SOL    HW127581   4.136   1.994   6.013  1.1598  1.3750 -0.7229
 5374SOL    HW227582   4.174   1.853   6.014  3.3917 -1.1685 -0.4488
 5375SOL     OW27583   3.723   4.489   5.129 -0.1202  0.0593  0.2467
 5375SOL    HW127584   3.705   4.406   5.171 -0.4956 -0.0022 -0.0325
 5375SOL    HW227585   3.661   4.551   5.168 -0.6313  2.3163 -4.0795
 5376SOL     OW27586   0.193   0.805  15.230 -0.3211  0.5778 -0.0110
 5376SOL    HW127587   0.178   0.718  15.268  0.8536 -0.3719 -1.7065
 5376SOL    HW227588   0.273   0.825  15.279  0.0391  0.4624 -0.5547
 5377SOL     OW27589   2.726   4.676  12.143  0.0185 -0.1216 -0.2950
 5377SOL    HW127590   2.757   4.586  12.134  1.4639  0.1858  1.4757
 5377SOL    HW227591   2.669   4.673  12.219  0.5470  1.4074  0.1673
 5378SOL     OW27592   4.211   0.984   6.561 -0.3595 -0.1458 -0.2260
 5378SOL    HW127593   4.204   0.974   6.656 -0.7047 -0.4420 -0.2837
 5378SOL    HW227594   4.120   0.990   6.530 -0.1481 -0.5818 -0.9387
 5379SOL     OW27595   4.591   0.905   1.990 -0.2369  0.4165  0.1382
 5379SOL    HW127596   4.677   0.946   1.996  0.0937 -0.3615  0.6375
 5379SOL    HW227597   4.608   0.826   1.939 -1.0613 -0.9042  1.9272
 5380SOL     OW27598   2.540   1.044   8.493  0.8985 -0.1167  0.1416
 5380SOL    HW127599   2.526   1.054   8.587  0.7547  0.6721  0.0325
 5380SOL    HW227600   2.477   1.105   8.456 -0.0159 -0.4835  1.0950
 5381SOL     OW27601   2.309   2.570   2.383  0.3916 -0.1651 -0.2294
 5381SOL    HW127602   2.301   2.523   2.300 -1.2008  0.9095 -0.6907
 5381SOL    HW227603   2.387   2.623   2.369 -1.6435  2.5327 -1.3767
 5382SOL     OW27604   1.168   2.282   5.124  0.1762 -0.4480 -0.2211
 5382SOL    HW127605   1.146   2.223   5.053  2.5833 -2.1273  0.4659
 5382SOL    HW227606   1.188   2.365   5.081  0.4819 -1.0731 -1.2621
 5383SOL     OW27607   1.983   2.821   8.537 -0.2477  0.4109  0.1827
 5383SOL    HW127608   1.988   2.738   8.490  0.0205  0.8104 -0.4872
 5383SOL    HW227609   1.907   2.815   8.595 -0.7128 -0.4747 -0.5179
 5384SOL     OW27610   0.590   0.391   5.138  0.4724  0.3075  0.2952
 5384SOL    HW127611   0.601   0.319   5.077 -1.8740 -0.7469  1.1316
 5384SOL    HW227612   0.679   0.426   5.126  0.5996  0.5095  1.8015
 5385SOL     OW27613   4.588   2.595   7.878  0.4217  0.0497  0.8675
 5385SOL    HW127614   4.554   2.525   7.823 -0.7296  0.4117  1.1241
 5385SOL    HW227615   4.518   2.614   7.940  0.0818 -1.1765  0.8713
 5386SOL     OW27616   1.988   0.256   2.942 -0.3661  0.3825 -0.0422
 5386SOL    HW127617   1.941   0.325   2.989 -1.9182  0.3772 -1.5515
 5386SOL    HW227618   2.070   0.276   2.987  0.5114  2.0042 -2.3536
 5387SOL     OW27619   1.483   4.134   1.963  0.3092  0.8645  0.1800
 5387SOL    HW127620   1.515   4.047   1.986  3.2643  1.8375 -0.2713
 5387SOL    HW227621   1.537   4.185   2.023  2.0718  0.4879 -1.1075
 5388SOL     OW27622   2.073   3.119   6.267  0.0384 -0.2951  0.4736
 5388SOL    HW127623   2.090   3.213   6.258 -2.9614  0.0482 -1.6452
 5388SOL    HW227624   2.125   3.084   6.195  0.7818  2.6235 -0.4184
 5389SOL     OW27625   0.143   2.410   0.556 -0.1072  0.2570  0.0703
 5389SOL    HW127626   0.165   2.317   0.551  1.0356  0.5057  0.3081
 5389SOL    HW227627   0.050   2.399   0.572 -0.2610  1.4225 -0.0261
 5390SOL     OW27628   1.276   0.409   3.777  0.6791  0.2313  0.2577
 5390SOL    HW127629   1.205   0.431   3.837  1.8362 -0.9034  2.0561
 5390SOL    HW227630   1.266   0.475   3.709 -0.3741  1.5996  1.7344
 5391SOL     OW27631   1.622   3.890   0.250  0.0194  0.4045 -0.8097
 5391SOL    HW127632   1.634   3.943   0.329  1.2785  0.7875 -1.2574
 5391SOL    HW227633   1.635   3.959   0.185 -0.5360 -0.2744 -1.6301
 5392SOL     OW27634   2.380   1.624   4.020 -0.0881 -0.8124  0.2209
 5392SOL    HW127635   2.456   1.649   4.073 -0.8923 -0.3371  1.1679
 5392SOL    HW227636   2.308   1.662   4.069  0.0094 -1.7372  1.0780
 5393SOL     OW27637   3.175   0.032   6.892 -0.1317  0.2925 -0.1745
 5393SOL    HW127638   3.084   0.029   6.865 -0.8314  0.4481  2.1558
 5393SOL    HW227639   3.209   0.047   6.804 -0.9282  0.9998 -0.3592
 5394SOL     OW27640   4.382   0.635   9.683  0.0235  0.6112 -0.0361
 5394SOL    HW127641   4.432   0.574   9.739 -0.9660  0.7749  1.0347
 5394SOL    HW227642   4.453   0.695   9.660  0.0147  0.2603 -0.9592
 5395SOL     OW27643   0.603   1.999   8.631 -0.1064  0.1335 -0.1427
 5395SOL    HW127644   0.534   2.047   8.676  0.7964  1.6663 -0.4009
 5395SOL    HW227645   0.554   1.923   8.598  0.4356  0.5843 -1.9668
 5396SOL     OW27646   2.716   0.651  10.263 -0.3813  0.3500  0.0785
 5396SOL    HW127647   2.746   0.560  10.252  1.0968  0.6567  1.6464
 5396SOL    HW227648   2.731   0.672  10.355  0.6753  0.6974 -0.1747
 5397SOL     OW27649   3.375   4.544   6.176  0.4909  0.0535  0.4921
 5397SOL    HW127650   3.428   4.512   6.103 -0.2000 -0.2536  0.1238
 5397SOL    HW227651   3.318   4.468   6.187  1.5198 -0.7511  0.2895
 5398SOL     OW27652   3.163   1.692   3.573  0.5238  0.1932 -0.4590
 5398SOL    HW127653   3.188   1.684   3.481 -0.4645  1.0652 -0.8003
 5398SOL    HW227654   3.252   1.676   3.606  0.2923  3.1185  1.4880
 5399SOL     OW27655   1.832   2.470  16.968  0.3194 -0.1001 -0.1893
 5399SOL    HW127656   1.832   2.467  16.873 -3.4800  1.4032 -0.2053
 5399SOL    HW227657   1.910   2.425  17.001 -0.1009 -0.3906  0.4211
 5400SOL     OW27658   2.761   1.841  11.938 -0.0089  0.4486 -0.3163
 5400SOL    HW127659   2.848   1.869  11.909 -0.0026  0.4406 -0.3054
 5400SOL    HW227660   2.721   1.806  11.859  1.1171  0.1698 -0.7498
 5401SOL     OW27661   0.314   2.685   0.932  1.1547 -0.0533 -0.2023
 5401SOL    HW127662   0.301   2.729   1.016 -1.6205  0.0144 -0.6742
 5401SOL    HW227663   0.410   2.693   0.936  1.2394  0.1722 -2.7202
 5402SOL     OW27664   1.515   1.079   6.244 -0.3060 -0.0537 -0.9136
 5402SOL    HW127665   1.596   1.128   6.258 -0.2736 -0.1887 -0.6331
 5402SOL    HW227666   1.494   1.039   6.328 -1.7351  0.3666 -1.0643
 5403SOL     OW27667   1.128   4.096   9.026 -0.2195 -0.6076 -0.4625
 5403SOL    HW127668   1.183   4.029   9.066 -1.3873 -1.7285 -0.7400
 5403SOL    HW227669   1.056   4.053   8.980 -2.2215  0.5447  1.5885
 5404SOL     OW27670   2.486   1.447   8.913  0.1187 -0.5310 -0.3244
 5404SOL    HW127671   2.573   1.410   8.903 -0.0795 -1.0342 -0.1640
 5404SOL    HW227672   2.501   1.534   8.875  0.6997 -0.8469 -0.8129
 5405SOL     OW27673   4.008   3.868   6.969  0.1875  0.0955 -0.2487
 5405SOL    HW127674   3.993   3.963   6.968 -2.6144 -0.3345  2.5807
 5405SOL    HW227675   4.017   3.854   7.063 -1.0753  0.7581 -0.0364
 5406SOL     OW27676   4.200   3.313  12.506  0.4598  0.3404 -0.5455
 5406SOL    HW127677   4.189   3.403  12.539  0.3106  0.0488  0.1997
 5406SOL    HW227678   4.182   3.259  12.583 -1.8278  0.3805 -1.0412
 5407SOL     OW27679   1.349   0.630  12.444 -0.6051  0.1048 -0.1041
 5407SOL    HW127680   1.272   0.677  12.477 -0.5079 -1.3985  2.3018
 5407SOL    HW227681   1.416   0.681  12.490 -0.3294  0.8856 -1.3886
 5408SOL     OW27682   1.099   4.572  12.064 -0.2540 -0.3206 -0.3006
 5408SOL    HW127683   1.125   4.565  11.972 -0.3973 -1.2920 -0.2636
 5408SOL    HW227684   1.161   4.519  12.112 -0.9299 -0.6432  0.2129
 5409SOL     OW27685   0.582   0.065  12.021  0.0751 -0.4113 -0.0625
 5409SOL    HW127686   0.659   0.013  11.997 -0.9872 -1.2996 -1.5138
 5409SOL    HW227687   0.604   0.154  11.994 -0.5780 -0.4467 -0.7018
 5410SOL     OW27688   0.373   0.690   8.872 -0.3458  0.1846 -0.2392
 5410SOL    HW127689   0.461   0.723   8.853 -1.1795  3.1671  0.9905
 5410SOL    HW227690   0.333   0.744   8.804  0.4499  2.6278  1.2126
 5411SOL     OW27691   3.599   1.019  15.366  0.8431 -0.2935  0.2382
 5411SOL    HW127692   3.664   1.089  15.355  2.0502 -1.2913  1.0973
 5411SOL    HW227693   3.637   0.975  15.442 -2.2024 -1.5893  1.0070
 5412SOL     OW27694   0.473   2.183   7.892  0.1280  0.1455  0.2662
 5412SOL    HW127695   0.426   2.262   7.866 -0.8557 -0.2320  0.9008
 5412SOL    HW227696   0.513   2.212   7.974 -2.1680  0.5501  1.2374
 5413SOL     OW27697   1.365   2.506   5.375  0.4268  0.0312 -0.5291
 5413SOL    HW127698   1.344   2.524   5.283 -0.5671 -0.2749 -0.3688
 5413SOL    HW227699   1.430   2.574   5.393 -0.1397  0.7728 -1.2744
 5414SOL     OW27700   0.967   3.259   5.031 -0.0609 -0.2181  0.4052
 5414SOL    HW127701   0.954   3.201   4.956  1.4912  0.5078 -0.4213
 5414SOL    HW227702   1.063   3.256   5.028 -0.0671 -0.6990  0.6133
 5415SOL     OW27703   3.416   2.050   6.521 -0.3597 -0.0276  0.3238
 5415SOL    HW127704   3.481   1.987   6.552 -0.1742  0.7020  1.3788
 5415SOL    HW227705   3.380   2.003   6.445  1.8946  0.4597 -1.0430
 5416SOL     OW27706   1.713   0.074   4.801  0.0198 -0.4435  0.0979
 5416SOL    HW127707   1.619   0.065   4.819  0.1608  0.1332  1.1106
 5416SOL    HW227708   1.721   0.053   4.708 -1.8713 -1.2524  0.1187
 5417SOL     OW27709   4.425   2.940   7.115 -0.3557 -0.1524  0.1742
 5417SOL    HW127710   4.347   2.971   7.070 -0.8129  0.2164  1.2083
 5417SOL    HW227711   4.483   2.976   7.048  0.7855 -1.7429  0.3079
 5418SOL     OW27712   2.401   1.103   6.701  0.1948 -0.0489  0.2810
 5418SOL    HW127713   2.433   1.185   6.662  0.0114 -1.5490 -3.0381
 5418SOL    HW227714   2.307   1.117   6.697  0.1712 -0.5569 -0.9243
 5419SOL     OW27715   1.429   3.866   7.877 -0.2359  0.6589  0.2815
 5419SOL    HW127716   1.397   3.817   7.953 -1.3470 -1.0166 -1.2546
 5419SOL    HW227717   1.348   3.899   7.837  0.0795  0.0095 -0.9129
 5420SOL     OW27718   0.161   0.485   9.205 -0.1771  0.2290  0.2683
 5420SOL    HW127719   0.123   0.542   9.272 -0.4717  0.0945  0.2157
 5420SOL    HW227720   0.166   0.543   9.129  0.1283 -0.6077 -0.3563
 5421SOL     OW27721   3.857   0.115   8.513 -0.1882  0.2929 -0.0848
 5421SOL    HW127722   3.823   0.140   8.599  0.9013 -1.3550  0.8300
 5421SOL    HW227723   3.859   0.019   8.512  2.7328  0.3471  1.7359
 5422SOL     OW27724   3.381   3.848   8.780 -0.1875 -0.7428 -0.1878
 5422SOL    HW127725   3.376   3.856   8.875  1.2344  1.2260 -0.2947
 5422SOL    HW227726   3.471   3.820   8.762 -0.1434  0.8978 -2.5823
 5423SOL     OW27727   3.174   4.361   6.247  0.2231 -0.3203  0.2098
 5423SOL    HW127728   3.199   4.329   6.334 -0.5244 -1.4391  0.0120
 5423SOL    HW227729   3.089   4.317   6.236  0.3965 -0.6716  0.2699
 5424SOL     OW27730   3.443   2.093   4.810  0.2178 -0.4270 -0.1497
 5424SOL    HW127731   3.432   2.175   4.761  0.2178  0.4990  1.4123
 5424SOL    HW227732   3.364   2.090   4.864  0.2809 -1.1123 -0.0929
 5425SOL     OW27733   0.759   4.258   8.434 -0.1071  0.1028  0.2522
 5425SOL    HW127734   0.745   4.293   8.522 -0.4461  1.0287 -0.1771
 5425SOL    HW227735   0.840   4.305   8.416  0.8607 -1.7051 -0.1225
 5426SOL     OW27736   0.535   2.418   3.075 -0.3652  0.0613 -0.0612
 5426SOL    HW127737   0.617   2.409   3.027 -0.7867  1.9603 -1.1254
 5426SOL    HW227738   0.468   2.428   3.006 -1.9264 -1.9112  1.1648
 5427SOL     OW27739   2.221   3.363   7.678 -0.2053 -0.5391  0.0215
 5427SOL    HW127740   2.146   3.317   7.715 -0.0150 -2.6987 -2.2989
 5427SOL    HW227741   2.234   3.416   7.757 -0.3789 -0.6483  0.1233
 5428SOL     OW27742   4.137   2.936   2.541 -0.7052  0.1713 -0.0258
 5428SOL    HW127743   4.144   2.840   2.535 -0.7926  0.1933 -0.5057
 5428SOL    HW227744   4.045   2.939   2.514 -0.6596  0.4490 -0.1456
 5429SOL     OW27745   1.445   1.522  11.445 -0.6408 -0.0902 -0.4430
 5429SOL    HW127746   1.364   1.477  11.469  0.3937  0.1642  3.4456
 5429SOL    HW227747   1.411   1.593  11.390 -1.6059 -0.8106 -0.7714
 5430SOL     OW27748   1.274   1.044   5.410  0.0496  0.4064 -0.3842
 5430SOL    HW127749   1.258   0.979   5.479 -0.2638 -1.8410 -2.5941
 5430SOL    HW227750   1.210   1.031   5.340  1.4468 -0.9556 -1.4096
 5431SOL     OW27751   3.391   1.194   4.240  0.7211 -0.0910  0.0545
 5431SOL    HW127752   3.301   1.173   4.262 -0.1031  3.8014  0.3942
 5431SOL    HW227753   3.392   1.286   4.267 -1.5669 -0.5995  1.8826
 5432SOL     OW27754   2.561   0.083   6.888  0.5650 -0.1644  0.4200
 5432SOL    HW127755   2.478   0.129   6.869  0.7704  1.0766  2.5278
 5432SOL    HW227756   2.574   0.116   6.977 -0.3335 -2.8042  1.5286
 5433SOL     OW27757   3.219   3.262   4.961  0.7026 -0.4300 -0.3055
 5433SOL    HW127758   3.136   3.231   4.924  0.3705  0.1443 -0.0312
 5433SOL    HW227759   3.286   3.214   4.912  1.2091 -1.9471  1.8229
 5434SOL     OW27760   2.738   3.956  14.306 -0.1497 -0.8026 -0.5306
 5434SOL    HW127761   2.705   3.959  14.216 -2.9377  1.8172  0.5918
 5434SOL    HW227762   2.685   3.889  14.350  0.6830  0.0998  1.8554
 5435SOL     OW27763   4.190   1.291   2.958  0.0223 -0.0485  0.1825
 5435SOL    HW127764   4.202   1.385   2.950  1.6762 -0.3850 -1.1498
 5435SOL    HW227765   4.126   1.287   3.030 -2.0394  0.7871 -1.5927
 5436SOL     OW27766   0.786   1.020   2.333  0.2439 -0.2272 -0.0464
 5436SOL    HW127767   0.825   0.980   2.255 -1.7103 -2.6919  0.2426
 5436SOL    HW227768   0.774   1.108   2.297  0.2281  0.2029  1.0348
 5437SOL     OW27769   0.205   4.488   1.524  0.3466 -0.3496  0.5294
 5437SOL    HW127770   0.264   4.485   1.449  2.0663  0.8262  1.8330
 5437SOL    HW227771   0.190   4.582   1.515  1.1920 -0.0493  2.2999
 5438SOL     OW27772   0.857   2.417   0.279  0.0290  0.1239  0.3751
 5438SOL    HW127773   0.805   2.497   0.283  1.3743  1.0430 -0.5547
 5438SOL    HW227774   0.885   2.404   0.369 -1.2379 -1.7284  0.5097
 5439SOL     OW27775   3.138   3.276   4.023  0.3272 -0.3590  0.0521
 5439SOL    HW127776   3.172   3.361   4.052 -1.6378  0.3164  0.3969
 5439SOL    HW227777   3.094   3.298   3.941 -2.1590 -1.8060  0.9919
 5440SOL     OW27778   2.413   2.895  11.084 -0.2400 -0.2258 -0.3555
 5440SOL    HW127779   2.440   2.808  11.055  1.5749  1.1099 -2.6674
 5440SOL    HW227780   2.416   2.947  11.004  3.4667 -1.1769 -0.8240
 5441SOL     OW27781   2.124   1.858  16.151 -0.4025 -0.3155 -0.5697
 5441SOL    HW127782   2.197   1.813  16.192 -1.2066 -0.1081  1.0906
 5441SOL    HW227783   2.157   1.881  16.064  0.8060  0.0641 -0.0004
 5442SOL     OW27784   3.594   4.394   1.258 -0.4599  0.1857  0.0963
 5442SOL    HW127785   3.639   4.422   1.338 -1.3995 -0.3159  0.7946
 5442SOL    HW227786   3.663   4.381   1.193 -0.3333  0.5440  0.1553
 5443SOL     OW27787   1.602   4.639   6.069 -0.0993  0.0307  0.0920
 5443SOL    HW127788   1.581   4.664   6.159 -0.6561  1.8856 -0.5601
 5443SOL    HW227789   1.558   4.554   6.066 -0.1707  0.0205  1.5592
 5444SOL     OW27790   4.198   2.648   6.654 -0.3379  0.1177 -0.2734
 5444SOL    HW127791   4.214   2.567   6.702 -0.0881  0.5076  0.2928
 5444SOL    HW227792   4.155   2.616   6.574  0.0675 -0.6681 -0.1818
 5445SOL     OW27793   3.920   1.650   5.182 -0.4624 -0.0927  0.3181
 5445SOL    HW127794   3.988   1.586   5.162 -0.8692 -0.7811  1.1189
 5445SOL    HW227795   3.950   1.687   5.265 -0.5441 -1.8375  1.1222
 5446SOL     OW27796   2.217   1.359  14.865  0.1882  0.3224 -0.7197
 5446SOL    HW127797   2.126   1.330  14.856 -0.5351  2.4543 -0.2525
 5446SOL    HW227798   2.230   1.341  14.958 -0.8959  0.7509 -0.4809
 5447SOL     OW27799   2.208   4.556   4.383  0.1971 -0.0291 -0.2096
 5447SOL    HW127800   2.248   4.606   4.312 -0.0252  0.2402 -0.1458
 5447SOL    HW227801   2.116   4.551   4.360  0.4798 -0.8185 -1.1308
 5448SOL     OW27802   1.231   3.435  11.154 -0.2171  0.2400  0.0857
 5448SOL    HW127803   1.259   3.466  11.240  2.0731  1.1301 -0.9977
 5448SOL    HW227804   1.200   3.517  11.115  0.0525  0.9002  1.2780
 5449SOL     OW27805   1.774   1.833   7.571  0.1631 -0.1369 -0.3886
 5449SOL    HW127806   1.808   1.750   7.605  2.2544  2.2826  3.3714
 5449SOL    HW227807   1.734   1.871   7.649  1.0509  1.2129 -0.5881
 5450SOL     OW27808   0.232   0.452   4.026 -0.1315  0.2274  0.7274
 5450SOL    HW127809   0.170   0.395   4.073 -0.9548  0.4797 -0.0547
 5450SOL    HW227810   0.262   0.398   3.953 -0.5628 -1.7103  1.9560
 5451SOL     OW27811   3.564   0.680   2.602  0.1712  0.1878 -0.0829
 5451SOL    HW127812   3.513   0.638   2.672  0.0190 -0.3561 -0.5229
 5451SOL    HW227813   3.496   0.735   2.562 -1.1099 -0.5974  1.0079
 5452SOL     OW27814   1.370   2.274  10.007  0.1013  0.2421  0.4323
 5452SOL    HW127815   1.359   2.289  10.101  0.1939  0.0486  0.4736
 5452SOL    HW227816   1.282   2.275   9.972  0.8541 -0.0756 -1.4442
 5453SOL     OW27817   0.069   1.452   4.326 -0.2712 -0.7291  0.1442
 5453SOL    HW127818   0.000   1.416   4.382 -1.8416  0.8486 -0.7691
 5453SOL    HW227819   0.014   1.480   4.253  2.6209  1.9679 -1.0028
 5454SOL     OW27820   4.447   1.862   4.903 -0.3306 -0.7244  0.0753
 5454SOL    HW127821   4.406   1.906   4.977 -0.6612  1.0973 -1.1724
 5454SOL    HW227822   4.372   1.846   4.847  0.5337 -2.8264 -0.4876
 5455SOL     OW27823   0.280   2.171   6.530 -0.6097 -0.5382 -0.7227
 5455SOL    HW127824   0.251   2.199   6.617  0.7442  0.7820 -0.6972
 5455SOL    HW227825   0.375   2.179   6.539 -0.6898 -2.4504  1.8070
 5456SOL     OW27826   1.764   2.433   2.179 -0.4315 -0.7490  0.0126
 5456SOL    HW127827   1.766   2.515   2.227 -0.3845 -1.4930  1.2855
 5456SOL    HW227828   1.841   2.444   2.124 -1.8532  0.6440 -1.6863
 5457SOL     OW27829   1.626   0.144   7.435  0.6657 -0.5970  0.4616
 5457SOL    HW127830   1.636   0.238   7.449 -1.7551 -0.0378 -1.6176
 5457SOL    HW227831   1.598   0.150   7.343 -1.0794 -1.2780  0.9478
 5458SOL     OW27832   0.259   0.073   5.697  0.0356 -0.4552  0.0826
 5458SOL    HW127833   0.268   0.152   5.750 -0.2796  0.4645 -1.2219
 5458SOL    HW227834   0.344   0.032   5.710 -0.1501 -0.8514  0.0242
 5459SOL     OW27835   1.108   3.282   3.741 -0.8740  0.2859 -0.1860
 5459SOL    HW127836   1.127   3.364   3.696  1.0301  1.0158  1.9647
 5459SOL    HW227837   1.014   3.271   3.726 -1.0335 -2.1922  2.5021
 5460SOL     OW27838   0.832   1.808   7.325 -0.6338  0.6242  0.1652
 5460SOL    HW127839   0.783   1.874   7.277 -1.1268  0.3465  0.2847
 5460SOL    HW227840   0.793   1.816   7.412  1.8455 -1.3923  1.4702
 5461SOL     OW27841   3.015   0.450   4.874  0.0538 -0.2459  0.1806
 5461SOL    HW127842   3.088   0.500   4.912  1.2431 -1.1678 -0.9112
 5461SOL    HW227843   3.067   0.382   4.833 -2.0602 -2.3994  1.0747
 5462SOL     OW27844   2.256   4.367  12.968 -0.2228  0.0737 -0.3671
 5462SOL    HW127845   2.169   4.407  12.965 -0.8539 -1.1707  1.4084
 5462SOL    HW227846   2.248   4.280  13.009  0.5624  1.5828  3.0185
 5463SOL     OW27847   3.139   1.820   4.798  0.0266  0.2271 -0.0332
 5463SOL    HW127848   3.132   1.824   4.893  0.2602  3.2931 -0.1623
 5463SOL    HW227849   3.054   1.850   4.766  0.3174 -0.3514 -1.3486
 5464SOL     OW27850   0.858   3.937   7.238 -0.1506  0.1156 -0.0037
 5464SOL    HW127851   0.894   3.891   7.314 -2.0468  0.0480  0.8529
 5464SOL    HW227852   0.805   3.868   7.198  0.1551  0.8302 -1.6270
 5465SOL     OW27853   2.193   4.513  13.390  0.0657  0.3314 -0.6081
 5465SOL    HW127854   2.149   4.429  13.380  1.1577 -0.1129 -1.7584
 5465SOL    HW227855   2.172   4.536  13.480 -0.2891  1.9829 -1.1209
 5466SOL     OW27856   0.836   2.030  15.179  0.1905  0.0817  0.4396
 5466SOL    HW127857   0.871   2.099  15.122  0.0324  0.3023  0.6088
 5466SOL    HW227858   0.758   2.069  15.219  1.0054  0.8588  1.2849
 5467SOL     OW27859   1.308   0.287   3.150  0.4149  0.6521  0.2955
 5467SOL    HW127860   1.278   0.232   3.077 -0.5478 -1.4761  2.2603
 5467SOL    HW227861   1.392   0.245   3.168 -0.9106 -1.6120  1.2614
 5468SOL     OW27862   0.066   4.673  14.222  0.2142 -0.0426  0.5354
 5468SOL    HW127863   0.155   4.667  14.259  0.5042  1.9201  0.1844
 5468SOL    HW227864   0.071   4.627  14.138 -0.8945 -0.3048  0.6141
 5469SOL     OW27865   0.283   2.481   1.974  0.1271 -0.2374  0.2466
 5469SOL    HW127866   0.361   2.536   1.986 -0.9560  1.4732 -0.4642
 5469SOL    HW227867   0.266   2.502   1.883 -0.5944 -0.9724  0.2162
 5470SOL     OW27868   3.087   3.080   1.046  0.1724 -0.0504 -0.1149
 5470SOL    HW127869   3.057   3.151   1.101  0.0095 -0.2127  0.0062
 5470SOL    HW227870   3.128   3.019   1.107  2.2254  2.0786  0.6144
 5471SOL     OW27871   3.531   2.117   8.628  0.3011 -0.0446  0.2184
 5471SOL    HW127872   3.554   2.209   8.637  0.9150 -0.2986  1.3689
 5471SOL    HW227873   3.586   2.077   8.696 -1.6472 -2.5184  0.3659
 5472SOL     OW27874   1.026   2.961   0.138  0.0694  0.0490 -0.0351
 5472SOL    HW127875   1.069   2.883   0.104 -0.9296 -0.1404 -0.8622
 5472SOL    HW227876   0.994   2.919   0.218 -0.5271 -0.2740 -0.4519
 5473SOL     OW27877   2.391   2.701  10.087  0.0010  0.2086 -0.1352
 5473SOL    HW127878   2.349   2.700  10.001 -1.0648 -1.0337  0.3909
 5473SOL    HW227879   2.331   2.653  10.145 -1.6360  0.0385 -1.9709
 5474SOL     OW27880   0.077   4.035   2.297  0.1484 -0.2271 -0.5546
 5474SOL    HW127881   0.078   4.029   2.201  0.3421  2.3359 -0.7101
 5474SOL    HW227882   0.170   4.022   2.316  0.1493 -1.2098 -1.2666
 5475SOL     OW27883   3.547   0.662   9.977  0.4089  0.2076  0.2273
 5475SOL    HW127884   3.491   0.677   9.900  1.8476  1.1299 -0.6291
 5475SOL    HW227885   3.510   0.725  10.038 -0.6486  0.0956 -0.2854
 5476SOL     OW27886   2.387   0.899   2.912  0.1149 -0.1118  0.3526
 5476SOL    HW127887   2.417   0.966   2.851 -1.1749  1.2045  1.1491
 5476SOL    HW227888   2.366   0.936   2.998  2.4932  0.1827  0.7942
 5477SOL     OW27889   4.226   2.881  16.089  0.2212 -0.1376  0.4082
 5477SOL    HW127890   4.157   2.895  16.153  0.6211 -3.0017  1.4633
 5477SOL    HW227891   4.267   2.967  16.084  0.8170 -0.3786  1.0663
 5478SOL     OW27892   3.292   0.358   4.268 -0.6917  0.0360  0.4450
 5478SOL    HW127893   3.198   0.354   4.290 -0.7679  0.6919  0.2373
 5478SOL    HW227894   3.286   0.416   4.192 -1.3723 -0.1076  0.3818
 5479SOL     OW27895   0.588   4.363   9.830 -0.0672 -0.7681 -0.2852
 5479SOL    HW127896   0.614   4.444   9.787  0.5277 -0.6792  0.2464
 5479SOL    HW227897   0.632   4.371   9.915  2.0524 -1.9607 -1.2746
 5480SOL     OW27898   2.880   1.441   2.120  0.3120  0.5794 -0.1847
 5480SOL    HW127899   2.843   1.519   2.162  1.9773  1.4512 -0.3376
 5480SOL    HW227900   2.972   1.439   2.145  0.0215  1.4354  0.9445
 5481SOL     OW27901   3.680   3.753   7.623  0.2142 -0.0697  0.1896
 5481SOL    HW127902   3.596   3.799   7.612  0.6804  0.7353  0.0292
 5481SOL    HW227903   3.690   3.727   7.532 -2.1583 -0.1891 -0.0516
 5482SOL     OW27904   1.857   4.523   6.609  0.1576 -0.0459 -0.1072
 5482SOL    HW127905   1.953   4.521   6.609  0.1701  1.0190 -2.2592
 5482SOL    HW227906   1.826   4.606   6.647 -4.4566 -2.2030  0.8068
 5483SOL     OW27907   2.457   1.567  13.373 -0.8200 -0.6471 -0.1981
 5483SOL    HW127908   2.440   1.619  13.451 -2.1743 -0.2404 -0.7479
 5483SOL    HW227909   2.403   1.608  13.305 -1.6240 -0.1874  0.7180
 5484SOL     OW27910   3.195   0.008   9.432 -0.0956  0.7191  0.5168
 5484SOL    HW127911   3.157   0.030   9.517 -0.4348 -0.5436  0.6856
 5484SOL    HW227912   3.136   0.061   9.377  1.4910  1.6906 -0.2418
 5485SOL     OW27913   0.976   0.461   8.203 -0.0528 -0.1443  0.1469
 5485SOL    HW127914   1.038   0.399   8.164  0.9828  1.4325 -0.7065
 5485SOL    HW227915   0.895   0.433   8.161 -1.1389  1.1377  1.3930
 5486SOL     OW27916   3.983   0.354   0.207 -0.0376 -0.3956 -0.2971
 5486SOL    HW127917   3.905   0.302   0.228 -1.2860  2.0738  1.3045
 5486SOL    HW227918   4.049   0.291   0.179 -0.6872 -1.1961 -0.0519
 5487SOL     OW27919   2.000   0.405   8.336 -0.6566 -0.0246 -0.7081
 5487SOL    HW127920   2.039   0.322   8.365  1.2860  0.9001 -0.6865
 5487SOL    HW227921   2.054   0.465   8.387 -0.7197  2.2047 -3.2764
 5488SOL     OW27922   2.577   3.277  12.911  0.0431 -0.4374 -0.3376
 5488SOL    HW127923   2.668   3.251  12.915  0.7355  2.3557  2.4070
 5488SOL    HW227924   2.531   3.196  12.889  1.0612 -0.8709 -0.8632
 5489SOL     OW27925   2.371   3.298   8.679  0.1311  0.4817 -0.0926
 5489SOL    HW127926   2.402   3.355   8.750  0.2121  1.9149 -1.2690
 5489SOL    HW227927   2.329   3.235   8.737 -2.3462  0.3580 -2.0248
 5490SOL     OW27928   0.709   1.020  15.134  0.2847  0.0544  0.3509
 5490SOL    HW127929   0.796   1.042  15.099  0.5736 -2.2282 -0.3527
 5490SOL    HW227930   0.690   1.108  15.165  3.2210  0.9426 -0.3752
 5491SOL     OW27931   3.407   4.273   2.379  0.4463 -0.0826  0.1320
 5491SOL    HW127932   3.361   4.245   2.300  0.8660 -0.7873  0.1355
 5491SOL    HW227933   3.368   4.354   2.412 -0.0239 -0.5583  0.7283
 5492SOL     OW27934   0.775   2.643   9.264 -0.0027 -0.2523 -0.1745
 5492SOL    HW127935   0.736   2.690   9.191  0.9988 -1.3390 -1.3946
 5492SOL    HW227936   0.704   2.613   9.321  0.2617  1.4601  1.0774
 5493SOL     OW27937   0.143   0.718  14.782 -0.2049  0.1833  0.6428
 5493SOL    HW127938   0.156   0.806  14.816  0.3936  1.3356 -2.5130
 5493SOL    HW227939   0.205   0.679  14.844  0.5472 -1.8597 -1.3811
 5494SOL     OW27940   2.781   0.767   0.158  0.1605  0.4681  0.5103
 5494SOL    HW127941   2.813   0.846   0.202  2.2010  0.2495 -0.5973
 5494SOL    HW227942   2.812   0.701   0.221  0.7500 -0.3251 -0.6091
 5495SOL     OW27943   2.689   1.432   0.730  0.2243 -0.6643 -0.2150
 5495SOL    HW127944   2.772   1.456   0.771 -0.0559 -1.2436  0.6827
 5495SOL    HW227945   2.632   1.450   0.804  0.6387  0.9424 -0.2959
 5496SOL     OW27946   3.713   4.450   9.585  0.5556  0.1215  0.2252
 5496SOL    HW127947   3.768   4.390   9.533  2.0755  0.4713  1.4345
 5496SOL    HW227948   3.727   4.422   9.675 -1.1046  0.7077  0.6606
 5497SOL     OW27949   0.185   2.861   3.056  0.6687 -0.0831  0.2093
 5497SOL    HW127950   0.166   2.805   2.981  0.9795 -0.9229  0.7549
 5497SOL    HW227951   0.218   2.801   3.124 -2.2815  1.2337  2.8265
 5498SOL     OW27952   1.959   2.102  14.454 -0.1573 -0.3631  0.2628
 5498SOL    HW127953   1.983   2.014  14.483  1.0121 -0.6132 -1.4781
 5498SOL    HW227954   2.045   2.136  14.431 -0.0717 -0.9171 -0.1997
 5499SOL     OW27955   1.728   2.870  15.400 -0.5523  0.1945 -0.3188
 5499SOL    HW127956   1.703   2.888  15.309 -1.7838  1.3765  0.2569
 5499SOL    HW227957   1.641   2.866  15.439  0.3455  0.7863  1.7525
 5500SOL     OW27958   2.692   1.139   7.110  0.0099  0.1129  0.4903
 5500SOL    HW127959   2.663   1.190   7.185  0.6350  0.6985  0.3368
 5500SOL    HW227960   2.618   1.079   7.097  1.2998 -1.1799 -0.8980
 5501SOL     OW27961   3.049   4.278   2.679 -0.2066  0.5074  0.3253
 5501SOL    HW127962   3.013   4.191   2.695  0.2240  0.4283  0.8675
 5501SOL    HW227963   3.143   4.275   2.699 -0.5608  1.2413  2.1158
 5502SOL     OW27964   3.898   3.569   7.757 -0.1704 -0.4135  0.4341
 5502SOL    HW127965   3.913   3.578   7.851 -0.7749 -0.3069  0.5155
 5502SOL    HW227966   3.824   3.630   7.749  1.1587  1.0520 -0.7749
 5503SOL     OW27967   4.653   0.078  10.487  0.1891  0.3880  0.0268
 5503SOL    HW127968   4.689   0.048  10.570 -0.1757  3.8157  1.3969
 5503SOL    HW227969   4.592   0.140  10.526 -0.7409  0.2010 -1.1286
 5504SOL     OW27970   4.023   3.734   7.535  0.1650 -0.4986 -0.0825
 5504SOL    HW127971   4.050   3.786   7.611  0.9005 -0.0518 -0.6506
 5504SOL    HW227972   3.974   3.663   7.576 -0.2779  0.5562  1.1924
 5505SOL     OW27973   1.890   3.922   3.490 -0.4238  0.5331 -0.4167
 5505SOL    HW127974   1.877   4.015   3.469 -4.8253 -0.0592 -0.3969
 5505SOL    HW227975   1.813   3.897   3.438  1.4232 -4.2008 -0.7907
 5506SOL     OW27976   1.792   2.482   7.385  0.0786 -0.5035 -0.6516
 5506SOL    HW127977   1.798   2.576   7.402  0.0413 -0.5068 -0.6181
 5506SOL    HW227978   1.829   2.483   7.297  0.9402 -2.7565 -0.3093
 5507SOL     OW27979   0.116   3.194   0.267  0.0164  0.2888  0.6315
 5507SOL    HW127980   0.200   3.215   0.305  2.2018 -2.3078 -2.6910
 5507SOL    HW227981   0.062   3.201   0.345 -1.7391 -0.3179 -0.5200
 5508SOL     OW27982   0.620   2.789   6.845  0.3592  0.6624 -0.6099
 5508SOL    HW127983   0.572   2.726   6.899 -0.7064  3.0229  1.1864
 5508SOL    HW227984   0.545   2.830   6.803 -1.2169 -2.0148 -0.4149
 5509SOL     OW27985   4.236   2.317  13.566 -0.2446  0.7771  0.0299
 5509SOL    HW127986   4.205   2.257  13.634 -1.4746  0.9689 -0.3442
 5509SOL    HW227987   4.226   2.405  13.605  0.1905  0.1814  1.4892
 5510SOL     OW27988   1.132   2.332   1.482  0.4405  0.4864  0.5723
 5510SOL    HW127989   1.222   2.366   1.477  0.4263  0.0717 -2.6391
 5510SOL    HW227990   1.130   2.322   1.577 -3.6121  1.0961  0.5628
 5511SOL     OW27991   3.235   2.438   3.806  0.3903 -0.2336 -0.2387
 5511SOL    HW127992   3.200   2.434   3.895 -1.8869 -1.0071 -1.1736
 5511SOL    HW227993   3.294   2.363   3.806  3.0039  1.8335 -0.0945
 5512SOL     OW27994   4.686   1.884   9.472 -0.7274  0.3776 -0.0190
 5512SOL    HW127995   0.021   1.825   9.427 -1.1863 -0.1065  0.0108
 5512SOL    HW227996   4.661   1.941   9.399  0.3186  1.1134  0.1940
 5513SOL     OW27997   1.880   4.280  14.102 -0.4667  0.0611 -0.1004
 5513SOL    HW127998   1.793   4.265  14.064 -0.2421 -2.2410  0.2526
 5513SOL    HW227999   1.874   4.365  14.145  3.2684  0.4148 -0.3255
 5514SOL     OW28000   1.346   1.339  14.042 -0.2768 -0.3484  0.3725
 5514SOL    HW128001   1.334   1.244  14.047 -3.5991  0.1142  0.9365
 5514SOL    HW228002   1.315   1.354  13.953 -1.1285  1.5445  0.9890
 5515SOL     OW28003   4.505   0.605   4.206 -0.3533  0.1758  0.2477
 5515SOL    HW128004   4.547   0.647   4.282  0.0541  1.8448 -0.8955
 5515SOL    HW228005   4.488   0.515   4.236 -0.5680 -0.2196 -1.0920
 5516SOL     OW28006   4.698   1.808   1.943  0.3980  0.0118 -0.5759
 5516SOL    HW128007   0.043   1.745   1.930 -3.0050 -4.1905  1.1411
 5516SOL    HW228008   0.014   1.892   1.924  1.5126 -0.4662 -0.2634
 5517SOL     OW28009   4.048   3.983   3.610 -0.2637 -0.1945  0.0749
 5517SOL    HW128010   3.964   4.029   3.612 -0.9965 -1.5561  0.3969
 5517SOL    HW228011   4.103   4.035   3.551 -2.2954  2.1589  0.2081
 5518SOL     OW28012   1.381   3.298   6.564 -0.8721  0.0456 -0.6166
 5518SOL    HW128013   1.324   3.364   6.525  0.1879  1.3423  0.0071
 5518SOL    HW228014   1.346   3.289   6.653 -1.0699  0.2652 -0.6720
 5519SOL     OW28015   3.722   2.130   1.504  0.1038 -0.7853  0.3624
 5519SOL    HW128016   3.800   2.185   1.494 -0.3135 -0.1331  0.6719
 5519SOL    HW228017   3.650   2.193   1.500 -1.1468 -2.2402  0.1734
 5520SOL     OW28018   2.290   2.454   2.145  0.2233 -0.6376 -0.4186
 5520SOL    HW128019   2.242   2.372   2.146 -0.3808 -0.2801  0.1936
 5520SOL    HW228020   2.251   2.496   2.068 -0.2283  0.3205  0.3284
 5521SOL     OW28021   0.583   2.135  11.106  0.3927 -0.9092 -0.4061
 5521SOL    HW128022   0.524   2.124  11.181  1.6685 -1.9521  0.4334
 5521SOL    HW228023   0.516   2.152  11.039 -0.2785 -1.3551  0.1458
 5522SOL     OW28024   2.723   0.019   7.716  0.7228  0.2575 -0.5072
 5522SOL    HW128025   2.738   4.723   7.624 -0.7210  0.6873 -0.8354
 5522SOL    HW228026   2.767   4.670   7.758 -0.7375 -1.2192 -1.5752
 5523SOL     OW28027   1.171   2.644   5.526  0.1298  0.1592  0.1274
 5523SOL    HW128028   1.236   2.586   5.486  0.0589  0.2021 -0.0519
 5523SOL    HW228029   1.085   2.620   5.490  0.0018  2.6812 -1.2520
 5524SOL     OW28030   2.489   3.852   2.742  0.3778 -0.3977 -0.0717
 5524SOL    HW128031   2.455   3.903   2.668  1.8664  1.9742  0.8863
 5524SOL    HW228032   2.463   3.764   2.715 -0.1124  0.1208 -1.2569
 5525SOL     OW28033   4.109   2.412   2.425 -0.0555  0.5005  0.3394
 5525SOL    HW128034   4.084   2.358   2.350 -0.9211 -0.7650  1.5321
 5525SOL    HW228035   4.203   2.396   2.426 -0.0068  0.7176 -1.5299
 5526SOL     OW28036   2.394   0.998  13.178 -0.0638  0.0329 -0.1446
 5526SOL    HW128037   2.317   0.949  13.204  0.0588  1.6956  3.3574
 5526SOL    HW228038   2.366   1.085  13.148  2.0211  0.5967 -0.5295
 5527SOL     OW28039   1.920   0.769   4.818 -0.1441  0.2830  0.2705
 5527SOL    HW128040   1.962   0.763   4.904  0.1316  1.0629  0.1855
 5527SOL    HW228041   1.971   0.838   4.775 -1.4501  0.6520 -0.6666
 5528SOL     OW28042   3.324   0.608  13.696  0.2371 -0.3141  0.9158
 5528SOL    HW128043   3.246   0.552  13.706 -1.0686  0.9962 -1.8250
 5528SOL    HW228044   3.331   0.596  13.601  0.2204 -0.4346  0.9288
 5529SOL     OW28045   4.289   1.639  14.662 -0.4220 -0.0186  0.0813
 5529SOL    HW128046   4.354   1.700  14.696 -0.1923  0.1068 -0.5892
 5529SOL    HW228047   4.215   1.699  14.665 -0.3377  0.1429 -0.9064
 5530SOL     OW28048   0.294   2.561   5.735  0.7974 -0.3169  0.4213
 5530SOL    HW128049   0.338   2.646   5.741 -2.5233  1.5120 -0.8259
 5530SOL    HW228050   0.230   2.569   5.806  2.9326  1.3726  2.1734
 5531SOL     OW28051   3.521   0.211   2.212  0.1940 -0.1926  0.4621
 5531SOL    HW128052   3.553   0.280   2.153  0.7388  0.3287  1.3711
 5531SOL    HW228053   3.602   0.197   2.260 -0.0833 -2.8867  0.1407
 5532SOL     OW28054   1.988   0.949   7.287  0.3385  0.5774  0.2060
 5532SOL    HW128055   2.039   1.024   7.317  0.4090 -0.2934  2.2222
 5532SOL    HW228056   2.016   0.877   7.343  0.7969  1.3136  0.9270
 5533SOL     OW28057   3.086   0.491   8.133 -0.2168 -0.0485  0.2185
 5533SOL    HW128058   3.029   0.514   8.060 -0.0705  1.1514  0.4905
 5533SOL    HW228059   3.123   0.578   8.144  4.3785 -2.0771  0.6215
 5534SOL     OW28060   2.176   2.456   7.280 -0.1339  0.2988  0.0064
 5534SOL    HW128061   2.180   2.364   7.255 -0.4923  0.0931  0.6938
 5534SOL    HW228062   2.139   2.444   7.367 -0.0373  1.2874  0.1821
 5535SOL     OW28063   1.827   1.304  14.489 -0.1385  0.3732 -0.4866
 5535SOL    HW128064   1.800   1.292  14.398  2.6159  2.1601 -1.5165
 5535SOL    HW228065   1.745   1.334  14.529  1.1534  0.8479  1.7724
 5536SOL     OW28066   3.937   4.692   7.795  0.6281  0.5072  0.2408
 5536SOL    HW128067   3.877   0.019   7.848 -0.1517  0.1707 -0.3144
 5536SOL    HW228068   3.988   0.039   7.759 -2.6824  2.8859  0.3303
 5537SOL     OW28069   4.080   2.027   5.273  0.1903 -0.2121 -0.0185
 5537SOL    HW128070   4.105   2.111   5.313  1.1625 -0.0908 -0.8917
 5537SOL    HW228071   4.032   1.992   5.348  0.7165  0.3623  0.5850
 5538SOL     OW28072   3.382   4.199   7.570 -0.4342  0.0255 -0.5565
 5538SOL    HW128073   3.388   4.290   7.539 -1.2927  0.3026  0.0960
 5538SOL    HW228074   3.363   4.199   7.664 -1.4016 -0.4768 -0.7560
 5539SOL     OW28075   4.501   4.154   8.048 -0.7856 -0.4085  0.4232
 5539SOL    HW128076   4.590   4.172   8.077 -0.6402 -0.5299  0.0509
 5539SOL    HW228077   4.506   4.062   8.072 -0.5711 -0.2789  0.8795
 5540SOL     OW28078   2.029   1.331   6.436 -0.6483  0.6299  0.2718
 5540SOL    HW128079   2.045   1.377   6.519  2.0499 -1.8716  1.1340
 5540SOL    HW228080   1.943   1.299   6.463 -0.2420 -1.2284 -0.7112
 5541SOL     OW28081   0.564   1.103   6.884  0.2336  0.4064 -0.0552
 5541SOL    HW128082   0.490   1.092   6.824  0.4229  0.3955 -0.2898
 5541SOL    HW228083   0.633   1.103   6.817  1.0135 -0.7706  0.7390
 5542SOL     OW28084   2.081   0.374   4.270  0.1436 -0.5703 -0.1254
 5542SOL    HW128085   2.119   0.430   4.337 -0.2445  1.4040 -1.5705
 5542SOL    HW228086   2.070   0.289   4.314  0.5516  1.2090  3.4206
 5543SOL     OW28087   4.620   4.121   8.674 -0.6018 -0.1597 -0.3140
 5543SOL    HW128088   4.638   4.215   8.677 -1.7371  0.0441  0.1391
 5543SOL    HW228089   4.568   4.123   8.594 -3.3316 -1.2705  1.4399
 5544SOL     OW28090   4.174   1.311   0.679 -0.2903 -0.1878  0.2350
 5544SOL    HW128091   4.204   1.250   0.611  1.4114  0.5105  0.3445
 5544SOL    HW228092   4.215   1.262   0.751 -0.5682 -0.4564  0.2072
 5545SOL     OW28093   2.054   2.787   7.606 -0.2253  0.0094 -0.2527
 5545SOL    HW128094   2.003   2.847   7.660 -0.5175 -0.6787  0.2419
 5545SOL    HW228095   1.980   2.762   7.549 -1.5293 -1.2897  2.0207
 5546SOL     OW28096   0.596   2.369   7.642  0.6020  0.3051 -0.5761
 5546SOL    HW128097   0.585   2.371   7.547 -1.8993  0.0755 -0.2813
 5546SOL    HW228098   0.505   2.367   7.669  1.1486 -1.5011  1.1216
 5547SOL     OW28099   4.203   2.753   5.697 -0.5275  0.0084 -0.2355
 5547SOL    HW128100   4.296   2.742   5.717 -0.9020 -1.6867  0.5909
 5547SOL    HW228101   4.209   2.769   5.603  0.8300 -0.6396 -0.2525
 5548SOL     OW28102   3.943   3.135   6.399  0.6391  0.5083  0.4831
 5548SOL    HW128103   3.992   3.066   6.444  0.8302  0.4973  0.2596
 5548SOL    HW228104   3.870   3.078   6.374  1.4769 -1.1018  1.6520
 5549SOL     OW28105   2.093   4.264   0.620 -0.4015  0.2165 -0.8227
 5549SOL    HW128106   2.065   4.355   0.611  0.4275  0.6603  1.2018
 5549SOL    HW228107   2.087   4.246   0.526 -1.2580  0.0397 -0.7359
 5550SOL     OW28108   3.652   0.665   1.771 -0.2565 -0.4002 -0.3752
 5550SOL    HW128109   3.576   0.620   1.808  0.2067 -0.0397  1.0140
 5550SOL    HW228110   3.604   0.723   1.712  1.9787 -0.8288 -2.6160
 5551SOL     OW28111   4.725   1.422   4.731  0.0464 -0.1439 -0.4795
 5551SOL    HW128112   0.051   1.473   4.669 -1.3564  2.2417  0.2872
 5551SOL    HW228113   4.718   1.492   4.796 -0.1366 -0.0807 -0.5694
 5552SOL     OW28114   2.048   3.146   8.900  0.6673 -0.1904  0.2850
 5552SOL    HW128115   2.083   3.077   8.845  0.1608 -0.7158  0.6244
 5552SOL    HW228116   1.986   3.186   8.839 -0.3522 -1.7575  0.3041
 5553SOL     OW28117   3.380   0.658   9.779  0.1931  0.6388 -0.4478
 5553SOL    HW128118   3.333   0.608   9.712 -1.4562  2.3882 -0.6032
 5553SOL    HW228119   3.350   0.744   9.749 -1.8447  0.0740 -0.0499
 5554SOL     OW28120   2.124   1.140   6.685 -0.0221  0.5675  0.0538
 5554SOL    HW128121   2.054   1.143   6.751 -1.1115 -0.4511 -1.0543
 5554SOL    HW228122   2.077   1.112   6.606 -0.1410  0.5767  0.1212
 5555SOL     OW28123   1.784   2.386   0.637  0.9367 -0.4854  0.1487
 5555SOL    HW128124   1.711   2.448   0.629  2.1481  1.0049  0.6477
 5555SOL    HW228125   1.830   2.436   0.705  0.7270 -0.2241  0.0994
 5556SOL     OW28126   2.206   3.072   9.507  0.6960 -0.7407 -0.6801
 5556SOL    HW128127   2.217   3.107   9.419  2.0792 -0.3941 -0.3696
 5556SOL    HW228128   2.110   3.068   9.512  0.7073 -0.3317 -0.0764
 5557SOL     OW28129   2.258   1.361   7.862  0.5535 -0.1407 -0.5070
 5557SOL    HW128130   2.184   1.422   7.861  1.0636  0.4977  1.2879
 5557SOL    HW228131   2.247   1.323   7.949 -2.3734 -0.9032 -1.1893
 5558SOL     OW28132   3.747   0.464   3.891  0.5906 -0.1408 -0.0000
 5558SOL    HW128133   3.824   0.519   3.903  0.6726 -0.3489  0.4356
 5558SOL    HW228134   3.699   0.510   3.822 -1.2696 -1.8345  0.1565
 5559SOL     OW28135   3.048   4.150   5.843 -0.3916 -0.3414  0.9968
 5559SOL    HW128136   3.069   4.161   5.751 -1.9956  0.9120  0.7860
 5559SOL    HW228137   3.133   4.115   5.869 -0.1651 -1.2818 -1.0163
 5560SOL     OW28138   2.102   3.821   2.818  0.5210 -0.6785 -0.0476
 5560SOL    HW128139   2.144   3.899   2.780  1.9229 -0.1969  2.4914
 5560SOL    HW228140   2.023   3.858   2.858  2.8109  0.9765  2.9571
 5561SOL     OW28141   1.706   1.839   4.042  0.0241  0.2883 -0.0692
 5561SOL    HW128142   1.653   1.918   4.037 -1.4793 -0.8509 -2.2067
 5561SOL    HW228143   1.645   1.783   3.993  1.6356  0.4387 -2.1950
 5562SOL     OW28144   3.738   0.083   3.203 -1.1000  0.0730 -0.0972
 5562SOL    HW128145   3.739   0.178   3.188 -1.0235  0.1627  0.4497
 5562SOL    HW228146   3.657   0.080   3.254 -1.0989  2.2630  0.0399
 5563SOL     OW28147   0.120   3.221   7.355 -0.2301  0.1213  0.2151
 5563SOL    HW128148   0.213   3.206   7.339 -0.2964 -1.5726  1.4431
 5563SOL    HW228149   0.104   3.128   7.341  1.1559 -0.2521  1.1482
 5564SOL     OW28150   4.315   0.601   3.388 -0.1159  0.6220  0.0691
 5564SOL    HW128151   4.274   0.648   3.315 -0.9555 -0.1676  0.0383
 5564SOL    HW228152   4.355   0.664   3.447  2.2993 -1.7269  0.9179
 5565SOL     OW28153   0.938   2.374  13.945 -0.2168 -0.3513  0.1848
 5565SOL    HW128154   0.921   2.314  13.873 -0.8720  0.6487 -0.4925
 5565SOL    HW228155   1.022   2.413  13.920 -0.1033  1.2937  3.0447
 5566SOL     OW28156   1.891   1.216   7.151  0.4467  0.3235 -0.3972
 5566SOL    HW128157   1.942   1.224   7.231  0.7546 -0.2206 -0.5436
 5566SOL    HW228158   1.850   1.130   7.150 -1.1633  1.0976 -2.1428
 5567SOL     OW28159   2.769   0.477   8.468  0.3654 -0.0722 -0.1623
 5567SOL    HW128160   2.772   0.486   8.563 -1.0849 -0.1801 -0.1196
 5567SOL    HW228161   2.733   0.563   8.443  0.7791 -0.7689 -3.1789
 5568SOL     OW28162   3.161   4.639   7.567 -0.5072 -0.1883  0.0323
 5568SOL    HW128163   3.150   0.009   7.574 -0.0528 -0.2250  1.3090
 5568SOL    HW228164   3.140   4.601   7.652  1.2889 -2.4713 -0.5391
 5569SOL     OW28165   4.544   0.721   8.708  0.0641  0.5603 -0.3666
 5569SOL    HW128166   4.613   0.782   8.734  1.0448 -1.1685  1.0615
 5569SOL    HW228167   4.558   0.652   8.773  2.5920  0.2281 -1.2721
 5570SOL     OW28168   3.233   3.918  16.585  0.4241 -0.3077  0.0018
 5570SOL    HW128169   3.200   3.994  16.633  0.2588 -2.0825  2.7322
 5570SOL    HW228170   3.281   3.864  16.649 -1.2860 -1.4968  0.2727
 5571SOL     OW28171   2.322   0.536   3.298 -0.0461 -0.4043 -0.5807
 5571SOL    HW128172   2.290   0.604   3.358  0.3236  0.1242 -0.9803
 5571SOL    HW228173   2.391   0.485   3.340 -2.0744 -0.5973  2.5460
 5572SOL     OW28174   4.239   4.508   5.966  0.4005  0.0681  0.0525
 5572SOL    HW128175   4.165   4.453   5.994  0.2054 -0.2050 -0.9967
 5572SOL    HW228176   4.227   4.500   5.871  2.0793  0.2748 -0.1663
 5573SOL     OW28177   2.580   2.005   7.167  0.0089 -0.3672  0.4668
 5573SOL    HW128178   2.556   1.930   7.113 -0.5404 -1.6795  2.5347
 5573SOL    HW228179   2.663   1.966   7.194  0.6702  0.3989 -0.4588
 5574SOL     OW28180   4.371   3.832  14.527  0.5554 -0.7968 -0.0420
 5574SOL    HW128181   4.389   3.925  14.511  1.5992 -0.8603  0.7600
 5574SOL    HW228182   4.452   3.804  14.570  1.4527  2.8250  0.6271
 5575SOL     OW28183   3.491   4.655  10.360 -0.0561 -0.5295 -0.0343
 5575SOL    HW128184   3.467   4.723  10.423 -1.5142 -1.7549  0.7204
 5575SOL    HW228185   3.537   4.707  10.293  0.6670  0.2862  1.0887
 5576SOL     OW28186   1.326   1.340   5.442 -0.4061  0.2012  0.0355
 5576SOL    HW128187   1.355   1.408   5.503  0.3806  0.0543 -0.1759
 5576SOL    HW228188   1.398   1.277   5.448 -1.3124 -0.8755 -0.3988
 5577SOL     OW28189   3.662   0.392   1.095 -0.1892  0.1539  0.0105
 5577SOL    HW128190   3.714   0.333   1.040 -0.0957  0.5454 -0.3190
 5577SOL    HW228191   3.656   0.339   1.175 -1.5005  1.9291  1.0835
 5578SOL     OW28192   1.763   3.012  12.297 -0.6313  0.1212  0.4132
 5578SOL    HW128193   1.761   3.037  12.205  0.3947 -0.8715  0.1173
 5578SOL    HW228194   1.856   2.997  12.315 -0.4282  1.1112  0.1969
 5579SOL     OW28195   0.423   2.016  15.841 -0.2288 -0.5509 -0.2113
 5579SOL    HW128196   0.487   2.075  15.801 -1.6427  1.5864  0.7192
 5579SOL    HW228197   0.394   1.954  15.774  2.1291 -1.7667 -0.1364
 5580SOL     OW28198   1.029   4.053  13.758 -0.2978  0.2663  0.2036
 5580SOL    HW128199   1.060   4.028  13.845  1.4650 -0.2641 -0.5810
 5580SOL    HW228200   0.940   4.082  13.778  0.8823  2.3051  2.4824
 5581SOL     OW28201   4.526   2.775   2.184  0.0866 -0.7656  0.0876
 5581SOL    HW128202   4.588   2.727   2.129 -0.3691 -1.5930  0.3012
 5581SOL    HW228203   4.581   2.792   2.260 -2.1662  1.7286  1.1679
 5582SOL     OW28204   0.881   3.074   2.081  0.0316  0.0718  0.2310
 5582SOL    HW128205   0.798   3.049   2.038 -1.4088  0.6090  2.6921
 5582SOL    HW228206   0.858   3.162   2.110 -1.4097  0.8252 -3.0925
 5583SOL     OW28207   4.100   1.725   6.089  0.1521  0.3378  0.6901
 5583SOL    HW128208   4.018   1.683   6.115  0.2672 -1.2960 -1.6792
 5583SOL    HW228209   4.167   1.676   6.137 -0.1879 -0.7367  0.0562
 5584SOL     OW28210   1.610   2.935  14.570  0.2377 -0.7500  0.6230
 5584SOL    HW128211   1.545   2.913  14.504  0.5841  1.5810 -0.5023
 5584SOL    HW228212   1.694   2.901  14.537  1.4681  1.1198  1.7976
 5585SOL     OW28213   3.924   3.627   8.047  0.1039 -0.1593  0.6517
 5585SOL    HW128214   4.008   3.608   8.089 -0.4464  0.2433  1.9310
 5585SOL    HW228215   3.867   3.639   8.123  0.5529  0.0108  0.9597
 5586SOL     OW28216   4.436   1.393  11.726  0.4995  0.2648 -0.0285
 5586SOL    HW128217   4.426   1.305  11.690 -3.8534  0.5315  0.5065
 5586SOL    HW228218   4.527   1.383  11.752 -0.1148 -1.2253  1.5145
 5587SOL     OW28219   2.754   4.340   9.121 -0.4645 -0.2571 -0.0238
 5587SOL    HW128220   2.823   4.329   9.187  0.7417 -0.0541 -1.2647
 5587SOL    HW228221   2.774   4.421   9.075  2.6440 -1.4019 -0.6527
 5588SOL     OW28222   2.702   0.169  10.106 -0.2442  0.1026  0.1148
 5588SOL    HW128223   2.616   0.128  10.108 -0.1382 -0.0314  2.2615
 5588SOL    HW228224   2.748   0.125  10.035  0.1537  1.7928 -0.6771
 5589SOL     OW28225   1.744   2.543   9.585 -0.0553 -0.5926  0.0725
 5589SOL    HW128226   1.680   2.488   9.631 -0.1999  1.1514  1.9617
 5589SOL    HW228227   1.720   2.634   9.605 -1.9962 -1.2849  0.8483
 5590SOL     OW28228   3.305   1.101   8.863 -0.3114 -0.4531  0.1649
 5590SOL    HW128229   3.345   1.188   8.858 -1.0305 -0.3122 -3.8754
 5590SOL    HW228230   3.268   1.089   8.775 -0.1357  1.0864 -0.1191
 5591SOL     OW28231   0.905   3.002   5.408 -0.1750 -0.1788 -0.0766
 5591SOL    HW128232   0.848   3.066   5.365  0.6995 -0.8306 -2.1694
 5591SOL    HW228233   0.861   2.979   5.490  1.7580  1.6179  1.4810
 5592SOL     OW28234   1.129   4.418   3.252 -0.2064  1.3486  0.4234
 5592SOL    HW128235   1.146   4.396   3.160 -0.3021  0.7511  0.5545
 5592SOL    HW228236   1.045   4.375   3.265  0.8664 -1.3463 -1.6219
 5593SOL     OW28237   3.652   3.888   1.838 -0.5338 -0.6240 -0.6034
 5593SOL    HW128238   3.743   3.906   1.861 -1.2528  1.5207  0.5581
 5593SOL    HW228239   3.611   3.842   1.911 -0.1404  0.6827  0.4415
 5594SOL     OW28240   4.570   1.184  16.158  0.1461 -0.6058  0.7618
 5594SOL    HW128241   4.580   1.109  16.098  0.8688 -0.5795  0.8546
 5594SOL    HW228242   4.556   1.253  16.094 -0.5622 -0.4736  1.0602
 5595SOL     OW28243   2.281   1.950   7.408  0.2371 -0.1642  0.0060
 5595SOL    HW128244   2.212   1.916   7.465  1.1400 -0.5702  0.8553
 5595SOL    HW228245   2.234   2.027   7.377  1.6803  0.8069  0.2104
 5596SOL     OW28246   1.752   1.828   6.670 -0.2952  0.2556  0.3238
 5596SOL    HW128247   1.707   1.806   6.589  1.3895 -0.3280 -0.4608
 5596SOL    HW228248   1.732   1.743   6.709 -1.4200 -0.5861 -2.1152
 5597SOL     OW28249   1.154   3.602  12.122 -0.2889 -0.4555  0.2989
 5597SOL    HW128250   1.136   3.534  12.057 -0.5815  0.1937 -0.2948
 5597SOL    HW228251   1.144   3.560  12.208  0.3298  0.3463  0.7543
 5598SOL     OW28252   1.140   2.095   4.108 -0.2092 -0.5155  0.1039
 5598SOL    HW128253   1.096   2.115   4.025  0.3539 -0.1231 -0.0973
 5598SOL    HW228254   1.221   2.146   4.111  0.3623 -1.3032 -2.0654
 5599SOL     OW28255   4.274   3.675  11.899  0.2753 -0.2860 -0.1380
 5599SOL    HW128256   4.185   3.684  11.933 -0.4036  1.2937 -2.2830
 5599SOL    HW228257   4.274   3.675  11.803 -0.2481  0.5040 -0.1366
 5600SOL     OW28258   1.291   3.923  11.702  0.2078  0.0414  0.2235
 5600SOL    HW128259   1.297   4.018  11.693 -0.9340 -0.0473 -1.6354
 5600SOL    HW228260   1.384   3.901  11.708  0.3060  0.0949 -0.9606
 5601SOL     OW28261   1.954   2.447   5.460 -0.5416 -0.5681  0.1361
 5601SOL    HW128262   1.925   2.533   5.492 -0.3627  0.2380 -1.9107
 5601SOL    HW228263   2.020   2.429   5.527  1.1715  2.0249 -0.8631
 5602SOL     OW28264   3.247   1.218   5.549  0.0052  0.4973  0.8192
 5602SOL    HW128265   3.260   1.154   5.478 -1.3753  0.7271  0.3608
 5602SOL    HW228266   3.270   1.170   5.628 -0.3618 -3.1030 -1.2574
 5603SOL     OW28267   2.652   2.052   3.855 -0.3281 -0.1428 -0.1592
 5603SOL    HW128268   2.616   1.966   3.875 -0.6823  0.6797  2.6871
 5603SOL    HW228269   2.600   2.069   3.776  0.7287 -1.4741 -1.1379
 5604SOL     OW28270   2.621   0.232   5.052 -0.2228 -0.4727  0.0877
 5604SOL    HW128271   2.536   0.225   5.095  0.1277 -1.1617  0.6643
 5604SOL    HW228272   2.627   0.327   5.040  0.9345 -0.8722 -2.4567
 5605SOL     OW28273   2.171   3.961  13.405  0.0971 -0.0029 -0.2304
 5605SOL    HW128274   2.157   3.873  13.370 -0.0256  0.5847 -1.6204
 5605SOL    HW228275   2.257   3.989  13.374 -0.0916  1.9082  0.9971
 5606SOL     OW28276   0.076   2.838  12.935  0.4352  0.3935  0.2818
 5606SOL    HW128277   0.067   2.872  13.024 -0.5916  2.4848 -0.6053
 5606SOL    HW228278   0.103   2.916  12.887  1.7241  0.8936  1.8176
 5607SOL     OW28279   3.124   2.766  17.215  0.0716  0.1256 -0.2687
 5607SOL    HW128280   3.126   2.851  17.259 -2.0818  0.6290 -1.1716
 5607SOL    HW228281   3.036   2.765  17.179 -1.0107 -0.8165  2.4266
 5608SOL     OW28282   1.427   1.567  14.373  0.3706 -0.0291  0.0370
 5608SOL    HW128283   1.430   1.568  14.277  0.8982 -0.0561  0.0537
 5608SOL    HW228284   1.336   1.544  14.388  0.1811  0.0914 -0.9111
 5609SOL     OW28285   2.284   2.122   5.447 -0.2556  0.0152  0.0998
 5609SOL    HW128286   2.192   2.137   5.424 -0.7314  0.7007  2.4734
 5609SOL    HW228287   2.317   2.211   5.436 -2.7736  0.9720  0.1510
 5610SOL     OW28288   2.604   1.431  17.056  0.0190  0.4293 -0.1547
 5610SOL    HW128289   2.509   1.415  17.062 -0.0829  0.4958 -1.5795
 5610SOL    HW228290   2.604   1.511  17.109 -0.8534  1.8085 -2.2318
 5611SOL     OW28291   4.442   0.066   3.036  0.2891  0.4137 -0.0384
 5611SOL    HW128292   4.528   0.030   3.015 -0.5669  0.1248 -3.0713
 5611SOL    HW228293   4.385   4.723   3.004  0.2960  0.1674  0.4707
 5612SOL     OW28294   0.937   0.058  11.365 -0.3680 -0.4018  0.0560
 5612SOL    HW128295   0.901   0.001  11.298 -4.4236  2.3403 -0.1143
 5612SOL    HW228296   0.944   0.140  11.316 -0.0944 -1.1563 -1.1712
 5613SOL     OW28297   3.946   0.888  14.263 -0.0242 -0.2287  0.4872
 5613SOL    HW128298   3.911   0.804  14.295  2.1834 -1.8892 -1.4601
 5613SOL    HW228299   3.943   0.873  14.168 -0.5072  1.1599  0.2809
 5614SOL     OW28300   1.376   0.371   0.257 -0.3903 -0.0514  0.6266
 5614SOL    HW128301   1.378   0.296   0.317  1.7357 -0.9241 -0.5553
 5614SOL    HW228302   1.460   0.412   0.274 -0.0326  0.0742 -1.4305
 5615SOL     OW28303   1.939   1.967   2.372 -0.2312 -0.2600 -0.1247
 5615SOL    HW128304   1.948   1.909   2.296  0.7086  1.6405 -1.4762
 5615SOL    HW228305   1.953   2.053   2.333  0.2588 -0.4183 -0.3093
 5616SOL     OW28306   2.592   4.306   5.965  0.3293 -0.0320  0.1284
 5616SOL    HW128307   2.572   4.345   6.050 -1.9187  1.0871 -0.9309
 5616SOL    HW228308   2.648   4.378   5.934  0.5016 -1.3957 -2.7173
 5617SOL     OW28309   1.065   0.153   6.882 -0.0585  0.5436  0.0461
 5617SOL    HW128310   1.058   0.088   6.953  1.0731  1.2703  0.8168
 5617SOL    HW228311   1.022   0.112   6.807  1.8114  1.7816 -1.6907
 5618SOL     OW28312   2.714   4.457  16.938  0.8456  0.4355 -0.1057
 5618SOL    HW128313   2.768   4.380  16.953  0.3345  0.2293  0.6670
 5618SOL    HW228314   2.629   4.413  16.929  1.1461  0.1608 -1.7011
 5619SOL     OW28315   2.837   1.665   4.499 -0.1081 -0.9273 -0.2433
 5619SOL    HW128316   2.823   1.650   4.593  2.4222  0.2232  0.2987
 5619SOL    HW228317   2.756   1.638   4.456 -1.2718  0.9964  0.7154
 5620SOL     OW28318   4.354   3.716  11.127 -0.9087 -0.0939  0.0707
 5620SOL    HW128319   4.398   3.634  11.106 -0.8691 -0.2338  0.7140
 5620SOL    HW228320   4.280   3.724  11.067 -0.6096 -1.4450 -0.4831
 5621SOL     OW28321   2.779   3.300  10.331 -0.0146  0.4737  0.2173
 5621SOL    HW128322   2.765   3.304  10.425  0.9131  0.4377  0.3523
 5621SOL    HW228323   2.797   3.207  10.321 -0.4291  0.4560 -0.3906
 5622SOL     OW28324   3.621   1.728  11.000 -0.1164  0.1988  0.7580
 5622SOL    HW128325   3.590   1.810  10.963  0.2729  0.1561  0.3315
 5622SOL    HW228326   3.610   1.669  10.925 -2.2720  2.3024 -0.5819
 5623SOL     OW28327   1.369   4.454   6.553  0.6490 -0.4303 -0.3801
 5623SOL    HW128328   1.317   4.381   6.586 -0.2627 -0.3736 -1.6609
 5623SOL    HW228329   1.426   4.410   6.490  0.9108  0.8829 -1.0411
 5624SOL     OW28330   0.177   0.333   6.901  1.1435  0.5796  0.0239
 5624SOL    HW128331   0.269   0.358   6.890  1.2835  1.3734  3.0859
 5624SOL    HW228332   0.141   0.416   6.933 -0.7695  0.5102 -1.9451
 5625SOL     OW28333   3.658   4.557   6.602  0.6342  0.0262 -0.1378
 5625SOL    HW128334   3.640   4.528   6.513  0.4500  2.5505 -0.9187
 5625SOL    HW228335   3.567   4.572   6.628  1.0555  1.6773  0.3637
 5626SOL     OW28336   2.234   1.273  14.235 -0.1988  0.3122  0.3916
 5626SOL    HW128337   2.161   1.248  14.179  0.5687 -2.1462  0.4805
 5626SOL    HW228338   2.261   1.357  14.199 -1.1171  0.2895 -0.3410
 5627SOL     OW28339   2.888   3.871   1.586 -0.9689 -0.2040 -0.2065
 5627SOL    HW128340   2.935   3.947   1.551 -0.6522  0.0732  0.8150
 5627SOL    HW228341   2.842   3.909   1.661  0.6034 -0.5771  0.9319
 5628SOL     OW28342   0.899   4.602   9.421  0.5768  0.6357 -0.3131
 5628SOL    HW128343   0.898   4.691   9.456 -0.0565 -0.2497  1.9559
 5628SOL    HW228344   0.870   4.554   9.499 -0.1793  1.1193 -0.2995
 5629SOL     OW28345   2.299   2.550   2.901 -0.0231  0.0302 -0.3682
 5629SOL    HW128346   2.221   2.499   2.878 -0.9311  1.0889  0.3669
 5629SOL    HW228347   2.335   2.601   2.829 -0.0230  0.3245 -0.1603
 5630SOL     OW28348   3.439   0.413  12.330 -0.1404 -0.2459  0.2679
 5630SOL    HW128349   3.446   0.337  12.273  0.1766 -1.0039  1.3222
 5630SOL    HW228350   3.532   0.434  12.333  0.2128 -2.0940  2.3500
 5631SOL     OW28351   1.929   0.491   7.669  0.2070  0.0877  0.0450
 5631SOL    HW128352   1.977   0.514   7.748  2.0808 -0.8011 -0.8236
 5631SOL    HW228353   1.864   0.437   7.712  0.1560  0.6405  0.6553
 5632SOL     OW28354   1.556   2.851  12.349  0.0937 -0.0272 -0.4787
 5632SOL    HW128355   1.631   2.911  12.350 -1.5780  2.0897 -1.6967
 5632SOL    HW228356   1.551   2.835  12.443 -0.2879  3.6973  0.1280
 5633SOL     OW28357   4.609   1.290   5.490 -0.0132 -0.0386  0.2251
 5633SOL    HW128358   4.556   1.293   5.411  0.1102 -0.0512  0.1418
 5633SOL    HW228359   4.697   1.293   5.454 -0.1376 -0.0257 -0.0778
 5634SOL     OW28360   2.699   4.241  14.388 -0.1646 -0.0453  0.4054
 5634SOL    HW128361   2.734   4.153  14.378  0.0905 -0.0075  0.9455
 5634SOL    HW228362   2.712   4.259  14.481 -0.6300 -0.4082  0.5394
 5635SOL     OW28363   4.399   4.250   6.638  0.2673 -0.1763 -0.3718
 5635SOL    HW128364   4.360   4.172   6.598  0.5792 -2.0532  2.9822
 5635SOL    HW228365   4.330   4.315   6.620  0.2998  1.1743  4.3802
 5636SOL     OW28366   2.622   2.685   5.636  0.4836  0.3296 -0.3348
 5636SOL    HW128367   2.589   2.670   5.547 -1.8861 -0.7633  0.7339
 5636SOL    HW228368   2.715   2.695   5.619  0.3443 -0.2978 -1.5459
 5637SOL     OW28369   3.990   4.271   4.170 -0.1754  0.4358  0.7523
 5637SOL    HW128370   3.979   4.195   4.114  1.2521 -0.1378  1.2556
 5637SOL    HW228371   3.964   4.230   4.253  0.7172 -1.9192 -0.1351
 5638SOL     OW28372   1.325   2.271   6.806  0.6669  0.2202  0.2526
 5638SOL    HW128373   1.268   2.235   6.738 -1.2408 -1.0121  2.4857
 5638SOL    HW228374   1.403   2.284   6.753 -0.0321  1.0786 -0.5623
 5639SOL     OW28375   1.165   0.602   5.095  0.1597  0.4233  0.2019
 5639SOL    HW128376   1.140   0.615   5.186 -2.8271  0.6634 -0.6562
 5639SOL    HW228377   1.239   0.541   5.102 -0.8773 -0.7456  0.8377
 5640SOL     OW28378   1.354   2.845   3.415 -0.8304  0.2764 -0.3035
 5640SOL    HW128379   1.335   2.752   3.422  1.6140 -0.2823 -1.1434
 5640SOL    HW228380   1.275   2.881   3.455 -0.0239  1.1734  0.4847
 5641SOL     OW28381   2.606   3.710  14.340 -0.1269 -0.0212  0.0009
 5641SOL    HW128382   2.629   3.622  14.308  2.9202  0.6011  0.4907
 5641SOL    HW228383   2.633   3.717  14.431 -0.2816 -1.2143  0.1487
 5642SOL     OW28384   0.459   2.098  10.741  0.8696 -0.0900  0.4312
 5642SOL    HW128385   0.483   2.011  10.774  1.9340 -0.7790 -2.1315
 5642SOL    HW228386   0.389   2.075  10.680  1.6329  2.3960 -1.3835
 5643SOL     OW28387   0.550   1.565   8.742 -0.0144  0.1841 -0.0325
 5643SOL    HW128388   0.558   1.571   8.837 -0.6177  2.6952 -0.1565
 5643SOL    HW228389   0.645   1.559   8.728 -0.0722  0.3364 -0.4749
 5644SOL     OW28390   2.077   1.484   6.673  0.2651 -0.2171  0.1548
 5644SOL    HW128391   2.034   1.569   6.685  1.6526  0.3749  0.9965
 5644SOL    HW228392   2.162   1.509   6.637 -0.0284 -2.6042 -2.1757
 5645SOL     OW28393   4.128   0.911  11.293  0.1250 -0.3801  0.7402
 5645SOL    HW128394   4.152   0.823  11.263 -1.3014 -0.3397 -0.5154
 5645SOL    HW228395   4.067   0.881  11.360 -2.2659  1.5532 -0.5880
 5646SOL     OW28396   0.106   3.928   6.429  0.1678  0.5011  0.3242
 5646SOL    HW128397   0.058   3.853   6.394 -1.4879  1.1574  1.1981
 5646SOL    HW228398   0.151   3.949   6.347  2.1448  2.6288  1.9902
 5647SOL     OW28399   2.158   2.207   9.716  0.7173  0.8371 -0.4535
 5647SOL    HW128400   2.198   2.196   9.630 -0.2000  0.7021 -0.8633
 5647SOL    HW228401   2.221   2.245   9.778  0.0689  0.5088  0.4025
 5648SOL     OW28402   2.326   3.215   9.918 -0.0499 -0.0464  0.1501
 5648SOL    HW128403   2.242   3.169   9.917 -0.7144  1.1234  1.4025
 5648SOL    HW228404   2.380   3.144   9.954  0.2741  0.2716  0.2861
 5649SOL     OW28405   1.626   2.291   6.280  0.2557  0.7166 -0.6826
 5649SOL    HW128406   1.542   2.245   6.271  0.5656  0.3081 -1.5179
 5649SOL    HW228407   1.657   2.309   6.192  3.8931 -1.8156  0.0910
 5650SOL     OW28408   3.223   3.749   2.846  0.4416 -0.0400  0.0626
 5650SOL    HW128409   3.260   3.831   2.815  0.0594 -0.6309 -2.0197
 5650SOL    HW228410   3.134   3.773   2.871 -0.8533 -0.2483 -4.2174
 5651SOL     OW28411   4.415   1.519   7.527 -0.3467  0.5727 -0.4762
 5651SOL    HW128412   4.376   1.604   7.545 -0.5290 -0.1133  2.4671
 5651SOL    HW228413   4.469   1.544   7.452 -1.8997 -1.2066 -2.2006
 5652SOL     OW28414   4.074   0.060   6.880 -0.0186 -0.2402 -0.5150
 5652SOL    HW128415   3.990   0.106   6.878 -0.2469 -0.6589 -0.6712
 5652SOL    HW228416   4.101   0.107   6.959  1.1037 -0.8106 -0.5552
 5653SOL     OW28417   0.175   1.626   6.546  0.1017 -0.0259  0.2973
 5653SOL    HW128418   0.246   1.634   6.610 -0.3215 -1.0008  0.8816
 5653SOL    HW228419   0.206   1.701   6.494  0.2905  0.4024  1.0329
 5654SOL     OW28420   1.906   3.904  10.715 -0.4607  0.1904 -0.4254
 5654SOL    HW128421   1.940   3.963  10.782 -2.5499 -0.0638  0.8756
 5654SOL    HW228422   1.954   3.825  10.743  0.2961 -0.1231 -2.6078
 5655SOL     OW28423   1.304   4.075   2.920  0.1865  0.4157  0.5146
 5655SOL    HW128424   1.375   4.054   2.860  0.0943  1.6598 -0.0246
 5655SOL    HW228425   1.236   4.010   2.903  0.3964  0.7889 -1.7737
 5656SOL     OW28426   0.602   2.021  12.080  0.3445  0.2528 -0.6495
 5656SOL    HW128427   0.523   1.988  12.122  0.6770  0.1957 -0.0703
 5656SOL    HW228428   0.669   2.002  12.146  1.4367  0.2903 -1.7408
 5657SOL     OW28429   3.355   1.410   8.437 -0.5956 -0.1486  0.0448
 5657SOL    HW128430   3.383   1.499   8.414 -1.1243  0.2362  0.8771
 5657SOL    HW228431   3.266   1.423   8.402 -0.2406 -0.5964 -1.0259
 5658SOL     OW28432   1.338   2.953  11.255 -0.0588  0.3598 -0.1519
 5658SOL    HW128433   1.428   2.947  11.287  0.8727 -1.9992 -3.2507
 5658SOL    HW228434   1.354   2.903  11.175 -0.9983 -0.6159  0.2637
 5659SOL     OW28435   1.986   1.475   7.858  0.3095 -0.1793 -0.3730
 5659SOL    HW128436   1.931   1.527   7.800 -0.0508 -1.3225 -1.0508
 5659SOL    HW228437   1.948   1.388   7.849 -0.2103  0.0338 -0.2200
 5660SOL     OW28438   1.314   1.653   8.691  0.0744  0.0822  0.3692
 5660SOL    HW128439   1.337   1.611   8.608  1.9186  1.3003  0.2600
 5660SOL    HW228440   1.350   1.597   8.761  3.4352 -2.1157 -3.0915
 5661SOL     OW28441   4.712   4.390  16.545  0.4402 -0.5883  0.0807
 5661SOL    HW128442   0.059   4.348  16.592  0.3592 -0.7492  0.0615
 5661SOL    HW228443   4.719   4.371  16.452 -2.6153 -0.5226 -0.1553
 5662SOL     OW28444   2.400   3.147   1.706 -0.6068 -0.3711  0.1562
 5662SOL    HW128445   2.400   3.193   1.622  2.4026 -0.3520  0.1828
 5662SOL    HW228446   2.341   3.073   1.689 -0.8198  0.6518 -3.5480
 5663SOL     OW28447   2.374   4.638  16.064  0.5997 -0.4069 -0.0510
 5663SOL    HW128448   2.423   4.668  16.141  2.4201 -2.7018 -0.3318
 5663SOL    HW228449   2.344   4.724  16.033  2.7935 -0.4632 -2.3397
 5664SOL     OW28450   0.404   4.239   4.740  0.0449 -0.0676  0.1022
 5664SOL    HW128451   0.401   4.316   4.796 -0.2582 -1.0080  1.3647
 5664SOL    HW228452   0.432   4.176   4.807  0.4009 -0.0014  0.0183
 5665SOL     OW28453   4.709   0.271   7.513 -0.1082 -0.3169 -0.1250
 5665SOL    HW128454   0.038   0.251   7.589 -1.2845 -2.6118  0.0997
 5665SOL    HW228455   4.666   0.349   7.547 -0.1556  0.2664 -1.4917
 5666SOL     OW28456   1.411   1.481   2.303 -0.1323 -0.2735  0.2710
 5666SOL    HW128457   1.394   1.495   2.209  1.8359 -2.6808 -0.4339
 5666SOL    HW228458   1.491   1.533   2.309 -0.0690 -0.5638  1.9193
 5667SOL     OW28459   1.634   0.953  12.130  0.7062 -0.2550 -0.2331
 5667SOL    HW128460   1.683   0.879  12.092  0.1403 -0.4359 -0.6093
 5667SOL    HW228461   1.700   1.021  12.137  0.6395 -0.1023 -1.0279
 5668SOL     OW28462   3.568   4.057   2.711 -0.9276  0.1730 -0.1549
 5668SOL    HW128463   3.659   4.051   2.681 -0.8861 -0.0677  0.0179
 5668SOL    HW228464   3.552   4.150   2.727  0.1145  0.5632 -1.3956
 5669SOL     OW28465   0.050   1.944   5.284 -0.8011  0.9413 -0.3227
 5669SOL    HW128466   0.067   2.035   5.306 -0.1016  0.7332  0.0062
 5669SOL    HW228467   4.684   1.955   5.308 -0.7485 -0.4086  0.5251
 5670SOL     OW28468   0.111   1.237   5.357  0.6355 -0.1440  0.5014
 5670SOL    HW128469   0.112   1.247   5.262 -1.4911  0.9753  0.5924
 5670SOL    HW228470   0.187   1.182   5.377  2.5994  2.4062 -0.0177
 5671SOL     OW28471   4.161   2.276   4.964  0.3147  0.1194 -0.3322
 5671SOL    HW128472   4.081   2.285   5.015  2.1138 -0.2607  2.5434
 5671SOL    HW228473   4.224   2.242   5.027  0.4676 -1.7048 -1.4710
 5672SOL     OW28474   2.734   1.520  15.063 -0.4359  0.2615  0.0605
 5672SOL    HW128475   2.768   1.579  14.995  1.1927 -0.0514  0.6058
 5672SOL    HW228476   2.658   1.478  15.024  1.1923 -1.7985 -0.9170
 5673SOL     OW28477   3.860   4.723   9.059 -0.2428 -0.4464 -0.0153
 5673SOL    HW128478   3.803   4.661   9.104 -0.6310  0.1876  0.3690
 5673SOL    HW228479   3.819   4.714   8.973 -0.6967 -0.4885  0.2095
 5674SOL     OW28480   2.901   0.037   6.798  0.6477  0.0458 -0.2055
 5674SOL    HW128481   2.873   0.124   6.768 -2.1710 -0.3341  1.3243
 5674SOL    HW228482   2.823   4.721   6.836 -1.0360  1.1488 -2.4381
 5675SOL     OW28483   2.109   0.497   9.518 -0.1933  0.2811  0.1355
 5675SOL    HW128484   2.168   0.448   9.461  0.0274 -0.0499  0.6464
 5675SOL    HW228485   2.077   0.571   9.466 -0.7365  0.7681  1.1533
 5676SOL     OW28486   3.161   2.063  17.644  0.0237 -0.4957  0.4660
 5676SOL    HW128487   3.238   2.098  17.600 -1.3003  0.6527 -0.9469
 5676SOL    HW228488   3.124   2.148  17.667  0.4530 -0.4904  1.1177
 5677SOL     OW28489   2.727   2.682   2.496 -0.1544  0.2260  0.1116
 5677SOL    HW128490   2.658   2.747   2.512  1.7070  2.4733 -0.8233
 5677SOL    HW228491   2.793   2.749   2.513 -1.5220  1.6159 -0.0623
 5678SOL     OW28492   1.927   4.503   7.525  0.2326  0.2749  0.0881
 5678SOL    HW128493   1.924   4.440   7.597  0.7409 -0.6631 -0.7065
 5678SOL    HW228494   1.837   4.484   7.497 -0.0316 -0.0799  1.2073
 5679SOL     OW28495   0.641   4.562   8.324  0.0275  0.5002 -0.1263
 5679SOL    HW128496   0.674   4.545   8.412 -0.6834 -0.2425  0.0012
 5679SOL    HW228497   0.627   4.655   8.340  0.6539  0.8150 -1.4242
 5680SOL     OW28498   2.718   1.043   8.292 -0.2221  0.7943  0.3193
 5680SOL    HW128499   2.778   1.062   8.364  0.9121 -0.5189 -0.2563
 5680SOL    HW228500   2.640   1.012   8.338 -1.1287  0.4913 -1.4408
 5681SOL     OW28501   1.420   2.827   7.902 -0.1141  0.1770  0.2492
 5681SOL    HW128502   1.338   2.876   7.899  0.4345  1.0767 -0.1878
 5681SOL    HW228503   1.407   2.795   7.991  2.0401 -0.2671  0.4081
 5682SOL     OW28504   1.274   0.136   5.998 -0.0287 -0.0054  0.2344
 5682SOL    HW128505   1.262   0.041   6.001  0.8571 -0.0877  0.9843
 5682SOL    HW228506   1.297   0.158   6.088  0.7481  1.2755 -0.2667
 5683SOL     OW28507   2.021   3.479   0.200 -0.4619 -0.1410 -0.7152
 5683SOL    HW128508   2.024   3.495   0.105 -1.0317  2.5280 -0.2964
 5683SOL    HW228509   1.927   3.496   0.211 -0.1480  2.4305 -1.8556
 5684SOL     OW28510   4.593   2.899  12.386 -0.2789  0.0761 -0.3018
 5684SOL    HW128511   4.509   2.945  12.391  0.3423  1.1694  0.1718
 5684SOL    HW228512   4.567   2.818  12.430  0.5867 -0.7861 -1.3795
 5685SOL     OW28513   4.319   0.498  10.051 -0.0855  0.2324 -0.4116
 5685SOL    HW128514   4.307   0.587  10.083 -0.7121 -0.5895  1.6073
 5685SOL    HW228515   4.414   0.488  10.062  0.3623  2.2976 -2.2973
 5686SOL     OW28516   4.305   2.845  17.499  0.2703  0.0954  0.0661
 5686SOL    HW128517   4.315   2.916  17.436  0.3736  0.2449  0.2511
 5686SOL    HW228518   4.340   2.888  17.577  1.4359 -0.6172 -0.0645
 5687SOL     OW28519   1.139   3.640   4.124  0.1736  0.1080  0.6076
 5687SOL    HW128520   1.062   3.616   4.177  0.2121  2.0540  1.5498
 5687SOL    HW228521   1.136   3.573   4.056  1.0055  1.3990 -0.6851
 5688SOL     OW28522   4.567   4.226   4.047 -0.5080  0.1145  0.5576
 5688SOL    HW128523   4.489   4.202   3.997 -1.1436 -1.2084  2.1843
 5688SOL    HW228524   4.558   4.176   4.128  0.9013  1.6181  1.6475
 5689SOL     OW28525   0.866   0.716   8.244  0.3688  0.2553  0.5907
 5689SOL    HW128526   0.806   0.691   8.314  0.1961 -1.4291 -0.1658
 5689SOL    HW228527   0.946   0.670   8.269  0.4886  0.3770  0.4316
 5690SOL     OW28528   1.847   0.977   5.963  0.8387  0.6965 -0.1102
 5690SOL    HW128529   1.810   0.955   5.877  2.5849 -1.0438 -0.4205
 5690SOL    HW228530   1.799   0.925   6.027  0.7118 -0.3856 -1.0704
 5691SOL     OW28531   3.292   4.020   1.656 -1.0265  0.3597 -0.1554
 5691SOL    HW128532   3.219   3.958   1.666  0.9670 -1.8036  1.1037
 5691SOL    HW228533   3.252   4.106   1.643  1.1760  1.6130  1.4366
 5692SOL     OW28534   0.742   1.907   7.566 -0.4337 -0.2293  0.1270
 5692SOL    HW128535   0.804   1.879   7.633 -0.1426 -1.4816 -0.6624
 5692SOL    HW228536   0.745   2.003   7.566  0.5672 -0.2645  0.8036
 5693SOL     OW28537   4.368   3.840   7.461  0.2153  0.4971  0.0850
 5693SOL    HW128538   4.390   3.759   7.507  2.2127  0.9702 -0.0434
 5693SOL    HW228539   4.312   3.876   7.530 -0.0596  1.3824 -0.5927
 5694SOL     OW28540   1.361   4.412   1.841  0.2609  0.0986 -0.1513
 5694SOL    HW128541   1.407   4.336   1.875 -1.1020 -1.4574 -1.8154
 5694SOL    HW228542   1.307   4.442   1.914 -0.2897 -0.3964 -0.3638
 5695SOL     OW28543   1.857   2.953   5.964  0.1777  0.0623  0.2660
 5695SOL    HW128544   1.842   2.898   5.887 -2.0814  0.1133  0.6531
 5695SOL    HW228545   1.904   2.895   6.024 -2.2302  1.8074  3.8474
 5696SOL     OW28546   0.437   3.457   1.379 -0.4885 -0.1654  0.1058
 5696SOL    HW128547   0.526   3.445   1.347 -2.8150 -1.3486 -6.0771
 5696SOL    HW228548   0.395   3.526   1.327 -1.5672  1.2136  2.7998
 5697SOL     OW28549   1.087   2.543  15.893  0.4408 -0.2639  0.3059
 5697SOL    HW128550   1.027   2.545  15.968  0.3788  0.1964  0.2413
 5697SOL    HW228551   1.122   2.632  15.883  1.6003 -0.9823 -2.0161
 5698SOL     OW28552   2.293   1.687  10.956 -0.7484  0.1635  0.2305
 5698SOL    HW128553   2.328   1.709  11.042  2.4941  1.3913 -1.4035
 5698SOL    HW228554   2.363   1.646  10.905  0.6813  0.7445  1.7529
 5699SOL     OW28555   2.572   3.402   5.920  0.1193 -0.6504 -0.0136
 5699SOL    HW128556   2.499   3.457   5.948 -1.1339 -2.0707 -0.4511
 5699SOL    HW228557   2.547   3.385   5.829  1.2926 -0.3464 -0.3888
 5700SOL     OW28558   0.626   1.241   8.136  0.0717  0.1073 -0.6429
 5700SOL    HW128559   0.565   1.169   8.150 -0.2590  0.3539 -0.8045
 5700SOL    HW228560   0.706   1.209   8.095  0.6507 -1.3677  1.6367
 5701SOL     OW28561   4.561   2.185   2.246 -0.0627  0.1232  0.4491
 5701SOL    HW128562   4.553   2.236   2.166 -2.0939 -1.8353 -0.5777
 5701SOL    HW228563   4.474   2.147   2.260 -0.3773  0.4418 -0.7215
 5702SOL     OW28564   3.486   4.343  11.953  0.2790 -0.0714 -0.5450
 5702SOL    HW128565   3.570   4.357  11.910  0.0213  1.2315 -0.6384
 5702SOL    HW228566   3.462   4.433  11.974 -0.7905  0.2782 -3.2352
 5703SOL     OW28567   1.274   1.312   2.838  0.0981 -0.2040  0.5716
 5703SOL    HW128568   1.215   1.329   2.765 -0.4156 -1.1848  0.7639
 5703SOL    HW228569   1.271   1.217   2.839 -0.7389 -0.1969 -3.1239
 5704SOL     OW28570   2.208   2.685   8.731  0.0197 -0.0635 -0.2050
 5704SOL    HW128571   2.229   2.677   8.638  0.0205 -2.4480 -0.0096
 5704SOL    HW228572   2.269   2.625   8.774  0.7127  0.6391 -0.2021
 5705SOL     OW28573   1.062   0.117  11.745  0.4943  0.0635  0.3699
 5705SOL    HW128574   1.014   0.146  11.823  0.1498  0.2342  0.0944
 5705SOL    HW228575   1.034   0.177  11.676  0.7968 -0.9741 -0.6641
 5706SOL     OW28576   4.662   4.383   8.614 -0.0484  0.6007 -0.0805
 5706SOL    HW128577   4.596   4.444   8.582  2.2611  2.9329 -0.4444
 5706SOL    HW228578   4.723   4.447   8.651  0.6889  0.2632 -0.7152
 5707SOL     OW28579   0.223   1.966   2.226  0.1326 -0.7836 -0.1440
 5707SOL    HW128580   0.275   2.019   2.166 -1.9033  1.5291  0.1254
 5707SOL    HW228581   0.162   2.036   2.252 -0.6820 -1.6549  0.2738
 5708SOL     OW28582   4.068   0.185   5.341 -0.4821 -0.1837 -0.0099
 5708SOL    HW128583   4.086   0.168   5.433  0.2439  0.6904  0.0144
 5708SOL    HW228584   4.064   0.281   5.338  1.1388 -0.1936 -2.5321
 5709SOL     OW28585   2.137   3.088   7.528  0.0193  0.0089  0.2934
 5709SOL    HW128586   2.076   3.114   7.597 -0.6457  3.4233 -1.6003
 5709SOL    HW228587   2.200   3.045   7.587 -0.6116 -0.1822  0.8253
 5710SOL     OW28588   0.157   3.353   7.585 -0.4972 -0.7631 -0.5590
 5710SOL    HW128589   0.252   3.356   7.600 -0.5434 -2.4735  0.0784
 5710SOL    HW228590   0.153   3.325   7.494  0.6969  2.3688 -1.5610
 5711SOL     OW28591   2.069   1.415  10.923 -0.5470  0.0795  0.5670
 5711SOL    HW128592   2.060   1.504  10.889  1.6456 -0.1531 -0.6234
 5711SOL    HW228593   2.161   1.395  10.903 -0.4289  0.0742  1.0975
 5712SOL     OW28594   0.908   3.435   7.501  0.2753 -0.5918 -0.6488
 5712SOL    HW128595   0.817   3.458   7.519  0.5210  0.6081 -0.9044
 5712SOL    HW228596   0.959   3.511   7.528 -0.9569 -0.1328  0.3692
 5713SOL     OW28597   1.585   3.532   1.779  0.3119 -0.3765 -0.1182
 5713SOL    HW128598   1.643   3.604   1.754  0.6364 -0.9278 -0.9529
 5713SOL    HW228599   1.593   3.539   1.874  1.4740  0.8550 -0.3056
 5714SOL     OW28600   3.691   4.145   3.375  0.0705  0.3663  0.5692
 5714SOL    HW128601   3.783   4.121   3.370 -0.7679 -2.6837 -0.0037
 5714SOL    HW228602   3.665   4.110   3.290 -1.3911 -1.5384  1.7928
 5715SOL     OW28603   0.516   1.122   3.377  0.1949  0.9956 -0.3143
 5715SOL    HW128604   0.452   1.185   3.410 -0.3783  1.0364 -1.5235
 5715SOL    HW228605   0.544   1.085   3.461 -1.8893  0.1707  0.0315
 5716SOL     OW28606   3.034   2.490  16.301  0.2782  0.4251 -0.3336
 5716SOL    HW128607   2.969   2.472  16.369  1.2248 -1.0094  0.1842
 5716SOL    HW228608   2.980   2.493  16.222  0.4175 -0.2330 -0.4595
 5717SOL     OW28609   3.597   0.774   0.567  0.2872 -0.6621 -0.1341
 5717SOL    HW128610   3.674   0.787   0.623  1.4534 -5.2170 -0.6689
 5717SOL    HW228611   3.604   0.856   0.518 -1.8601 -0.4494 -0.0644
 5718SOL     OW28612   2.649   3.408  10.675 -0.0528 -0.6517  0.4940
 5718SOL    HW128613   2.737   3.379  10.651 -0.1949 -0.9793  0.3750
 5718SOL    HW228614   2.665   3.494  10.715 -0.2393  0.3308 -1.5711
 5719SOL     OW28615   3.516   0.115   6.435 -0.0185  0.2517 -0.2176
 5719SOL    HW128616   3.470   0.069   6.505 -0.3440  1.4613  0.3511
 5719SOL    HW228617   3.560   0.179   6.490 -0.8518  1.4661 -0.9514
 5720SOL     OW28618   3.742   1.979   7.048  0.0163 -0.1912  0.0847
 5720SOL    HW128619   3.820   2.035   7.044  1.3420 -2.0435 -0.0455
 5720SOL    HW228620   3.710   1.988   6.958 -0.0292 -0.8245  0.0394
 5721SOL     OW28621   0.192   3.132   2.986  0.3748 -0.4086 -0.4680
 5721SOL    HW128622   0.273   3.123   2.936 -0.4743  0.7375 -2.0488
 5721SOL    HW228623   0.182   3.041   3.013  0.7038 -0.5596 -0.8668
 5722SOL     OW28624   3.185   4.644   4.299  0.5362 -0.2565  0.0105
 5722SOL    HW128625   3.177   4.678   4.388 -1.1665  1.2959 -0.7283
 5722SOL    HW228626   3.173   4.551   4.317  2.7732 -0.3665  0.8918
 5723SOL     OW28627   4.085   2.820   3.068 -0.0828 -0.2711 -0.2268
 5723SOL    HW128628   4.147   2.846   2.999  1.4479 -1.4852  0.6918
 5723SOL    HW228629   4.085   2.889   3.133  1.5334 -0.7952  0.3253
 5724SOL     OW28630   4.562   4.424   6.779 -0.0073  0.0166 -0.2358
 5724SOL    HW128631   4.482   4.476   6.789  0.2886  0.9292 -2.5826
 5724SOL    HW228632   4.513   4.354   6.735 -0.6591  0.0313  0.4617
 5725SOL     OW28633   3.923   2.777  15.824 -0.1601 -0.5850 -0.2416
 5725SOL    HW128634   4.014   2.767  15.800  0.1477 -0.6255  0.9249
 5725SOL    HW228635   3.922   2.863  15.866 -0.4408 -0.5409 -0.3347
 5726SOL     OW28636   0.048   4.698  10.735 -0.2067 -0.1682 -0.2625
 5726SOL    HW128637   4.720   0.027  10.792 -1.0998  0.2158 -1.4613
 5726SOL    HW228638   0.127   4.676  10.784 -0.1635  1.0107  0.1974
 5727SOL     OW28639   0.501   2.789   7.324 -0.0254  0.0307 -0.1989
 5727SOL    HW128640   0.435   2.719   7.330  1.5972 -1.5795 -1.2084
 5727SOL    HW228641   0.575   2.729   7.319 -0.4419 -0.6813  2.2141
 5728SOL     OW28642   1.118   2.369  13.445 -0.3867  0.3192  0.0344
 5728SOL    HW128643   1.192   2.419  13.480 -0.4401  0.7501 -0.4604
 5728SOL    HW228644   1.088   2.419  13.369 -0.3056  3.1969  1.8810
 5729SOL     OW28645   0.299   2.706   5.336 -0.2170  0.4970  0.1414
 5729SOL    HW128646   0.377   2.753   5.365  0.4907 -1.6880  1.7667
 5729SOL    HW228647   0.346   2.649   5.274 -0.2181 -0.7280  1.2767
 5730SOL     OW28648   1.795   3.220   5.053 -0.2570 -0.4871  0.2471
 5730SOL    HW128649   1.710   3.179   5.067 -1.6127  2.1241 -0.4146
 5730SOL    HW228650   1.760   3.297   5.009  1.1775 -1.5063 -2.6971
 5731SOL     OW28651   0.227   0.452  14.624 -0.0472  0.2360 -0.1927
 5731SOL    HW128652   0.319   0.452  14.651  0.0258  1.3124 -0.4272
 5731SOL    HW228653   0.233   0.509  14.547  1.8412  2.3304  1.5188
 5732SOL     OW28654   4.712   3.039   2.808 -0.0349 -0.0973  0.1292
 5732SOL    HW128655   4.696   2.968   2.870  3.2028 -1.5874 -0.7240
 5732SOL    HW228656   0.032   3.108   2.855  0.7961 -1.2924  1.0552
 5733SOL     OW28657   1.243   1.466   4.410  0.1207  0.0608 -0.4527
 5733SOL    HW128658   1.295   1.545   4.395 -0.5144  0.5548 -0.0275
 5733SOL    HW228659   1.295   1.408   4.466  0.7367  4.1717  3.1658
 5734SOL     OW28660   0.938   3.036   8.411  0.5896 -0.2825 -0.7575
 5734SOL    HW128661   0.932   3.031   8.316 -0.4134 -0.1679 -0.6960
 5734SOL    HW228662   0.875   2.966   8.429  0.5447 -0.4308 -1.4931
 5735SOL     OW28663   0.238   2.816  17.062 -0.0746 -0.3576  0.8269
 5735SOL    HW128664   0.237   2.897  17.113 -0.2806  1.8054 -2.5728
 5735SOL    HW228665   0.149   2.798  17.031  0.3859 -0.7474 -0.2658
 5736SOL     OW28666   4.501   3.944   4.850 -0.6837 -0.3568 -0.0669
 5736SOL    HW128667   4.451   3.869   4.883  2.4022 -1.0509  3.0433
 5736SOL    HW228668   4.535   3.911   4.766 -0.7873  1.3198 -0.7549
 5737SOL     OW28669   2.754   4.615   3.093  0.0336  0.2770 -0.0872
 5737SOL    HW128670   2.668   4.592   3.057  1.2104  0.4113 -3.0331
 5737SOL    HW228671   2.733   4.646   3.180  3.4275 -0.0301  0.8415
 5738SOL     OW28672   3.844   0.890   7.722 -0.1009 -0.2414 -0.3434
 5738SOL    HW128673   3.875   0.850   7.804 -0.8394 -1.7252 -0.7883
 5738SOL    HW228674   3.779   0.951   7.756 -0.1462  0.0743 -0.9965
 5739SOL     OW28675   0.273   4.120   4.165 -0.1947 -0.3770  0.5081
 5739SOL    HW128676   0.325   4.042   4.184 -0.8584 -0.8173  0.5231
 5739SOL    HW228677   0.193   4.103   4.216  0.1757 -1.9861  0.5428
 5740SOL     OW28678   2.797   4.162   6.512 -0.4134 -0.3677  0.1315
 5740SOL    HW128679   2.738   4.190   6.582 -0.0719 -1.4188  0.8432
 5740SOL    HW228680   2.797   4.067   6.525 -1.2176 -0.1880  1.4824
 5741SOL     OW28681   3.019   3.961   7.039 -0.1142  0.0034  0.5595
 5741SOL    HW128682   2.965   3.885   7.018  0.3639 -0.7338  2.0509
 5741SOL    HW228683   2.944   4.019   7.053  0.0063  0.1510  0.5972
 5742SOL     OW28684   1.962   3.017   0.710  0.6905 -0.0726 -0.2185
 5742SOL    HW128685   1.995   3.093   0.663  3.8460 -1.7743 -0.7477
 5742SOL    HW228686   1.978   3.051   0.798  0.9581  0.2227 -0.3807
 5743SOL     OW28687   2.759   1.104   9.390 -0.1086  0.0096  0.3488
 5743SOL    HW128688   2.819   1.137   9.323 -0.3441 -0.4707 -0.0972
 5743SOL    HW228689   2.679   1.148   9.364  0.3916  2.1597  2.4442
 5744SOL     OW28690   1.030   0.342  11.581 -0.0314  0.5053  0.1986
 5744SOL    HW128691   1.010   0.379  11.495 -1.6542 -0.9852 -0.0681
 5744SOL    HW228692   1.091   0.405  11.619 -0.1441  0.0832  1.0989
 5745SOL     OW28693   3.580   3.579  10.600  0.1950 -0.0275  0.0252
 5745SOL    HW128694   3.609   3.625  10.521  0.8786 -1.8749 -0.7913
 5745SOL    HW228695   3.543   3.656  10.644  2.4826  0.8964  0.3172
 5746SOL     OW28696   4.142   0.970   0.847 -0.8154  0.2693 -0.5000
 5746SOL    HW128697   4.218   0.944   0.794  0.5825 -0.6910  1.9798
 5746SOL    HW228698   4.176   1.058   0.866  1.0130 -0.3774 -0.8199
 5747SOL     OW28699   1.908   2.329   4.234 -0.4621  0.4271 -0.0985
 5747SOL    HW128700   1.823   2.312   4.194  1.5993 -1.3890 -3.8317
 5747SOL    HW228701   1.905   2.424   4.220  0.9354  0.2640 -1.6072
 5748SOL     OW28702   1.656   1.458   6.611  0.3549  0.1104 -0.5603
 5748SOL    HW128703   1.712   1.381   6.599 -2.0526 -1.4337 -1.8463
 5748SOL    HW228704   1.585   1.423   6.665 -0.5036  0.6415 -1.3438
 5749SOL     OW28705   0.295   0.186   1.152 -0.0867 -0.2053  0.1304
 5749SOL    HW128706   0.286   0.268   1.201 -1.2381 -0.0946 -0.2685
 5749SOL    HW228707   0.372   0.149   1.196 -2.3274 -5.0147  0.0197
 5750SOL     OW28708   4.118   0.462   2.640 -0.1675  0.2789 -0.2611
 5750SOL    HW128709   4.160   0.385   2.602  1.8812  1.6062 -0.6984
 5750SOL    HW228710   4.046   0.476   2.579 -1.3037 -1.5935  0.6363
 5751SOL     OW28711   3.543   3.237   7.623  0.0348  0.4458 -0.4014
 5751SOL    HW128712   3.471   3.248   7.561 -1.0732  0.4176  0.8645
 5751SOL    HW228713   3.504   3.214   7.707  1.4238  2.8217  0.8890
 5752SOL     OW28714   3.159   0.914  17.646 -0.3921  0.1958 -0.0757
 5752SOL    HW128715   3.253   0.925  17.656 -0.3671  0.4002 -0.5089
 5752SOL    HW228716   3.130   0.997  17.685 -0.7025 -0.2218  0.5613
 5753SOL     OW28717   1.106   1.577   6.340  0.2486 -0.1469  0.3484
 5753SOL    HW128718   1.193   1.568   6.303  0.7547  2.6236  0.8566
 5753SOL    HW228719   1.086   1.658   6.293 -0.7588 -1.1572 -0.9845
 5754SOL     OW28720   0.009   4.298   3.166  0.3794 -0.1982 -0.2972
 5754SOL    HW128721   0.068   4.224   3.150 -0.4096 -0.7203 -0.7470
 5754SOL    HW228722   0.006   4.289   3.261  0.5206 -3.9057 -0.6784
 5755SOL     OW28723   2.409   2.008  14.443 -0.4366  0.5005  0.3469
 5755SOL    HW128724   2.388   1.920  14.474  0.9230  0.6263  1.6146
 5755SOL    HW228725   2.324   2.051  14.444 -0.6968  0.0308 -0.9912
 5756SOL     OW28726   2.736   3.810   9.112 -0.2986  0.2365 -0.2047
 5756SOL    HW128727   2.734   3.854   9.027 -0.6657  0.7964  0.0924
 5756SOL    HW228728   2.660   3.843   9.160  1.2215  1.0441  1.6417
 5757SOL     OW28729   4.034   2.299   1.928  0.0862 -0.3286  0.2407
 5757SOL    HW128730   4.003   2.306   2.018  0.8824 -2.1858  0.6711
 5757SOL    HW228731   4.119   2.259   1.947 -0.2029 -1.1608 -0.1976
 5758SOL     OW28732   3.517   1.183   3.496 -0.6746 -0.1044  0.3930
 5758SOL    HW128733   3.538   1.091   3.476  0.8401 -0.0529  1.7003
 5758SOL    HW228734   3.487   1.216   3.411  2.9747  2.2616  0.0227
 5759SOL     OW28735   0.970   3.969   3.083 -0.6544 -0.2554  0.3668
 5759SOL    HW128736   0.933   4.017   3.157  0.0882 -1.8710  1.7822
 5759SOL    HW228737   0.908   4.005   3.020 -0.5349  1.0902  1.0172
 5760SOL     OW28738   4.089   0.841  10.069 -0.7498 -0.3423  0.0357
 5760SOL    HW128739   4.005   0.857  10.025 -0.7913 -4.0759 -1.2522
 5760SOL    HW228740   4.136   0.807   9.992  0.3233 -0.0247  0.5642
 5761SOL     OW28741   0.447   3.889  17.499 -0.5041 -0.3815  0.0893
 5761SOL    HW128742   0.479   3.866  17.412  0.4619  1.8687 -0.1675
 5761SOL    HW228743   0.457   3.985  17.502  1.3040 -0.5534 -0.3195
 5762SOL     OW28744   1.730   4.375   4.693  0.1171  0.4741  0.6015
 5762SOL    HW128745   1.749   4.338   4.779 -0.5444  1.1249  1.0254
 5762SOL    HW228746   1.785   4.453   4.695  2.2294 -1.0053  0.3603
 5763SOL     OW28747   4.352   4.254   7.828 -0.2393  0.3542 -0.2203
 5763SOL    HW128748   4.377   4.229   7.917 -1.8358 -0.3154  0.0465
 5763SOL    HW228749   4.422   4.312   7.800  0.3761 -0.5664 -0.5659
 5764SOL     OW28750   1.430   3.928   8.632 -0.2288  0.5571 -0.5423
 5764SOL    HW128751   1.426   3.962   8.721  0.5660  1.2981 -0.7967
 5764SOL    HW228752   1.394   4.008   8.593  0.1087  1.8506  1.7734
 5765SOL     OW28753   0.647   0.300  11.884  0.1943  0.1341 -0.1603
 5765SOL    HW128754   0.566   0.351  11.878  0.9086  1.3670  0.9632
 5765SOL    HW228755   0.670   0.303  11.791  1.9097  3.4045  0.3758
 5766SOL     OW28756   4.171   1.864   6.331  0.5586 -0.3552  0.0712
 5766SOL    HW128757   4.129   1.819   6.404  1.6545 -0.4441  0.6434
 5766SOL    HW228758   4.164   1.805   6.256  2.0338 -0.0254 -0.3341
 5767SOL     OW28759   0.720   4.312  14.712 -0.1170 -0.1167  0.8919
 5767SOL    HW128760   0.791   4.375  14.700 -2.4442  2.5366  0.9846
 5767SOL    HW228761   0.723   4.269  14.627 -0.2244  2.2609 -0.2861
 5768SOL     OW28762   1.948   3.937  15.431 -0.3580 -0.1151 -0.0531
 5768SOL    HW128763   1.963   4.014  15.485 -0.5871 -0.3095  0.2855
 5768SOL    HW228764   1.859   3.915  15.458  0.2223 -1.8413  0.4368
 5769SOL     OW28765   0.338   0.945   2.613  0.6410 -0.4635  0.0265
 5769SOL    HW128766   0.421   0.912   2.647  0.8327  0.5432  0.5421
 5769SOL    HW228767   0.351   0.992   2.531 -1.2557 -1.4395 -0.8122
 5770SOL     OW28768   3.312   0.932  11.126 -0.5010 -0.7217 -0.4872
 5770SOL    HW128769   3.246   0.936  11.056 -2.6649  2.0727  1.7260
 5770SOL    HW228770   3.297   1.020  11.161  0.2167 -0.0653 -1.8383
 5771SOL     OW28771   3.108   1.546   4.905  0.8038 -0.2300 -0.0029
 5771SOL    HW128772   3.123   1.599   4.826  0.2387 -2.0078 -1.2992
 5771SOL    HW228773   3.106   1.618   4.968 -0.8558  0.2720 -0.6334
 5772SOL     OW28774   0.019   1.157   6.146 -0.3832  0.4045 -1.2284
 5772SOL    HW128775   4.660   1.170   6.103 -1.5059 -0.2436  0.7523
 5772SOL    HW228776   0.033   1.246   6.178 -3.5728 -0.6113  3.0892
 5773SOL     OW28777   1.954   2.171   7.652  0.2415 -0.3127  0.0296
 5773SOL    HW128778   1.903   2.251   7.666  0.0237 -0.4190 -0.1471
 5773SOL    HW228779   1.878   2.122   7.618  0.7861 -1.2186  0.1369
 5774SOL     OW28780   1.477   2.889   5.929 -0.2144  0.2269  0.0447
 5774SOL    HW128781   1.518   2.901   5.843 -2.8668 -0.5329 -1.3250
 5774SOL    HW228782   1.528   2.815   5.962 -0.7893 -0.7952 -1.3403
 5775SOL     OW28783   1.391   1.280   4.561  0.2258  0.4969  0.1593
 5775SOL    HW128784   1.366   1.256   4.649 -0.7668  0.2291 -0.2023
 5775SOL    HW228785   1.485   1.287   4.581  0.3094  0.8322 -0.3409
 5776SOL     OW28786   2.294   4.694   9.088  0.9733 -0.6460  0.0254
 5776SOL    HW128787   2.216   4.655   9.049  1.5529 -0.8194 -0.9583
 5776SOL    HW228788   2.330   4.623   9.141  0.6677 -3.2549 -3.2914
 5777SOL     OW28789   0.627   4.339   2.186 -0.2991 -0.8290  0.6042
 5777SOL    HW128790   0.570   4.263   2.197 -1.9303  0.5390  1.5818
 5777SOL    HW228791   0.712   4.313   2.222 -0.9430 -1.6166  1.5371
 5778SOL     OW28792   4.613   3.761   0.677  0.1018  0.0297  0.0281
 5778SOL    HW128793   4.629   3.788   0.767 -0.3823  0.5989 -0.0528
 5778SOL    HW228794   4.571   3.842   0.647  1.3949  0.1007 -1.5686
 5779SOL     OW28795   1.748   4.345  15.199 -0.3723  0.0646  0.9089
 5779SOL    HW128796   1.723   4.373  15.287 -0.3260 -1.6637  1.4622
 5779SOL    HW228797   1.705   4.409  15.142  2.1352  0.7024 -0.2755
 5780SOL     OW28798   1.488   0.416  11.638 -0.4663  0.3987  0.1863
 5780SOL    HW128799   1.431   0.447  11.567 -0.7192  1.4701  0.8576
 5780SOL    HW228800   1.459   0.486  11.696  0.7256  1.1317 -0.1044
 5781SOL     OW28801   0.906   1.040   5.527 -0.1350  0.1597  0.2426
 5781SOL    HW128802   0.845   1.088   5.583  0.4631  0.6409  0.4722
 5781SOL    HW228803   0.938   1.104   5.464 -0.2852  0.7819  0.7996
 5782SOL     OW28804   2.366   0.661   5.934  0.2668  0.2813  0.0836
 5782SOL    HW128805   2.415   0.581   5.949  2.6582  1.8938  0.9480
 5782SOL    HW228806   2.276   0.631   5.929 -0.1859  2.0900 -2.6889
 5783SOL     OW28807   1.576   2.168   1.823 -0.5296 -0.1432 -0.0007
 5783SOL    HW128808   1.671   2.157   1.823 -0.2949  1.9336 -0.0948
 5783SOL    HW228809   1.566   2.234   1.891 -2.2375  2.2560 -2.5707
 5784SOL     OW28810   3.855   3.585   6.443  0.3557  0.2528 -0.1905
 5784SOL    HW128811   3.892   3.654   6.388 -0.6601  0.5559 -0.5034
 5784SOL    HW228812   3.927   3.522   6.441  0.3030  0.1703  0.5244
 5785SOL     OW28813   3.480   3.032   7.010  0.1497  0.2376 -0.1083
 5785SOL    HW128814   3.389   3.010   6.994  0.1965  0.3004 -0.4654
 5785SOL    HW228815   3.466   3.086   7.087  0.0476  0.8170 -0.5298
 5786SOL     OW28816   0.639   3.487   2.402 -0.2374 -0.2782 -1.3390
 5786SOL    HW128817   0.724   3.531   2.396  0.6161 -1.4882  1.8915
 5786SOL    HW228818   0.580   3.562   2.406  0.4524  0.2208 -0.5118
 5787SOL     OW28819   3.721   0.372   8.597 -0.2826  0.7829  0.4765
 5787SOL    HW128820   3.626   0.361   8.611 -0.2545  0.2517  0.2439
 5787SOL    HW228821   3.724   0.373   8.502 -1.5233 -1.4032  0.3919
 5788SOL     OW28822   0.461   0.861  11.775  0.1215  0.2464  0.1713
 5788SOL    HW128823   0.548   0.858  11.735  0.6867 -1.2686  1.4989
 5788SOL    HW228824   0.479   0.830  11.863  0.2402 -0.2113 -0.0109
 5789SOL     OW28825   1.395   3.510   7.843 -0.1087  0.4911 -0.0412
 5789SOL    HW128826   1.311   3.504   7.888  0.5986  2.1433  1.4613
 5789SOL    HW228827   1.454   3.545   7.909 -0.5394  1.2008 -0.0257
 5790SOL     OW28828   0.814   3.726   1.897  0.1326  0.4267  0.4793
 5790SOL    HW128829   0.719   3.740   1.907 -0.1754 -1.2327 -0.2297
 5790SOL    HW228830   0.860   3.796   1.944 -0.5207  2.3140 -1.6442
 5791SOL     OW28831   4.288   2.335  14.917  0.0840  0.3166 -0.0103
 5791SOL    HW128832   4.294   2.368  15.006  0.3123 -1.5672  0.6705
 5791SOL    HW228833   4.198   2.303  14.914 -0.0700  0.8909 -1.6956
 5792SOL     OW28834   3.864   3.546  12.816  1.0070  0.1792 -0.2050
 5792SOL    HW128835   3.893   3.633  12.788 -1.8468  0.2504 -3.0444
 5792SOL    HW228836   3.945   3.497  12.810  0.6871 -0.0460 -2.9666
 5793SOL     OW28837   0.146   4.085  15.967 -0.0130 -0.2737  0.5804
 5793SOL    HW128838   0.115   4.062  16.055  1.4368 -1.5126  0.7735
 5793SOL    HW228839   0.090   4.027  15.915  2.2297 -0.4027 -1.6947
 5794SOL     OW28840   4.471   3.936  11.213 -0.1310  0.1924 -0.3543
 5794SOL    HW128841   4.447   3.850  11.181  4.0405 -0.9959 -0.2401
 5794SOL    HW228842   4.551   3.918  11.262  0.6121 -1.0188 -2.0337
 5795SOL     OW28843   0.655   3.950   0.974  0.3516  0.0444  0.3400
 5795SOL    HW128844   0.576   3.996   0.946 -0.5629 -1.9781 -0.3945
 5795SOL    HW228845   0.635   3.926   1.065  3.7475 -1.8910  0.5715
 5796SOL     OW28846   0.052   3.201  10.992 -0.5828 -0.3534  0.1291
 5796SOL    HW128847   4.713   3.251  11.042 -2.0060 -2.6520  0.6264
 5796SOL    HW228848   0.037   3.224  10.900 -0.2981 -1.3716 -0.1806
 5797SOL     OW28849   1.117   4.609  14.540  0.4159  0.0759  0.0499
 5797SOL    HW128850   1.081   4.692  14.572 -0.5957 -0.2893 -0.1337
 5797SOL    HW228851   1.086   4.613  14.449  1.8295 -0.6598 -0.4670
 5798SOL     OW28852   2.912   1.009   2.176 -0.4820  0.1945  0.0381
 5798SOL    HW128853   2.832   1.050   2.144 -1.5775 -2.4967 -0.6361
 5798SOL    HW228854   2.878   0.930   2.219 -1.9610  1.1231  0.5476
 5799SOL     OW28855   3.768   3.420  15.814  0.0738 -0.4560  0.0205
 5799SOL    HW128856   3.709   3.360  15.769 -0.2308 -0.1791  0.0521
 5799SOL    HW228857   3.749   3.390  15.903 -0.5034 -1.2071 -0.3641
 5800SOL     OW28858   2.227   0.164   6.521  0.1347 -0.4032 -0.0967
 5800SOL    HW128859   2.140   0.192   6.550  0.4528  0.3925  0.0777
 5800SOL    HW228860   2.222   0.136   6.430 -1.0547  1.3535 -0.5749
 5801SOL     OW28861   0.354   1.136   3.820  0.5800 -0.3455  0.4416
 5801SOL    HW128862   0.322   1.062   3.872 -0.3435 -0.7686 -0.7331
 5801SOL    HW228863   0.274   1.163   3.776  1.2861  2.4136  0.8644
 5802SOL     OW28864   1.029   0.113   2.208  0.0112 -0.3630 -0.2141
 5802SOL    HW128865   0.958   0.175   2.192 -0.3475 -0.9114 -0.7343
 5802SOL    HW228866   1.071   0.124   2.123 -0.3122  1.1812 -0.1740
 5803SOL     OW28867   3.269   4.195   7.837  0.0146 -0.4674  0.3133
 5803SOL    HW128868   3.300   4.128   7.897  1.1987  0.0167  0.2416
 5803SOL    HW228869   3.208   4.243   7.893 -1.6810 -0.6189 -1.4106
 5804SOL     OW28870   2.966   4.704  12.901  0.1080 -0.1658 -0.4481
 5804SOL    HW128871   2.919   0.040  12.844  1.8151  2.0879  0.5664
 5804SOL    HW228872   3.060   4.718  12.889  0.4806 -1.3778  1.1616
 5805SOL     OW28873   4.450   0.935  15.390 -0.2809 -0.1830 -0.1783
 5805SOL    HW128874   4.488   0.967  15.472  0.7530  0.4227 -0.8897
 5805SOL    HW228875   4.525   0.886  15.357 -0.3580 -0.4819  0.0935
 5806SOL     OW28876   2.656   2.808   8.264  0.1725 -0.5383 -0.8206
 5806SOL    HW128877   2.661   2.833   8.356  0.5686 -0.5034 -0.8521
 5806SOL    HW228878   2.748   2.818   8.237  1.2687 -0.4827  2.9556
 5807SOL     OW28879   3.450   4.581  13.254  0.4785  0.6927 -0.0967
 5807SOL    HW128880   3.460   4.570  13.159 -0.3801 -0.0379 -0.0966
 5807SOL    HW228881   3.470   4.675  13.259  2.7963  0.1615  0.8481
 5808SOL     OW28882   1.451   1.685   4.317 -0.1390  0.2223  0.1845
 5808SOL    HW128883   1.462   1.622   4.246 -1.1750  0.0894  0.1412
 5808SOL    HW228884   1.542   1.714   4.320 -0.5107  1.5244 -1.3632
 5809SOL     OW28885   3.069   4.016   5.527 -0.2173 -0.0163  0.7188
 5809SOL    HW128886   3.162   4.010   5.551 -0.0681 -0.2639  0.0939
 5809SOL    HW228887   3.067   4.055   5.439  1.7256 -1.9126 -0.1740
 5810SOL     OW28888   0.296   2.205   1.801  0.0830  0.3126  0.1742
 5810SOL    HW128889   0.369   2.259   1.770  0.8376  0.7945  2.8298
 5810SOL    HW228890   0.222   2.261   1.780 -0.5409 -1.2922 -1.9503
 5811SOL     OW28891   4.491   3.487  11.240 -0.4467  0.3502  0.2393
 5811SOL    HW128892   4.469   3.453  11.327  1.1529 -0.9970  0.1216
 5811SOL    HW228893   4.574   3.444  11.219 -0.7312  0.3368 -0.8484
 5812SOL     OW28894   0.220   3.209  14.114 -0.5825  0.5270  0.6952
 5812SOL    HW128895   0.200   3.266  14.040  0.0330 -0.4887 -0.2590
 5812SOL    HW228896   0.135   3.165  14.119 -1.1076  1.4744  0.1748
 5813SOL     OW28897   1.513   1.966   3.484 -0.1980 -0.3143  0.1520
 5813SOL    HW128898   1.592   1.937   3.440  0.8176  2.3157  0.2578
 5813SOL    HW228899   1.543   2.001   3.567 -2.8118 -2.2063  1.9275
 5814SOL     OW28900   1.156   4.686   0.882  0.2332 -0.0790 -0.1375
 5814SOL    HW128901   1.110   4.608   0.914 -0.0106  0.0973 -0.0505
 5814SOL    HW228902   1.222   4.646   0.827  0.9074 -2.2107  2.2367
 5815SOL     OW28903   3.320   4.678  11.047 -0.2286  0.0983 -0.1658
 5815SOL    HW128904   3.316   4.595  11.094 -3.0525 -0.0855 -0.6908
 5815SOL    HW228905   3.340   4.652  10.956  3.2887  0.5534  0.4942
 5816SOL     OW28906   3.530   1.390   5.624 -0.5055 -0.0046 -0.1772
 5816SOL    HW128907   3.440   1.378   5.655 -0.5826  2.5256  0.6331
 5816SOL    HW228908   3.527   1.354   5.536  0.9876  0.1098 -0.2759
 5817SOL     OW28909   0.482   1.181   6.399 -0.0667 -0.3957 -0.3648
 5817SOL    HW128910   0.553   1.246   6.406 -0.1427 -0.3354 -0.1346
 5817SOL    HW228911   0.466   1.177   6.305  1.6424 -1.3990 -0.6063
 5818SOL     OW28912   3.915   3.278  17.601 -0.4225  0.0593  0.2578
 5818SOL    HW128913   3.833   3.320  17.628 -1.6778 -0.8138 -2.2325
 5818SOL    HW228914   3.927   3.220  17.676  0.8393  1.4672  1.1431
 5819SOL     OW28915   3.690   2.883   6.028  1.0454  0.6996  0.6683
 5819SOL    HW128916   3.643   2.952   6.074 -1.0299 -1.4859  1.7976
 5819SOL    HW228917   3.646   2.884   5.943 -0.3688  2.7319  1.4343
 5820SOL     OW28918   2.213   2.506   3.841 -0.0959  0.3076  0.6202
 5820SOL    HW128919   2.123   2.474   3.847 -0.0086  0.3400  2.1486
 5820SOL    HW228920   2.262   2.433   3.879  1.2992  0.2240 -1.3116
 5821SOL     OW28921   0.681   2.338   2.549 -0.3881  0.4859 -0.2876
 5821SOL    HW128922   0.737   2.284   2.604 -1.8525  0.0626  0.7937
 5821SOL    HW228923   0.637   2.267   2.501  1.3013 -1.0829  0.5171
 5822SOL     OW28924   0.725   2.993   3.975  0.1318 -0.0616 -0.0328
 5822SOL    HW128925   0.720   2.969   4.067  1.3713  0.8941  0.2851
 5822SOL    HW228926   0.699   3.085   3.982 -0.7614 -0.3827  0.8695
 5823SOL     OW28927   0.627   1.810   5.269  0.0140  0.0675  0.2164
 5823SOL    HW128928   0.704   1.772   5.311 -0.1339 -0.8824 -0.3640
 5823SOL    HW228929   0.664   1.818   5.181 -2.0363 -1.9810 -0.8272
 5824SOL     OW28930   4.146   2.118   5.765 -0.0672 -0.4935  0.3306
 5824SOL    HW128931   4.193   2.055   5.820  3.6166  2.5175  0.7063
 5824SOL    HW228932   4.115   2.064   5.693  1.7437 -0.9232 -0.1299
 5825SOL     OW28933   0.446   2.420   8.335  0.3555 -0.0925 -0.0459
 5825SOL    HW128934   0.360   2.410   8.375  1.7343 -1.6388  2.5110
 5825SOL    HW228935   0.501   2.435   8.412  3.3690  2.1774 -2.5931
 5826SOL     OW28936   3.246   3.218   7.532 -0.3940  0.8008  0.0095
 5826SOL    HW128937   3.291   3.134   7.522 -1.5435  0.0161  1.3971
 5826SOL    HW228938   3.155   3.189   7.532  0.4306 -1.7163 -0.0033
 5827SOL     OW28939   2.827   2.323   4.763  0.2449 -0.4071 -0.1037
 5827SOL    HW128940   2.799   2.377   4.836  1.3130 -1.5753  1.1689
 5827SOL    HW228941   2.818   2.236   4.802 -0.4667  0.0386  0.7172
 5828SOL     OW28942   0.200   3.249   6.295  0.2993 -0.7386  0.2903
 5828SOL    HW128943   0.185   3.230   6.388  1.9560 -1.2820  0.4523
 5828SOL    HW228944   0.272   3.313   6.296 -1.4628  1.2897 -3.0762
 5829SOL     OW28945   1.825   2.701   5.521  0.3735  0.9175 -0.1530
 5829SOL    HW128946   1.858   2.748   5.444 -0.7414  1.6620 -0.1761
 5829SOL    HW228947   1.737   2.739   5.519  0.1744  0.4474 -0.2287
 5830SOL     OW28948   3.934   2.128   7.758 -0.2661  0.0995  0.2150
 5830SOL    HW128949   3.857   2.182   7.775 -0.3968  0.1645 -0.5904
 5830SOL    HW228950   3.996   2.158   7.825 -0.4238  0.6664  0.1127
 5831SOL     OW28951   2.276   2.042   0.046 -0.4463 -0.8744 -0.0013
 5831SOL    HW128952   2.350   1.998   0.088 -0.4202 -0.3221  0.5379
 5831SOL    HW228953   2.266   1.977  17.679 -0.0493 -0.6179 -0.2941
 5832SOL     OW28954   1.787   2.037  15.013 -0.0949 -0.2462  0.2417
 5832SOL    HW128955   1.702   2.008  14.980  0.8388 -2.4096 -0.2291
 5832SOL    HW228956   1.767   2.128  15.037 -0.3664 -0.4002  0.5980
 5833SOL     OW28957   2.717   1.802   8.097  0.0668  0.0757 -0.7079
 5833SOL    HW128958   2.688   1.893   8.110 -0.0253 -0.2205  1.1861
 5833SOL    HW228959   2.744   1.767   8.182  1.0048 -0.2875 -1.1604
 5834SOL     OW28960   1.378   3.687   8.754  0.3560  0.6198  0.0001
 5834SOL    HW128961   1.372   3.772   8.711  0.5050  0.7548  0.2486
 5834SOL    HW228962   1.300   3.644   8.718 -1.9124  4.1794  0.6320
 5835SOL     OW28963   1.084   3.448   7.858  0.0482 -0.1186 -0.0935
 5835SOL    HW128964   1.071   3.408   7.944 -1.1256  1.9218  0.6838
 5835SOL    HW228965   1.014   3.513   7.864 -0.5510 -0.6552 -1.3047
 5836SOL     OW28966   2.787   0.265   6.647  0.1637 -0.1767  0.2183
 5836SOL    HW128967   2.700   0.300   6.663  0.5569  0.6654  0.4766
 5836SOL    HW228968   2.759   0.218   6.569 -0.6802 -0.1787  0.5246
 5837SOL     OW28969   3.382   3.615  17.626  0.0999 -0.1743 -0.4032
 5837SOL    HW128970   3.437   3.560  17.682 -1.9024 -0.8939  0.8729
 5837SOL    HW228971   3.446   3.652  17.565  0.0802  2.3171  1.0730
 5838SOL     OW28972   3.553   2.568   8.402 -0.0956  0.3031  0.2181
 5838SOL    HW128973   3.506   2.584   8.321  1.7291  0.6913 -0.7619
 5838SOL    HW228974   3.606   2.496   8.369  1.2179  1.9479 -1.2360
 5839SOL     OW28975   0.069   2.989  14.184  0.1513  0.3026 -0.2887
 5839SOL    HW128976   0.032   2.977  14.096 -1.5951  0.9583  0.3480
 5839SOL    HW228977   0.087   2.896  14.196  2.1614  0.4352 -2.4643
 5840SOL     OW28978   3.372   2.621   8.197 -0.2490 -0.3597 -0.2646
 5840SOL    HW128979   3.303   2.677   8.233  1.2913  0.9074  0.7072
 5840SOL    HW228980   3.366   2.649   8.105 -0.0404 -0.5219 -0.3263
 5841SOL     OW28981   0.566   3.621   6.935 -0.3577 -0.2349  0.6659
 5841SOL    HW128982   0.546   3.600   6.843  1.8938  0.3809  0.0316
 5841SOL    HW228983   0.560   3.530   6.965 -3.3733  0.6846  2.7463
 5842SOL     OW28984   3.619   4.244   0.414  0.2102  0.5647  0.2950
 5842SOL    HW128985   3.679   4.293   0.471  0.8170  0.3391 -0.1435
 5842SOL    HW228986   3.667   4.161   0.409  0.4287  0.8617 -2.2813
 5843SOL     OW28987   3.292   3.447   9.049  0.4497 -0.3018  0.1716
 5843SOL    HW128988   3.356   3.474   9.115 -0.7096 -0.0785  1.2306
 5843SOL    HW228989   3.297   3.516   8.983  0.0116 -0.4829 -0.0532
 5844SOL     OW28990   2.062   1.946  12.472 -0.1180 -0.4807 -0.1515
 5844SOL    HW128991   2.138   1.940  12.530 -0.0248 -1.8642 -0.4111
 5844SOL    HW228992   1.999   1.888  12.517 -4.0893  3.5255 -0.5236
 5845SOL     OW28993   3.395   2.978   3.326 -0.3081  0.3806  0.2669
 5845SOL    HW128994   3.347   2.897   3.311 -1.2354  0.4020  3.0313
 5845SOL    HW228995   3.432   2.960   3.413 -0.7497  0.2226  0.4232
 5846SOL     OW28996   1.225   1.864   6.516 -0.3405  0.5368 -0.0663
 5846SOL    HW128997   1.219   1.959   6.527 -1.3115  0.4005  0.5538
 5846SOL    HW228998   1.146   1.852   6.462  0.2459  0.5652 -0.9281
 5847SOL     OW28999   3.398   3.602   7.572  0.1930  0.3511  0.0712
 5847SOL    HW129000   3.306   3.625   7.561  0.3541  0.3458 -1.2744
 5847SOL    HW229001   3.438   3.639   7.493 -1.4669 -0.1657 -0.9917
 5848SOL     OW29002   0.486   1.769   4.347  0.1306 -0.0990 -0.1744
 5848SOL    HW129003   0.495   1.779   4.252 -0.2461  2.9679  0.1076
 5848SOL    HW229004   0.394   1.794   4.357  0.1291 -0.7687  1.4141
 5849SOL     OW29005   3.401   1.532   2.251 -0.3547 -1.1660 -0.4878
 5849SOL    HW129006   3.449   1.454   2.278  0.2410 -0.5534  0.2302
 5849SOL    HW229007   3.463   1.593   2.210 -0.2947 -0.3211  0.8781
 5850SOL     OW29008   2.778   0.531   4.218 -0.2753 -0.4389 -0.3854
 5850SOL    HW129009   2.742   0.446   4.245  0.7874 -1.1573 -1.2513
 5850SOL    HW229010   2.703   0.577   4.179 -0.5515 -1.1549 -0.7065
 5851SOL     OW29011   4.409   2.518   2.233 -0.0532 -0.4771  0.1802
 5851SOL    HW129012   4.446   2.604   2.253  0.5470 -0.5098 -0.8052
 5851SOL    HW229013   4.464   2.482   2.163  1.8559 -1.5379  2.2449
 5852SOL     OW29014   3.467   3.898   7.119  0.2016 -0.3654 -0.1369
 5852SOL    HW129015   3.543   3.944   7.082 -2.5206  1.6203 -3.2833
 5852SOL    HW229016   3.390   3.953   7.104  0.0874 -0.2511  0.9039
 5853SOL     OW29017   3.944   1.180   8.252  0.1183  0.5563  0.3722
 5853SOL    HW129018   3.925   1.249   8.188 -1.2202  0.6843  0.9073
 5853SOL    HW229019   3.925   1.222   8.336  2.3048 -0.8063  1.5460
 5854SOL     OW29020   0.666   3.559  11.189  0.3922 -0.3829  0.0267
 5854SOL    HW129021   0.644   3.574  11.097 -0.0906 -2.1259 -0.1515
 5854SOL    HW229022   0.696   3.468  11.197 -2.1690 -1.2575 -0.4844
 5855SOL     OW29023   4.357   0.620   7.919  0.1192  0.4400  0.1659
 5855SOL    HW129024   4.356   0.629   8.014  0.6819  0.5045  0.1648
 5855SOL    HW229025   4.450   0.640   7.914 -0.0715  1.5900  1.2749
 5856SOL     OW29026   1.010   3.331   1.601 -0.6140 -0.3108 -0.0552
 5856SOL    HW129027   1.036   3.422   1.614 -1.8706 -0.2912  2.2786
 5856SOL    HW229028   0.915   3.329   1.602 -0.6696  1.6314 -2.6873
 5857SOL     OW29029   2.389   4.090   6.778  0.5021 -0.1672  0.2956
 5857SOL    HW129030   2.350   4.103   6.864 -1.0767  1.1375 -0.6201
 5857SOL    HW229031   2.464   4.038   6.807  0.2496 -1.0786 -0.6993
 5858SOL     OW29032   2.633   4.559   7.229  0.3602  0.0829 -0.1186
 5858SOL    HW129033   2.607   4.646   7.199 -0.4651 -0.4383 -0.9141
 5858SOL    HW229034   2.555   4.504   7.230 -0.3975  1.1662  1.4365
 5859SOL     OW29035   1.019   2.757   4.599  0.7472 -0.1012 -0.0987
 5859SOL    HW129036   1.095   2.814   4.585  1.3775 -0.8574  0.3042
 5859SOL    HW229037   0.978   2.749   4.512  0.0006 -1.2531  0.3547
 5860SOL     OW29038   0.984   4.420  11.264  0.0384  0.4145  0.3116
 5860SOL    HW129039   0.936   4.501  11.247  0.1445  0.3300 -0.3840
 5860SOL    HW229040   0.994   4.425  11.359  0.0829 -0.9515  0.3797
 5861SOL     OW29041   0.454   4.129   0.270  0.1250 -0.1648  0.4362
 5861SOL    HW129042   0.383   4.066   0.259  0.1274  0.0945 -0.9618
 5861SOL    HW229043   0.526   4.066   0.276  0.1537 -0.3498 -1.8838
 5862SOL     OW29044   4.556   1.848  11.917 -0.3084 -0.3322  0.8227
 5862SOL    HW129045   4.466   1.815  11.912 -0.2101 -0.6631  1.2311
 5862SOL    HW229046   4.560   1.919  11.980  1.0238  0.1987  0.1455
 5863SOL     OW29047   3.255   1.509  10.701  0.2644 -0.6442 -0.3266
 5863SOL    HW129048   3.254   1.413  10.693 -2.3801 -0.7716  1.4093
 5863SOL    HW229049   3.165   1.522  10.672 -0.4662 -2.5747  1.0374
 5864SOL     OW29050   0.855   1.041   3.719  0.0434 -0.3508 -0.6383
 5864SOL    HW129051   0.865   1.136   3.709 -0.7275 -0.4004 -1.8319
 5864SOL    HW229052   0.768   1.036   3.680 -0.1780  0.3658 -0.2302
 5865SOL     OW29053   3.309   1.971   2.656  0.4641  0.4414 -0.3837
 5865SOL    HW129054   3.368   1.978   2.731  0.9087 -0.0989 -0.6847
 5865SOL    HW229055   3.326   1.887   2.614  0.7211 -0.1261  0.8539
 5866SOL     OW29056   3.444   2.641   3.147 -0.3293 -0.4141  0.1775
 5866SOL    HW129057   3.365   2.587   3.141 -0.2061 -0.5779  0.0564
 5866SOL    HW229058   3.427   2.671   3.237  2.2676  0.8723  0.2456
 5867SOL     OW29059   2.887   4.567   9.315  0.0318 -0.1698 -0.4346
 5867SOL    HW129060   2.828   4.602   9.248 -1.3088 -1.7574 -0.0665
 5867SOL    HW229061   2.961   4.532   9.265  1.5305  0.9348  1.0232
 5868SOL     OW29062   0.523   3.097   1.790 -0.1888 -0.2763 -0.5451
 5868SOL    HW129063   0.466   3.134   1.857  0.4998  0.2405 -0.2530
 5868SOL    HW229064   0.513   3.164   1.723 -1.8156 -0.5117 -0.5419
 5869SOL     OW29065   0.125   2.749  14.252 -0.1292 -0.1308 -0.5839
 5869SOL    HW129066   0.107   2.665  14.210 -1.5960  0.1162 -0.4458
 5869SOL    HW229067   0.206   2.738  14.302 -0.6256  1.4948  0.5966
 5870SOL     OW29068   1.883   4.589   8.750 -0.3115 -0.3570 -0.6442
 5870SOL    HW129069   1.831   4.519   8.711 -0.5322 -1.2062  1.1533
 5870SOL    HW229070   1.964   4.591   8.700 -1.1202 -0.9641 -1.9615
 5871SOL     OW29071   2.552   0.250   7.679  0.2501 -0.3902  0.4970
 5871SOL    HW129072   2.612   0.182   7.711  1.0305 -0.5172 -1.2390
 5871SOL    HW229073   2.542   0.227   7.587  1.9674  0.6996  0.0452
 5872SOL     OW29074   3.957   2.539   6.853  0.0029  0.4401 -0.2180
 5872SOL    HW129075   4.000   2.453   6.859 -0.3954  0.0847 -2.3998
 5872SOL    HW229076   4.006   2.594   6.913 -3.2921  1.0219  1.9158
 5873SOL     OW29077   0.040   2.593  11.758  0.6830  0.8775 -0.9073
 5873SOL    HW129078   4.718   2.608  11.676  1.5697  1.1710 -1.3669
 5873SOL    HW229079   0.038   2.677  11.803  2.2625  0.6892 -0.5028
 5874SOL     OW29080   0.758   3.845   6.231  0.3220 -0.6715  1.0661
 5874SOL    HW129081   0.783   3.752   6.233  2.6741 -0.0726 -0.2225
 5874SOL    HW229082   0.838   3.893   6.252  0.2140  0.1603 -0.4659
 5875SOL     OW29083   4.182   1.793   1.301  0.7774 -0.2623 -0.8811
 5875SOL    HW129084   4.131   1.820   1.224 -0.2279  2.1565  0.6243
 5875SOL    HW229085   4.200   1.701   1.284 -1.3113 -0.8255 -0.1232
 5876SOL     OW29086   4.501   1.951   1.698  0.4472  0.0505  0.2243
 5876SOL    HW129087   4.457   1.965   1.614  0.0207 -1.8892  0.1255
 5876SOL    HW229088   4.575   2.011   1.696  0.2557  0.3267  1.8490
 5877SOL     OW29089   0.307   0.287   6.563  0.0941 -0.0994  0.1063
 5877SOL    HW129090   0.225   0.271   6.608  0.5961 -0.7836  0.7712
 5877SOL    HW229091   0.336   0.363   6.613 -0.7309 -0.9140  1.7904
 5878SOL     OW29092   4.302   2.126  12.901  0.1895  0.3689 -0.3299
 5878SOL    HW129093   4.225   2.112  12.845 -0.1219 -0.3596  0.2771
 5878SOL    HW229094   4.285   2.206  12.951 -2.3611 -0.5086  0.2055
 5879SOL     OW29095   4.517   1.510   5.267  0.0747  0.2920  0.6895
 5879SOL    HW129096   4.583   1.577   5.283  0.8779  0.1143 -1.7591
 5879SOL    HW229097   4.444   1.536   5.323 -0.7866  0.5491 -0.5487
 5880SOL     OW29098   3.977   3.794  14.578  0.4286 -0.4215  0.1806
 5880SOL    HW129099   4.054   3.744  14.551  2.3244  2.4795  0.2076
 5880SOL    HW229100   3.907   3.730  14.568  0.5481 -0.2683 -1.6286
 5881SOL     OW29101   3.690   0.256  17.542  0.2608  0.1479 -0.1620
 5881SOL    HW129102   3.735   0.335  17.512 -0.9819  1.3387  1.1457
 5881SOL    HW229103   3.717   0.196  17.472 -2.7213 -0.9437 -0.3633
 5882SOL     OW29104   2.689   3.962   8.894  0.1814  0.0168 -0.4189
 5882SOL    HW129105   2.657   4.052   8.899 -1.9938 -0.7235 -0.6463
 5882SOL    HW229106   2.693   3.956   8.798  2.6591  0.6374 -0.3501
 5883SOL     OW29107   0.054   4.353   6.935 -0.5325  0.6174 -0.6592
 5883SOL    HW129108   0.035   4.427   6.993  1.0562 -0.1430  0.7906
 5883SOL    HW229109   4.699   4.358   6.882 -2.6086 -1.9650  2.2545
 5884SOL     OW29110   2.926   0.524   3.966 -0.2798 -0.1487 -0.2243
 5884SOL    HW129111   2.971   0.440   3.954 -0.2835  0.0515 -1.6253
 5884SOL    HW229112   2.886   0.520   4.052  0.8537 -0.3052  0.2950
 5885SOL     OW29113   3.529   0.355   4.032 -0.4331  0.5011  0.1155
 5885SOL    HW129114   3.532   0.450   4.026 -0.7364  0.4886 -0.2854
 5885SOL    HW229115   3.603   0.339   3.974  0.2526 -1.9479  1.6537
 5886SOL     OW29116   0.284   2.297  12.401 -0.0324 -0.1267  0.1724
 5886SOL    HW129117   0.323   2.342  12.476 -2.7750 -0.6933  1.9520
 5886SOL    HW229118   0.297   2.207  12.431 -1.4994 -0.1798  0.6708
 5887SOL     OW29119   1.217   2.815   0.674 -0.5358  0.4648  0.3342
 5887SOL    HW129120   1.284   2.870   0.634 -0.7674  0.1871 -0.4438
 5887SOL    HW229121   1.144   2.877   0.670 -0.6418  0.3767  0.9700
 5888SOL     OW29122   3.227   1.906  13.526  0.0621  0.1719  0.3111
 5888SOL    HW129123   3.182   1.822  13.515  0.2588 -0.0301  1.0968
 5888SOL    HW229124   3.221   1.923  13.620  0.8767  1.4450  0.1358
 5889SOL     OW29125   4.649   0.355  12.053 -0.2849  0.1348  0.2205
 5889SOL    HW129126   4.685   0.434  12.093 -0.8918  0.9519 -0.8375
 5889SOL    HW229127   4.714   0.339  11.985  0.8130  0.5524  1.1728
 5890SOL     OW29128   3.538   4.331  13.334  0.6877 -0.1748 -0.2657
 5890SOL    HW129129   3.468   4.277  13.295  0.8449 -1.8347  1.7144
 5890SOL    HW229130   3.510   4.421  13.321 -1.4603 -0.6222  1.1748
 5891SOL     OW29131   3.094   1.057   2.373  0.1310  0.5676  0.2983
 5891SOL    HW129132   3.142   0.975   2.363  1.8247  1.7408 -1.2487
 5891SOL    HW229133   3.036   1.062   2.297 -1.9209 -2.8158  1.6519
 5892SOL     OW29134   4.377   2.772   6.031 -0.2236 -0.0179 -0.2130
 5892SOL    HW129135   4.386   2.778   6.127 -0.2551 -0.4331 -0.1870
 5892SOL    HW229136   4.430   2.846   6.000  0.5459 -1.1194 -1.4928
 5893SOL     OW29137   2.743   0.350  16.404  0.5027  0.2244  0.1738
 5893SOL    HW129138   2.791   0.406  16.465 -0.0164  0.9772 -0.1008
 5893SOL    HW229139   2.657   0.392  16.409  1.5194  2.4613 -0.7296
 5894SOL     OW29140   1.620   3.834   1.076  0.5125  0.0852 -0.3471
 5894SOL    HW129141   1.604   3.749   1.116  2.4400  0.9830  2.4237
 5894SOL    HW229142   1.550   3.844   1.012  0.6698  0.8613 -0.3997
 5895SOL     OW29143   1.393   3.671   3.389 -0.7673  0.5749 -0.3424
 5895SOL    HW129144   1.351   3.655   3.304 -0.7775  2.9406 -0.7766
 5895SOL    HW229145   1.357   3.601   3.443  3.5505 -1.3166  0.0378
 5896SOL     OW29146   0.879   0.532   6.401  1.0429  0.7211 -1.0753
 5896SOL    HW129147   0.847   0.475   6.471 -1.0230  3.4046  0.1541
 5896SOL    HW229148   0.808   0.553   6.340 -0.0193  0.5992  0.1106
 5897SOL     OW29149   1.351   2.093   9.345  0.0140  0.0233  1.0829
 5897SOL    HW129150   1.263   2.087   9.308  0.7377 -1.0014 -0.4517
 5897SOL    HW229151   1.361   2.018   9.403  0.2439 -1.2766 -0.6391
 5898SOL     OW29152   3.319   1.128   0.954  0.2784  0.0688 -0.1205
 5898SOL    HW129153   3.410   1.144   0.929  0.2739 -3.0221 -2.1480
 5898SOL    HW229154   3.271   1.209   0.939  2.0160  0.9429 -0.8989
 5899SOL     OW29155   0.158   4.295   3.585 -0.5148 -0.2059 -0.7545
 5899SOL    HW129156   0.228   4.330   3.640  0.7741 -3.0982 -0.5081
 5899SOL    HW229157   0.210   4.243   3.523 -0.7708 -1.6640  0.2679
 5900SOL     OW29158   1.375   3.228  14.518  0.5781  0.0940 -0.0471
 5900SOL    HW129159   1.334   3.312  14.496 -0.8382 -0.0876  1.9798
 5900SOL    HW229160   1.353   3.174  14.442 -0.3428 -0.9516  0.9645
 5901SOL     OW29161   1.772   4.421   3.399  0.0530 -0.4907  0.1029
 5901SOL    HW129162   1.705   4.436   3.331  0.0372  1.0129  0.4550
 5901SOL    HW229163   1.736   4.476   3.469  0.9060  1.2610 -0.8460
 5902SOL     OW29164   2.118   4.280  15.085 -0.3358 -0.3340  0.4464
 5902SOL    HW129165   2.204   4.275  15.043 -0.9545 -0.9909 -0.7561
 5902SOL    HW229166   2.127   4.250  15.176  1.0157  1.1568  0.8164
 5903SOL     OW29167   3.798   3.285  16.395 -0.1109 -0.6431  0.1647
 5903SOL    HW129168   3.827   3.224  16.463 -2.7372  0.1906  2.0205
 5903SOL    HW229169   3.739   3.225  16.349  1.1173 -0.7437 -1.2572
 5904SOL     OW29170   2.677   2.869  17.671 -0.4416  0.4404  0.3571
 5904SOL    HW129171   2.739   2.802  17.700 -1.5570  0.2242  2.2348
 5904SOL    HW229172   2.600   2.845   0.019  2.6675 -1.5002  4.0443
 5905SOL     OW29173   1.576   0.509   3.681  0.0984 -0.7064  0.7384
 5905SOL    HW129174   1.648   0.567   3.656 -1.3986  0.4023 -0.9905
 5905SOL    HW229175   1.529   0.492   3.599  1.2038  1.2463 -0.2817
 5906SOL     OW29176   0.803   3.114   9.010  0.1991 -0.2533 -0.3300
 5906SOL    HW129177   0.721   3.111   9.060 -0.4494 -0.2774 -1.3925
 5906SOL    HW229178   0.799   3.201   8.971  1.7786  0.0148  0.1230
 5907SOL     OW29179   1.277   0.565  16.004 -0.1912  0.4320 -0.7382
 5907SOL    HW129180   1.273   0.611  16.088 -0.7635 -1.0700  0.0636
 5907SOL    HW229181   1.238   0.483  16.034 -0.0787  0.3885 -0.7105
 5908SOL     OW29182   4.255   2.279   0.389 -0.4905  0.0946 -0.0435
 5908SOL    HW129183   4.293   2.240   0.310  0.6297  1.8945 -0.3833
 5908SOL    HW229184   4.302   2.362   0.387  2.4798 -1.5517  0.2305
 5909SOL     OW29185   3.763   0.625   4.453 -0.3907  0.0346 -0.2394
 5909SOL    HW129186   3.790   0.714   4.430 -0.8877  0.1565 -0.3515
 5909SOL    HW229187   3.764   0.582   4.368 -0.9685  0.3938 -0.4291
 5910SOL     OW29188   0.253   4.160   8.641  0.1339 -0.6083 -0.0795
 5910SOL    HW129189   0.306   4.240   8.643 -0.8579  0.0267  1.1381
 5910SOL    HW229190   0.205   4.162   8.724  1.5183  1.3051  0.6851
 5911SOL     OW29191   4.578   0.873  13.226  0.3581 -0.5936  0.0294
 5911SOL    HW129192   4.656   0.925  13.212 -0.2359 -0.0597 -1.3024
 5911SOL    HW229193   4.514   0.927  13.180  0.2305 -1.6681 -1.0478
 5912SOL     OW29194   0.448   4.057  14.609 -0.2112 -0.1409  0.1434
 5912SOL    HW129195   0.451   4.130  14.546  1.7160  3.0540  3.9360
 5912SOL    HW229196   0.393   4.089  14.680 -0.7657 -0.3539 -0.1854
 5913SOL     OW29197   3.663   3.785   8.717 -0.1551  0.1825 -0.1963
 5913SOL    HW129198   3.698   3.872   8.734 -1.3277  0.9537 -1.6654
 5913SOL    HW229199   3.696   3.731   8.788 -3.8199  1.8747  2.7645
 5914SOL     OW29200   2.412   2.956   7.428  0.2084  0.5202  0.1610
 5914SOL    HW129201   2.357   2.880   7.450 -0.2239  0.2910 -1.7207
 5914SOL    HW229202   2.419   2.941   7.334 -0.3016 -0.0570  0.2122
 5915SOL     OW29203   0.039   1.816   3.507 -0.2221  0.3664 -0.0929
 5915SOL    HW129204   0.092   1.856   3.438 -0.7888  0.4314 -0.4902
 5915SOL    HW229205   4.690   1.876   3.518 -1.1444 -0.7366 -0.4436
 5916SOL     OW29206   1.912   1.747   5.679  0.4446 -0.3074 -0.6107
 5916SOL    HW129207   1.817   1.756   5.671  0.4356  0.6053  0.5498
 5916SOL    HW229208   1.920   1.651   5.674 -3.3250 -0.5830 -1.5118
 5917SOL     OW29209   0.282   3.710  13.579 -0.2464 -0.2666  0.4902
 5917SOL    HW129210   0.219   3.776  13.610 -1.6098 -1.3669  0.0380
 5917SOL    HW229211   0.231   3.630  13.580 -1.7948  0.7102 -0.7534
 5918SOL     OW29212   2.530   1.044   7.740  0.1984  0.0741  0.4126
 5918SOL    HW129213   2.597   1.071   7.803  0.5998 -0.2047  0.1045
 5918SOL    HW229214   2.549   1.093   7.660 -0.1606 -0.8154 -0.2221
 5919SOL     OW29215   2.856   4.246  15.217 -0.1178 -0.0415  0.1470
 5919SOL    HW129216   2.883   4.157  15.237  1.0561 -0.2423 -2.3305
 5919SOL    HW229217   2.935   4.299  15.227 -0.6859  0.4305  2.0278
 5920SOL     OW29218   1.644   1.130  16.870 -0.3349 -0.6686 -0.6513
 5920SOL    HW129219   1.662   1.155  16.960  0.7416 -3.0189 -0.1994
 5920SOL    HW229220   1.552   1.109  16.888 -0.8189  2.6984  0.7955
 5921SOL     OW29221   2.856   0.112   5.680  0.0219 -0.0587  0.5259
 5921SOL    HW129222   2.841   0.193   5.729 -0.9072 -0.1539  0.3838
 5921SOL    HW229223   2.906   0.066   5.748 -1.9668 -2.6307  0.2108
 5922SOL     OW29224   3.845   2.893   7.575  0.5535 -0.6471 -0.4452
 5922SOL    HW129225   3.906   2.822   7.593 -0.2522 -1.1348  0.3993
 5922SOL    HW229226   3.789   2.905   7.653  2.0797 -1.5956  0.7877
 5923SOL     OW29227   1.737   2.320   1.577 -0.8202  0.2465  0.4728
 5923SOL    HW129228   1.712   2.376   1.503 -1.2316  2.2271  2.1045
 5923SOL    HW229229   1.655   2.288   1.614 -0.8982  0.0283  0.1096
 5924SOL     OW29230   4.190   3.306   6.963  0.0324  0.9333 -0.8069
 5924SOL    HW129231   4.193   3.217   6.998 -2.2764  1.2504  0.2174
 5924SOL    HW229232   4.138   3.348   7.032  2.5550 -1.6863  2.6624
 5925SOL     OW29233   2.146   4.075   5.520  0.3415  0.4090  0.5771
 5925SOL    HW129234   2.220   4.048   5.574 -0.9854  0.5965  2.4863
 5925SOL    HW229235   2.080   4.092   5.588  1.9409  1.0955  1.9349
 5926SOL     OW29236   0.289   2.328   5.093 -0.1771  0.2132 -0.1130
 5926SOL    HW129237   0.319   2.349   5.004  1.4428  1.9252  0.8227
 5926SOL    HW229238   0.195   2.343   5.091 -0.2445 -0.2322 -0.4527
 5927SOL     OW29239   1.245   1.406   1.898 -0.1871 -0.1267 -0.3928
 5927SOL    HW129240   1.244   1.446   1.985 -3.5183 -0.9834 -0.0566
 5927SOL    HW229241   1.333   1.433   1.871 -0.6168  1.0049 -0.6325
 5928SOL     OW29242   2.696   3.937  16.259 -0.4893 -0.0401 -0.3545
 5928SOL    HW129243   2.776   3.957  16.211  1.0179  0.7286  2.4514
 5928SOL    HW229244   2.628   3.928  16.193 -0.5456  0.7384 -0.3999
 5929SOL     OW29245   0.637   4.033  17.174 -0.4278  0.0988  0.0271
 5929SOL    HW129246   0.628   3.941  17.201  1.4836  0.3026  1.3516
 5929SOL    HW229247   0.645   4.016  17.080  0.3045 -1.4742  0.3717
 5930SOL     OW29248   4.053   1.017   8.705 -0.6884 -0.1745  0.2577
 5930SOL    HW129249   4.017   0.953   8.767  1.2088  1.3905  2.9548
 5930SOL    HW229250   4.014   1.104   8.716 -1.3662 -0.3212 -0.9095
 5931SOL     OW29251   2.534   3.985   0.173  0.5474 -0.3023  0.1107
 5931SOL    HW129252   2.485   3.926   0.230 -0.5966  0.4393 -0.0831
 5931SOL    HW229253   2.578   4.041   0.236 -1.0301  0.5047  0.5096
 5932SOL     OW29254   2.748   3.897   3.528  0.1368 -0.0178 -0.0150
 5932SOL    HW129255   2.753   3.821   3.586 -0.0123 -0.3832 -0.4841
 5932SOL    HW229256   2.766   3.854   3.445  0.3748  0.0093  0.0204
 5933SOL     OW29257   3.138   2.734   0.952 -0.3421 -0.1365  0.2074
 5933SOL    HW129258   3.148   2.772   1.039 -1.0889 -1.8270  1.0378
 5933SOL    HW229259   3.065   2.791   0.929 -2.2100 -2.3311  0.6677
 5934SOL     OW29260   3.476   1.694   9.937  0.0532  0.2204 -0.4412
 5934SOL    HW129261   3.382   1.678   9.948  0.1980  1.9660  3.6784
 5934SOL    HW229262   3.505   1.617   9.986  1.3752 -1.0973 -3.3314
 5935SOL     OW29263   1.394   1.605  14.124  0.3263  0.1812 -0.2544
 5935SOL    HW129264   1.387   1.652  14.041 -0.5675  1.9588  0.8153
 5935SOL    HW229265   1.383   1.515  14.093 -0.6639  0.8680 -1.9077
 5936SOL     OW29266   0.778   2.391   1.854 -0.7198 -0.0045 -0.4230
 5936SOL    HW129267   0.828   2.379   1.773  1.8349  0.5293  1.0586
 5936SOL    HW229268   0.774   2.482   1.883  0.1805 -0.1720  0.2459
 5937SOL     OW29269   1.644   0.259   5.410  0.2153  0.4621 -0.2136
 5937SOL    HW129270   1.648   0.232   5.318 -0.0072 -2.1214  0.5401
 5937SOL    HW229271   1.712   0.327   5.410  0.5370  0.1258  0.7740
 5938SOL     OW29272   2.924   0.843  17.541 -1.0121  0.5861  0.2256
 5938SOL    HW129273   2.996   0.855  17.602 -2.1165  1.6264  1.3283
 5938SOL    HW229274   2.937   0.917  17.481 -0.1733  0.7399  0.6105
 5939SOL     OW29275   3.770   2.280   6.666 -0.1405  0.2259  0.2695
 5939SOL    HW129276   3.808   2.338   6.731 -3.3994 -0.9933  3.2532
 5939SOL    HW229277   3.706   2.346   6.638  0.2437  0.2854 -0.4846
 5940SOL     OW29278   2.072   0.759   5.043 -0.2614  0.0369  0.1352
 5940SOL    HW129279   2.036   0.825   5.102 -1.7178 -0.2453 -0.4465
 5940SOL    HW229280   2.164   0.768   5.067  0.0727  0.4681 -1.2911
 5941SOL     OW29281   2.753   2.528  17.243  0.7100 -0.2075  0.2764
 5941SOL    HW129282   2.848   2.519  17.243  0.5255 -2.2403 -0.3088
 5941SOL    HW229283   2.740   2.605  17.298 -1.1649 -0.3902  0.1007
 5942SOL     OW29284   4.273   4.695  15.341 -0.5245 -0.0242 -0.0585
 5942SOL    HW129285   4.192   0.017  15.359 -0.0442  0.5905  0.4862
 5942SOL    HW229286   4.293   4.639  15.417 -1.1391 -1.2612 -0.8007
 5943SOL     OW29287   2.919   4.692   2.250  0.3334  0.2867  0.3947
 5943SOL    HW129288   2.870   0.005   2.323 -1.6502  1.3540 -1.5012
 5943SOL    HW229289   2.850   4.699   2.183 -0.0787  2.3884  1.0342
 5944SOL     OW29290   1.209   0.263   7.179  0.0850  0.0338  0.3140
 5944SOL    HW129291   1.204   0.184   7.233  1.8915 -1.0786 -1.1539
 5944SOL    HW229292   1.288   0.251   7.126  0.5064 -0.5096  1.0644
 5945SOL     OW29293   0.187   1.820  13.363  0.3512 -0.1069  0.1104
 5945SOL    HW129294   0.253   1.754  13.385 -0.9105 -1.3067  0.2721
 5945SOL    HW229295   0.110   1.814  13.419 -1.3191 -0.9930 -2.3029
 5946SOL     OW29296   4.268   1.254  17.528 -0.0502  0.0386  0.1323
 5946SOL    HW129297   4.257   1.162  17.501 -1.1227  0.3609 -0.5248
 5946SOL    HW229298   4.213   1.257  17.606 -0.2914  2.4707 -0.1584
 5947SOL     OW29299   3.402   2.756   1.160 -0.3195  0.0816 -0.3251
 5947SOL    HW129300   3.470   2.778   1.225 -2.1213 -0.2741  1.6918
 5947SOL    HW229301   3.453   2.746   1.080  0.5862  2.3181 -0.0276
 5948SOL     OW29302   4.595   3.431   7.627 -0.6826 -0.2957 -0.2660
 5948SOL    HW129303   4.551   3.347   7.614 -0.7202 -0.0754 -1.5538
 5948SOL    HW229304   4.682   3.399   7.602 -0.0664  0.6722  0.6175
 5949SOL     OW29305   0.805   0.250   0.019 -0.0442  0.5655  0.2943
 5949SOL    HW129306   0.761   0.334   0.006  0.6250  1.1498  1.7957
 5949SOL    HW229307   0.734   0.218   0.075  0.9471  0.2711  1.3864
 5950SOL     OW29308   1.649   3.100   9.716 -0.1551  0.2191 -0.3345
 5950SOL    HW129309   1.577   3.089   9.653 -0.5893  1.5565 -0.0771
 5950SOL    HW229310   1.609   3.162   9.778 -2.1539 -0.3063 -1.0798
 5951SOL     OW29311   4.068   0.876   5.587  0.4026 -1.0104  0.2809
 5951SOL    HW129312   3.995   0.938   5.582  0.5174 -0.8650  0.4148
 5951SOL    HW229313   4.137   0.938   5.609 -0.5492  0.6305 -1.3794
 5952SOL     OW29314   2.057   2.014   2.619 -0.1970 -0.2949 -0.4263
 5952SOL    HW129315   1.989   2.042   2.558  0.5102 -1.4773 -1.7535
 5952SOL    HW229316   2.072   1.929   2.578  2.2871 -0.1013  0.1202
 5953SOL     OW29317   1.873   2.937   2.898 -0.5072  0.0389  0.3668
 5953SOL    HW129318   1.780   2.921   2.885 -0.1309 -2.0209  0.2380
 5953SOL    HW229319   1.922   2.897   2.826 -2.2402 -1.2326 -0.0985
 5954SOL     OW29320   1.851   0.625   2.314 -0.3967  0.0824  0.1783
 5954SOL    HW129321   1.877   0.612   2.223 -2.0096  0.8609 -0.3950
 5954SOL    HW229322   1.930   0.659   2.355  0.3670 -0.4401 -0.8727
 5955SOL     OW29323   1.484   3.266   5.418  0.1079  0.4019 -0.2135
 5955SOL    HW129324   1.518   3.320   5.489  0.1389  0.1776 -0.0590
 5955SOL    HW229325   1.424   3.329   5.379 -1.1912  0.0596  1.1985
 5956SOL     OW29326   3.134   2.688   6.125  0.0294 -0.4669 -0.2394
 5956SOL    HW129327   3.152   2.651   6.211 -1.1582 -0.1443  0.1424
 5956SOL    HW229328   3.072   2.759   6.143  0.8228  0.5166 -1.3384
 5957SOL     OW29329   3.623   3.803  14.300  0.3794  0.1205  0.6640
 5957SOL    HW129330   3.549   3.840  14.349 -1.8224 -0.4669 -2.2267
 5957SOL    HW229331   3.573   3.779  14.223  1.6241 -0.0447 -0.0830
 5958SOL     OW29332   4.688   2.741   9.271 -0.2074 -0.0490 -0.4941
 5958SOL    HW129333   4.597   2.728   9.297 -0.2871 -1.1082 -1.2655
 5958SOL    HW229334   0.002   2.742   9.358  0.8787  2.2087 -1.0166
 5959SOL     OW29335   2.222   1.078   6.077  0.0058  0.4499  0.3422
 5959SOL    HW129336   2.191   1.103   6.164 -1.6467  1.4148 -0.5332
 5959SOL    HW229337   2.315   1.062   6.096 -0.6407 -0.5010  2.6729
 5960SOL     OW29338   3.367   0.254  10.099  0.1560 -0.5500 -0.3853
 5960SOL    HW129339   3.408   0.237  10.015 -2.6900 -2.8382 -1.3218
 5960SOL    HW229340   3.404   0.340  10.120  1.1612 -0.8438 -0.9665
 5961SOL     OW29341   4.157   3.011   9.256  0.2006  0.4188  0.2480
 5961SOL    HW129342   4.174   2.918   9.241 -0.5639  0.1981  0.7457
 5961SOL    HW229343   4.094   3.016   9.327 -0.2660  0.2721 -0.1518
 5962SOL     OW29344   3.175   3.689   3.453  0.1043 -0.0803 -0.3284
 5962SOL    HW129345   3.223   3.612   3.482 -0.2128  0.3122  1.2225
 5962SOL    HW229346   3.138   3.671   3.367  0.6086 -1.4965 -0.2461
 5963SOL     OW29347   3.875   3.997   6.315 -0.3906 -0.5209 -0.0445
 5963SOL    HW129348   3.905   4.082   6.349 -0.8891  0.2432 -1.4966
 5963SOL    HW229349   3.849   4.010   6.224 -1.8027  1.5389  0.6394
 5964SOL     OW29350   0.656   0.586   4.761  0.1392 -0.4708  0.0958
 5964SOL    HW129351   0.679   0.502   4.800 -0.5395 -1.1543 -0.9984
 5964SOL    HW229352   0.724   0.602   4.696 -1.0556 -2.0913 -1.5522
 5965SOL     OW29353   0.012   4.199   5.878 -0.3249 -0.4180  0.0539
 5965SOL    HW129354   4.691   4.278   5.852 -0.9108 -1.2918 -1.5523
 5965SOL    HW229355   4.701   4.175   5.963  0.0352  3.7474  1.3341
 5966SOL     OW29356   3.576   2.248   3.130 -0.6270 -0.3183 -0.0227
 5966SOL    HW129357   3.539   2.327   3.092 -0.7616 -0.0666  0.6397
 5966SOL    HW229358   3.497   2.198   3.150 -1.4530  1.2560  0.5941
 5967SOL     OW29359   1.127   2.515   3.911  0.1812 -0.1595  0.0599
 5967SOL    HW129360   1.196   2.452   3.933  1.8289  1.8182  0.5209
 5967SOL    HW229361   1.121   2.572   3.988  0.7047 -1.0259  0.7610
 5968SOL     OW29362   0.028   2.966   6.997 -0.2106 -0.0026 -0.5997
 5968SOL    HW129363   4.679   3.017   6.968 -0.6681  0.9188  2.1925
 5968SOL    HW229364   0.096   3.030   7.020  0.4300 -0.6492 -0.6678
 5969SOL     OW29365   4.269   2.965  10.464 -0.6376 -0.3894 -0.3876
 5969SOL    HW129366   4.233   2.891  10.415 -1.1621 -0.5214  0.1956
 5969SOL    HW229367   4.283   3.030  10.395 -1.2355  0.0232 -0.1220
 5970SOL     OW29368   3.064   0.398   9.718  0.6312 -0.5672  0.3171
 5970SOL    HW129369   3.053   0.424   9.809  0.1465  2.1510 -0.4976
 5970SOL    HW229370   3.047   0.304   9.720  1.0004 -0.6423 -0.1113
 5971SOL     OW29371   0.883   2.308   4.414  0.2701 -0.0790 -0.2735
 5971SOL    HW129372   0.866   2.224   4.457  0.4154 -0.1802 -0.4193
 5971SOL    HW229373   0.878   2.367   4.490  2.0329 -0.5075  0.1761
 5972SOL     OW29374   4.656   3.174   6.600  0.3531  0.0813 -0.0589
 5972SOL    HW129375   4.581   3.201   6.654 -0.5225  1.3354 -1.9204
 5972SOL    HW229376   4.624   3.189   6.511 -0.5702 -1.7615 -0.0278
 5973SOL     OW29377   0.372   1.633   2.540 -0.0372 -0.2690 -0.3181
 5973SOL    HW129378   0.425   1.637   2.620  0.4586 -0.0823 -0.6566
 5973SOL    HW229379   0.444   1.607   2.483 -0.0652  1.6142 -1.2013
 5974SOL     OW29380   0.017   1.331   3.047  0.2174  0.1663 -0.1558
 5974SOL    HW129381   4.707   1.308   3.132 -1.0328  1.3819 -0.3519
 5974SOL    HW229382   0.008   1.253   2.992 -1.6781  0.3182 -0.0596
 5975SOL     OW29383   4.431   1.869   6.463 -0.0515 -0.2069  0.5070
 5975SOL    HW129384   4.352   1.871   6.408  0.2458  0.9425  0.1324
 5975SOL    HW229385   4.487   1.931   6.417 -0.5575 -0.5974 -0.6450
 5976SOL     OW29386   2.090   4.633   3.949 -0.0839  0.0343  0.2903
 5976SOL    HW129387   2.006   4.602   3.982 -1.0307  0.7548 -1.4553
 5976SOL    HW229388   2.135   4.555   3.915 -2.0688 -0.4975 -1.1147
 5977SOL     OW29389   4.533   2.415   8.597 -0.0740 -0.2361  0.1054
 5977SOL    HW129390   4.485   2.402   8.678  0.1775  0.5044  0.3703
 5977SOL    HW229391   4.536   2.511   8.595 -0.1685 -0.2232  0.5110
 5978SOL     OW29392   0.117   4.324   0.154  0.0252 -0.7027 -0.0372
 5978SOL    HW129393   0.193   4.363   0.196  0.7357 -0.9311 -1.1267
 5978SOL    HW229394   0.060   4.401   0.154 -0.7553 -1.2884 -1.0400
 5979SOL     OW29395   1.190   0.292  14.461  0.6805 -0.1004  0.2555
 5979SOL    HW129396   1.196   0.236  14.384  2.7003 -0.2238  0.4990
 5979SOL    HW229397   1.199   0.377  14.418 -0.2421  0.2431  0.7486
 5980SOL     OW29398   3.296   1.625   3.324 -0.3396 -0.5306 -0.2409
 5980SOL    HW129399   3.357   1.613   3.251 -0.0993  1.4039 -0.3808
 5980SOL    HW229400   3.304   1.537   3.359 -2.3692 -0.7724 -0.3808
 5981SOL     OW29401   0.348   0.643   1.626 -0.4975 -0.1294 -0.1115
 5981SOL    HW129402   0.411   0.572   1.621  0.0757  0.3241  0.7206
 5981SOL    HW229403   0.315   0.650   1.536  0.1333 -1.4421 -0.4416
 5982SOL     OW29404   3.400   2.480   6.834  0.4114 -0.0263  0.4059
 5982SOL    HW129405   3.465   2.479   6.905  0.7198  0.0176  0.1247
 5982SOL    HW229406   3.399   2.385   6.821 -2.1824  0.4026 -2.5106
 5983SOL     OW29407   3.708   3.437   3.854 -0.4439  0.0157 -0.0419
 5983SOL    HW129408   3.652   3.441   3.777  0.9534  3.4976 -0.8701
 5983SOL    HW229409   3.647   3.388   3.909 -0.5135  0.4536  0.2765
 5984SOL     OW29410   2.023   4.480  14.410 -0.2942  0.0686 -0.1260
 5984SOL    HW129411   1.997   4.477  14.502  1.1906  0.4605  0.3055
 5984SOL    HW229412   2.085   4.408  14.417 -2.5052 -1.8224 -0.0374
 5985SOL     OW29413   2.389   3.167   3.373 -0.0728 -0.4968 -0.1828
 5985SOL    HW129414   2.450   3.197   3.440  0.2740 -1.2126 -0.1779
 5985SOL    HW229415   2.380   3.074   3.394 -2.1651 -0.0253  0.9648
 5986SOL     OW29416   0.348   1.420   4.290 -0.2435 -0.4472 -0.4062
 5986SOL    HW129417   0.365   1.361   4.364  0.5114 -0.2965 -0.4603
 5986SOL    HW229418   0.252   1.420   4.290 -0.2467 -1.5860  1.0214
 5987SOL     OW29419   3.654   0.415   6.195  0.3312 -0.2836 -0.8640
 5987SOL    HW129420   3.734   0.398   6.245 -0.4243  0.1196  0.4934
 5987SOL    HW229421   3.630   0.503   6.224 -1.6697 -0.6567 -1.3923
 5988SOL     OW29422   3.095   1.019   5.923  0.0898  0.1778  0.2075
 5988SOL    HW129423   3.142   1.061   5.995  2.0570 -0.6264 -0.6096
 5988SOL    HW229424   3.166   1.015   5.858 -1.6124 -1.2928 -1.5721
 5989SOL     OW29425   2.003   4.168   6.779 -0.2355  0.0124  0.1531
 5989SOL    HW129426   2.055   4.222   6.720  1.8619 -1.6863  0.4300
 5989SOL    HW229427   2.036   4.081   6.757 -0.7132 -0.1146 -0.0694
 5990SOL     OW29428   2.357   2.901   3.374 -0.3829  0.3891  0.6635
 5990SOL    HW129429   2.322   2.859   3.296  2.2132 -2.1007  0.8677
 5990SOL    HW229430   2.397   2.826   3.418 -0.1956  0.6796  0.9925
 5991SOL     OW29431   0.336   0.205  12.721  0.4308  0.9394 -0.2511
 5991SOL    HW129432   0.312   0.115  12.698 -1.1084  0.6990  2.3026
 5991SOL    HW229433   0.252   0.237  12.751  0.8525  0.1818  1.7234
 5992SOL     OW29434   0.637   2.688  17.512  0.1762  0.6713  0.3921
 5992SOL    HW129435   0.692   2.710  17.437  1.8739 -0.3753  1.3255
 5992SOL    HW229436   0.667   2.747  17.581 -0.1345  1.7910 -0.4448
 5993SOL     OW29437   2.101   2.758   6.816 -0.5000 -0.3475 -0.1100
 5993SOL    HW129438   2.065   2.796   6.736  0.7295 -1.1064 -1.0180
 5993SOL    HW229439   2.081   2.666   6.803  0.2217 -0.8570  2.4672
 5994SOL     OW29440   0.258   4.705  12.544 -0.3873  0.0921 -0.4838
 5994SOL    HW129441   0.278   0.038  12.472 -1.2845  2.3819  1.1112
 5994SOL    HW229442   0.205   4.639  12.499  0.2359 -1.1543  0.6006
 5995SOL     OW29443   3.201   0.313   6.404 -0.4338 -0.4210 -0.4726
 5995SOL    HW129444   3.230   0.404   6.413 -2.4847  0.1927 -0.0214
 5995SOL    HW229445   3.250   0.290   6.325 -2.0427  3.6659 -2.6912
 5996SOL     OW29446   1.417   2.347   1.488  0.1652  0.0709 -0.8113
 5996SOL    HW129447   1.419   2.371   1.395 -0.3152 -2.3175 -1.4308
 5996SOL    HW229448   1.457   2.423   1.531  0.8994 -1.6843  1.5615
 5997SOL     OW29449   2.285   1.574   6.514 -0.0066 -0.0022  0.3890
 5997SOL    HW129450   2.311   1.647   6.569  0.8183  0.7670 -1.0367
 5997SOL    HW229451   2.213   1.614   6.466  0.7274  2.4254  1.3067
 5998SOL     OW29452   1.640   0.408   5.655  0.4358  0.0545  0.3156
 5998SOL    HW129453   1.553   0.434   5.685  0.7419  0.7143  0.6332
 5998SOL    HW229454   1.630   0.355   5.576  0.6509  2.7590 -1.5416
 5999SOL     OW29455   2.519   1.115   4.788  0.3266  0.3723  0.0181
 5999SOL    HW129456   2.615   1.109   4.786  0.3253  0.6033 -0.8733
 5999SOL    HW229457   2.495   1.051   4.721  1.5660 -0.0881  0.0045
 6000SOL     OW29458   3.408   0.314   8.584  0.3403  0.6732  0.5349
 6000SOL    HW129459   3.378   0.367   8.658 -1.2812 -0.6320  0.8001
 6000SOL    HW229460   3.346   0.333   8.515  1.6295 -1.0239 -1.1014
 6001SOL     OW29461   1.301   1.862  14.244  0.1192 -0.3341 -0.1475
 6001SOL    HW129462   1.384   1.908  14.245 -1.7563  3.0704 -0.7003
 6001SOL    HW229463   1.336   1.781  14.206  1.0364  0.1625 -0.3513
 6002SOL     OW29464   1.245   3.043  11.548  0.7340  0.3649 -0.0224
 6002SOL    HW129465   1.307   3.026  11.476  2.0713  0.6652  1.0515
 6002SOL    HW229466   1.204   2.956  11.550  2.4637 -0.4528  0.7019
 6003SOL     OW29467   1.844   1.104  10.651  0.1093  0.2481  0.5877
 6003SOL    HW129468   1.842   1.008  10.653 -1.6833  0.2744 -0.1608
 6003SOL    HW229469   1.781   1.129  10.719  0.3115 -0.2941  0.9735
 6004SOL     OW29470   1.434   1.902   5.247  0.2117  0.5574  0.4078
 6004SOL    HW129471   1.473   1.822   5.281 -1.1249 -0.2242  0.0956
 6004SOL    HW229472   1.365   1.921   5.311 -0.9247  0.0996 -0.6807
 6005SOL     OW29473   0.293   2.149   4.505  0.4516  0.7369 -0.3047
 6005SOL    HW129474   0.225   2.216   4.508  2.5550  2.7544  2.1348
 6005SOL    HW229475   0.312   2.143   4.411  1.0056 -0.7794 -0.0875
 6006SOL     OW29476   4.443   0.508   4.826  0.0385  0.5859 -0.0798
 6006SOL    HW129477   4.428   0.561   4.748 -0.3485  0.2420 -0.2457
 6006SOL    HW229478   4.370   0.446   4.814  1.5968 -1.4460  0.8218
 6007SOL     OW29479   3.465   0.214   6.819  0.1782 -0.5984 -0.0893
 6007SOL    HW129480   3.512   0.259   6.889 -0.7561  1.9440 -1.0837
 6007SOL    HW229481   3.486   0.123   6.838 -1.8452 -1.3197 -1.2732
 6008SOL     OW29482   4.375   0.715   4.613  0.7459  0.2060  0.4302
 6008SOL    HW129483   4.314   0.727   4.540  1.7693  0.6785 -0.3492
 6008SOL    HW229484   4.435   0.650   4.577 -0.9107  0.0870 -2.1074
 6009SOL     OW29485   3.900   1.942   5.063  0.4146 -0.2269  0.6195
 6009SOL    HW129486   3.859   1.870   5.110 -0.3177 -1.0552 -1.2919
 6009SOL    HW229487   3.971   1.975   5.119  1.1080  1.3479 -1.1855
 6010SOL     OW29488   0.192   1.192   9.517  0.1254  0.7504 -0.1259
 6010SOL    HW129489   0.232   1.244   9.447  2.4724  0.3054  0.8875
 6010SOL    HW229490   0.180   1.113   9.464  0.0952  0.6089  0.0962
 6011SOL     OW29491   2.412   0.757  13.369 -0.7235 -0.4299 -0.3462
 6011SOL    HW129492   2.361   0.796  13.440  0.9393  1.9542 -0.4294
 6011SOL    HW229493   2.347   0.776  13.302 -1.7092  1.2518  1.0638
 6012SOL     OW29494   1.051   3.608   9.056  0.4356  0.2776  0.6864
 6012SOL    HW129495   0.979   3.667   9.037  0.0057 -0.6715 -0.6201
 6012SOL    HW229496   1.002   3.528   9.078 -0.9937  0.8957 -0.2909
 6013SOL     OW29497   2.582   2.694   2.133 -0.0261  0.1189 -0.0929
 6013SOL    HW129498   2.614   2.618   2.181 -0.9190 -0.2044 -0.0011
 6013SOL    HW229499   2.645   2.691   2.062  0.2117 -1.3067  0.1812
 6014SOL     OW29500   1.682   0.257   6.465  0.1974  0.6473 -0.0682
 6014SOL    HW129501   1.603   0.302   6.434  0.8049  1.0920 -0.9757
 6014SOL    HW229502   1.651   0.203   6.538  0.9644  1.0731  0.5832
 6015SOL     OW29503   4.094   4.367   7.760  0.5641 -0.3184  0.1796
 6015SOL    HW129504   4.179   4.322   7.761  1.2862  0.9302 -2.5988
 6015SOL    HW229505   4.035   4.295   7.740  0.1199  0.3436 -0.9212
 6016SOL     OW29506   4.024   1.070   5.299 -0.6708 -0.0721 -0.1400
 6016SOL    HW129507   4.060   0.986   5.326 -1.0766  0.2828  1.5048
 6016SOL    HW229508   3.978   1.093   5.379  2.4107 -4.0699  2.7329
 6017SOL     OW29509   1.594   2.723  13.628 -0.5240 -0.0334 -0.3220
 6017SOL    HW129510   1.623   2.704  13.717  1.0989 -0.7761 -1.0015
 6017SOL    HW229511   1.499   2.719  13.637 -0.4715  1.4401  0.9344
 6018SOL     OW29512   0.928   2.352   3.538 -0.2531 -0.2388  0.7787
 6018SOL    HW129513   0.981   2.277   3.566 -0.2831  0.0810  1.6878
 6018SOL    HW229514   0.919   2.396   3.622 -3.2940 -0.3637  0.5060
 6019SOL     OW29515   2.163   4.515  14.809 -0.1490  0.0711 -0.2534
 6019SOL    HW129516   2.190   4.531  14.899 -2.7981 -2.3305  0.9633
 6019SOL    HW229517   2.236   4.464  14.775 -0.7226 -0.8742 -0.0852
 6020SOL     OW29518   1.477   3.078  10.766 -0.1568 -0.4181  0.1766
 6020SOL    HW129519   1.494   3.144  10.834  0.5824 -1.8695  1.3893
 6020SOL    HW229520   1.397   3.036  10.797 -1.5710  0.8506 -1.7746
 6021SOL     OW29521   3.869   3.080   1.520  0.2905  0.1042  0.1693
 6021SOL    HW129522   3.914   3.126   1.591  1.7753 -1.3399  0.1462
 6021SOL    HW229523   3.880   2.990   1.549  1.0774 -0.0415 -0.6032
 6022SOL     OW29524   3.291   0.998   5.357  0.5814 -0.2728  0.0198
 6022SOL    HW129525   3.240   0.920   5.380  1.5881 -0.8728  0.2151
 6022SOL    HW229526   3.377   0.975   5.391  0.3508  0.4903  1.1139
 6023SOL     OW29527   2.490   4.305   6.666 -0.0584 -0.3307 -0.6264
 6023SOL    HW129528   2.445   4.225   6.694 -2.1863  1.1514  0.2176
 6023SOL    HW229529   2.471   4.311   6.573  1.9267  0.7433 -0.9654
 6024SOL     OW29530   4.063   0.427  16.083 -0.1661 -0.0819 -0.1741
 6024SOL    HW129531   4.115   0.502  16.054  0.8488 -0.7878 -0.1794
 6024SOL    HW229532   4.052   0.455  16.174  0.0795 -1.3952  0.2531
 6025SOL     OW29533   0.052   2.679  16.270 -0.8275  0.2716  0.5260
 6025SOL    HW129534   0.093   2.703  16.353  0.6207  1.8351 -0.6482
 6025SOL    HW229535   0.131   2.663  16.218  0.0872 -1.1232  2.3158
 6026SOL     OW29536   2.519   2.453  11.666  0.0649 -0.0035 -0.0614
 6026SOL    HW129537   2.546   2.536  11.707 -1.4319  2.2191 -3.5524
 6026SOL    HW229538   2.520   2.482  11.575 -3.2051 -0.7867 -0.3361
 6027SOL     OW29539   1.473   3.234   4.566  0.5854  0.2122  0.3164
 6027SOL    HW129540   1.386   3.264   4.591  0.8009  0.0413  1.2702
 6027SOL    HW229541   1.458   3.142   4.548 -0.4761  0.3934  0.3105
 6028SOL     OW29542   4.013   1.300   7.276 -0.0690  0.5390 -0.0293
 6028SOL    HW129543   4.089   1.261   7.232  0.2277 -0.2202  1.1586
 6028SOL    HW229544   4.051   1.377   7.319 -0.7513  1.3461 -0.8694
 6029SOL     OW29545   4.296   0.385   3.963 -0.4143 -0.0483  0.4257
 6029SOL    HW129546   4.268   0.355   4.049 -0.3290 -0.3461  0.3533
 6029SOL    HW229547   4.307   0.479   3.970  0.4166  0.1253 -3.0476
 6030SOL     OW29548   2.121   0.854  14.594 -0.3297 -0.3217 -0.7709
 6030SOL    HW129549   2.107   0.759  14.597  1.4147 -0.5232  0.7351
 6030SOL    HW229550   2.042   0.897  14.628  0.3273  0.6984 -0.5401
 6031SOL     OW29551   3.716   2.549  12.807  0.3904 -0.2425 -0.3812
 6031SOL    HW129552   3.807   2.520  12.803  1.3585  2.8987 -1.7499
 6031SOL    HW229553   3.661   2.473  12.823 -0.5583  0.7047  0.8911
 6032SOL     OW29554   1.062   0.084  13.674  0.3274  0.8631  0.5252
 6032SOL    HW129555   1.151   0.054  13.693  0.5303  1.6891  0.8833
 6032SOL    HW229556   1.025   4.725  13.698  0.6729  0.8901  1.1458
 6033SOL     OW29557   1.245   2.432   8.184 -0.2344 -0.6532 -0.1935
 6033SOL    HW129558   1.195   2.350   8.187  0.7542 -1.2854 -1.1911
 6033SOL    HW229559   1.197   2.482   8.118 -0.7693 -0.3442  0.4252
 6034SOL     OW29560   3.467   4.695   3.990 -0.1361 -0.2347  0.1829
 6034SOL    HW129561   3.494   4.650   4.070  0.7903  2.0399  1.1439
 6034SOL    HW229562   3.548   0.004   3.952  1.5629 -1.8381  2.3526
 6035SOL     OW29563   1.351   3.400   1.885  0.3224 -0.3647 -0.0891
 6035SOL    HW129564   1.281   3.419   1.823 -1.0786  0.4324  1.7173
 6035SOL    HW229565   1.421   3.453   1.848  2.0212 -1.5437  1.4364
 6036SOL     OW29566   0.183   3.804   6.118 -0.5460 -0.3395  0.2590
 6036SOL    HW129567   0.268   3.794   6.161 -1.0242 -0.4107  1.1818
 6036SOL    HW229568   0.136   3.726   6.146  0.2122 -1.4487 -1.5973
 6037SOL     OW29569   1.855   1.322   0.097 -0.3205 -0.5752 -0.3841
 6037SOL    HW129570   1.882   1.235   0.066 -2.1059 -0.9844 -0.7868
 6037SOL    HW229571   1.845   1.296   0.189  2.5256 -0.1176  0.0742
 6038SOL     OW29572   2.689   3.300   4.132 -0.1462  0.1386  0.6021
 6038SOL    HW129573   2.713   3.383   4.171 -1.1007 -0.0782  1.6477
 6038SOL    HW229574   2.767   3.248   4.150  2.2923  3.7017  0.2333
 6039SOL     OW29575   2.991   2.117   1.343 -0.1182  0.2917  0.4325
 6039SOL    HW129576   3.013   2.166   1.265  1.2737 -0.2673  0.4803
 6039SOL    HW229577   2.901   2.086   1.329  0.4671 -2.2991  2.3268
 6040SOL     OW29578   1.198   3.147   7.094  0.4107  0.4371  0.0895
 6040SOL    HW129579   1.151   3.079   7.143  1.2647 -0.1374  0.1086
 6040SOL    HW229580   1.132   3.199   7.048 -0.1532 -1.5970 -1.3678
 6041SOL     OW29581   1.911   2.649  10.491 -0.9366 -0.1064 -0.6610
 6041SOL    HW129582   1.914   2.556  10.516  0.5330 -0.4662 -2.1507
 6041SOL    HW229583   1.815   2.646  10.486 -1.1044  1.2886  1.7258
 6042SOL     OW29584   2.363   3.465  13.389 -0.8054 -0.3843  0.3548
 6042SOL    HW129585   2.271   3.455  13.412 -1.0464 -0.6680 -0.7411
 6042SOL    HW229586   2.368   3.560  13.401  2.8697 -0.4026 -1.0271
 6043SOL     OW29587   0.378   3.400   8.108  0.0118 -0.7353 -0.7817
 6043SOL    HW129588   0.339   3.467   8.163 -0.4116 -2.3074  0.8611
 6043SOL    HW229589   0.332   3.324   8.144  0.7860 -1.1692 -0.7005
 6044SOL     OW29590   3.243   0.277   4.867  0.4708 -0.3140  0.8030
 6044SOL    HW129591   3.335   0.276   4.894  0.5882  1.6328  0.4407
 6044SOL    HW229592   3.199   0.227   4.937  0.5392 -0.3564  0.8160
 6045SOL     OW29593   2.538   1.989  12.729  0.5178  0.2679 -0.5269
 6045SOL    HW129594   2.581   2.004  12.813  1.7345 -1.2536 -0.8742
 6045SOL    HW229595   2.567   2.068  12.683  3.6812 -1.1617 -1.0272
 6046SOL     OW29596   0.394   4.216   0.691  1.3188  0.0278  0.2377
 6046SOL    HW129597   0.337   4.173   0.626  2.3893 -1.2045  0.1135
 6046SOL    HW229598   0.462   4.248   0.633  1.1760  1.6953  0.9985
 6047SOL     OW29599   3.506   1.629  10.764  0.1248 -0.2859 -0.4095
 6047SOL    HW129600   3.573   1.627  10.695  1.4136  1.4696  0.7938
 6047SOL    HW229601   3.429   1.600  10.715 -0.7593  1.2043  0.0765
 6048SOL     OW29602   3.421   1.911  11.225  0.1769 -0.3048  0.5786
 6048SOL    HW129603   3.443   1.827  11.183  2.2445 -0.0060  1.0759
 6048SOL    HW229604   3.476   1.974  11.179 -0.5872 -0.9107 -1.1769
 6049SOL     OW29605   0.286   3.763  14.055 -0.6110 -0.0273 -0.1802
 6049SOL    HW129606   0.305   3.850  14.090 -0.0534 -0.3620  0.3384
 6049SOL    HW229607   0.329   3.772  13.970 -0.9032 -1.7204 -0.5006
 6050SOL     OW29608   4.474   1.430   9.017 -0.3618 -0.3168 -0.0397
 6050SOL    HW129609   4.444   1.385   9.095 -0.1264 -1.8687 -0.8531
 6050SOL    HW229610   4.430   1.515   9.017 -1.1064 -0.7029 -0.5452
 6051SOL     OW29611   0.270   2.028   3.587  0.2517 -0.3900 -0.4061
 6051SOL    HW129612   0.320   2.091   3.535  1.9078 -1.6104 -0.2668
 6051SOL    HW229613   0.193   2.019   3.531  1.3656 -0.6339 -1.8982
 6052SOL     OW29614   4.399   0.527   1.885  0.4908  0.0129  0.2788
 6052SOL    HW129615   4.460   0.600   1.876 -0.9661  1.4523  1.8159
 6052SOL    HW229616   4.430   0.489   1.803 -0.2976  2.1206 -0.9964
 6053SOL     OW29617   1.211   0.638   5.923  0.2087  0.1161  0.2394
 6053SOL    HW129618   1.131   0.590   5.902  0.9316 -0.8003 -0.4199
 6053SOL    HW229619   1.249   0.586   5.995  1.0938 -0.1206 -0.4037
 6054SOL     OW29620   1.103   3.901   5.515  0.2456 -0.4688 -0.2234
 6054SOL    HW129621   1.128   3.810   5.504 -0.9681 -0.9906  1.4488
 6054SOL    HW229622   1.062   3.913   5.429 -0.6417 -0.8507  0.1503
 6055SOL     OW29623   3.678   1.504   8.454 -0.1399  0.4405 -0.0762
 6055SOL    HW129624   3.663   1.466   8.367  3.3924 -0.5966 -0.2276
 6055SOL    HW229625   3.597   1.492   8.503 -1.0441 -0.2212 -1.7316
 6056SOL     OW29626   1.529   3.697   3.039  0.0642  0.1602  0.5385
 6056SOL    HW129627   1.454   3.659   3.086  0.5077 -1.3439  0.0389
 6056SOL    HW229628   1.536   3.643   2.960 -0.8711  2.4856 -1.1296
 6057SOL     OW29629   2.297   2.133   8.370  0.0397  0.6251  0.3754
 6057SOL    HW129630   2.248   2.074   8.313 -0.2181 -1.4532  2.7442
 6057SOL    HW229631   2.328   2.072   8.437 -0.1800 -0.7520 -0.7603
 6058SOL     OW29632   4.258   3.049   3.835  0.1829  0.3784  0.1978
 6058SOL    HW129633   4.280   2.973   3.782  1.4886 -1.0477  2.8105
 6058SOL    HW229634   4.244   3.111   3.763  0.7104  1.7379  1.2526
 6059SOL     OW29635   2.349   2.044   9.005 -0.1535  0.6507  0.1028
 6059SOL    HW129636   2.367   2.124   9.055  1.9341  0.1598  0.1370
 6059SOL    HW229637   2.437   2.008   8.993 -1.6887 -2.5951 -1.4776
 6060SOL     OW29638   1.814   4.215   3.556 -0.0797 -0.2976 -0.2325
 6060SOL    HW129639   1.723   4.186   3.547  0.2045 -1.7309  1.4421
 6060SOL    HW229640   1.820   4.282   3.488  2.0514 -0.8087 -0.5700
 6061SOL     OW29641   2.756   3.108   6.287  0.0175  0.1025  0.6239
 6061SOL    HW129642   2.834   3.164   6.293  0.8844 -0.9989 -0.4592
 6061SOL    HW229643   2.693   3.165   6.331  0.6680  2.7158 -1.7653
 6062SOL     OW29644   0.940   4.344   3.535  0.8739  0.5656  0.0449
 6062SOL    HW129645   0.949   4.434   3.504  0.3860  0.6586  0.1807
 6062SOL    HW229646   1.021   4.332   3.585  0.5921 -0.1005  0.3409
 6063SOL     OW29647   3.762   2.523   5.704 -0.1315 -0.3069  0.3083
 6063SOL    HW129648   3.669   2.518   5.682 -0.9124 -1.0834  3.7688
 6063SOL    HW229649   3.768   2.618   5.713 -0.5855 -0.1162 -1.2621
 6064SOL     OW29650   4.017   3.112   4.579 -0.2085  0.0951  0.5332
 6064SOL    HW129651   4.102   3.092   4.541  0.7145 -0.3043  2.7830
 6064SOL    HW229652   3.994   3.026   4.615  1.3227  0.0528  1.4037
 6065SOL     OW29653   4.256   0.368   3.488  0.4647 -0.1047  0.1682
 6065SOL    HW129654   4.172   0.348   3.446 -0.0465 -2.4056  2.2603
 6065SOL    HW229655   4.269   0.461   3.471  0.1739  0.1832  1.4867
 6066SOL     OW29656   0.365   3.199   3.686 -0.4961  0.7519 -0.7148
 6066SOL    HW129657   0.360   3.260   3.612 -0.6515  0.3855 -1.0031
 6066SOL    HW229658   0.377   3.115   3.643 -1.6785 -0.2179  0.8666
 6067SOL     OW29659   4.484   3.384   4.855 -0.1594 -0.0932 -0.8982
 6067SOL    HW129660   4.498   3.291   4.873  0.2488  0.5134  1.9208
 6067SOL    HW229661   4.439   3.382   4.771 -0.7455 -0.5560 -0.5680
 6068SOL     OW29662   0.865   3.196   0.339  0.0590  0.9523  0.1873
 6068SOL    HW129663   0.891   3.106   0.319 -0.1705  1.1532 -1.0146
 6068SOL    HW229664   0.944   3.222   0.385 -0.1449  3.6108 -0.9874
 6069SOL     OW29665   3.933   2.323   2.186  0.3640 -0.2816 -0.1404
 6069SOL    HW129666   3.916   2.417   2.184 -2.2033 -0.7427 -0.2672
 6069SOL    HW229667   3.849   2.283   2.163 -0.4999  1.1613  0.5280
 6070SOL     OW29668   0.215   3.021  17.264 -0.2557  0.5259  0.3998
 6070SOL    HW129669   0.216   3.086  17.194 -0.6536 -0.8211 -0.8746
 6070SOL    HW229670   0.299   3.047  17.301  0.2593  1.0827 -1.1656
 6071SOL     OW29671   0.412   1.013   8.073 -0.4526  0.2213 -0.3192
 6071SOL    HW129672   0.383   1.012   7.982  0.3745 -0.7018 -0.5694
 6071SOL    HW229673   0.415   0.920   8.093 -2.0363  0.5211  1.3252
 6072SOL     OW29674   1.452   2.105   2.917  0.2009  0.6079  0.3093
 6072SOL    HW129675   1.543   2.082   2.933 -0.3180 -0.1983  2.0814
 6072SOL    HW229676   1.402   2.028   2.943 -1.1629  0.9787 -1.2071
 6073SOL     OW29677   1.843   3.219   5.979 -0.0133 -0.3967 -0.0002
 6073SOL    HW129678   1.831   3.125   5.992  1.3655 -0.1838  2.8760
 6073SOL    HW229679   1.906   3.213   5.907 -0.7574 -2.1763 -0.5013
 6074SOL     OW29680   4.682   0.728   6.836 -0.5226 -0.2778  0.6629
 6074SOL    HW129681   4.684   0.821   6.861 -0.3082 -0.7996  2.5381
 6074SOL    HW229682   4.717   0.738   6.747 -0.1962  0.1624  0.8382
 6075SOL     OW29683   0.232   2.735   8.187  0.3040  0.3477 -0.2444
 6075SOL    HW129684   0.283   2.728   8.267  2.1534 -3.3073 -1.7702
 6075SOL    HW229685   0.167   2.800   8.215 -1.5244 -1.4178 -0.4101
 6076SOL     OW29686   3.954   0.978   6.485  0.4433 -0.4318 -0.1385
 6076SOL    HW129687   3.882   0.930   6.445  0.5452 -0.5960 -0.1213
 6076SOL    HW229688   3.931   1.064   6.448 -0.1054 -0.9327 -0.9670
 6077SOL     OW29689   0.436   0.212  10.107 -0.0154 -0.1390  0.0139
 6077SOL    HW129690   0.370   0.152  10.142  1.7365 -2.1369 -0.0726
 6077SOL    HW229691   0.515   0.158  10.099 -0.1460 -0.7327  2.7586
 6078SOL     OW29692   0.864   3.980   0.579 -0.4057 -0.2713 -0.0640
 6078SOL    HW129693   0.879   3.910   0.515  0.4973  1.6745 -2.0002
 6078SOL    HW229694   0.925   3.953   0.648 -2.2957 -1.7660  1.0061
 6079SOL     OW29695   3.679   0.152  15.283 -0.0700  0.4885  0.8207
 6079SOL    HW129696   3.736   0.075  15.289 -0.6027  0.1446  1.4117
 6079SOL    HW229697   3.620   0.139  15.357 -1.1503  1.5698  0.1474
 6080SOL     OW29698   3.246   0.870   6.480  0.0811  0.5189  0.3250
 6080SOL    HW129699   3.257   0.859   6.574  1.6541 -0.6015  0.0175
 6080SOL    HW229700   3.156   0.843   6.466  0.7529 -2.1692  1.2204
 6081SOL     OW29701   2.506   1.263  13.044 -0.3264  0.0561 -0.9951
 6081SOL    HW129702   2.444   1.251  13.116 -0.4082 -0.5204 -1.1629
 6081SOL    HW229703   2.456   1.323  12.988 -0.8346 -2.6982 -3.4458
 6082SOL     OW29704   0.107   3.549  15.102 -0.3931 -0.2992 -0.8992
 6082SOL    HW129705   0.132   3.582  15.016  0.1857  0.6586 -0.3664
 6082SOL    HW229706   0.148   3.463  15.107 -0.2376  0.0165  3.3572
 6083SOL     OW29707   4.552   4.140   2.781  0.0102  0.1102  0.3170
 6083SOL    HW129708   4.612   4.205   2.746  0.0584  0.0870  0.3564
 6083SOL    HW229709   4.530   4.193   2.858  1.5536  2.3828 -0.8142
 6084SOL     OW29710   0.770   2.669   6.103 -0.1757  0.1496  0.0782
 6084SOL    HW129711   0.805   2.580   6.100 -1.7332 -0.5160  1.2208
 6084SOL    HW229712   0.675   2.659   6.113 -0.5934  2.2885 -1.8515
 6085SOL     OW29713   1.699   2.143   9.547  0.5763  0.1220  0.4857
 6085SOL    HW129714   1.623   2.137   9.605  0.6482 -0.3591  0.5257
 6085SOL    HW229715   1.763   2.149   9.618 -2.5767  0.4182  3.2886
 6086SOL     OW29716   2.322   0.203   4.622 -0.2179  0.2738 -0.6135
 6086SOL    HW129717   2.406   0.162   4.601  0.2683  0.0677  1.7403
 6086SOL    HW229718   2.333   0.223   4.715  0.4653 -2.4497 -0.0990
 6087SOL     OW29719   0.510   3.250   5.648  0.3708  0.1115  0.0535
 6087SOL    HW129720   0.448   3.252   5.575  0.5578  2.0272 -0.0298
 6087SOL    HW229721   0.453   3.287   5.715  1.5881 -0.0281  1.1495
 6088SOL     OW29722   1.710   4.652  14.740 -0.3317 -0.1679  0.0441
 6088SOL    HW129723   1.777   4.590  14.712  0.0577 -0.9929  2.7826
 6088SOL    HW229724   1.659   4.592  14.794  0.9393 -0.3232  1.0698
 6089SOL     OW29725   1.159   0.635  16.700  0.6512 -0.3358  0.0436
 6089SOL    HW129726   1.133   0.682  16.780 -0.4797 -1.7882  0.5198
 6089SOL    HW229727   1.213   0.705  16.662  0.2249  0.7547  1.4253
 6090SOL     OW29728   1.109   3.222   7.686 -0.2744 -0.2748  0.0980
 6090SOL    HW129729   1.084   3.291   7.748 -0.3161  0.0865 -0.3228
 6090SOL    HW229730   1.078   3.259   7.603  0.2267 -2.1318 -0.9309
 6091SOL     OW29731   0.351   1.342   3.132  0.0483  0.1036 -0.1842
 6091SOL    HW129732   0.316   1.298   3.209 -0.7270 -0.9461 -1.1386
 6091SOL    HW229733   0.412   1.407   3.167  0.8640  0.2361 -1.8534
 6092SOL     OW29734   2.960   1.287   5.486  0.3300  0.1008  0.4330
 6092SOL    HW129735   2.979   1.335   5.406  3.0064 -0.3590  0.7887
 6092SOL    HW229736   3.049   1.267   5.514 -0.5388 -2.4981  1.3608
 6093SOL     OW29737   3.789   3.606  17.694  0.0064  0.6205  0.2905
 6093SOL    HW129738   3.752   3.519  17.680  0.1221  0.4632  0.9837
 6093SOL    HW229739   3.874   3.581   0.025  1.1214  1.4605 -1.8612
 6094SOL     OW29740   4.177   0.821   8.583  0.0205  0.0781 -0.1957
 6094SOL    HW129741   4.119   0.801   8.509 -0.5989 -1.3776  0.6688
 6094SOL    HW229742   4.127   0.878   8.642  2.4451  1.8645  0.1052
 6095SOL     OW29743   2.966   0.444   1.212 -0.2785 -0.3528 -0.2838
 6095SOL    HW129744   2.974   0.371   1.151 -0.5966 -2.2207  1.9098
 6095SOL    HW229745   3.057   0.473   1.219 -0.3729  0.6909 -3.3836
 6096SOL     OW29746   4.383   4.670   3.671  0.3636 -0.0724 -0.2180
 6096SOL    HW129747   4.434   4.599   3.708 -2.3597 -1.9033  0.0494
 6096SOL    HW229748   4.311   4.697   3.729  0.0626 -0.2114 -0.5241
 6097SOL     OW29749   1.425   1.204  13.042 -0.0140  0.2123  0.0692
 6097SOL    HW129750   1.337   1.196  13.005 -0.8364 -0.1361  2.1260
 6097SOL    HW229751   1.443   1.116  13.075  2.0304  0.9942  1.0810
 6098SOL     OW29752   3.955   0.376   4.749 -0.0840  0.3145  0.6032
 6098SOL    HW129753   4.013   0.378   4.825 -0.1689 -0.0447  0.6779
 6098SOL    HW229754   3.927   0.467   4.744  1.3358  0.6267 -1.5073
 6099SOL     OW29755   2.666   3.820   6.470  0.0479  0.0420 -0.6343
 6099SOL    HW129756   2.729   3.855   6.533  0.3049  0.1565 -0.9579
 6099SOL    HW229757   2.592   3.872   6.503  1.5912  2.3116 -0.7570
 6100SOL     OW29758   3.444   0.487   1.803  0.0403  0.8011 -0.0231
 6100SOL    HW129759   3.375   0.543   1.839 -1.1474  0.9006 -2.4390
 6100SOL    HW229760   3.395   0.418   1.757 -1.1856  0.4306  1.7833
 6101SOL     OW29761   3.648   0.868   4.670  0.4765  0.0103 -0.1556
 6101SOL    HW129762   3.710   0.897   4.737 -0.6568 -1.6027  1.5878
 6101SOL    HW229763   3.709   0.873   4.596  0.9536 -1.5849  0.1250
 6102SOL     OW29764   4.296   1.319   1.110 -0.3836  0.1169  0.1022
 6102SOL    HW129765   4.391   1.331   1.103 -0.3138 -0.5848 -0.1402
 6102SOL    HW229766   4.290   1.274   1.195 -2.4632  1.6115  0.7441
 6103SOL     OW29767   0.826   1.815   4.748 -0.8551  0.1510  0.0553
 6103SOL    HW129768   0.792   1.798   4.660  0.7841 -3.0730  0.0256
 6103SOL    HW229769   0.886   1.883   4.716  0.8366 -0.9545  0.8412
 6104SOL     OW29770   0.628   0.568   5.408 -0.4541  0.6793  0.3419
 6104SOL    HW129771   0.697   0.566   5.341 -0.7272 -1.8472  0.1163
 6104SOL    HW229772   0.682   0.556   5.486  1.4851  1.9920 -0.7951
 6105SOL     OW29773   1.872   2.604  13.737 -0.2085  0.0934 -0.4421
 6105SOL    HW129774   1.963   2.616  13.709  0.0073 -1.4011 -0.4160
 6105SOL    HW229775   1.849   2.559  13.656 -0.7477 -1.8244  0.7588
 6106SOL     OW29776   0.236   3.972  10.813 -0.1187  0.6024 -0.3025
 6106SOL    HW129777   0.155   3.993  10.766  0.2645 -0.8953 -1.6441
 6106SOL    HW229778   0.288   3.925  10.748 -1.2009 -1.3770  0.2869
 6107SOL     OW29779   4.270   3.093   4.109  0.0260  0.0100  0.0196
 6107SOL    HW129780   4.248   3.079   4.016  0.1975  0.4002 -0.0789
 6107SOL    HW229781   4.280   3.000   4.131 -3.2930 -0.1293  0.9455
 6108SOL     OW29782   3.686   3.182  15.508  0.1777 -0.0903 -0.2471
 6108SOL    HW129783   3.677   3.123  15.583  0.1468  2.4482  1.7578
 6108SOL    HW229784   3.729   3.132  15.438 -0.9656 -0.8339 -0.4139
 6109SOL     OW29785   0.080   4.136   6.614 -0.5282  0.0115 -0.2382
 6109SOL    HW129786   0.106   4.181   6.534 -1.5897 -1.6226 -1.5048
 6109SOL    HW229787   0.061   4.056   6.566  0.4871 -1.1459  1.2899
 6110SOL     OW29788   0.593   3.417   6.663 -0.2610 -0.8250  0.2155
 6110SOL    HW129789   0.592   3.346   6.599 -1.2635 -1.5185  1.0019
 6110SOL    HW229790   0.536   3.377   6.729 -2.1765  2.1342  0.3592
 6111SOL     OW29791   2.914   0.618   7.930  0.2820  0.0693  0.3522
 6111SOL    HW129792   2.889   0.534   7.892 -1.7977  0.4249  0.9750
 6111SOL    HW229793   2.827   0.658   7.925  0.0261 -0.4454  0.6892
 6112SOL     OW29794   1.706   2.005   8.683 -0.4674 -0.5947 -0.2560
 6112SOL    HW129795   1.703   1.909   8.677  2.9578 -0.5981 -1.7525
 6112SOL    HW229796   1.800   2.020   8.675 -0.2834 -1.9682 -0.7690
 6113SOL     OW29797   2.016   0.635   5.490 -0.1157 -0.2130  0.4333
 6113SOL    HW129798   2.049   0.694   5.558 -0.3388  1.2609 -0.7191
 6113SOL    HW229799   2.094   0.587   5.461 -1.2664 -2.0682  0.4664
 6114SOL     OW29800   0.192   0.142   3.303  0.4107 -0.5498 -0.3856
 6114SOL    HW129801   0.147   0.226   3.313  0.1062 -0.5876 -1.4760
 6114SOL    HW229802   0.128   0.078   3.271 -0.1411 -0.8920  1.3607
 6115SOL     OW29803   0.050   4.689   2.674 -0.2856  0.0803  0.3837
 6115SOL    HW129804   0.102   0.044   2.676  0.3772 -0.3223 -0.5537
 6115SOL    HW229805   0.123   4.631   2.697  0.0843  0.6182  0.5474
 6116SOL     OW29806   2.390   1.408  14.048 -0.5195  0.3744  0.2553
 6116SOL    HW129807   2.318   1.441  13.993 -2.8506 -0.6901  2.7193
 6116SOL    HW229808   2.442   1.488  14.053  0.2606 -0.3166  2.9199
 6117SOL     OW29809   0.697   2.608   7.279 -0.2925 -0.2013  0.8850
 6117SOL    HW129810   0.748   2.573   7.206 -0.3424  0.3059  0.6080
 6117SOL    HW229811   0.758   2.656   7.335 -3.0563  1.1951  2.6699
 6118SOL     OW29812   3.582   4.083   4.137 -0.1052 -0.2104 -0.2951
 6118SOL    HW129813   3.507   4.030   4.112 -0.8055  1.3181 -1.4280
 6118SOL    HW229814   3.627   4.019   4.192  2.6774 -1.5027 -4.1144
 6119SOL     OW29815   1.505   3.629  10.076  0.0368 -0.2841 -0.1000
 6119SOL    HW129816   1.499   3.604   9.984 -1.4411  0.0242 -0.0981
 6119SOL    HW229817   1.588   3.676  10.073  0.4377 -0.9630  0.4246
 6120SOL     OW29818   2.958   1.592   2.758  0.5085 -0.3460 -0.5074
 6120SOL    HW129819   3.040   1.610   2.804 -0.1176  0.6987  0.2117
 6120SOL    HW229820   2.900   1.652   2.806  1.3737  0.9517 -1.0815
 6121SOL     OW29821   3.474   0.137   8.298 -0.1243 -0.3432  0.2237
 6121SOL    HW129822   3.389   0.157   8.337 -0.5898 -2.4770  0.2930
 6121SOL    HW229823   3.468   0.180   8.212 -1.6123 -1.1572 -0.0727
 6122SOL     OW29824   2.641   3.516   0.683 -0.2206  0.5046 -0.0397
 6122SOL    HW129825   2.593   3.439   0.711 -1.3520  0.8163 -1.1348
 6122SOL    HW229826   2.636   3.502   0.588  0.3162 -0.7398  0.1127
 6123SOL     OW29827   4.193   0.823   5.034 -0.0139 -0.4890  0.5792
 6123SOL    HW129828   4.121   0.760   5.046 -1.1459  0.6910  0.0132
 6123SOL    HW229829   4.199   0.847   5.126  1.6392 -1.0114  0.6126
 6124SOL     OW29830   1.203   3.260   2.313 -0.5363 -0.1229 -0.1612
 6124SOL    HW129831   1.115   3.260   2.351  0.7766  0.4312  2.8508
 6124SOL    HW229832   1.213   3.341   2.265 -0.6555  0.0026  0.0237
 6125SOL     OW29833   0.793   1.711  13.002 -0.3695  0.2785 -0.1609
 6125SOL    HW129834   0.836   1.745  13.080  0.2988  0.9718 -0.8394
 6125SOL    HW229835   0.713   1.763  13.004 -1.2052 -0.9821 -0.8478
 6126SOL     OW29836   0.294   2.919   8.745 -0.1409  0.1078 -0.1181
 6126SOL    HW129837   0.352   2.849   8.775 -0.8152  0.6649  2.4908
 6126SOL    HW229838   0.268   2.945   8.834 -1.5745 -1.3961 -0.0852
 6127SOL     OW29839   3.517   1.096   8.154  0.4760 -0.0188  0.1718
 6127SOL    HW129840   3.436   1.132   8.118  0.2221 -1.4424 -0.6673
 6127SOL    HW229841   3.503   1.003   8.170  1.7666 -0.2069  0.1779
 6128SOL     OW29842   1.891   2.240   9.712 -0.4125 -0.3735  0.1623
 6128SOL    HW129843   1.858   2.240   9.802 -2.0909 -2.4047 -0.4494
 6128SOL    HW229844   1.985   2.226   9.725 -0.0226  0.5029 -1.8015
 6129SOL     OW29845   2.490   3.702   8.461 -0.4024  0.1461  0.3951
 6129SOL    HW129846   2.398   3.688   8.483 -1.2909  2.0838 -2.2449
 6129SOL    HW229847   2.502   3.609   8.442  0.0916  0.6725 -1.8529
 6130SOL     OW29848   1.698   3.275   2.123 -0.3400 -0.5165  0.3109
 6130SOL    HW129849   1.769   3.270   2.187 -0.4802 -1.4021  0.4029
 6130SOL    HW229850   1.760   3.283   2.051 -1.3193  0.7607 -0.3851
 6131SOL     OW29851   1.215   3.135   0.257 -0.6035  0.4802  0.1615
 6131SOL    HW129852   1.216   3.050   0.213  0.7059  0.5716  0.0013
 6131SOL    HW229853   1.217   3.111   0.350  0.2706  1.7008  0.4531
 6132SOL     OW29854   1.322   1.417   4.109 -1.2065  0.5041  0.4050
 6132SOL    HW129855   1.265   1.481   4.066 -1.2217 -0.3049 -0.7769
 6132SOL    HW229856   1.280   1.406   4.194  2.3795 -0.3091  2.0560
 6133SOL     OW29857   3.258   2.802  15.382  0.3747  0.9237  0.3277
 6133SOL    HW129858   3.194   2.808  15.312  0.4434  1.4272  0.3128
 6133SOL    HW229859   3.197   2.781  15.454 -0.8370 -1.4416 -1.3758
 6134SOL     OW29860   4.577   4.104  11.701  0.9338 -0.0549  0.3838
 6134SOL    HW129861   4.563   4.018  11.740 -0.5667 -0.9020 -1.9986
 6134SOL    HW229862   4.673   4.103  11.696  0.8485 -0.5136 -1.3334
 6135SOL     OW29863   0.962   0.518  16.467  0.5510  0.5166 -0.0475
 6135SOL    HW129864   1.037   0.513  16.408  0.3212 -2.4847 -0.1023
 6135SOL    HW229865   1.010   0.543  16.546  0.7726  0.7929 -0.2742
 6136SOL     OW29866   0.024   2.733  11.317 -0.1871 -0.5075 -0.4449
 6136SOL    HW129867   0.076   2.725  11.397 -1.8208 -3.3073  0.3187
 6136SOL    HW229868   0.055   2.818  11.283 -1.3793  0.4466  0.8449
 6137SOL     OW29869   0.030   3.831  11.088  0.8032 -0.3478  0.4835
 6137SOL    HW129870   0.122   3.811  11.105  0.5351 -1.7536  0.3272
 6137SOL    HW229871   0.032   3.924  11.109  1.3168 -0.6821  1.8684
 6138SOL     OW29872   2.506   1.427   8.281 -0.1304  0.6516 -0.1836
 6138SOL    HW129873   2.495   1.473   8.364  1.3632  0.4959  0.1110
 6138SOL    HW229874   2.493   1.498   8.219  1.1724  1.1826  0.1565
 6139SOL     OW29875   4.018   3.694   3.568 -0.1510  0.6230  0.4522
 6139SOL    HW129876   4.036   3.787   3.585 -1.3729  0.6749  1.4923
 6139SOL    HW229877   3.928   3.688   3.600 -0.9272  0.7219 -1.7414
 6140SOL     OW29878   3.497   4.185  15.736 -0.3591 -0.5479  0.2069
 6140SOL    HW129879   3.465   4.131  15.664 -2.2076 -0.3960  0.8922
 6140SOL    HW229880   3.558   4.242  15.689  0.0672 -1.2566 -0.0911
 6141SOL     OW29881   2.877   2.433   4.124  0.3516 -0.4260 -0.0009
 6141SOL    HW129882   2.965   2.462   4.102  0.1521  0.2412  0.0795
 6141SOL    HW229883   2.851   2.368   4.059  1.3819 -2.1500  1.3236
 6142SOL     OW29884   1.484   3.333   0.741  0.4255 -0.0423 -0.2191
 6142SOL    HW129885   1.406   3.359   0.790  0.3434 -0.3133 -0.2016
 6142SOL    HW229886   1.529   3.285   0.810 -0.1361  0.5566  0.5633
 6143SOL     OW29887   2.740   0.756   6.936  0.1115  0.5468 -0.4398
 6143SOL    HW129888   2.671   0.804   6.890 -1.9278  0.0098  2.0549
 6143SOL    HW229889   2.721   0.666   6.910  1.0551  0.3733 -0.5529
 6144SOL     OW29890   3.654   3.256  13.568 -0.6262  0.0900 -0.4351
 6144SOL    HW129891   3.578   3.212  13.605 -2.2540  0.7785 -2.9254
 6144SOL    HW229892   3.664   3.324  13.635  1.8768  0.6361 -1.3740
 6145SOL     OW29893   0.974   0.748   2.561  0.6464  0.0551  0.3097
 6145SOL    HW129894   0.935   0.691   2.495  0.4536  1.5633 -0.8750
 6145SOL    HW229895   0.904   0.760   2.625 -2.6411  0.6243 -3.4167
 6146SOL     OW29896   0.344   4.659  14.262  0.2455  0.2564  0.9780
 6146SOL    HW129897   0.408   4.659  14.333  0.3999  0.0270  0.8382
 6146SOL    HW229898   0.348   4.571  14.223 -0.8090  2.0623 -3.2457
 6147SOL     OW29899   4.147   1.053   7.893  0.5933  0.5623  0.2318
 6147SOL    HW129900   4.075   0.993   7.914  1.6039 -0.4960  0.6970
 6147SOL    HW229901   4.138   1.131   7.949 -1.3050 -0.0570  0.8010
 6148SOL     OW29902   1.982   3.201   7.747  0.3088  0.5129  0.6244
 6148SOL    HW129903   1.987   3.112   7.782  0.3964  0.1841 -0.2286
 6148SOL    HW229904   1.913   3.238   7.802  0.2465  1.0157  0.2079
 6149SOL     OW29905   1.137   1.293   7.264  0.0616  0.2397 -0.1316
 6149SOL    HW129906   1.079   1.255   7.331 -0.2652  1.0435  0.0411
 6149SOL    HW229907   1.135   1.388   7.277  0.8724  0.6018 -2.5935
 6150SOL     OW29908   0.840   2.925   2.791 -0.3020  0.3604 -0.5803
 6150SOL    HW129909   0.763   2.934   2.848 -0.2772 -0.8640 -0.3621
 6150SOL    HW229910   0.880   2.847   2.830  0.0211  1.3223  1.0286
 6151SOL     OW29911   0.763   3.047  11.371  0.3843  0.8576 -0.4063
 6151SOL    HW129912   0.855   3.048  11.345  0.5653  1.3992  0.2512
 6151SOL    HW229913   0.766   3.057  11.466  1.6307  2.0716 -0.5609
 6152SOL     OW29914   2.795   0.404   0.464 -0.0222  0.5657 -0.1358
 6152SOL    HW129915   2.836   0.449   0.390  1.2314 -0.3100  0.0204
 6152SOL    HW229916   2.780   0.483   0.514 -0.1890  0.2361  0.3303
 6153SOL     OW29917   1.015   0.399   7.023 -0.0854  0.1179 -0.2064
 6153SOL    HW129918   1.007   0.311   6.987 -0.6688 -0.3305  1.0124
 6153SOL    HW229919   1.089   0.388   7.083  0.1243  0.4569 -0.4024
 6154SOL     OW29920   3.104   3.991   3.140  0.2088 -0.2096  0.4071
 6154SOL    HW129921   3.080   3.991   3.232  0.9799 -2.0613  0.6061
 6154SOL    HW229922   3.182   3.936   3.141  1.4670  1.5899  1.0296
 6155SOL     OW29923   0.906   2.815  15.712 -0.3490 -0.7140  0.0791
 6155SOL    HW129924   1.001   2.828  15.717 -0.2338 -1.3346 -0.4550
 6155SOL    HW229925   0.871   2.850  15.794  0.9706 -0.1279  0.3914
 6156SOL     OW29926   2.444   4.457   3.377  0.0286 -0.1597 -0.4981
 6156SOL    HW129927   2.406   4.529   3.428 -3.0894 -2.4983  0.5036
 6156SOL    HW229928   2.509   4.504   3.326 -2.1422  2.9356 -0.4152
 6157SOL     OW29929   4.518   1.633   3.703 -0.0637 -0.1938 -0.1089
 6157SOL    HW129930   4.578   1.624   3.778 -1.1373 -1.6070  0.5794
 6157SOL    HW229931   4.481   1.721   3.711 -1.5002 -0.7945 -0.2136
 6158SOL     OW29932   4.050   0.626   0.596  0.1374  0.3244 -0.2513
 6158SOL    HW129933   4.142   0.613   0.576 -0.4843 -0.5141 -2.6490
 6158SOL    HW229934   4.016   0.542   0.626 -0.2203  0.5347 -0.0690
 6159SOL     OW29935   1.074   3.419  12.641  0.6912  0.0033  0.3231
 6159SOL    HW129936   1.073   3.495  12.700  0.7782  0.9007 -0.8413
 6159SOL    HW229937   0.991   3.383  12.670  0.7492 -0.4783 -0.1040
 6160SOL     OW29938   1.609   3.332   6.964 -0.3952 -0.6126  0.4857
 6160SOL    HW129939   1.552   3.314   7.039 -3.8058 -0.1883 -1.9799
 6160SOL    HW229940   1.650   3.416   6.985 -1.6264  0.3571 -0.9696
 6161SOL     OW29941   2.524   3.081   2.356  0.0436 -0.0468 -0.4463
 6161SOL    HW129942   2.599   3.022   2.363 -0.4296 -0.4018  1.8244
 6161SOL    HW229943   2.453   3.027   2.323 -0.4352 -0.2255  0.8632
 6162SOL     OW29944   3.923   3.400   1.511  0.3352 -0.0543 -0.3233
 6162SOL    HW129945   3.902   3.331   1.574 -0.5638  1.8759  1.5280
 6162SOL    HW229946   3.882   3.475   1.555 -2.7764 -0.9135 -1.7598
 6163SOL     OW29947   3.037   0.230   7.043  0.3256  0.4054 -0.1575
 6163SOL    HW129948   3.115   0.174   7.045 -1.5509 -2.2763 -0.7488
 6163SOL    HW229949   3.033   0.260   6.952 -0.8820  0.0111 -0.2326
 6164SOL     OW29950   2.783   4.510  16.472 -0.0072 -0.2341  0.4548
 6164SOL    HW129951   2.795   4.560  16.553 -0.4153  0.6038 -0.0009
 6164SOL    HW229952   2.688   4.499  16.464 -0.0365 -0.2761  0.8483
 6165SOL     OW29953   0.277   2.045   4.984 -0.4406 -0.1184 -0.4231
 6165SOL    HW129954   0.258   2.130   5.024 -2.1672 -1.0600  0.7322
 6165SOL    HW229955   0.372   2.040   4.997 -0.3846  2.0065 -0.0009
 6166SOL     OW29956   0.750   1.741   5.008 -0.1640 -0.1711 -0.0718
 6166SOL    HW129957   0.755   1.646   4.999 -0.4499 -0.4498  2.6538
 6166SOL    HW229958   0.763   1.769   4.917  0.6984  1.5667  0.5747
 6167SOL     OW29959   4.637   2.834  16.654  0.2368 -0.2648  0.6135
 6167SOL    HW129960   4.606   2.748  16.626 -0.5007  0.9675 -2.3866
 6167SOL    HW229961   4.620   2.888  16.577 -0.1750 -0.8773  0.2738
 6168SOL     OW29962   3.928   2.659  10.229 -0.1026 -0.3986  0.2209
 6168SOL    HW129963   3.928   2.580  10.283  1.8908 -1.7639 -1.7912
 6168SOL    HW229964   3.962   2.627  10.146  1.6018 -1.9260  1.5055
 6169SOL     OW29965   1.939   1.164  15.554  0.1698  0.1496 -0.2672
 6169SOL    HW129966   1.911   1.151  15.645  3.0505 -2.4493  0.2682
 6169SOL    HW229967   1.981   1.080  15.534 -0.5417 -0.0465 -0.9148
 6170SOL     OW29968   3.041   3.992  11.709  0.1473  0.2848  0.0516
 6170SOL    HW129969   2.946   3.975  11.705 -0.2932  2.1308  2.7456
 6170SOL    HW229970   3.049   4.086  11.695  2.5487  0.0222 -0.2786
 6171SOL     OW29971   1.687   3.954   7.833 -0.3409 -0.2634 -0.1230
 6171SOL    HW129972   1.597   3.977   7.854 -0.9244 -1.5077 -1.2561
 6171SOL    HW229973   1.711   3.924   7.920 -0.4946  0.5631  0.2004
 6172SOL     OW29974   2.463   3.861   5.918 -0.2904 -0.5656  0.4932
 6172SOL    HW129975   2.406   3.937   5.909  0.2709 -0.5312 -2.7007
 6172SOL    HW229976   2.516   3.888   5.992  0.1062 -1.1625  0.4286
 6173SOL     OW29977   3.368   4.424   6.852  0.3587 -0.4068  0.3458
 6173SOL    HW129978   3.330   4.450   6.935 -3.3400  2.8176 -2.3962
 6173SOL    HW229979   3.321   4.345   6.826 -2.0889  1.3070 -0.3804
 6174SOL     OW29980   2.157   1.535  13.967  0.8554 -0.6614 -0.4685
 6174SOL    HW129981   2.093   1.493  13.910 -1.0299  1.9102 -0.2474
 6174SOL    HW229982   2.108   1.600  14.018  1.1670 -0.8451  0.0697
 6175SOL     OW29983   1.706   3.471   4.065  0.2009  0.1867 -0.1494
 6175SOL    HW129984   1.628   3.416   4.074  1.4125 -1.4582  0.3637
 6175SOL    HW229985   1.780   3.413   4.050  0.3732  0.0977  1.0151
 6176SOL     OW29986   2.037   2.012   3.524 -0.2144  0.0131 -0.4866
 6176SOL    HW129987   2.006   2.103   3.522  0.1662  0.1664  1.1692
 6176SOL    HW229988   1.958   1.961   3.504  0.7664 -0.9721 -1.9037
 6177SOL     OW29989   1.789   0.653   9.147 -0.5310 -0.0061 -0.3231
 6177SOL    HW129990   1.846   0.651   9.070 -1.2600 -0.6410 -0.8422
 6177SOL    HW229991   1.744   0.569   9.135 -1.3939  0.1664  1.7072
 6178SOL     OW29992   4.255   4.672   9.584  0.0590 -0.0698  0.4981
 6178SOL    HW129993   4.163   4.670   9.556  0.4986  3.0329 -1.1104
 6178SOL    HW229994   4.255   4.679   9.679  0.0388 -2.0081  0.6581
 6179SOL     OW29995   0.993   4.185   6.625 -0.2624 -0.1473  0.3350
 6179SOL    HW129996   1.012   4.095   6.597  5.7262  1.3706 -0.4054
 6179SOL    HW229997   0.912   4.198   6.577  0.4898 -0.7073 -1.0764
 6180SOL     OW29998   2.291   3.945   1.862 -0.3978 -0.1203 -0.4671
 6180SOL    HW129999   2.272   3.851   1.864 -0.9171 -0.0262 -0.8965
 6180SOL    HW230000   2.386   3.945   1.851 -0.0405  0.8993  2.4909
 6181SOL     OW30001   1.337   4.718   7.771  0.0821 -0.6953 -0.4728
 6181SOL    HW130002   1.369   4.633   7.741 -1.1487 -1.1214 -0.6056
 6181SOL    HW230003   1.309   4.700   7.861  0.6797 -1.3602 -0.4210
 6182SOL     OW30004   1.556   3.569   8.054  0.2437 -0.0119  0.1112
 6182SOL    HW130005   1.614   3.643   8.073 -0.2124  0.7559 -1.5533
 6182SOL    HW230006   1.580   3.513   8.128  0.7457 -1.8226 -1.3946
 6183SOL     OW30007   0.769   2.817   1.296  0.4705 -0.1299  0.3990
 6183SOL    HW130008   0.685   2.794   1.334  0.8978 -1.1958  0.7031
 6183SOL    HW230009   0.825   2.813   1.374  2.0589  2.4591 -0.5920
 6184SOL     OW30010   1.766   2.743  10.837 -0.0365 -0.2222 -0.7460
 6184SOL    HW130011   1.681   2.749  10.791  1.0630  1.7159 -2.5526
 6184SOL    HW230012   1.803   2.828  10.814 -1.0272  0.6970  1.0617
 6185SOL     OW30013   3.296   2.328   0.495  0.3999  0.2487 -0.2567
 6185SOL    HW130014   3.301   2.322   0.590  0.0104  0.0237 -0.2466
 6185SOL    HW230015   3.227   2.394   0.488  0.1343 -0.0319 -0.3130
 6186SOL     OW30016   3.380   0.174   2.990 -0.0562  0.0214  0.4619
 6186SOL    HW130017   3.350   0.088   2.961  1.1873 -0.6794  1.2887
 6186SOL    HW230018   3.456   0.183   2.933 -0.2491 -0.8155  0.0695
 6187SOL     OW30019   0.870   1.304   3.667  0.7834  0.3095 -0.3286
 6187SOL    HW130020   0.945   1.361   3.686 -1.1417  3.1473 -1.2572
 6187SOL    HW230021   0.798   1.349   3.711  0.2747  0.5567 -1.4136
 6188SOL     OW30022   0.844   2.810   8.524 -0.2304  0.1476 -0.4171
 6188SOL    HW130023   0.924   2.772   8.489 -0.3017  0.0573 -0.4807
 6188SOL    HW230024   0.891   2.833   8.604 -0.5571  1.8298 -0.7003
 6189SOL     OW30025   4.579   1.313   1.033 -0.4303 -0.4839  0.1607
 6189SOL    HW130026   4.614   1.254   1.100 -0.9177 -1.2750 -0.2807
 6189SOL    HW230027   4.661   1.328   0.984 -0.4352  2.7881  1.1675
 6190SOL     OW30028   1.420   0.049   3.639  0.9428  0.4889 -0.3809
 6190SOL    HW130029   1.369   0.095   3.572  0.7278  1.9215  0.7529
 6190SOL    HW230030   1.493   0.111   3.639  1.3072  0.0582  1.9080
 6191SOL     OW30031   4.035   0.425  16.956 -0.1285  0.6096 -0.3599
 6191SOL    HW130032   3.966   0.474  17.000 -1.3450 -0.0434 -1.5413
 6191SOL    HW230033   4.113   0.480  16.956 -0.0094  0.4565 -2.9834
 6192SOL     OW30034   3.606   1.248   0.996  0.7900  0.1291 -0.0825
 6192SOL    HW130035   3.644   1.245   1.084 -1.2932 -0.6252  0.7840
 6192SOL    HW230036   3.558   1.330   0.999  0.4761 -0.0357 -0.6833
 6193SOL     OW30037   3.594   0.208  10.569 -0.1207 -0.5858 -0.1702
 6193SOL    HW130038   3.590   0.252  10.484  1.0421 -0.6349 -0.2600
 6193SOL    HW230039   3.505   0.181  10.591 -0.7112  1.1407 -0.3827
 6194SOL     OW30040   4.574   3.995   9.161  0.2040  0.1657 -0.1524
 6194SOL    HW130041   4.668   3.983   9.149  0.6734  2.5451  1.2062
 6194SOL    HW230042   4.572   4.048   9.241  2.0210 -2.5562  1.6788
 6195SOL     OW30043   3.011   4.706   0.835 -0.0769 -0.7080 -0.3527
 6195SOL    HW130044   2.941   0.039   0.806 -0.4204 -1.2201 -0.5636
 6195SOL    HW230045   2.969   4.643   0.894  0.2244  0.2079  0.8347
 6196SOL     OW30046   3.693   1.995   8.800  0.8204 -0.5204 -0.1979
 6196SOL    HW130047   3.674   1.904   8.821 -3.5306  0.7948  1.6153
 6196SOL    HW230048   3.740   2.027   8.877 -1.7449 -2.1319  2.0239
 6197SOL     OW30049   2.867   3.503   7.501  0.3277  0.1479  0.7878
 6197SOL    HW130050   2.837   3.425   7.548 -1.1493  0.4692  0.3898
 6197SOL    HW230051   2.959   3.498   7.524  0.9417 -3.1812 -2.3292
 6198SOL     OW30052   2.844   4.573   4.378 -0.3630 -0.7001  0.0218
 6198SOL    HW130053   2.890   4.490   4.388 -1.5274 -1.2426  0.7814
 6198SOL    HW230054   2.908   4.636   4.412 -0.9307  0.1133 -0.4062
 6199SOL     OW30055   1.575   2.158   5.277  0.1780  0.1926  0.2682
 6199SOL    HW130056   1.505   2.216   5.309 -0.0027  0.8832 -1.3639
 6199SOL    HW230057   1.532   2.073   5.275  2.4195 -0.9674  1.9548
 6200SOL     OW30058   3.070   3.891   3.632 -0.2381  0.7623 -0.3052
 6200SOL    HW130059   3.105   3.861   3.716 -2.4237 -0.2602  0.2332
 6200SOL    HW230060   3.081   3.815   3.574  0.1286 -0.0740  0.8491
 6201SOL     OW30061   2.510   2.226   7.345  0.0660 -0.3520 -0.3868
 6201SOL    HW130062   2.589   2.225   7.398 -0.8672  0.2912  1.0190
 6201SOL    HW230063   2.512   2.138   7.307 -2.0690 -1.5991  2.4385
 6202SOL     OW30064   0.723   1.341   3.025 -0.2971  0.0287 -0.6157
 6202SOL    HW130065   0.806   1.306   2.992 -0.0310  1.1056 -1.0822
 6202SOL    HW230066   0.735   1.305   3.112  0.0227 -0.1340 -0.7255
 6203SOL     OW30067   3.871   1.406   6.768  0.8377  0.3070 -0.1326
 6203SOL    HW130068   3.793   1.457   6.791  2.6134  2.0814  1.9764
 6203SOL    HW230069   3.896   1.372   6.854 -0.0850  2.8356  1.1557
 6204SOL     OW30070   4.708   1.491   6.350 -0.6378 -0.1240 -0.4580
 6204SOL    HW130071   0.059   1.460   6.301 -1.8593 -0.4864 -2.1319
 6204SOL    HW230072   0.021   1.503   6.437 -1.7406 -1.6085  0.2497
 6205SOL     OW30073   2.205   2.182  14.382  0.2401  0.0198 -0.1934
 6205SOL    HW130074   2.227   2.246  14.449 -0.6935  1.6373 -1.4132
 6205SOL    HW230075   2.249   2.230  14.311 -1.2987 -0.0308 -1.1830
 6206SOL     OW30076   1.618   1.925   1.684  0.0262  0.2625  0.3563
 6206SOL    HW130077   1.565   2.000   1.710 -0.6106  1.0331 -3.2339
 6206SOL    HW230078   1.706   1.962   1.685  0.6435 -1.0918 -3.6943
 6207SOL     OW30079   3.718   4.191   5.530 -0.1685  0.0007  0.1097
 6207SOL    HW130080   3.701   4.213   5.438 -3.1421  0.5760  0.7956
 6207SOL    HW230081   3.628   4.175   5.557  0.4344 -1.2022  1.3963
 6208SOL     OW30082   4.531   4.536   4.038  0.3713 -0.0072 -0.3086
 6208SOL    HW130083   4.585   4.525   3.960 -0.1815  0.3435 -0.7490
 6208SOL    HW230084   4.452   4.487   4.016  0.4461 -0.2544 -0.0172
 6209SOL     OW30085   1.687   2.402   4.095 -0.0153 -0.5163 -0.2296
 6209SOL    HW130086   1.683   2.469   4.162  0.7205 -1.8395  1.1308
 6209SOL    HW230087   1.658   2.449   4.017 -2.6871 -2.2070 -0.2848
 6210SOL     OW30088   3.983   4.538   6.839 -0.1578  0.3365  0.6225
 6210SOL    HW130089   3.967   4.520   6.932 -0.1037 -0.1124  0.5462
 6210SOL    HW230090   4.017   4.627   6.847  1.0395  0.0607 -1.3702
 6211SOL     OW30091   3.209   1.228   3.075 -0.5772 -0.4915  0.3011
 6211SOL    HW130092   3.137   1.204   3.016  0.7900 -3.8904  0.0640
 6211SOL    HW230093   3.163   1.298   3.121  0.0415  0.1345 -0.0249
 6212SOL     OW30094   4.117   4.467  13.899 -0.5354 -0.5848  0.2580
 6212SOL    HW130095   4.046   4.414  13.935 -2.4946  0.2911 -2.2182
 6212SOL    HW230096   4.111   4.556  13.934  1.0059  0.3889 -1.9430
 6213SOL     OW30097   2.646   0.975   1.520 -0.6867 -0.7193  0.2408
 6213SOL    HW130098   2.631   0.927   1.438 -0.2462 -1.6299  0.7023
 6213SOL    HW230099   2.556   0.995   1.546 -0.0851 -0.4452  2.0577
 6214SOL     OW30100   2.671   0.600   1.600  0.5935  0.2463  0.0494
 6214SOL    HW130101   2.699   0.521   1.554 -0.5579 -0.0569 -0.1331
 6214SOL    HW230102   2.739   0.665   1.580 -1.1069  0.9454 -3.4186
 6215SOL     OW30103   1.455   0.429   3.450  0.4290  0.3744  0.3052
 6215SOL    HW130104   1.384   0.482   3.488  0.2377  0.2333  0.1450
 6215SOL    HW230105   1.410   0.346   3.438  1.6786 -0.3306  0.5481
 6216SOL     OW30106   3.503   3.464   3.672  0.4389 -0.5866  0.2478
 6216SOL    HW130107   3.480   3.371   3.673 -0.6306 -0.3321 -0.6868
 6216SOL    HW230108   3.524   3.478   3.579 -1.2558 -1.3529 -0.2589
 6217SOL     OW30109   1.172   4.379  11.527 -0.1618 -0.5759  0.1117
 6217SOL    HW130110   1.121   4.460  11.529 -1.4095 -1.4155  1.9630
 6217SOL    HW230111   1.254   4.394  11.574 -0.8496  2.5788  0.3253
 6218SOL     OW30112   3.433   3.530   4.196  0.0184  0.8117 -0.2877
 6218SOL    HW130113   3.477   3.447   4.177 -1.4358 -0.2827  1.1815
 6218SOL    HW230114   3.399   3.516   4.284  2.2549 -0.2212  0.4032
 6219SOL     OW30115   2.624   3.979   2.257  0.2970 -0.1491 -0.3765
 6219SOL    HW130116   2.674   4.044   2.307  0.8842 -0.6126 -0.3572
 6219SOL    HW230117   2.555   3.943   2.313  0.6737  1.0501  0.8801
 6220SOL     OW30118   2.299   3.316   2.436  0.3012 -0.2030  0.2239
 6220SOL    HW130119   2.334   3.284   2.519 -0.2780  0.5868  0.7820
 6220SOL    HW230120   2.366   3.302   2.370 -1.0805 -0.5772 -1.1075
 6221SOL     OW30121   3.753   0.592   0.903 -0.5335  0.1851 -0.4361
 6221SOL    HW130122   3.710   0.568   0.985  0.8302  0.9615  0.5067
 6221SOL    HW230123   3.793   0.509   0.877  0.5678  0.3602  0.7238
 6222SOL     OW30124   1.968   1.181   2.761 -0.2892 -0.2722  0.0509
 6222SOL    HW130125   2.040   1.211   2.817 -1.2211  0.2179  0.9858
 6222SOL    HW230126   2.014   1.175   2.677  0.6067 -1.7217  0.6585
 6223SOL     OW30127   1.200   4.387  17.048  0.3306  0.0597 -0.2866
 6223SOL    HW130128   1.242   4.339  17.120 -1.1307 -0.2384  0.3664
 6223SOL    HW230129   1.269   4.419  16.991  0.4625  1.0498  0.4361
 6224SOL     OW30130   3.732   4.196  13.450  0.4243 -0.2743 -0.2676
 6224SOL    HW130131   3.656   4.246  13.420  0.9432  1.3983  1.2436
 6224SOL    HW230132   3.806   4.250  13.420  0.6489 -0.3578  0.1382
 6225SOL     OW30133   3.227   2.470  16.906 -0.7919 -0.3461  0.2355
 6225SOL    HW130134   3.229   2.556  16.949 -0.9407  2.0849 -4.6271
 6225SOL    HW230135   3.173   2.486  16.829 -3.7332 -1.4057  2.0919
 6226SOL     OW30136   1.482   0.769   5.466 -0.6869 -0.3486 -0.2456
 6226SOL    HW130137   1.444   0.766   5.554 -0.2740 -4.0688 -0.2146
 6226SOL    HW230138   1.575   0.791   5.471 -0.5850 -1.1109  1.1261
 6227SOL     OW30139   1.437   1.510   2.748 -0.1978  0.3433  0.2583
 6227SOL    HW130140   1.384   1.441   2.790 -1.2051  1.7547  1.3184
 6227SOL    HW230141   1.495   1.439   2.721  0.1012 -0.6985  3.6133
 6228SOL     OW30142   4.157   1.508   0.482 -0.2670  0.0210  0.8499
 6228SOL    HW130143   4.172   1.429   0.534  0.6224 -0.2639  0.1570
 6228SOL    HW230144   4.173   1.465   0.398 -0.2003  1.2612  0.2281
 6229SOL     OW30145   0.043   1.493   7.575  0.5727  0.3375 -0.1395
 6229SOL    HW130146   0.003   1.435   7.640 -0.3846 -0.1017 -1.1161
 6229SOL    HW230147   0.080   1.558   7.635  0.3620 -0.1391  0.5056
 6230SOL     OW30148   1.562   2.498  15.760 -0.6939 -0.3848  0.0162
 6230SOL    HW130149   1.503   2.491  15.686  0.2768 -0.0613 -0.7879
 6230SOL    HW230150   1.619   2.572  15.741  1.2077 -1.8314  0.0596
 6231SOL     OW30151   3.071   3.910   0.521 -0.0489 -0.4845  0.6467
 6231SOL    HW130152   3.093   3.896   0.613  1.5816 -2.0359  0.0203
 6231SOL    HW230153   3.132   3.846   0.484 -0.9094 -1.5482  1.0715
 6232SOL     OW30154   2.674   2.266   6.504 -0.3034  0.7059  0.3994
 6232SOL    HW130155   2.746   2.258   6.442  0.0151  1.6410  0.6506
 6232SOL    HW230156   2.721   2.241   6.584 -1.6386 -0.1323  0.9251
 6233SOL     OW30157   1.809   0.504  11.322 -0.4568 -0.5175 -0.3957
 6233SOL    HW130158   1.774   0.569  11.383 -1.0703 -0.5782 -0.6858
 6233SOL    HW230159   1.897   0.483  11.352 -0.1160  0.4088 -0.7409
 6234SOL     OW30160   3.752   3.618   7.392  0.2895  0.3448 -0.2183
 6234SOL    HW130161   3.754   3.569   7.310 -1.3841 -0.9173  0.5098
 6234SOL    HW230162   3.812   3.565   7.445 -1.6131  0.6409  2.2470
 6235SOL     OW30163   2.587   1.830   6.363  0.5090 -0.2357 -0.2875
 6235SOL    HW130164   2.597   1.816   6.457 -1.7390 -1.4622 -0.2377
 6235SOL    HW230165   2.546   1.916   6.365  1.6470  0.2646  1.8903
 6236SOL     OW30166   3.662   4.125   5.047 -0.3329  0.3555  0.1119
 6236SOL    HW130167   3.619   4.194   5.097  0.5698  0.0564  1.2947
 6236SOL    HW230168   3.632   4.052   5.101 -0.8666  1.1332  0.8581
 6237SOL     OW30169   1.363   2.258   5.457  0.0721 -0.2461  0.4346
 6237SOL    HW130170   1.342   2.344   5.422 -0.2732  0.0745  1.4264
 6237SOL    HW230171   1.398   2.280   5.544  0.2462  0.8234  0.0826
 6238SOL     OW30172   2.286   3.493   0.311 -0.3625 -0.1129  0.6527
 6238SOL    HW130173   2.283   3.531   0.399 -2.5899 -1.1494  1.0406
 6238SOL    HW230174   2.199   3.503   0.272  0.7676  0.1009 -1.8067
 6239SOL     OW30175   0.191   4.095   5.392 -0.0855  0.4823 -0.2305
 6239SOL    HW130176   0.234   4.009   5.387 -2.3188 -0.5809 -0.9950
 6239SOL    HW230177   0.105   4.060   5.371  1.0267 -1.8214 -0.9899
 6240SOL     OW30178   1.756   4.509   7.871  0.3723 -0.1412 -1.1589
 6240SOL    HW130179   1.760   4.557   7.789 -1.2832  0.3042 -0.9651
 6240SOL    HW230180   1.763   4.581   7.934 -2.2982  0.2927 -1.3644
 6241SOL     OW30181   3.024   3.779   7.568 -0.2929 -1.2482 -0.3147
 6241SOL    HW130182   3.034   3.689   7.538 -2.1911 -1.1633 -1.1594
 6241SOL    HW230183   2.974   3.819   7.497 -0.1149  0.7548  0.6829
 6242SOL     OW30184   1.632   2.367   3.132 -0.4248 -0.1724 -0.0935
 6242SOL    HW130185   1.600   2.277   3.127 -0.2119 -0.4674  3.5080
 6242SOL    HW230186   1.560   2.412   3.177  1.2613  1.6920  0.7303
 6243SOL     OW30187   0.933   2.589   5.101  0.1462  0.2102 -0.5313
 6243SOL    HW130188   0.934   2.669   5.048  1.7813  1.3536  1.2212
 6243SOL    HW230189   0.949   2.633   5.184 -1.8163 -0.2652  0.0871
 6244SOL     OW30190   2.269   2.041  16.981 -0.1115  0.0716  0.0603
 6244SOL    HW130191   2.222   2.085  16.910 -0.9571 -0.7296  0.1238
 6244SOL    HW230192   2.193   2.038  17.039 -0.1311  0.0192  0.0312
 6245SOL     OW30193   4.204   1.702  12.186  0.2498 -0.1082  0.2521
 6245SOL    HW130194   4.232   1.681  12.097  0.1712 -1.6823  0.5989
 6245SOL    HW230195   4.240   1.787  12.210 -2.4588  0.9081  0.7817
 6246SOL     OW30196   4.725   3.911   9.512  0.0108  0.4510 -0.0558
 6246SOL    HW130197   4.677   3.829   9.522 -1.7526  1.2886 -1.6554
 6246SOL    HW230198   0.080   3.880   9.471  0.5167  0.9463  0.5596
 6247SOL     OW30199   2.755   2.310   6.076  0.0478  0.6199  0.1073
 6247SOL    HW130200   2.666   2.332   6.105  0.2047 -0.7360  1.6632
 6247SOL    HW230201   2.744   2.223   6.039 -0.5912  0.4898  0.6059
 6248SOL     OW30202   1.887   0.044   6.851  0.4174  0.2454 -0.1838
 6248SOL    HW130203   1.933   0.006   6.925 -0.6149 -0.2009  0.2210
 6248SOL    HW230204   1.963   0.074   6.801 -0.0265 -1.5109 -1.9189
 6249SOL     OW30205   2.651   2.276  16.133  0.2228  0.0146 -0.8741
 6249SOL    HW130206   2.685   2.299  16.046  0.8713  0.6644 -0.4420
 6249SOL    HW230207   2.677   2.184  16.140  0.4542  0.1851  0.3552
 6250SOL     OW30208   2.579   3.715   5.090 -0.7386 -0.1303 -0.1317
 6250SOL    HW130209   2.599   3.632   5.048 -3.3632 -1.9924  2.2517
 6250SOL    HW230210   2.489   3.733   5.060 -0.1991  3.5973  0.4191
 6251SOL     OW30211   2.227   3.906   3.620  0.4427  0.3244 -0.1659
 6251SOL    HW130212   2.182   3.830   3.657 -0.6348  0.8052 -0.5051
 6251SOL    HW230213   2.310   3.864   3.594 -1.2624 -1.6731 -2.3964
 6252SOL     OW30214   4.575   3.047   2.464  0.1093  0.5901 -0.2691
 6252SOL    HW130215   4.609   2.957   2.460  1.3698  1.0381  0.3662
 6252SOL    HW230216   4.502   3.056   2.403  1.4707 -0.0144 -1.9965
 6253SOL     OW30217   0.498   1.847   3.615 -0.1764 -0.7293 -0.1817
 6253SOL    HW130218   0.419   1.902   3.619  0.2624 -0.0133 -1.3252
 6253SOL    HW230219   0.487   1.817   3.525  0.2894  0.1825 -0.5482
 6254SOL     OW30220   2.302   0.332   4.876  0.6169 -1.1409 -0.1595
 6254SOL    HW130221   2.377   0.390   4.863 -0.3462  0.2389  0.5439
 6254SOL    HW230222   2.303   0.308   4.968 -0.3357  1.9330  0.6444
 6255SOL     OW30223   2.202   0.794   9.744  0.1603 -0.1982 -0.0521
 6255SOL    HW130224   2.252   0.715   9.765 -0.0035 -0.3969 -0.4060
 6255SOL    HW230225   2.109   0.787   9.769 -0.0142  1.5573 -0.1921
 6256SOL     OW30226   2.547   1.970  14.932 -0.0121  0.0828 -0.3891
 6256SOL    HW130227   2.459   2.008  14.938 -0.0505 -0.2296  1.1234
 6256SOL    HW230228   2.551   1.921  15.015 -0.5472  0.3373 -0.2132
 6257SOL     OW30229   2.825   4.278   7.845  0.0078  0.2021  0.0950
 6257SOL    HW130230   2.883   4.205   7.820 -0.1777  0.0076  0.2292
 6257SOL    HW230231   2.843   4.339   7.774  0.9669  0.1343  0.2696
 6258SOL     OW30232   0.716   1.847   8.168  0.0671  0.1671  0.3455
 6258SOL    HW130233   0.674   1.867   8.084 -0.1223 -0.4484  0.2941
 6258SOL    HW230234   0.636   1.845   8.222 -1.1237 -0.5102 -1.4295
 6259SOL     OW30235   0.062   0.977   8.345 -0.5459  0.6241  0.4530
 6259SOL    HW130236   0.003   1.040   8.387 -1.5509  0.2654 -0.4240
 6259SOL    HW230237   4.725   0.931   8.289  0.7950 -1.2161  0.4861
 6260SOL     OW30238   0.546   0.180   4.566  0.3596 -0.0021  0.4826
 6260SOL    HW130239   0.624   0.154   4.518 -0.2977 -0.1006 -0.5255
 6260SOL    HW230240   0.525   0.101   4.617 -0.4246 -0.5258 -0.6697
 6261SOL     OW30241   1.565   3.521   6.227 -0.1773 -0.0259  0.2462
 6261SOL    HW130242   1.521   3.437   6.216  0.7705 -0.5242  0.3592
 6261SOL    HW230243   1.652   3.487   6.210 -1.1226 -1.3664 -1.9065
 6262SOL     OW30244   4.129   3.371   3.889 -0.3590  0.2589  0.0984
 6262SOL    HW130245   4.163   3.380   3.800  0.1264  0.2010  0.2752
 6262SOL    HW230246   4.056   3.311   3.874 -0.3136 -0.1459  1.4866
 6263SOL     OW30247   3.098   3.761  14.911 -0.3759 -0.1376 -0.2866
 6263SOL    HW130248   3.180   3.810  14.912  0.7936 -2.0544 -2.2855
 6263SOL    HW230249   3.135   3.675  14.935  0.6370  0.1506 -0.8526
 6264SOL     OW30250   2.034   2.909  10.953  0.1939  0.0592 -0.2439
 6264SOL    HW130251   1.992   2.860  11.024  2.0042 -1.4973 -0.2571
 6264SOL    HW230252   2.017   2.842  10.888  0.9048 -1.9996  1.6955
 6265SOL     OW30253   3.496   0.542   0.651 -0.2101  0.7766  0.2556
 6265SOL    HW130254   3.485   0.579   0.739 -0.5504  2.2711 -0.4149
 6265SOL    HW230255   3.532   0.619   0.606  1.6766 -1.4243 -1.9822
 6266SOL     OW30256   4.116   3.035   1.253 -0.7348 -0.8929  0.0148
 6266SOL    HW130257   4.034   3.083   1.241  0.5083  0.7858 -1.5941
 6266SOL    HW230258   4.170   3.092   1.309 -2.5428  2.6817 -1.9317
 6267SOL     OW30259   4.506   0.435   7.674  0.0278  0.2137 -0.4653
 6267SOL    HW130260   4.465   0.477   7.599 -3.9574  0.2546  1.7417
 6267SOL    HW230261   4.450   0.469   7.743 -0.2578  1.5380 -1.3597
 6268SOL     OW30262   2.628   2.453   9.118 -0.1243  0.5014  0.2601
 6268SOL    HW130263   2.638   2.392   9.190 -2.5998  1.5201  1.4427
 6268SOL    HW230264   2.570   2.520   9.155  0.2212  1.1062 -0.2877
 6269SOL     OW30265   3.771   3.025   7.082  0.3946  0.1297  0.0384
 6269SOL    HW130266   3.694   3.055   7.035 -0.4467  0.8001  1.8502
 6269SOL    HW230267   3.737   2.953   7.135 -1.0882  0.5908 -0.3034
 6270SOL     OW30268   1.795   1.848   3.525  0.4803  0.3739 -0.0082
 6270SOL    HW130269   1.713   1.798   3.523 -0.0021  1.1292  0.7150
 6270SOL    HW230270   1.844   1.822   3.447 -1.5555 -0.7429 -0.9288
 6271SOL     OW30271   2.928   4.493   2.860  0.8240  0.0082  0.7891
 6271SOL    HW130272   2.963   4.441   2.789 -0.3008  1.4607 -0.8566
 6271SOL    HW230273   2.882   4.428   2.914  1.6137  0.4170  1.9493
 6272SOL     OW30274   3.529   1.951   7.406 -0.7459 -0.4890  0.1105
 6272SOL    HW130275   3.474   1.903   7.467  0.1080 -0.4019  0.9484
 6272SOL    HW230276   3.618   1.928   7.433 -0.9965 -1.0571  0.4314
 6273SOL     OW30277   4.719   1.300   7.783 -0.2150  0.2914 -0.2402
 6273SOL    HW130278   0.027   1.318   7.871 -1.1849  0.0690  0.1722
 6273SOL    HW230279   4.655   1.231   7.800  0.0282  0.3551  0.9290
 6274SOL     OW30280   3.658   4.431   4.734 -0.4730 -0.3846  0.3227
 6274SOL    HW130281   3.668   4.342   4.769 -0.2210 -0.4735  0.0304
 6274SOL    HW230282   3.661   4.407   4.641  2.9775 -0.5373  0.4884
 6275SOL     OW30283   2.538   3.666   4.307 -0.2701 -0.5347  0.3729
 6275SOL    HW130284   2.528   3.761   4.293 -0.2154 -0.7429 -1.1170
 6275SOL    HW230285   2.445   3.645   4.302 -0.4952  0.5751 -0.1691
 6276SOL     OW30286   1.722   0.108  14.956  0.1823 -0.1437  0.3825
 6276SOL    HW130287   1.730   0.056  14.876  2.7404 -0.6566  0.9732
 6276SOL    HW230288   1.643   0.158  14.935 -0.1085 -0.8651 -0.2443
 6277SOL     OW30289   2.208   1.896   5.568 -0.1828 -0.7572 -0.1939
 6277SOL    HW130290   2.128   1.946   5.556  0.1890 -0.1602 -0.1547
 6277SOL    HW230291   2.270   1.960   5.535  0.7696 -2.3704 -1.5632
 6278SOL     OW30292   2.451   0.451  10.029  0.0181 -0.3719  0.7130
 6278SOL    HW130293   2.534   0.412  10.004 -0.8719 -0.2975 -2.4282
 6278SOL    HW230294   2.401   0.370  10.040 -0.9366  0.1046 -0.0700
 6279SOL     OW30295   2.518   3.426   1.102 -0.0537  0.5388  0.0251
 6279SOL    HW130296   2.550   3.335   1.102  1.0091  0.9083 -1.8601
 6279SOL    HW230297   2.556   3.458   1.184 -1.4899  0.1055  0.8544
 6280SOL     OW30298   0.190   1.669   1.886  0.6127  0.4082 -0.7036
 6280SOL    HW130299   0.213   1.653   1.795 -1.6170  0.6641 -1.3034
 6280SOL    HW230300   0.167   1.580   1.914  3.7701 -0.4081 -0.7343
 6281SOL     OW30301   0.964   3.735  10.501  0.1149  0.4598  0.1553
 6281SOL    HW130302   1.018   3.809  10.472 -1.1097  0.1537 -2.9161
 6281SOL    HW230303   0.991   3.680  10.427  0.0637 -0.6209  0.9496
 6282SOL     OW30304   2.945   2.243   7.898  0.1306  0.3682  0.3000
 6282SOL    HW130305   2.945   2.195   7.981  2.1958  1.4378  0.9242
 6282SOL    HW230306   2.981   2.179   7.837 -0.5669  0.5715 -0.3255
 6283SOL     OW30307   0.233   3.230  17.088 -0.4123  0.0022 -0.6115
 6283SOL    HW130308   0.223   3.304  17.027  1.2402  0.0503 -0.8155
 6283SOL    HW230309   0.157   3.181  17.055 -1.8546  1.7744  0.0686
 6284SOL     OW30310   2.623   0.598   2.128  0.4242  0.3658 -0.3175
 6284SOL    HW130311   2.687   0.528   2.117  0.1199 -0.0014  0.2545
 6284SOL    HW230312   2.544   0.555   2.093 -0.2682  2.1808 -0.9785
 6285SOL     OW30313   1.070   2.381   9.218 -0.2258 -0.1797  0.7041
 6285SOL    HW130314   1.111   2.300   9.187 -0.2574 -0.0913  0.4292
 6285SOL    HW230315   1.083   2.374   9.312  1.2920  1.2205  0.6070
 6286SOL     OW30316   4.026   2.437  17.355  0.3141 -0.6322 -0.6290
 6286SOL    HW130317   3.942   2.482  17.366  1.1684  0.7603  0.2115
 6286SOL    HW230318   4.091   2.499  17.388  0.9977 -1.5678 -0.2456
 6287SOL     OW30319   2.968   4.075   8.149 -0.2973  0.4802  0.4991
 6287SOL    HW130320   2.990   4.097   8.239 -1.1305  1.1576  0.5417
 6287SOL    HW230321   2.874   4.061   8.162  0.0669 -0.0204  2.4823
 6288SOL     OW30322   3.941   1.209   0.517  0.2172 -0.2291  0.0970
 6288SOL    HW130323   3.865   1.260   0.548 -0.4519 -0.7963 -0.6019
 6288SOL    HW230324   4.011   1.219   0.581 -0.0900 -0.9629  0.5370
 6289SOL     OW30325   4.229   4.234   5.350 -0.3613  0.6639 -0.0305
 6289SOL    HW130326   4.271   4.191   5.276 -1.2857  0.0519 -0.1999
 6289SOL    HW230327   4.264   4.177   5.418 -0.6319  0.0370 -0.4227
 6290SOL     OW30328   0.327   2.345   1.407  0.5580 -0.3195 -0.0427
 6290SOL    HW130329   0.248   2.302   1.440 -2.2326  4.0916 -1.0005
 6290SOL    HW230330   0.393   2.295   1.456  0.7392 -0.4372 -0.4089
 6291SOL     OW30331   1.252   0.533   0.092  0.1687 -0.1525 -0.3835
 6291SOL    HW130332   1.274   0.481   0.169 -0.6456  0.0937  0.0276
 6291SOL    HW230333   1.339   0.551   0.057  0.1231 -0.0246 -0.4347
 6292SOL     OW30334   1.387   2.845   6.266 -0.2486 -0.1040 -0.2921
 6292SOL    HW130335   1.466   2.867   6.217  0.2560 -4.1598 -1.3371
 6292SOL    HW230336   1.386   2.922   6.322  0.1880  1.0425 -1.8795
 6293SOL     OW30337   2.992   3.015  10.946 -0.1689  0.2268  0.0480
 6293SOL    HW130338   2.923   2.952  10.971  1.8780 -2.2314 -0.4616
 6293SOL    HW230339   3.004   2.972  10.861  0.9994 -1.6802  1.1662
 6294SOL     OW30340   1.816   2.986   8.327  0.2573 -0.3270  0.2273
 6294SOL    HW130341   1.887   3.019   8.382  0.8639  0.4812 -1.0260
 6294SOL    HW230342   1.800   2.903   8.372 -1.2398 -1.2467 -1.9659
 6295SOL     OW30343   1.141   3.953   5.821 -0.1348 -0.4612  0.1407
 6295SOL    HW130344   1.230   3.929   5.792 -0.7212 -2.0307 -0.3699
 6295SOL    HW230345   1.143   4.044   5.793 -1.2607 -0.2064  0.9100
 6296SOL     OW30346   3.251   3.530   5.983  0.0985 -0.3775 -0.3137
 6296SOL    HW130347   3.250   3.569   6.070 -0.8276  1.1313 -0.9984
 6296SOL    HW230348   3.162   3.549   5.955  0.6021  3.3036  0.6476
 6297SOL     OW30349   4.364   3.263   4.627 -0.1362 -0.5283  0.1639
 6297SOL    HW130350   4.275   3.262   4.593  0.1611 -2.2302 -0.5918
 6297SOL    HW230351   4.405   3.334   4.577 -0.5747 -1.6242 -1.7439
 6298SOL     OW30352   4.257   4.296   8.399  0.3336  0.3739 -0.3357
 6298SOL    HW130353   4.193   4.359   8.429 -0.6415 -1.9257  2.4208
 6298SOL    HW230354   4.273   4.332   8.312  1.4581  1.6589  0.3879
 6299SOL     OW30355   4.103   4.690  11.860  0.1795 -0.5782  0.4177
 6299SOL    HW130356   4.033   0.015  11.818  0.7277  0.3098  0.5857
 6299SOL    HW230357   4.088   4.604  11.820  0.1114  0.2491 -1.3504
 6300SOL     OW30358   0.931   3.136  10.826 -0.2391  0.0569 -0.5976
 6300SOL    HW130359   1.023   3.155  10.804 -0.3565 -0.7063 -1.7414
 6300SOL    HW230360   0.896   3.225  10.824 -1.0665 -0.2394  1.0660
 6301SOL     OW30361   1.467   0.562  16.620 -0.1218  0.1836 -0.2719
 6301SOL    HW130362   1.385   0.565  16.670 -0.1968  0.9747 -0.4366
 6301SOL    HW230363   1.517   0.632  16.661  1.9724 -0.9258 -0.9510
 6302SOL     OW30364   1.257   4.176  11.322  0.3257 -0.0206  0.1549
 6302SOL    HW130365   1.218   4.234  11.387 -0.6250  0.8447 -1.1828
 6302SOL    HW230366   1.310   4.236  11.270 -2.0185  1.4347 -0.5389
 6303SOL     OW30367   1.008   3.576   8.342  0.3916 -0.1351 -0.1554
 6303SOL    HW130368   0.981   3.596   8.432 -0.7250  2.5140 -1.0887
 6303SOL    HW230369   0.942   3.514   8.310 -0.5708  0.1519  1.2579
 6304SOL     OW30370   3.507   0.345   3.486  0.6292  0.1764  0.4177
 6304SOL    HW130371   3.430   0.400   3.473  1.1605  0.4065 -1.6942
 6304SOL    HW230372   3.495   0.270   3.428  0.2069  0.9901 -0.5424
 6305SOL     OW30373   3.891   2.098   3.910 -0.2524 -0.2283  0.3200
 6305SOL    HW130374   3.960   2.160   3.890 -0.9340  0.0734 -1.0729
 6305SOL    HW230375   3.821   2.162   3.919 -0.2237 -0.1594  0.0495
 6306SOL     OW30376   1.054   1.235  16.697 -0.3301 -0.3494 -0.0535
 6306SOL    HW130377   1.092   1.309  16.650  1.3970 -0.4626  1.1394
 6306SOL    HW230378   1.117   1.236  16.770 -1.6570  0.5809  1.0929
 6307SOL     OW30379   4.036   0.677  15.755 -0.4054  0.4869  0.0741
 6307SOL    HW130380   4.056   0.655  15.846 -4.2494 -0.0842  0.7631
 6307SOL    HW230381   4.103   0.741  15.729  1.7480 -0.6677  2.7993
 6308SOL     OW30382   3.077   1.030   7.798 -0.1317 -0.2797 -0.1522
 6308SOL    HW130383   3.044   1.110   7.839 -1.6651 -0.5787 -0.7735
 6308SOL    HW230384   3.161   1.053   7.759  0.0871 -0.1217  0.4160
 6309SOL     OW30385   4.639   2.616   4.309  0.1519 -0.5535 -0.4734
 6309SOL    HW130386   4.687   2.550   4.259 -0.2562 -0.4981 -0.9410
 6309SOL    HW230387   4.699   2.691   4.309  2.5364 -2.4576  0.5300
 6310SOL     OW30388   1.945   0.426   6.368 -0.1221  0.0368  0.2848
 6310SOL    HW130389   1.897   0.416   6.285  0.3180  1.0266 -0.0894
 6310SOL    HW230390   2.028   0.389   6.338  0.7229 -0.3928  3.2517
 6311SOL     OW30391   0.407   3.217  11.618 -0.3177  0.1085  0.0627
 6311SOL    HW130392   0.479   3.161  11.647  0.2807 -0.0189 -1.6701
 6311SOL    HW230393   0.337   3.155  11.597 -0.4898  0.3113  0.0318
 6312SOL     OW30394   2.630   2.164   4.140 -0.5146  0.1989  0.4633
 6312SOL    HW130395   2.706   2.148   4.196  0.3894  6.7244  1.1123
 6312SOL    HW230396   2.670   2.142   4.056  1.2919 -2.2348  1.9496
 6313SOL     OW30397   2.116   2.545  13.580  0.0798 -0.0562  0.7746
 6313SOL    HW130398   2.040   2.499  13.544  0.5279  0.8186 -1.2601
 6313SOL    HW230399   2.119   2.628  13.534  0.6072 -1.2081 -1.2788
 6314SOL     OW30400   3.600   4.508   6.350  0.3631  0.0304 -0.7432
 6314SOL    HW130401   3.521   4.529   6.302  0.6057  0.9164 -0.7547
 6314SOL    HW230402   3.671   4.523   6.287  0.1099  0.0458 -1.0216
 6315SOL     OW30403   0.947   4.426  13.392 -0.5069  0.3195 -0.7369
 6315SOL    HW130404   0.896   4.386  13.321  0.4235 -3.9450  0.9717
 6315SOL    HW230405   1.031   4.382  13.381 -0.8262 -0.4421 -0.1850
 6316SOL     OW30406   1.798   0.479   1.603  0.0786 -0.4246  0.5546
 6316SOL    HW130407   1.707   0.507   1.609  0.2824  0.6761 -1.3307
 6316SOL    HW230408   1.838   0.561   1.572 -1.9078  0.6105  0.7152
 6317SOL     OW30409   0.786   4.236   7.341  0.0618 -0.1288 -0.9000
 6317SOL    HW130410   0.735   4.254   7.420 -0.4165 -0.8458 -1.0467
 6317SOL    HW230411   0.775   4.141   7.330  1.5505 -0.2439 -1.4238
 6318SOL     OW30412   3.089   4.618  17.234 -0.3791  0.7113 -0.2328
 6318SOL    HW130413   3.159   4.651  17.178 -0.3551  0.1070 -0.5577
 6318SOL    HW230414   3.020   4.589  17.175  1.0513 -2.6843 -0.2484
 6319SOL     OW30415   1.925   2.152  12.323  0.1503  0.5112 -0.3177
 6319SOL    HW130416   1.976   2.080  12.361  2.1065  1.8134 -0.5327
 6319SOL    HW230417   1.909   2.208  12.399 -2.3340 -0.3120 -0.2292
 6320SOL     OW30418   4.628   3.370  14.089  0.6662  0.2397  0.8916
 6320SOL    HW130419   4.617   3.465  14.086 -2.2026 -0.0721  1.9176
 6320SOL    HW230420   4.724   3.364  14.087  0.6622  0.8469 -0.4809
 6321SOL     OW30421   1.994   3.750   1.868  0.4301  0.1425  0.2957
 6321SOL    HW130422   2.074   3.703   1.892  1.4604  1.4374 -0.6233
 6321SOL    HW230423   2.033   3.819   1.815 -1.6472  1.6569  0.7397
 6322SOL     OW30424   1.587   2.634   6.004 -0.6630 -0.5808 -0.4877
 6322SOL    HW130425   1.630   2.644   5.919 -1.4974 -1.7615 -1.0456
 6322SOL    HW230426   1.651   2.590   6.060  0.2991 -0.4055 -1.4508
 6323SOL     OW30427   1.054   3.724  15.032 -0.0557  0.1850  0.4203
 6323SOL    HW130428   0.987   3.792  15.045  0.1064  0.0335  2.0042
 6323SOL    HW230429   1.032   3.659  15.098 -0.6989  0.8913  0.9019
 6324SOL     OW30430   2.559   0.349   3.000 -0.4158  0.2360  0.3001
 6324SOL    HW130431   2.558   0.331   2.906 -2.1538 -0.7068  0.4966
 6324SOL    HW230432   2.612   0.428   3.005 -0.1942  0.1341 -0.3751
 6325SOL     OW30433   4.230   4.448   6.579  0.7588  0.3297  0.0422
 6325SOL    HW130434   4.272   4.493   6.506 -2.3307 -1.6747 -2.9780
 6325SOL    HW230435   4.177   4.522   6.609  1.8109  0.7612  0.8413
 6326SOL     OW30436   0.697   3.592   1.551  0.2398  0.6686 -0.4792
 6326SOL    HW130437   0.619   3.566   1.600  0.2006 -1.2911 -1.5716
 6326SOL    HW230438   0.686   3.547   1.467 -0.4254  1.6379 -0.9077
 6327SOL     OW30439   4.655   0.139   3.901 -0.6220  0.0814 -0.5588
 6327SOL    HW130440   4.640   0.167   3.992  0.2868 -1.3635  0.0280
 6327SOL    HW230441   4.563   0.115   3.890 -0.8503  0.3959  0.6313
 6328SOL     OW30442   0.825   3.487  15.843  0.2157 -0.0358  0.2080
 6328SOL    HW130443   0.731   3.471  15.835 -0.1019  1.7696  0.2414
 6328SOL    HW230444   0.825   3.583  15.843 -0.5804 -0.0374  0.3921
 6329SOL     OW30445   2.183   1.795   5.818  0.1434  0.1133  0.0059
 6329SOL    HW130446   2.212   1.808   5.728 -1.1797  0.6549 -0.3305
 6329SOL    HW230447   2.091   1.772   5.811  0.5987 -0.8510 -2.7069
 6330SOL     OW30448   2.329   2.137  10.293 -0.2587  0.8322 -0.2589
 6330SOL    HW130449   2.400   2.113  10.233 -2.0695  1.8867 -2.8317
 6330SOL    HW230450   2.302   2.048  10.315 -0.9548  1.8286  2.8574
 6331SOL     OW30451   2.654   0.261   2.199 -0.4149 -0.1154 -0.4017
 6331SOL    HW130452   2.691   0.198   2.137 -3.1686 -3.6213  1.5028
 6331SOL    HW230453   2.722   0.327   2.211  0.8301 -1.7459  1.4875
 6332SOL     OW30454   0.432   0.193   1.906 -0.1719 -0.4733  0.1851
 6332SOL    HW130455   0.428   0.105   1.869 -1.3677 -0.5690  0.5555
 6332SOL    HW230456   0.416   0.190   2.000  2.3332 -2.1856  0.5555
 6333SOL     OW30457   2.572   3.169   7.084  0.3652 -0.0337  0.0616
 6333SOL    HW130458   2.604   3.255   7.111  1.8925  0.1848 -2.3997
 6333SOL    HW230459   2.595   3.160   6.991 -0.6027  1.4418 -0.3292
 6334SOL     OW30460   3.288   2.281   5.519 -0.0884  0.4466 -0.3679
 6334SOL    HW130461   3.293   2.220   5.593  0.4054  2.5352  1.3556
 6334SOL    HW230462   3.252   2.363   5.554  1.3436  1.2229 -0.6935
 6335SOL     OW30463   3.334   1.903   5.420 -0.3621 -0.3099 -0.2072
 6335SOL    HW130464   3.417   1.935   5.384  0.2258 -0.9461  0.5719
 6335SOL    HW230465   3.337   1.814   5.385 -1.8686 -0.0992 -0.8870
 6336SOL     OW30466   2.211   2.882   6.460 -0.3674 -0.4241 -0.1129
 6336SOL    HW130467   2.262   2.801   6.451 -0.6717 -0.6712  0.4228
 6336SOL    HW230468   2.122   2.851   6.471 -0.6012 -0.0594 -0.9797
 6337SOL     OW30469   3.026   1.078   3.221 -0.2281 -0.7891 -0.3306
 6337SOL    HW130470   3.068   1.103   3.303 -2.2564  0.0889  0.4425
 6337SOL    HW230471   2.986   1.161   3.197  2.0047  1.3757  3.5412
 6338SOL     OW30472   0.743   4.236  11.220 -0.1877  0.3044 -0.3705
 6338SOL    HW130473   0.768   4.187  11.142  0.6746  1.8193 -1.0362
 6338SOL    HW230474   0.819   4.294  11.215 -0.3842  0.4257 -1.9410
 6339SOL     OW30475   2.209   1.673   2.876 -0.7067 -0.3905 -0.1599
 6339SOL    HW130476   2.128   1.666   2.927 -0.0995 -0.1920  0.8171
 6339SOL    HW230477   2.277   1.659   2.941 -1.0223 -1.6447 -0.0891
 6340SOL     OW30478   2.656   2.010  10.804  0.7359  0.0758  0.0280
 6340SOL    HW130479   2.717   1.937  10.810  1.0267  0.3129 -0.0651
 6340SOL    HW230480   2.685   2.063  10.730  0.3516  1.2918  0.7280
 6341SOL     OW30481   2.447   0.968   8.107  0.5123  0.3917 -0.0054
 6341SOL    HW130482   2.359   0.984   8.143 -0.4504 -1.4446 -1.5223
 6341SOL    HW230483   2.458   0.884   8.150 -1.8322 -0.6245 -1.3993
 6342SOL     OW30484   1.764   2.695  15.719  0.3652 -0.5763 -0.2307
 6342SOL    HW130485   1.854   2.703  15.752  0.7268  1.4814 -1.6757
 6342SOL    HW230486   1.790   2.653  15.637  1.2582 -2.4768  1.0348
 6343SOL     OW30487   0.807   2.904   4.682 -0.5133  0.3469  0.7185
 6343SOL    HW130488   0.863   2.827   4.673  1.2177  1.9097 -1.8195
 6343SOL    HW230489   0.726   2.869   4.645  0.2909 -0.1632 -0.5336
 6344SOL     OW30490   0.200   3.219   2.251 -0.3881  0.3810 -0.1569
 6344SOL    HW130491   0.183   3.311   2.271  1.2915  0.5077  0.7039
 6344SOL    HW230492   0.133   3.216   2.182  0.8530 -1.2138 -1.3093
 6345SOL     OW30493   3.422   0.483  10.258 -0.1466 -0.9372  0.4528
 6345SOL    HW130494   3.405   0.572  10.229  0.6111 -0.6147  0.9971
 6345SOL    HW230495   3.419   0.486  10.353  0.4823  0.0920  0.4417
 6346SOL     OW30496   3.108   3.065   8.039 -0.0667  0.3053  0.5378
 6346SOL    HW130497   3.151   3.116   8.108 -0.5683 -0.5875  1.5118
 6346SOL    HW230498   3.095   3.125   7.966  0.3083  0.9872  1.0281
 6347SOL     OW30499   4.004   1.748   7.320  0.2232 -0.2250 -0.5933
 6347SOL    HW130500   4.074   1.690   7.349  0.6985 -0.1097 -1.5026
 6347SOL    HW230501   4.055   1.808   7.265 -2.8343  1.6955 -1.3776
 6348SOL     OW30502   4.649   0.820  15.238 -0.2168  0.7069  0.7388
 6348SOL    HW130503   4.641   0.737  15.191 -1.1731  1.5463 -0.5961
 6348SOL    HW230504   0.009   0.851  15.209  0.3124 -0.2475  1.3020
 6349SOL     OW30505   1.026   3.286   5.631  0.2473  0.5461 -0.4690
 6349SOL    HW130506   1.025   3.211   5.690  3.3115  1.5525  0.8296
 6349SOL    HW230507   0.934   3.310   5.619  0.2491  1.5678  1.6147
 6350SOL     OW30508   3.773   0.790  17.543  0.7014 -0.2223 -0.4382
 6350SOL    HW130509   3.694   0.736  17.548  1.3167 -0.9703  1.4293
 6350SOL    HW230510   3.765   0.842  17.623 -1.4174 -1.9544  0.4788
 6351SOL     OW30511   0.180   0.675   3.819  0.2933  0.1484  0.1257
 6351SOL    HW130512   0.162   0.627   3.900  0.7581 -1.2983 -0.6263
 6351SOL    HW230513   0.245   0.617   3.779 -0.1191  0.4950 -1.0634
 6352SOL     OW30514   1.882   4.443   3.702 -0.4668  0.2151  0.2246
 6352SOL    HW130515   1.862   4.442   3.795  0.8643 -1.2710  0.4997
 6352SOL    HW230516   1.849   4.357   3.675 -0.9262  0.4782 -0.0525
 6353SOL     OW30517   2.773   1.714  14.867 -0.1565  0.1788 -0.6489
 6353SOL    HW130518   2.764   1.807  14.887 -1.5281 -0.7270  2.9881
 6353SOL    HW230519   2.690   1.713  14.818 -1.2025  1.7401  1.0799
 6354SOL     OW30520   0.348   0.360   8.607 -0.2992  0.4162 -0.4083
 6354SOL    HW130521   0.391   0.412   8.539 -0.9829 -1.1057 -2.0093
 6354SOL    HW230522   0.382   0.385   8.693 -0.0058 -2.9919  0.4626
 6355SOL     OW30523   3.700   2.579   1.143  0.0258  0.0589 -0.1283
 6355SOL    HW130524   3.749   2.661   1.131  0.5242 -0.1742  0.3132
 6355SOL    HW230525   3.645   2.585   1.065 -0.2158 -1.1522 -0.0429
 6356SOL     OW30526   0.496   0.766   6.416  0.3856 -0.0499  0.3617
 6356SOL    HW130527   0.556   0.841   6.422  0.5742 -0.4327  3.0767
 6356SOL    HW230528   0.498   0.745   6.323  4.4304 -1.6431  0.8168
 6357SOL     OW30529   3.593   0.356   9.555 -0.7125 -0.1820  0.0569
 6357SOL    HW130530   3.561   0.444   9.532 -0.5272 -0.3320 -0.7582
 6357SOL    HW230531   3.667   0.376   9.611 -1.8558  2.1491  0.7551
 6358SOL     OW30532   1.976   4.504  16.028 -0.4268  0.0665  0.5875
 6358SOL    HW130533   1.916   4.434  16.005 -2.6643  1.7428  1.3436
 6358SOL    HW230534   2.007   4.538  15.943 -0.7087  0.7497  0.7534
 6359SOL     OW30535   4.154   0.374   9.079  0.1536  0.3171  0.6088
 6359SOL    HW130536   4.163   0.469   9.079 -0.4093  0.3697 -0.8348
 6359SOL    HW230537   4.147   0.351   9.172 -1.0003  0.8223  0.6391
 6360SOL     OW30538   2.042   2.232   5.322  0.0519 -0.5103  0.2485
 6360SOL    HW130539   1.991   2.306   5.354 -3.1603 -1.9887 -1.4384
 6360SOL    HW230540   2.076   2.263   5.238 -0.2325  0.9613  0.6884
 6361SOL     OW30541   1.780   4.465   9.913  0.0877  0.2547  0.1239
 6361SOL    HW130542   1.685   4.459   9.924 -0.2971  1.5695 -2.2514
 6361SOL    HW230543   1.800   4.527   9.983  1.0829 -1.1882  1.1050
 6362SOL     OW30544   3.836   3.159   1.276 -0.0983  0.0017 -0.0786
 6362SOL    HW130545   3.850   3.135   1.367  1.0993  0.4049 -0.1584
 6362SOL    HW230546   3.805   3.074   1.246  2.5016 -0.7092 -0.7023
 6363SOL     OW30547   0.851   2.572  15.644  0.4783  0.1459 -0.1818
 6363SOL    HW130548   0.881   2.656  15.677  1.4599 -0.3951  0.3194
 6363SOL    HW230549   0.923   2.555  15.584 -2.1229 -4.0783 -2.1228
 6364SOL     OW30550   2.887   1.047   1.627 -0.2947 -0.6438  0.0974
 6364SOL    HW130551   2.801   1.019   1.596 -1.3984  0.6795  1.9260
 6364SOL    HW230552   2.883   1.012   1.716  2.0114  0.2204  0.5572
 6365SOL     OW30553   0.446   3.943   2.051  0.8514 -0.3150 -0.3444
 6365SOL    HW130554   0.361   3.983   2.030  0.3348 -0.6301  1.1350
 6365SOL    HW230555   0.444   3.860   2.004 -3.1068  0.2924 -1.3247
 6366SOL     OW30556   1.194   3.144  15.680 -0.4116  0.5707 -0.4838
 6366SOL    HW130557   1.218   3.227  15.721  3.2767 -2.2777  3.2582
 6366SOL    HW230558   1.269   3.090  15.707  0.3168  1.5443 -0.5468
 6367SOL     OW30559   4.364   1.330   2.326 -0.1711 -0.4848 -0.3133
 6367SOL    HW130560   4.302   1.325   2.253  1.0798 -0.2767 -1.4004
 6367SOL    HW230561   4.365   1.423   2.347 -1.1100 -0.5688  0.0948
 6368SOL     OW30562   3.827   0.854   8.843 -0.1848 -0.0382 -0.1264
 6368SOL    HW130563   3.845   0.823   8.932  0.6140  0.4343 -0.1205
 6368SOL    HW230564   3.761   0.793   8.811  1.9892 -1.8516 -1.2204
 6369SOL     OW30565   3.389   2.007  11.483 -0.0131 -0.1452  0.3122
 6369SOL    HW130566   3.410   2.098  11.462 -0.0721 -0.1504  0.2293
 6369SOL    HW230567   3.390   1.974  11.393  2.1130 -0.8206  0.5880
 6370SOL     OW30568   4.251   3.311   7.883 -0.3846  0.2211  0.6251
 6370SOL    HW130569   4.183   3.293   7.948 -0.7775 -0.4682  0.0189
 6370SOL    HW230570   4.320   3.356   7.931  1.4218 -0.7121 -1.0865
 6371SOL     OW30571   1.684   2.897   7.941  0.2742  0.4291 -0.6549
 6371SOL    HW130572   1.645   2.969   7.990  0.7313  2.2201 -2.9486
 6371SOL    HW230573   1.606   2.864   7.897  1.4841 -2.3360 -0.7577
 6372SOL     OW30574   0.004   4.387   5.033  0.1379  0.3181  0.1124
 6372SOL    HW130575   0.045   4.307   4.999 -0.8297 -0.8157  1.5845
 6372SOL    HW230576   0.084   4.433   5.060 -0.5959  0.7434  1.5889
 6373SOL     OW30577   0.894   3.401   9.131 -0.0902 -0.4059 -0.0612
 6373SOL    HW130578   0.853   3.399   9.044  2.7008  0.6452 -1.3858
 6373SOL    HW230579   0.820   3.400   9.192 -2.7849 -2.0916 -3.3656
 6374SOL     OW30580   4.229   2.358   9.123  0.6193  0.1782 -0.6816
 6374SOL    HW130581   4.301   2.409   9.157 -0.9931  1.2583  1.1248
 6374SOL    HW230582   4.259   2.269   9.142 -0.9705 -0.2595 -0.1883
 6375SOL     OW30583   0.438   1.531   9.019  0.0691 -0.6381  0.2661
 6375SOL    HW130584   0.369   1.531   9.085  0.0837  0.1221  0.2880
 6375SOL    HW230585   0.400   1.467   8.959 -0.3281 -1.3741  1.3053
 6376SOL     OW30586   3.613   1.161  11.103  0.0206 -0.0626  0.2634
 6376SOL    HW130587   3.594   1.072  11.072  0.2832 -0.6923  1.9206
 6376SOL    HW230588   3.560   1.223  11.053  2.5587  1.3532 -0.6677
 6377SOL     OW30589   2.611   2.250  14.315  0.5000 -0.0129  0.8201
 6377SOL    HW130590   2.526   2.274  14.278  0.3863 -0.4424  0.8044
 6377SOL    HW230591   2.623   2.162  14.278 -0.2601  0.6501 -1.0165
 6378SOL     OW30592   1.291   2.207   2.490 -0.1627 -0.0799  0.0325
 6378SOL    HW130593   1.284   2.291   2.535  0.5833  0.3376 -0.6161
 6378SOL    HW230594   1.306   2.149   2.564  1.1446 -1.5270 -1.3834
 6379SOL     OW30595   0.723   2.650   0.294 -0.1199 -0.3729  0.2718
 6379SOL    HW130596   0.746   2.723   0.237 -2.3669 -0.8497 -1.2239
 6379SOL    HW230597   0.634   2.620   0.276 -0.2939  1.8786 -2.5901
 6380SOL     OW30598   1.366   0.977   2.679  0.1515 -0.3422  0.1570
 6380SOL    HW130599   1.419   1.050   2.710  1.0920 -1.7405  1.8578
 6380SOL    HW230600   1.427   0.923   2.630  0.7801  0.3450  0.1885
 6381SOL     OW30601   1.454   1.524  12.367 -0.1283 -0.0017 -0.4478
 6381SOL    HW130602   1.537   1.477  12.362  0.6176  1.5785 -2.9559
 6381SOL    HW230603   1.478   1.614  12.390 -0.4223  0.1114 -0.5760
 6382SOL     OW30604   2.909   3.374  11.104 -0.0586 -0.0676  0.4263
 6382SOL    HW130605   2.843   3.340  11.044  0.5515 -0.1868 -0.1701
 6382SOL    HW230606   2.893   3.469  11.101 -0.5766 -0.1667  0.0039
 6383SOL     OW30607   2.144   2.958   8.702 -0.2616 -0.2565 -0.5560
 6383SOL    HW130608   2.153   2.866   8.725 -0.8666 -0.4521 -1.1246
 6383SOL    HW230609   2.107   2.942   8.615 -0.1522  1.5612 -0.9517
 6384SOL     OW30610   0.502   3.551   9.559  0.5319  0.4721 -0.3035
 6384SOL    HW130611   0.556   3.593   9.625 -0.6903 -0.1447  1.1027
 6384SOL    HW230612   0.536   3.461   9.562  0.9220  0.6791  1.7187
 6385SOL     OW30613   2.805   2.467   3.539 -0.0866 -0.8390  0.1030
 6385SOL    HW130614   2.718   2.429   3.548 -0.2280 -0.3404  0.8656
 6385SOL    HW230615   2.824   2.488   3.631  3.4606 -0.7004 -0.6427
 6386SOL     OW30616   3.317   3.085   6.355 -0.0077  0.0643  0.2565
 6386SOL    HW130617   3.324   3.158   6.417 -1.7201  0.0366  0.4820
 6386SOL    HW230618   3.338   3.005   6.403 -1.4621 -1.6163 -1.9016
 6387SOL     OW30619   1.652   0.879  11.657  0.4011 -0.3331 -0.7392
 6387SOL    HW130620   1.653   0.810  11.591 -2.4828 -1.9210  0.9086
 6387SOL    HW230621   1.573   0.917  11.619  0.7847 -0.3896 -1.5774
 6388SOL     OW30622   1.590   2.345   5.638 -0.4753 -0.2711 -0.3912
 6388SOL    HW130623   1.612   2.389   5.556 -1.8347  1.4269  0.1483
 6388SOL    HW230624   1.553   2.422   5.681  1.1544  0.1856  0.2077
 6389SOL     OW30625   3.286   1.784   0.026 -0.0328  0.1355 -0.5734
 6389SOL    HW130626   3.322   1.795  17.641 -0.2317  2.9133 -0.3213
 6389SOL    HW230627   3.234   1.864   0.022  1.2059  0.8927 -1.6383
 6390SOL     OW30628   2.491   0.075   8.374 -0.5732  0.3804 -0.3005
 6390SOL    HW130629   2.408   0.042   8.341 -0.7911  0.0815  0.5411
 6390SOL    HW230630   2.507   0.030   8.457 -1.0259  0.0420 -0.4002
 6391SOL     OW30631   1.737   4.611  10.155 -0.4288  0.1231  0.0710
 6391SOL    HW130632   1.775   4.693  10.189  0.8520  0.5333 -2.3134
 6391SOL    HW230633   1.771   4.545  10.216  0.6973 -0.0511 -0.7477
 6392SOL     OW30634   2.189   3.143   2.091  0.1880  0.0066  0.4735
 6392SOL    HW130635   2.141   3.113   2.014 -0.4228 -1.9305  1.6048
 6392SOL    HW230636   2.270   3.167   2.046  0.5102 -0.6977  0.6783
 6393SOL     OW30637   0.739   2.222   6.312 -0.1976  1.1053 -0.0353
 6393SOL    HW130638   0.751   2.316   6.302 -0.1095  1.3179  2.1420
 6393SOL    HW230639   0.773   2.224   6.402  1.3012 -1.6045 -0.5427
 6394SOL     OW30640   4.274   2.014  14.493  0.2125 -0.1701  0.3210
 6394SOL    HW130641   4.345   2.078  14.490  0.0106  0.0509  0.2430
 6394SOL    HW230642   4.291   1.976  14.579  0.6877 -1.9390 -0.5546
 6395SOL     OW30643   1.367   2.554   2.799  0.3452  0.4703 -0.0809
 6395SOL    HW130644   1.352   2.524   2.710 -1.9356 -0.0267  0.4694
 6395SOL    HW230645   1.351   2.473   2.847 -0.7226  0.3527 -0.6357
 6396SOL     OW30646   3.412   0.545  13.963  0.0584 -0.1950 -0.2424
 6396SOL    HW130647   3.403   0.631  13.922  1.4204  0.1145  0.1174
 6396SOL    HW230648   3.321   0.535  13.993  0.8601 -1.6583  1.7241
 6397SOL     OW30649   0.996   1.803   8.007  0.4279 -0.1717  0.0381
 6397SOL    HW130650   1.023   1.780   8.096  0.1949 -2.0214 -0.3748
 6397SOL    HW230651   1.052   1.880   7.999 -1.2554  1.1440  0.7627
 6398SOL     OW30652   3.622   1.479   4.108 -0.3742  0.2707  0.1626
 6398SOL    HW130653   3.592   1.490   4.198 -0.7923  1.1720 -0.0897
 6398SOL    HW230654   3.715   1.465   4.125 -0.4884  0.8957  1.2877
 6399SOL     OW30655   3.335   4.001   5.640  0.6571 -0.3753 -0.1726
 6399SOL    HW130656   3.376   3.921   5.606  0.0208 -1.6883  2.1595
 6399SOL    HW230657   3.315   3.984   5.731  1.7409 -1.8432 -0.2092
 6400SOL     OW30658   4.494   1.958   2.439  0.2435  0.1215 -0.6175
 6400SOL    HW130659   4.532   1.892   2.381 -1.4809  0.3254 -1.9796
 6400SOL    HW230660   4.425   1.996   2.385  1.2329  0.5260 -1.6015
 6401SOL     OW30661   0.732   2.591   2.464 -0.1134  0.3658  0.9179
 6401SOL    HW130662   0.749   2.565   2.373  1.8167  1.5593  0.9512
 6401SOL    HW230663   0.713   2.503   2.495 -0.9935  0.5445  0.8888
 6402SOL     OW30664   0.019   2.567   4.938  0.1301 -0.1678 -0.0753
 6402SOL    HW130665   4.657   2.541   4.907 -1.1267  1.4226  2.1611
 6402SOL    HW230666   0.029   2.501   5.006  1.7094  0.6990  0.5414
 6403SOL     OW30667   3.537   1.008   4.132 -0.4422  0.2070  0.2586
 6403SOL    HW130668   3.475   1.059   4.185 -0.5494 -0.2276  0.5453
 6403SOL    HW230669   3.487   1.020   4.052 -0.7062  2.2869  0.7164
 6404SOL     OW30670   4.129   1.401  11.183  0.1378 -0.1796 -0.1370
 6404SOL    HW130671   4.068   1.473  11.165  1.5670  0.7717 -1.1822
 6404SOL    HW230672   4.091   1.329  11.133  0.0083  1.0828 -1.8990
 6405SOL     OW30673   3.360   2.328   8.099  0.5716 -0.1013  0.4278
 6405SOL    HW130674   3.294   2.394   8.119 -0.5709 -1.3385  0.7369
 6405SOL    HW230675   3.389   2.348   8.010 -0.1780  2.0128  0.6765
 6406SOL     OW30676   1.743   4.063   1.141 -0.1127  0.2817 -0.1841
 6406SOL    HW130677   1.687   4.138   1.159 -0.7998  0.4583 -3.0376
 6406SOL    HW230678   1.674   4.001   1.118  1.5727 -1.8667  0.5394
 6407SOL     OW30679   3.808   0.498   4.209 -0.0960 -0.1928  0.0468
 6407SOL    HW130680   3.730   0.538   4.169 -0.4270 -0.4338  0.4514
 6407SOL    HW230681   3.862   0.496   4.130  1.5244  0.9303  1.1353
 6408SOL     OW30682   4.359   0.179   8.335 -0.2928 -0.5903 -0.2560
 6408SOL    HW130683   4.419   0.128   8.390  1.4924 -0.4498 -2.0565
 6408SOL    HW230684   4.323   0.247   8.392  0.1308  0.1643 -0.8857
 6409SOL     OW30685   0.448   2.615   6.998 -0.1955  0.7536 -0.2219
 6409SOL    HW130686   0.476   2.549   7.062 -2.9072 -0.2230 -0.0416
 6409SOL    HW230687   0.377   2.572   6.950  0.1685  0.5745 -0.5985
 6410SOL     OW30688   1.155   2.607   3.411  0.2263 -0.3438  0.3553
 6410SOL    HW130689   1.125   2.616   3.502  0.1051 -0.9590  0.3803
 6410SOL    HW230690   1.085   2.558   3.367  1.1060 -1.3734  0.0869
 6411SOL     OW30691   3.585   3.127   1.475 -0.3822  0.1037 -0.0313
 6411SOL    HW130692   3.585   3.067   1.400  1.7420 -1.2355  1.0216
 6411SOL    HW230693   3.673   3.121   1.512 -0.4691  1.0319  0.3168
 6412SOL     OW30694   1.576   1.444  13.052  0.0406  0.0927  0.1855
 6412SOL    HW130695   1.558   1.350  13.054  1.8595 -0.2276  0.9021
 6412SOL    HW230696   1.621   1.459  12.969  0.1929 -1.0700  0.0470
 6413SOL     OW30697   0.052   2.822   0.099  0.2240 -0.3798 -0.0810
 6413SOL    HW130698   0.142   2.833   0.131 -0.1875  0.2363  0.8723
 6413SOL    HW230699   0.000   2.891   0.141  0.1306  0.2035 -1.1584
 6414SOL     OW30700   0.837   3.719  11.974 -0.6726 -0.0042 -0.3343
 6414SOL    HW130701   0.878   3.633  11.969  0.5304  0.6457 -1.7717
 6414SOL    HW230702   0.778   3.698  12.046  2.1465  3.7233  3.0300
 6415SOL     OW30703   2.262   1.360   4.869  0.3558 -0.4652 -0.1215
 6415SOL    HW130704   2.263   1.307   4.949  0.0902  2.0271  1.5153
 6415SOL    HW230705   2.210   1.433   4.903  1.1418  0.4809 -0.9842
 6416SOL     OW30706   0.617   0.574  11.675 -0.0037 -0.1421 -0.0826
 6416SOL    HW130707   0.649   0.500  11.623 -1.4375 -1.0839  0.3630
 6416SOL    HW230708   0.550   0.527  11.725  0.3232 -1.4244 -0.8384
 6417SOL     OW30709   2.394   3.088   4.398  0.3647 -0.4617  0.3413
 6417SOL    HW130710   2.338   3.012   4.407 -0.7646 -0.0812 -3.3497
 6417SOL    HW230711   2.482   3.051   4.392 -0.2647 -2.1571  1.8737
 6418SOL     OW30712   2.000   1.594   1.704 -0.9327  0.4149  0.1156
 6418SOL    HW130713   2.036   1.506   1.709  1.5812  1.3634 -1.4500
 6418SOL    HW230714   2.078   1.645   1.728 -0.2925 -1.1456  1.3607
 6419SOL     OW30715   4.455   3.486   3.116  0.0998 -0.1127 -0.1716
 6419SOL    HW130716   4.491   3.568   3.151  0.9438 -0.4858 -0.1529
 6419SOL    HW230717   4.419   3.513   3.032  0.9637  1.2933 -0.0941
 6420SOL     OW30718   2.756   0.243  11.168 -0.0546 -0.1430 -0.3192
 6420SOL    HW130719   2.766   0.160  11.215  2.4854 -0.4882 -1.4276
 6420SOL    HW230720   2.824   0.294  11.213  1.4443 -2.3600 -0.0383
 6421SOL     OW30721   1.598   1.250   5.497 -0.8302  0.0032  0.5172
 6421SOL    HW130722   1.562   1.212   5.577 -1.7214 -0.4403 -0.0854
 6421SOL    HW230723   1.690   1.241   5.520 -0.5867  1.8084  0.2375
 6422SOL     OW30724   4.676   2.618   6.771  0.7908  0.1887 -0.1713
 6422SOL    HW130725   0.026   2.657   6.815  1.4346 -1.6693  0.3686
 6422SOL    HW230726   4.632   2.696   6.737 -0.5712  1.1623  3.7915
 6423SOL     OW30727   2.570   1.601   0.122  0.3906 -0.2185  0.3642
 6423SOL    HW130728   2.516   1.522   0.122  0.0061  0.0490  1.4805
 6423SOL    HW230729   2.653   1.560   0.147  1.1463  0.0176 -1.7535
 6424SOL     OW30730   0.265   4.246   2.530  0.2427  0.1646  0.1962
 6424SOL    HW130731   0.219   4.278   2.452 -0.6000  0.7344  0.9245
 6424SOL    HW230732   0.208   4.171   2.551  0.0884  0.4631  0.8332
 6425SOL     OW30733   4.072   0.452  16.361 -0.0905  0.0197 -0.0216
 6425SOL    HW130734   4.045   0.376  16.412 -0.4366 -0.1121 -0.4035
 6425SOL    HW230735   4.099   0.509  16.434 -1.8366  2.5493 -1.3591
 6426SOL     OW30736   1.408   3.987   4.701  0.5102 -0.1512 -0.2377
 6426SOL    HW130737   1.495   4.027   4.694 -0.3456  1.6753 -0.3872
 6426SOL    HW230738   1.400   3.963   4.609 -1.0921 -0.4301 -0.0237
 6427SOL     OW30739   2.798   0.016  15.643 -0.4951  0.2364 -0.3053
 6427SOL    HW130740   2.707   0.031  15.617 -0.3242 -2.0418 -2.2699
 6427SOL    HW230741   2.810   4.648  15.628  0.5305  0.1248  1.3119
 6428SOL     OW30742   1.691   3.463   4.946 -0.5982  0.4553  0.0587
 6428SOL    HW130743   1.595   3.467   4.944 -0.6966 -1.2059  1.5842
 6428SOL    HW230744   1.700   3.532   5.012 -0.7132 -0.0753  0.6273
 6429SOL     OW30745   1.786   1.538  12.664 -0.3727 -0.2439  0.5158
 6429SOL    HW130746   1.756   1.575  12.747  2.0158  0.0178  1.2701
 6429SOL    HW230747   1.709   1.486  12.643  1.2484 -2.1560 -0.6817
 6430SOL     OW30748   1.785   1.369   3.802 -0.6543  0.0581 -0.2085
 6430SOL    HW130749   1.717   1.350   3.867 -0.1829  2.2199  0.9163
 6430SOL    HW230750   1.828   1.450   3.831 -1.3255  0.6795 -0.9708
 6431SOL     OW30751   1.906   3.706   8.285 -0.2936  0.0671 -0.1587
 6431SOL    HW130752   1.894   3.705   8.380  0.5968  1.6126 -0.0379
 6431SOL    HW230753   2.001   3.701   8.278 -0.2059  1.7706 -0.1472
 6432SOL     OW30754   4.700   4.719  12.799  0.0892  0.1257  0.2791
 6432SOL    HW130755   0.046   4.658  12.815  1.9539  2.4109  0.7504
 6432SOL    HW230756   0.029   0.072  12.809  0.1281  0.2204 -0.7336
 6433SOL     OW30757   1.899   0.942   6.595 -0.0647  0.1750  0.3518
 6433SOL    HW130758   1.886   0.921   6.503  1.1456  1.3319 -0.0823
 6433SOL    HW230759   1.840   0.880   6.638 -0.2594  0.5113  0.5658
 6434SOL     OW30760   4.070   3.696   2.351  0.2714  0.2137  0.0061
 6434SOL    HW130761   4.159   3.701   2.387  0.0393 -1.6857  0.8328
 6434SOL    HW230762   4.027   3.732   2.428 -1.4772  0.0065 -0.8784
 6435SOL     OW30763   4.473   0.138  12.710 -0.5019 -0.0636  0.6172
 6435SOL    HW130764   4.463   0.217  12.762 -2.7295 -0.1373  0.2888
 6435SOL    HW230765   4.568   0.130  12.700 -0.3878  1.4503  0.5294
 6436SOL     OW30766   2.220   4.114   0.361  0.6656 -0.0648 -0.2764
 6436SOL    HW130767   2.200   4.068   0.279 -1.0028 -1.4741  0.9185
 6436SOL    HW230768   2.184   4.054   0.426  1.3449  0.0463  0.1915
 6437SOL     OW30769   3.116   4.140  16.415  0.3814 -0.5286 -0.1863
 6437SOL    HW130770   3.052   4.207  16.392  1.1184  0.0315 -0.6143
 6437SOL    HW230771   3.200   4.180  16.390  0.0541  0.0615 -0.3375
 6438SOL     OW30772   1.744   0.355   4.405 -0.3601 -0.4053 -0.6325
 6438SOL    HW130773   1.727   0.427   4.345 -1.8091 -1.0108 -0.9436
 6438SOL    HW230774   1.782   0.399   4.481 -0.3067  0.0843 -0.9456
 6439SOL     OW30775   2.096   2.383   8.517 -0.4566  0.2069  0.1670
 6439SOL    HW130776   2.076   2.456   8.458  1.1631  0.5149  0.0109
 6439SOL    HW230777   2.086   2.303   8.465 -0.1475  1.1951 -1.4368
 6440SOL     OW30778   2.675   0.793  17.630  0.2328  0.1864 -0.2433
 6440SOL    HW130779   2.761   0.810  17.591  0.5289  1.0124  0.7602
 6440SOL    HW230780   2.703   0.789   0.018 -1.9265  3.1287  0.5472
 6441SOL     OW30781   0.238   1.524   5.482 -0.2660 -0.0629  0.0370
 6441SOL    HW130782   0.212   1.466   5.410  1.1532 -1.7418  0.8954
 6441SOL    HW230783   0.159   1.579   5.477 -1.1471 -1.3547 -0.1253
 6442SOL     OW30784   4.566   2.254   8.371  0.5476  0.5541  0.9683
 6442SOL    HW130785   4.569   2.326   8.434  0.8323  0.5973  0.9088
 6442SOL    HW230786   4.522   2.291   8.295  0.9678  2.3728  1.6146
 6443SOL     OW30787   0.774   4.569   1.546  0.1607 -0.2885 -0.5614
 6443SOL    HW130788   0.720   4.490   1.547 -0.2295 -0.0411 -1.7559
 6443SOL    HW230789   0.764   4.603   1.635 -0.6940  1.1499 -1.2104
 6444SOL     OW30790   3.006   1.416   4.671  0.3283 -0.3074  0.1171
 6444SOL    HW130791   3.067   1.471   4.623  0.9058 -0.1260  1.0544
 6444SOL    HW230792   3.003   1.463   4.755 -2.1270 -1.6223  0.7720
 6445SOL     OW30793   2.397   4.338   4.993 -0.6909 -0.6898 -0.1436
 6445SOL    HW130794   2.421   4.269   4.931 -1.6204 -0.7085 -0.4830
 6445SOL    HW230795   2.381   4.409   4.930  0.1044  0.9882  1.5601
 6446SOL     OW30796   3.991   0.372   0.605 -0.3439  0.2482 -0.3571
 6446SOL    HW130797   3.922   0.335   0.551  0.5018  3.6165 -3.7454
 6446SOL    HW230798   4.012   0.300   0.665  2.0755  0.3203 -1.1149
 6447SOL     OW30799   3.719   2.763   8.070  0.0907 -0.1789 -0.2665
 6447SOL    HW130800   3.790   2.827   8.065 -0.4590  0.4790  0.2870
 6447SOL    HW230801   3.712   2.746   8.164  1.1280  1.2595  0.0711
 6448SOL     OW30802   3.305   2.508   1.243  0.1660  0.7227 -0.8059
 6448SOL    HW130803   3.323   2.591   1.198  2.3331  0.1070 -1.0566
 6448SOL    HW230804   3.218   2.487   1.210 -0.2517  0.8510  0.2125
 6449SOL     OW30805   3.317   4.019   2.779  0.4034 -0.1772 -0.3455
 6449SOL    HW130806   3.402   4.016   2.735 -0.5782  2.3201 -2.4018
 6449SOL    HW230807   3.262   4.070   2.720 -1.7788 -0.7571  1.1793
 6450SOL     OW30808   2.542   4.357   8.342 -0.0967  0.0221 -0.7567
 6450SOL    HW130809   2.499   4.442   8.333 -1.1019 -0.2900  1.0716
 6450SOL    HW230810   2.633   4.381   8.360  0.0557 -1.4821  0.4718
 6451SOL     OW30811   0.652   3.651   8.618  0.9151  0.1670 -0.3612
 6451SOL    HW130812   0.685   3.566   8.644  1.4162  0.1705 -0.9728
 6451SOL    HW230813   0.600   3.633   8.539  1.9711  1.1006 -1.2701
 6452SOL     OW30814   4.472   1.903   9.680 -0.2210  0.1561  0.3042
 6452SOL    HW130815   4.420   1.850   9.619 -0.8963  0.7383  0.3702
 6452SOL    HW230816   4.557   1.873   9.650  0.1110 -0.1263  1.5259
 6453SOL     OW30817   4.668   3.429   3.795 -0.1595  0.2079  0.2794
 6453SOL    HW130818   0.032   3.398   3.808 -1.2402 -3.7581 -1.7130
 6453SOL    HW230819   4.670   3.504   3.737 -0.7486 -0.5379 -0.7029
 6454SOL     OW30820   1.083   1.406   2.655 -0.2388 -0.5777 -0.3425
 6454SOL    HW130821   1.163   1.402   2.602 -0.5985 -1.1614 -0.8373
 6454SOL    HW230822   1.021   1.449   2.597 -1.6984 -1.2210  0.7586
 6455SOL     OW30823   1.461   2.971   7.298  0.2310 -0.0672 -0.0660
 6455SOL    HW130824   1.464   2.922   7.215 -3.1422 -0.1369 -0.1721
 6455SOL    HW230825   1.455   3.060   7.264  0.7677 -0.2219 -0.5556
 6456SOL     OW30826   1.474   3.687   0.152  0.0520  0.5331 -0.2547
 6456SOL    HW130827   1.533   3.755   0.183 -0.9240  0.3524  2.0287
 6456SOL    HW230828   1.461   3.644   0.237  3.6599 -0.6644 -0.3218
 6457SOL     OW30829   1.477   4.577  12.063 -0.3780 -0.0972  0.2345
 6457SOL    HW130830   1.498   4.501  12.009  1.3240  0.4173  0.1722
 6457SOL    HW230831   1.412   4.605  11.998 -1.0988 -2.0820  0.0976
 6458SOL     OW30832   3.621   3.358   5.271 -0.3024 -0.4343  0.8685
 6458SOL    HW130833   3.633   3.274   5.226  0.4851 -0.8508  1.8633
 6458SOL    HW230834   3.566   3.400   5.204 -0.3323 -2.7664 -0.5654
 6459SOL     OW30835   1.991   2.437   7.080  0.1025  0.1561 -0.1950
 6459SOL    HW130836   2.056   2.453   7.148 -1.1283 -0.4159  1.1176
 6459SOL    HW230837   1.919   2.494   7.109 -0.3011 -0.3006 -0.3006
 6460SOL     OW30838   3.965   1.908  12.881 -0.1823 -0.2339  0.2827
 6460SOL    HW130839   3.944   1.917  12.788  2.4936  0.2509 -0.2726
 6460SOL    HW230840   3.883   1.936  12.921 -1.0809 -1.8719 -0.4255
 6461SOL     OW30841   0.992   3.877  11.819  0.2675  0.2118  0.7099
 6461SOL    HW130842   1.084   3.861  11.836  0.3875 -1.0004 -1.0688
 6461SOL    HW230843   0.957   3.825  11.892 -3.5291 -0.1092 -1.3242
 6462SOL     OW30844   2.562   0.732   9.878  0.3502 -0.0676  0.3069
 6462SOL    HW130845   2.527   0.817   9.852  2.1756  0.6980  0.3585
 6462SOL    HW230846   2.489   0.679   9.846  0.9197 -0.5460 -0.2079
 6463SOL     OW30847   3.170   1.029   1.549  0.1339  0.6165  0.9746
 6463SOL    HW130848   3.179   0.934   1.551 -0.0792  0.5983  1.1587
 6463SOL    HW230849   3.075   1.038   1.553  0.0463  0.0596 -0.0624
 6464SOL     OW30850   0.791   3.458  12.221  0.2056  0.0414  0.0496
 6464SOL    HW130851   0.869   3.413  12.255 -1.5792 -2.9720  0.2344
 6464SOL    HW230852   0.730   3.389  12.248  0.7339 -1.1066 -1.7206
 6465SOL     OW30853   3.178   1.135   6.408  0.3963  0.1629  0.2819
 6465SOL    HW130854   3.205   1.046   6.434 -3.1957 -1.4894 -1.6046
 6465SOL    HW230855   3.119   1.156   6.481  1.0209 -0.4892  0.9712
 6466SOL     OW30856   2.756   1.566  16.850 -0.2392 -0.6698 -0.3572
 6466SOL    HW130857   2.696   1.514  16.903  0.2342 -0.6807  0.1656
 6466SOL    HW230858   2.753   1.654  16.889  0.3117 -0.6856 -0.2757
 6467SOL     OW30859   3.299   1.720   7.313 -0.7268 -0.1630 -0.6475
 6467SOL    HW130860   3.268   1.667   7.240 -1.4336 -0.1500 -0.3528
 6467SOL    HW230861   3.341   1.784   7.256 -2.2166  2.4273  1.1646
 6468SOL     OW30862   2.376   1.424  12.828 -0.7300 -0.0282 -0.1021
 6468SOL    HW130863   2.388   1.516  12.854  0.2077 -0.3886  0.7332
 6468SOL    HW230864   2.415   1.416  12.741 -0.4341 -3.2937  0.3538
 6469SOL     OW30865   0.104   4.540  13.998 -0.1718 -0.3388  0.2119
 6469SOL    HW130866   0.186   4.555  13.951  0.2412 -0.2521  0.9557
 6469SOL    HW230867   0.038   4.529  13.930 -0.4475 -2.6456  0.8340
 6470SOL     OW30868   3.919   3.947   1.839  0.2204  0.3971 -0.0136
 6470SOL    HW130869   3.970   3.872   1.810 -1.8727 -1.3134  0.7696
 6470SOL    HW230870   3.950   3.962   1.929 -1.7128  1.1869  0.5359
 6471SOL     OW30871   1.579   0.961   7.895  0.4365  0.2044 -0.5174
 6471SOL    HW130872   1.629   0.983   7.974 -1.2672  1.2555  0.2676
 6471SOL    HW230873   1.623   1.016   7.831  3.2210 -2.2004 -0.6741
 6472SOL     OW30874   1.747   3.012   4.714 -0.8595 -0.1650 -0.6093
 6472SOL    HW130875   1.667   3.046   4.754 -0.5952  0.6757 -0.7942
 6472SOL    HW230876   1.805   3.008   4.790 -0.9274  1.6335 -0.4509
 6473SOL     OW30877   0.745   0.880   4.421 -0.3480  0.0657  0.1431
 6473SOL    HW130878   0.683   0.834   4.364  0.2265  0.2248 -0.6147
 6473SOL    HW230879   0.801   0.930   4.361 -0.4184 -2.0198 -1.6657
 6474SOL     OW30880   0.946   2.478   5.700  0.6404 -0.1475  0.5400
 6474SOL    HW130881   0.920   2.393   5.665  1.6295 -0.1095 -0.2938
 6474SOL    HW230882   1.037   2.457   5.720  0.0052 -2.3339  1.1265
 6475SOL     OW30883   1.470   0.353   5.131 -0.1937 -0.1563  0.3860
 6475SOL    HW130884   1.457   0.440   5.093 -0.0701 -0.1598  0.3345
 6475SOL    HW230885   1.413   0.301   5.074  1.5369 -0.5849 -0.9587
 6476SOL     OW30886   3.942   3.760   6.240 -0.6930  0.5072 -0.1259
 6476SOL    HW130887   3.942   3.796   6.151 -0.3358 -0.3499 -0.4818
 6476SOL    HW230888   3.920   3.832   6.298  0.4242  1.3757 -0.7745
 6477SOL     OW30889   0.517   3.470  10.130  0.1440  0.2400  0.3127
 6477SOL    HW130890   0.596   3.417  10.123  1.2895  1.8505  1.0010
 6477SOL    HW230891   0.537   3.531  10.058 -3.0768  1.7418  0.6990
 6478SOL     OW30892   1.953   1.131   3.897 -0.1590  0.4315  0.1636
 6478SOL    HW130893   1.867   1.106   3.930  0.0644 -1.5239 -0.6889
 6478SOL    HW230894   1.941   1.147   3.803 -0.5922 -0.3633  0.0805
 6479SOL     OW30895   0.408   1.078   5.327 -0.2576  0.3856 -0.0555
 6479SOL    HW130896   0.447   0.992   5.342 -1.5580 -0.3125 -0.7210
 6479SOL    HW230897   0.352   1.066   5.250  0.6216  0.3019 -0.6932
 6480SOL     OW30898   0.008   1.164   3.938 -0.7562  0.0894  0.4796
 6480SOL    HW130899   0.085   1.211   3.972 -0.1278 -0.6864  0.1322
 6480SOL    HW230900   4.723   1.210   3.855 -0.5505  0.9056  0.9050
 6481SOL     OW30901   3.414   4.581   2.926  0.0264 -0.2357  0.4293
 6481SOL    HW130902   3.462   4.518   2.873 -3.4765 -3.1086  0.7573
 6481SOL    HW230903   3.416   4.546   3.015  1.8037 -2.3989 -0.4703
 6482SOL     OW30904   4.326   4.039   7.247  0.2317  0.1040 -0.4411
 6482SOL    HW130905   4.417   4.065   7.263  0.5558  0.5490 -2.8734
 6482SOL    HW230906   4.339   3.962   7.303 -0.9176  0.0227 -0.2871
 6483SOL     OW30907   4.024   1.643   5.747 -0.1121  0.1117  0.1489
 6483SOL    HW130908   4.114   1.644   5.780 -0.6954  1.4303  1.6993
 6483SOL    HW230909   3.986   1.725   5.778  0.8195  0.8419 -0.6315
 6484SOL     OW30910   4.273   3.080   5.532  0.0651 -0.4306 -0.0518
 6484SOL    HW130911   4.241   3.011   5.590 -0.7001  0.4031  0.5019
 6484SOL    HW230912   4.217   3.150   5.564 -0.7696 -1.5876  1.0221
 6485SOL     OW30913   3.534   2.017   2.356 -0.3075 -0.8112  0.5252
 6485SOL    HW130914   3.472   2.089   2.367  0.5242 -0.4911  3.1776
 6485SOL    HW230915   3.472   1.958   2.314 -1.4192  1.1410 -0.5671
 6486SOL     OW30916   1.864   0.270   2.695  0.1307 -0.4633  0.0608
 6486SOL    HW130917   1.865   0.365   2.686 -2.2284 -0.5058 -0.7414
 6486SOL    HW230918   1.923   0.247   2.768 -0.2462 -0.1804  0.4529
 6487SOL     OW30919   0.827   4.149   7.014  0.0131  0.4880 -0.0730
 6487SOL    HW130920   0.804   4.098   7.091 -2.4399 -1.1013 -1.8737
 6487SOL    HW230921   0.896   4.095   6.975 -0.7824 -0.4565 -0.1600
 6488SOL     OW30922   1.094   1.594  13.063  0.0710 -0.1862  0.3096
 6488SOL    HW130923   1.181   1.604  13.102 -0.0348  2.2320 -0.0527
 6488SOL    HW230924   1.091   1.499  13.056  0.0199 -0.2732  1.6092
 6489SOL     OW30925   3.553   1.547   2.859  0.1799  0.1687 -0.3515
 6489SOL    HW130926   3.483   1.505   2.809 -0.3797 -0.0693  0.6269
 6489SOL    HW230927   3.627   1.487   2.851 -0.2617 -0.1255 -2.3072
 6490SOL     OW30928   4.581   3.302  15.063  0.0953  0.7849  0.3470
 6490SOL    HW130929   4.549   3.304  14.973  1.0998 -2.2874 -0.0719
 6490SOL    HW230930   4.569   3.209  15.082  1.4553  0.1186 -2.1456
 6491SOL     OW30931   0.355   4.213  10.145 -0.3263  0.1690  0.3273
 6491SOL    HW130932   0.406   4.222  10.226 -1.0216 -1.9128  1.0037
 6491SOL    HW230933   0.425   4.172  10.094  0.2179  2.0647 -0.4415
 6492SOL     OW30934   2.383   2.344   7.896  0.2996 -0.3382 -0.1267
 6492SOL    HW130935   2.324   2.312   7.828 -1.6043  2.8817 -0.0330
 6492SOL    HW230936   2.316   2.343   7.965  0.8847 -1.2346  0.4289
 6493SOL     OW30937   1.632   3.250  10.393  0.3148  0.5658 -0.3356
 6493SOL    HW130938   1.605   3.316  10.329  3.5153  0.1928 -2.0572
 6493SOL    HW230939   1.573   3.268  10.466 -1.3124 -0.6073 -1.3503
 6494SOL     OW30940   4.350   4.144   7.590  0.6873  0.1231  0.5503
 6494SOL    HW130941   4.369   4.188   7.673  2.9500 -0.5201  0.3702
 6494SOL    HW230942   4.435   4.137   7.546 -0.0298 -0.8925 -0.6880
 6495SOL     OW30943   4.539   1.170  11.922 -0.5225  0.1772 -0.0633
 6495SOL    HW130944   4.593   1.128  11.855 -2.8234  0.5693 -2.1031
 6495SOL    HW230945   4.601   1.168  11.996 -1.7263  0.2607  0.9557
 6496SOL     OW30946   4.086   4.711   3.701  0.5802 -0.3562  0.1679
 6496SOL    HW130947   4.054   4.712   3.611 -0.8678  1.4638  0.6980
 6496SOL    HW230948   4.127   0.072   3.697 -2.6253  1.2461  2.2880
 6497SOL     OW30949   3.533   1.900  11.665 -0.0129 -0.4795  0.2791
 6497SOL    HW130950   3.542   1.807  11.646  1.4034  0.0185 -1.4518
 6497SOL    HW230951   3.482   1.934  11.592 -0.9325  0.3761  1.3216
 6498SOL     OW30952   0.203   3.650   1.060 -0.7435 -0.7183  0.3756
 6498SOL    HW130953   0.269   3.665   0.993  0.4866 -2.3791  1.2176
 6498SOL    HW230954   0.250   3.677   1.139  0.1025  0.6940 -0.6172
 6499SOL     OW30955   2.577   4.396   6.205  0.0073  0.2844 -0.0397
 6499SOL    HW130956   2.532   4.352   6.277  1.0818 -3.7851 -1.8964
 6499SOL    HW230957   2.651   4.437   6.251  2.0106 -3.1878 -0.2183
 6500SOL     OW30958   1.010   2.606  11.755 -0.2050  0.8594 -0.0830
 6500SOL    HW130959   1.064   2.629  11.831  1.0064 -2.0765 -0.0778
 6500SOL    HW230960   1.040   2.516  11.742 -1.1259  0.2888  1.7535
 6501SOL     OW30961   1.091   0.779   3.854  0.1844 -0.0607  0.0958
 6501SOL    HW130962   1.088   0.863   3.901  1.2619 -0.2871  0.5736
 6501SOL    HW230963   1.078   0.723   3.931  2.1325 -2.1296 -1.0807
 6502SOL     OW30964   2.409   4.689   9.469 -0.0426 -0.2701  0.2051
 6502SOL    HW130965   2.472   0.029   9.501  0.9716 -0.3931 -1.5490
 6502SOL    HW230966   2.396   4.641   9.551 -1.0619 -0.3975 -0.0385
 6503SOL     OW30967   0.867   2.398  13.255 -0.5460 -0.7363  0.6083
 6503SOL    HW130968   0.775   2.424  13.252 -0.0769  0.8075 -0.1901
 6503SOL    HW230969   0.916   2.461  13.203 -0.5091 -1.6217 -0.4426
 6504SOL     OW30970   3.496   3.124   4.822 -0.4005  0.6803  0.4028
 6504SOL    HW130971   3.518   3.107   4.730 -1.8308  3.1000 -0.4092
 6504SOL    HW230972   3.502   3.220   4.822 -0.9934  0.7179 -0.1834
 6505SOL     OW30973   2.141   0.407   6.806  0.5063  0.1854  0.3030
 6505SOL    HW130974   2.084   0.467   6.854 -1.1752 -2.0671  1.1558
 6505SOL    HW230975   2.092   0.398   6.725  0.6154  0.5608  0.1987
 6506SOL     OW30976   3.545   3.160   8.454  0.1901 -0.5057 -0.2209
 6506SOL    HW130977   3.579   3.228   8.396  0.1696 -0.9710 -0.7851
 6506SOL    HW230978   3.544   3.084   8.395  2.2611  0.0402 -0.9413
 6507SOL     OW30979   1.867   2.417  13.484  0.3336  0.0284  0.2174
 6507SOL    HW130980   1.867   2.387  13.394 -0.0991 -1.9981  0.8972
 6507SOL    HW230981   1.807   2.353  13.522  0.6594 -0.5291 -0.2146
 6508SOL     OW30982   2.794   3.580  10.838  0.5486  0.1705 -0.1212
 6508SOL    HW130983   2.888   3.595  10.832  0.6667 -1.2625 -1.7656
 6508SOL    HW230984   2.771   3.609  10.926 -0.0168  0.4461 -0.3628
 6509SOL     OW30985   1.269   0.509  16.331 -0.2297  0.0618 -0.8438
 6509SOL    HW130986   1.298   0.505  16.422 -0.2783 -0.4399 -0.8504
 6509SOL    HW230987   1.353   0.484  16.293  0.7165  1.8062  0.1084
 6510SOL     OW30988   3.924   3.879   2.538 -0.6737  0.1486 -0.4896
 6510SOL    HW130989   3.997   3.895   2.598 -0.0131  0.2066 -1.3061
 6510SOL    HW230990   3.915   3.955   2.481 -3.5564 -1.3208 -1.9694
 6511SOL     OW30991   1.010   0.018   7.503  0.5651  0.1554 -0.1484
 6511SOL    HW130992   0.973   0.092   7.454  1.1462 -0.5936 -1.7450
 6511SOL    HW230993   1.098   0.011   7.464  1.5492  0.9696  1.9213
 6512SOL     OW30994   0.305   1.147   7.095 -0.0842 -0.4382  0.4881
 6512SOL    HW130995   0.370   1.190   7.151 -0.3791  0.4785  0.1207
 6512SOL    HW230996   0.312   1.053   7.108 -0.8887 -0.6932 -0.9404
 6513SOL     OW30997   1.883   0.077  10.278 -0.5695 -0.0454 -0.1615
 6513SOL    HW130998   1.894   0.151  10.338  0.2740  0.2350 -0.6623
 6513SOL    HW230999   1.916   0.001  10.325  0.1756 -0.0612 -0.7136
 6514SOL     OW31000   1.663   0.130  16.758 -0.2726  0.1592 -0.0369
 6514SOL    HW131001   1.671   0.224  16.742  2.5760 -0.3242 -1.4367
 6514SOL    HW231002   1.659   0.093  16.670  0.7901  0.1388 -0.0762
 6515SOL     OW31003   4.627   4.629   4.930 -0.8382  0.0313  0.4854
 6515SOL    HW131004   4.652   4.542   4.961 -0.0479 -0.0726 -0.4397
 6515SOL    HW231005   4.712   4.672   4.932 -0.4340 -0.6721 -1.4867
 6516SOL     OW31006   3.693   1.602   6.457 -0.1002 -0.1109  0.5286
 6516SOL    HW131007   3.651   1.616   6.372  2.4491 -0.2000 -0.7600
 6516SOL    HW231008   3.628   1.545   6.498 -0.2085 -0.4547 -0.1154
 6517SOL     OW31009   1.641   4.086   4.598  0.3419 -0.6953  0.4332
 6517SOL    HW131010   1.646   4.072   4.503 -0.4220  1.9976 -0.0114
 6517SOL    HW231011   1.674   4.176   4.604  2.2112 -1.3068 -0.6034
 6518SOL     OW31012   2.046   3.526  14.767 -0.3728  0.1388 -0.1262
 6518SOL    HW131013   2.109   3.563  14.829  0.6806 -0.2914 -0.9287
 6518SOL    HW231014   2.092   3.536  14.683  1.5441 -1.1766  0.7534
 6519SOL     OW31015   4.094   0.334   7.005 -0.3550 -0.2218 -0.5389
 6519SOL    HW131016   4.144   0.411   6.979 -0.5124  0.4576  1.2001
 6519SOL    HW231017   4.118   0.330   7.097 -1.7786 -0.6700 -0.1807
 6520SOL     OW31018   2.068   1.136   0.345 -0.3905 -0.1022  0.1486
 6520SOL    HW131019   1.978   1.165   0.354 -0.4601 -0.0436 -0.7833
 6520SOL    HW231020   2.097   1.118   0.434 -0.5805 -1.6804 -0.1070
 6521SOL     OW31021   0.889   2.417   3.796  0.0572  0.1718  0.2517
 6521SOL    HW131022   0.949   2.461   3.856 -0.6106 -0.6459  1.5185
 6521SOL    HW231023   0.826   2.483   3.767 -2.3108 -2.2411 -0.1561
 6522SOL     OW31024   1.109   0.772  14.324 -0.4413 -0.2295  0.0392
 6522SOL    HW131025   1.195   0.809  14.305  0.9436 -3.9792 -1.0496
 6522SOL    HW231026   1.062   0.820  14.256  0.8337 -0.9129 -1.3051
 6523SOL     OW31027   4.095   3.405   6.464 -0.7600  0.0998 -0.4445
 6523SOL    HW131028   4.110   3.331   6.523 -1.1799 -0.0020 -0.4653
 6523SOL    HW231029   4.132   3.370   6.384 -2.9194 -0.0523 -1.3677
 6524SOL     OW31030   1.463   1.988  12.678 -0.6165  0.1279  0.0691
 6524SOL    HW131031   1.552   1.976  12.645 -0.8847  0.6175 -0.8396
 6524SOL    HW231032   1.414   1.913  12.643  0.5158  0.6215 -2.4886
 6525SOL     OW31033   4.453   3.733   6.468 -0.1544  0.1887  0.2635
 6525SOL    HW131034   4.362   3.757   6.454  0.2068  2.3352  1.5664
 6525SOL    HW231035   4.437   3.655   6.522  1.9858 -1.1009 -0.9435
 6526SOL     OW31036   2.919   3.676   7.825  0.5512  0.2978 -0.7428
 6526SOL    HW131037   2.958   3.738   7.886  1.1115  1.8139 -2.6314
 6526SOL    HW231038   2.968   3.696   7.745  3.3639  0.0610  0.9226
 6527SOL     OW31039   4.243   4.237   2.944  0.6116  0.2782  0.0878
 6527SOL    HW131040   4.336   4.248   2.964  0.9859 -2.9609 -0.0066
 6527SOL    HW231041   4.215   4.329   2.939  3.4909  1.1345 -0.2261
 6528SOL     OW31042   3.872   0.777   1.933  0.6232 -0.0226 -0.4304
 6528SOL    HW131043   3.899   0.853   1.881 -0.8808  1.9897  1.7256
 6528SOL    HW231044   3.791   0.747   1.892  1.3522 -0.6909 -1.4074
 6529SOL     OW31045   3.560   2.902   7.366 -0.5350 -0.0364  0.7839
 6529SOL    HW131046   3.560   2.856   7.282  0.4142 -0.9113  1.2703
 6529SOL    HW231047   3.642   2.952   7.356 -1.1176  0.7079 -0.2426
 6530SOL     OW31048   0.616   3.912   1.249 -0.5780 -0.5627  0.0794
 6530SOL    HW131049   0.549   3.847   1.271 -1.1322  0.6035  1.8793
 6530SOL    HW231050   0.697   3.865   1.265 -0.8264 -1.3332 -0.9216
 6531SOL     OW31051   3.288   3.713  15.689  0.2716  0.4650 -0.0656
 6531SOL    HW131052   3.373   3.756  15.690  0.5244 -0.0006 -1.4578
 6531SOL    HW231053   3.242   3.757  15.761 -1.3442 -1.2729 -0.0253
 6532SOL     OW31054   2.021   4.132  13.893 -0.6896 -0.1899  0.0345
 6532SOL    HW131055   2.111   4.140  13.924  0.1079  3.1500 -3.2057
 6532SOL    HW231056   1.972   4.139  13.975 -1.2480 -0.9832 -0.2270
 6533SOL     OW31057   3.853   4.066   6.040 -0.2677  0.0353 -0.2932
 6533SOL    HW131058   3.887   4.138   5.987  0.4395  0.8190  1.2388
 6533SOL    HW231059   3.868   3.990   5.984  1.7616 -0.5536  1.0778
 6534SOL     OW31060   3.199   3.028  11.143 -0.5872  0.2500  0.1802
 6534SOL    HW131061   3.142   3.029  11.066 -0.8637  0.2853  0.3850
 6534SOL    HW231062   3.144   3.074  11.206  0.6979  2.6410 -0.4834
 6535SOL     OW31063   1.501   3.989   6.472 -0.1534  0.1451  0.0850
 6535SOL    HW131064   1.459   3.975   6.557  2.3818  0.2252  1.3493
 6535SOL    HW231065   1.592   3.963   6.484  0.1170  1.6023  1.0810
 6536SOL     OW31066   2.241   0.383  16.539 -0.2449  0.1177  0.6036
 6536SOL    HW131067   2.217   0.446  16.471  0.4706 -4.0178 -3.5291
 6536SOL    HW231068   2.203   0.302  16.505  0.1142  0.6417 -1.0409
 6537SOL     OW31069   1.323   0.162   2.660 -0.0023  0.0686 -0.2381
 6537SOL    HW131070   1.330   0.114   2.577 -2.9701 -2.8671  1.2319
 6537SOL    HW231071   1.415   0.171   2.682 -0.2556  1.0106  0.4312
 6538SOL     OW31072   4.660   1.060   2.520 -0.0608  0.3892  0.1832
 6538SOL    HW131073   4.683   0.968   2.504  2.3151  1.0599 -0.2030
 6538SOL    HW231074   0.015   1.090   2.562 -0.5180  0.4941  0.9942
 6539SOL     OW31075   0.666   4.470   1.942 -0.1333  0.3326 -0.5145
 6539SOL    HW131076   0.658   4.410   2.017 -1.2963  0.5489 -0.4608
 6539SOL    HW231077   0.719   4.418   1.882  1.0318  1.2257 -0.2381
 6540SOL     OW31078   0.491   2.748   2.927  0.0690  0.2912 -0.0372
 6540SOL    HW131079   0.576   2.711   2.902 -0.1343  0.2092 -0.6083
 6540SOL    HW231080   0.440   2.740   2.847 -0.9989 -0.5758  0.7319
 6541SOL     OW31081   3.653   3.766   0.414 -0.7165  0.3821 -0.6497
 6541SOL    HW131082   3.707   3.688   0.434  0.3007  1.7496  1.9270
 6541SOL    HW231083   3.637   3.749   0.321  1.1610 -1.2494 -0.6813
 6542SOL     OW31084   1.649   4.373  12.476 -0.9261  0.4914  0.2158
 6542SOL    HW131085   1.560   4.406  12.463 -0.9484  0.2434 -0.2797
 6542SOL    HW231086   1.621   4.282  12.484 -1.3542  0.8100  2.1929
 6543SOL     OW31087   3.325   4.266   4.909  0.1647 -0.2277 -0.5535
 6543SOL    HW131088   3.378   4.346   4.901  0.0856 -0.0959  0.3146
 6543SOL    HW231089   3.290   4.268   4.820  0.0384  1.6073 -0.4714
 6544SOL     OW31090   3.307   3.084  15.571 -0.2602 -0.4569  0.2279
 6544SOL    HW131091   3.318   3.128  15.656 -2.7842  0.4701  0.0784
 6544SOL    HW231092   3.222   3.117  15.543  0.3447  1.4885  0.6031
 6545SOL     OW31093   2.032   1.539  14.541 -0.6881  0.2989  0.0840
 6545SOL    HW131094   1.971   1.476  14.502  0.3860 -0.7300  0.0675
 6545SOL    HW231095   2.117   1.499  14.556 -1.7408 -2.1773 -0.5609
 6546SOL     OW31096   1.258   1.378   3.549  0.6075  0.4638 -0.3418
 6546SOL    HW131097   1.331   1.371   3.487 -0.1147  1.6555 -1.3308
 6546SOL    HW231098   1.198   1.339   3.485 -1.0605  1.2170  0.7616
 6547SOL     OW31099   2.453   2.517   5.052  0.3783 -0.5205 -0.3287
 6547SOL    HW131100   2.381   2.576   5.033  1.4042  1.2663  1.3209
 6547SOL    HW231101   2.430   2.431   5.018  1.9952  0.6329 -4.2946
 6548SOL     OW31102   3.895   4.541  13.086 -0.1331  0.4888  0.4746
 6548SOL    HW131103   3.956   4.543  13.012 -1.4700 -0.1460 -0.6458
 6548SOL    HW231104   3.883   4.631  13.117  0.3673  0.0081  2.0569
 6549SOL     OW31105   1.550   2.195   8.103 -0.3994  0.1049  0.3495
 6549SOL    HW131106   1.485   2.189   8.172 -1.6088 -1.1531 -0.9186
 6549SOL    HW231107   1.551   2.288   8.081 -1.0045 -0.1031 -0.5342
 6550SOL     OW31108   2.295   2.556   4.258  0.9959  0.1066 -0.0089
 6550SOL    HW131109   2.242   2.600   4.192  0.1100 -1.0005 -0.0398
 6550SOL    HW231110   2.361   2.525   4.196  0.8463 -1.3417  0.5424
 6551SOL     OW31111   3.543   2.863   9.729  0.7958  0.1784 -0.3796
 6551SOL    HW131112   3.633   2.891   9.715  0.4413  1.4614 -0.1578
 6551SOL    HW231113   3.498   2.939   9.692 -1.0881 -0.8814 -0.2796
 6552SOL     OW31114   2.228   1.417   6.099  0.0565 -0.5043 -0.0554
 6552SOL    HW131115   2.301   1.374   6.054  0.4641 -0.2625  0.3734
 6552SOL    HW231116   2.253   1.509   6.097  1.3380 -0.8434  0.7796
 6553SOL     OW31117   0.464   3.381  13.560 -0.2499  0.1235 -0.2461
 6553SOL    HW131118   0.472   3.434  13.639 -1.1377 -0.8007  0.4563
 6553SOL    HW231119   0.369   3.390  13.553 -0.1343  1.3540 -0.2505
 6554SOL     OW31120   3.284   2.791   5.902 -0.3537  0.0000  0.0444
 6554SOL    HW131121   3.251   2.864   5.955  0.6616 -1.0443  2.1245
 6554SOL    HW231122   3.338   2.731   5.954 -1.9650 -2.0415 -0.6348
 6555SOL     OW31123   2.144   1.354  12.630 -0.0289  0.4388  0.5768
 6555SOL    HW131124   2.144   1.329  12.722 -0.1040 -0.4136  0.3538
 6555SOL    HW231125   2.237   1.330  12.619 -0.1281  0.1842  0.2653
 6556SOL     OW31126   2.722   2.955  11.913 -0.0022 -0.5950  0.0164
 6556SOL    HW131127   2.719   2.877  11.858 -3.5140 -0.9785  0.7090
 6556SOL    HW231128   2.630   2.982  11.920  0.6835  2.0159 -1.1003
 6557SOL     OW31129   2.607   2.941   0.690 -0.5883  0.2531  0.1876
 6557SOL    HW131130   2.661   2.983   0.756 -0.9230  0.8674  0.0651
 6557SOL    HW231131   2.586   3.021   0.642 -1.0393  0.6810  1.1139
 6558SOL     OW31132   0.595   2.706   0.904  0.0874 -0.0133 -0.2438
 6558SOL    HW131133   0.591   2.746   0.817  0.6640  0.8139  0.1064
 6558SOL    HW231134   0.674   2.653   0.891 -0.6341 -0.9245 -0.9037
 6559SOL     OW31135   0.907   4.538   5.264  0.2956 -0.3077  0.4922
 6559SOL    HW131136   0.936   4.465   5.210  1.9926  1.3422 -0.8477
 6559SOL    HW231137   0.935   4.511   5.352  0.9076 -1.6594 -0.1220
 6560SOL     OW31138   1.925   4.061  10.499 -0.5783  0.6421 -0.3100
 6560SOL    HW131139   1.942   4.013  10.580  2.1308  2.4057  0.1671
 6560SOL    HW231140   1.933   3.993  10.432  0.6046  0.4724  0.0130
 6561SOL     OW31141   3.350   0.072   0.431  0.1125  0.4246 -0.0547
 6561SOL    HW131142   3.383   0.043   0.516  1.0935  2.3404  0.2184
 6561SOL    HW231143   3.256   0.057   0.445  0.4615 -1.3773  0.3746
 6562SOL     OW31144   4.475   3.567   5.070 -0.2541 -0.0775 -0.3852
 6562SOL    HW131145   4.570   3.577   5.061 -0.3361 -0.5350 -1.7547
 6562SOL    HW231146   4.447   3.497   5.011  1.2175 -0.2367 -0.9124
 6563SOL     OW31147   2.189   3.561   5.091  0.1721 -0.5315 -0.0855
 6563SOL    HW131148   2.155   3.648   5.069  1.3689 -0.7489 -2.6608
 6563SOL    HW231149   2.107   3.511   5.096 -0.3940  0.3772 -0.1800
 6564SOL     OW31150   3.921   3.090   7.911 -0.5925 -0.9124  0.1507
 6564SOL    HW131151   3.907   3.056   7.823 -2.5975  1.7132 -0.5468
 6564SOL    HW231152   4.015   3.082   7.927 -0.1763 -0.6178 -2.1543
 6565SOL     OW31153   2.581   0.867  13.001  0.6519 -0.2575  0.1733
 6565SOL    HW131154   2.551   0.776  12.999 -2.7960  0.8404  1.7890
 6565SOL    HW231155   2.509   0.914  13.043 -0.3828  0.0977 -2.0517
 6566SOL     OW31156   0.191   0.984   4.480  0.4519  0.2388  0.0913
 6566SOL    HW131157   0.096   0.995   4.485  0.1768 -2.0584 -0.0371
 6566SOL    HW231158   0.209   0.953   4.569 -0.2416  1.1486  0.5326
 6567SOL     OW31159   1.587   1.681   3.486 -0.3667 -0.7471 -0.6931
 6567SOL    HW131160   1.499   1.649   3.507 -0.8664  0.4812 -0.9268
 6567SOL    HW231161   1.575   1.686   3.391 -2.0583 -0.3476 -0.4566
 6568SOL     OW31162   0.669   4.124  14.353 -0.1138  0.0973  0.8969
 6568SOL    HW131163   0.741   4.111  14.292 -1.2465  1.2576 -0.6665
 6568SOL    HW231164   0.611   4.049  14.339 -1.8859  1.2516  1.9599
 6569SOL     OW31165   3.315   4.126   0.223  0.0124  0.0939  0.3910
 6569SOL    HW131166   3.272   4.147   0.140  0.3958  3.3950  1.0303
 6569SOL    HW231167   3.303   4.031   0.227  0.9642 -0.1756 -2.6688
 6570SOL     OW31168   3.820   0.338   8.949 -0.2996 -0.9531  0.6940
 6570SOL    HW131169   3.846   0.399   9.018 -0.8168 -0.6662  0.6363
 6570SOL    HW231170   3.906   0.320   8.912 -0.4209  0.9777 -0.4735
 6571SOL     OW31171   3.631   1.063   6.519 -0.2443  0.1234 -0.0954
 6571SOL    HW131172   3.677   0.980   6.531 -0.2076  0.1388 -0.1269
 6571SOL    HW231173   3.689   1.132   6.551  0.4587 -0.2077 -0.6614
 6572SOL     OW31174   2.026   1.551   4.932  0.4344 -0.2304 -0.1037
 6572SOL    HW131175   1.977   1.571   5.011 -0.0201 -0.1377 -0.4104
 6572SOL    HW231176   1.981   1.471   4.903  0.5890  0.0316 -1.0682
 6573SOL     OW31177   1.951   4.203  14.828 -0.9132 -0.4995  0.4243
 6573SOL    HW131178   2.001   4.123  14.837 -0.1198  0.1293  1.6291
 6573SOL    HW231179   1.888   4.174  14.762  1.5234  1.0655 -2.6210
 6574SOL     OW31180   4.146   0.310   5.594  0.1305  0.3052 -0.1614
 6574SOL    HW131181   4.104   0.333   5.677 -2.1653  0.8047 -1.4694
 6574SOL    HW231182   4.234   0.280   5.617 -0.2195  1.0456  2.1413
 6575SOL     OW31183   2.652   1.257  11.715  0.1896  0.4745 -0.3431
 6575SOL    HW131184   2.616   1.209  11.790  0.6910  0.4290 -0.1329
 6575SOL    HW231185   2.712   1.317  11.759 -0.0285 -0.0881  0.7246
 6576SOL     OW31186   2.802   1.701   8.965 -0.3411 -0.0493 -0.0689
 6576SOL    HW131187   2.805   1.631   9.030 -1.5479 -2.3166 -2.4562
 6576SOL    HW231188   2.788   1.650   8.885  4.1886 -0.5047 -0.6101
 6577SOL     OW31189   1.441   3.426  11.867  0.2892  0.0153  0.0977
 6577SOL    HW131190   1.391   3.381  11.799 -0.9185 -0.7222  1.4588
 6577SOL    HW231191   1.454   3.512  11.828 -1.5487  1.6994  3.2106
 6578SOL     OW31192   3.774   3.112   8.129 -0.3591  0.3072  0.7119
 6578SOL    HW131193   3.773   3.207   8.139 -1.4534  0.0919  2.4931
 6578SOL    HW231194   3.831   3.101   8.053  0.6202 -2.2648  1.8303
 6579SOL     OW31195   1.311   3.576  17.453  0.1832 -0.1739  0.2298
 6579SOL    HW131196   1.323   3.528  17.535 -0.8998 -0.7593  0.0412
 6579SOL    HW231197   1.388   3.538  17.410  0.4420 -0.2319  0.7437
 6580SOL     OW31198   4.566   3.310   2.384  0.4136 -0.8021  0.2241
 6580SOL    HW131199   4.601   3.331   2.470 -1.4525  0.9727  0.5575
 6580SOL    HW231200   4.551   3.216   2.394  1.3936 -1.0050 -0.2390
 6581SOL     OW31201   1.218   4.011   2.246  0.3257  0.8708  0.0534
 6581SOL    HW131202   1.222   4.005   2.151  2.1462 -0.5930  0.2298
 6581SOL    HW231203   1.290   3.951   2.266 -0.2719 -0.0111 -0.4724
 6582SOL     OW31204   0.663   3.016   5.577  0.5054 -0.2299 -0.2624
 6582SOL    HW131205   0.575   2.980   5.565  0.2980  0.1621  0.1192
 6582SOL    HW231206   0.647   3.109   5.590  2.5349  0.1376 -0.3295
 6583SOL     OW31207   2.847   4.325   3.352  0.1956  0.0026  0.0493
 6583SOL    HW131208   2.807   4.270   3.285  0.2055 -0.3399  0.3282
 6583SOL    HW231209   2.825   4.276   3.431  0.5458  0.3010  0.3361
 6584SOL     OW31210   2.030   3.700   7.721  0.5790  0.6369  0.1880
 6584SOL    HW131211   2.069   3.699   7.808  1.3639 -0.0793 -0.1666
 6584SOL    HW231212   1.969   3.628   7.732 -0.7057  1.7839  0.4987
 6585SOL     OW31213   1.316   0.717   5.697 -0.0856  0.4671 -0.0487
 6585SOL    HW131214   1.278   0.685   5.779 -0.8949  3.5061  0.7677
 6585SOL    HW231215   1.237   0.748   5.653 -0.3059  2.7309  1.9671
 6586SOL     OW31216   0.867   3.599   1.074 -0.3450  0.5526  0.2200
 6586SOL    HW131217   0.880   3.541   1.149  0.6322  0.7471  0.2017
 6586SOL    HW231218   0.855   3.684   1.117 -2.6507  0.8920 -1.1076
 6587SOL     OW31219   4.541   2.135   5.596 -0.5339 -0.2697 -0.3264
 6587SOL    HW131220   4.493   2.178   5.667  1.2228  0.0346  0.6713
 6587SOL    HW231221   4.474   2.118   5.529 -1.5155 -1.9152  1.0545
 6588SOL     OW31222   3.809   1.794   0.438 -0.3231  0.8089 -0.2212
 6588SOL    HW131223   3.726   1.818   0.398 -0.8198 -0.1369  0.2542
 6588SOL    HW231224   3.789   1.701   0.445 -2.6890  1.6595  4.0233
 6589SOL     OW31225   0.368   2.751  17.386  0.0747 -0.1673  0.1925
 6589SOL    HW131226   0.452   2.706  17.393  0.1435 -0.0051  0.4012
 6589SOL    HW231227   0.396   2.842  17.379  1.9099 -0.7472 -0.0550
 6590SOL     OW31228   3.984   0.133   9.294 -0.2533  0.5905 -0.2963
 6590SOL    HW131229   3.899   0.170   9.320  0.0584  1.6930 -0.8530
 6590SOL    HW231230   3.969   0.086   9.212  1.3502  1.4606 -1.1030
 6591SOL     OW31231   0.377   2.447   6.306  0.1837  0.7739 -0.0715
 6591SOL    HW131232   0.357   2.460   6.398 -2.1201  0.1045 -0.4720
 6591SOL    HW231233   0.339   2.363   6.279 -0.0648  1.0250 -0.5109
 6592SOL     OW31234   3.522   1.448   7.924 -0.2210  0.3907 -0.8255
 6592SOL    HW131235   3.434   1.486   7.925 -0.7484 -0.8207 -0.3691
 6592SOL    HW231236   3.567   1.495   7.854  3.3138  1.2207  2.0653
 6593SOL     OW31237   0.618   2.648  16.404  0.1214  0.2118 -0.1655
 6593SOL    HW131238   0.658   2.724  16.362 -0.3984  1.0173  0.8071
 6593SOL    HW231239   0.638   2.575  16.344  0.9051 -0.6648  1.1561
 6594SOL     OW31240   4.366   1.100   3.262  0.1177 -0.5495  0.2324
 6594SOL    HW131241   4.303   1.047   3.213  0.7478  1.0002 -2.2836
 6594SOL    HW231242   4.428   1.034   3.294 -0.9050 -0.8862  1.4963
 6595SOL     OW31243   1.275   3.859   1.015 -0.0902  0.5216 -0.5811
 6595SOL    HW131244   1.187   3.889   1.038  0.0299  0.3682  0.0935
 6595SOL    HW231245   1.303   3.936   0.965 -2.0186  1.2555 -0.5203
 6596SOL     OW31246   4.059   2.064   2.353  0.0814  0.3205  0.0521
 6596SOL    HW131247   3.988   2.066   2.417 -0.4004 -1.7141 -0.4302
 6596SOL    HW231248   4.014   2.077   2.270  0.2916  1.7548  0.1631
 6597SOL     OW31249   4.451   1.096   8.100  0.0127 -0.0417 -0.1137
 6597SOL    HW131250   4.450   1.183   8.140  0.6775 -0.7135  1.3864
 6597SOL    HW231251   4.358   1.074   8.105 -0.2132  0.8072 -0.5611
 6598SOL     OW31252   2.490   3.643   0.222 -0.2909 -0.1092  0.4111
 6598SOL    HW131253   2.439   3.582   0.168 -0.9583  1.6088 -0.8923
 6598SOL    HW231254   2.416   3.683   0.267  0.0105  2.1868 -1.1280
 6599SOL     OW31255   2.464   0.991   7.121 -0.8791 -0.0995  0.1941
 6599SOL    HW131256   2.403   1.019   7.188 -0.2876 -0.9711  1.0944
 6599SOL    HW231257   2.398   0.973   7.054 -0.3674  0.5911 -0.5001
 6600SOL     OW31258   1.317   1.656  13.859  0.0200  0.1557 -0.7565
 6600SOL    HW131259   1.242   1.597  13.850 -2.3692  2.7186  2.1073
 6600SOL    HW231260   1.352   1.658  13.770 -1.5004 -0.7851 -1.3708
 6601SOL     OW31261   2.678   0.842   3.357  0.1054 -0.3245  0.0892
 6601SOL    HW131262   2.616   0.851   3.429  0.7596  2.6724  0.2623
 6601SOL    HW231263   2.619   0.788   3.304  0.9085  0.2704 -1.3929
 6602SOL     OW31264   2.687   2.751  17.385 -0.0478 -0.2505  0.3294
 6602SOL    HW131265   2.613   2.806  17.410 -0.9151 -1.5298  0.6376
 6602SOL    HW231266   2.733   2.757  17.469 -0.6948  1.0404  0.5797
 6603SOL     OW31267   4.294   0.383   9.623  0.3242  0.0251 -0.4795
 6603SOL    HW131268   4.362   0.351   9.564  1.4203  0.5829  0.4817
 6603SOL    HW231269   4.324   0.471   9.646 -2.5550  1.5217 -2.4492
 6604SOL     OW31270   1.982   0.789   3.799  0.0595  0.1910 -0.2399
 6604SOL    HW131271   2.060   0.746   3.831 -0.0177 -0.3824 -0.8218
 6604SOL    HW231272   1.931   0.803   3.879 -1.1361  0.5621 -1.0609
 6605SOL     OW31273   2.317   1.380   3.890  0.3977  0.2259 -0.1158
 6605SOL    HW131274   2.244   1.359   3.948  1.2528 -2.6385 -0.0566
 6605SOL    HW231275   2.349   1.464   3.922 -0.6367  1.5314 -2.5126
 6606SOL     OW31276   2.514   3.859   7.454 -0.2329 -0.1233 -0.1302
 6606SOL    HW131277   2.419   3.850   7.458 -0.0112 -1.6623  1.8827
 6606SOL    HW231278   2.543   3.779   7.498 -0.1324 -1.3045 -2.3465
 6607SOL     OW31279   3.138   1.163   9.079  0.2522 -0.0316 -0.6668
 6607SOL    HW131280   3.186   1.173   9.161  0.9390 -0.4007 -1.0254
 6607SOL    HW231281   3.203   1.123   9.021 -0.2871 -0.2581 -1.1140
 6608SOL     OW31282   1.444   1.103   7.023 -0.2200  0.2019  0.1886
 6608SOL    HW131283   1.351   1.125   7.011 -0.2174  0.1500  0.0696
 6608SOL    HW231284   1.464   1.090   6.930 -1.5403 -0.8764  0.0507
 6609SOL     OW31285   1.252   3.093   4.693 -0.0145  0.1726 -0.1296
 6609SOL    HW131286   1.241   2.998   4.686  3.4593 -0.1802 -0.6486
 6609SOL    HW231287   1.185   3.119   4.629  1.0752  0.1121 -1.2789
 6610SOL     OW31288   2.238   2.110   3.801 -0.1518 -0.5564  0.4299
 6610SOL    HW131289   2.229   2.035   3.860  0.8294  0.1079  1.4261
 6610SOL    HW231290   2.280   2.173   3.860 -0.0101 -0.8887  0.6846
 6611SOL     OW31291   2.525   2.790  11.337 -0.6088  0.6430 -0.4424
 6611SOL    HW131292   2.620   2.780  11.345 -1.0361 -2.4587  0.8773
 6611SOL    HW231293   2.514   2.838  11.255 -0.5958  0.2790 -0.6595
 6612SOL     OW31294   4.334   1.866   5.539  0.4552 -0.3663 -0.5737
 6612SOL    HW131295   4.374   1.886   5.623 -0.4177  0.3603 -0.3363
 6612SOL    HW231296   4.250   1.908   5.557  0.4032 -0.3325 -0.8859
 6613SOL     OW31297   1.276   2.354   1.893  0.4570 -0.4648 -0.3292
 6613SOL    HW131298   1.236   2.428   1.847 -2.6095 -0.7415  1.9499
 6613SOL    HW231299   1.278   2.403   1.975  0.6168 -0.2638 -0.4506
 6614SOL     OW31300   3.200   2.441   3.084 -0.4989 -0.5042 -0.0928
 6614SOL    HW131301   3.204   2.454   2.989  0.0830  0.7424  0.1049
 6614SOL    HW231302   3.170   2.351   3.097 -1.6387 -0.2639 -0.9880
 6615SOL     OW31303   2.012   0.222   4.890  0.6344  0.0865 -0.1680
 6615SOL    HW131304   2.034   0.255   4.803 -1.6332  0.6862 -0.5143
 6615SOL    HW231305   2.002   0.305   4.938 -0.4183 -0.8843  1.2965
 6616SOL     OW31306   1.702   3.447   5.885 -0.4283  0.2841  0.0743
 6616SOL    HW131307   1.795   3.458   5.868 -0.3636  0.2599  0.4233
 6616SOL    HW231308   1.690   3.362   5.928  1.8867  0.5878  1.2615
 6617SOL     OW31309   1.556   3.517   8.615 -0.5995  1.0612  0.2216
 6617SOL    HW131310   1.496   3.443   8.612  4.2984 -2.9288  0.9157
 6617SOL    HW231311   1.500   3.575   8.667 -1.4552  0.3042  0.1297
 6618SOL     OW31312   3.868   0.344   0.890  0.5160  0.3903 -0.2899
 6618SOL    HW131313   3.888   0.251   0.882  2.4817  0.8112 -0.4883
 6618SOL    HW231314   3.956   0.379   0.909  1.5594 -0.2194 -3.9363
 6619SOL     OW31315   1.187   2.638  11.336 -0.6901 -0.3761 -0.0386
 6619SOL    HW131316   1.238   2.569  11.379 -0.0029  0.2327  0.1148
 6619SOL    HW231317   1.137   2.588  11.271  2.5366 -2.2194 -1.1152
 6620SOL     OW31318   1.533   3.779  17.586  0.1197  0.3539 -0.2696
 6620SOL    HW131319   1.628   3.764  17.589  0.1448  0.3953 -0.8708
 6620SOL    HW231320   1.502   3.761  17.675  0.0095 -0.0496 -0.3881
 6621SOL     OW31321   0.966   0.562   5.322  0.0744 -0.6825 -0.7541
 6621SOL    HW131322   0.914   0.635   5.355 -1.1523 -1.2786 -1.3679
 6621SOL    HW231323   0.908   0.533   5.251 -0.9752 -0.7051  0.1237
 6622SOL     OW31324   2.295   1.637  14.362 -0.4745  0.3271 -0.4122
 6622SOL    HW131325   2.329   1.574  14.424  0.8760  2.0903  0.6209
 6622SOL    HW231326   2.203   1.616  14.343  0.3876 -1.7903 -2.1996
 6623SOL     OW31327   2.265   0.277   8.166 -0.0147 -0.2347 -0.2478
 6623SOL    HW131328   2.262   0.311   8.076  0.5018  1.4655  0.3737
 6623SOL    HW231329   2.312   0.350   8.205  0.3623 -0.2186 -0.7274
 6624SOL     OW31330   2.754   1.460   0.357  0.4601 -0.0492  0.2184
 6624SOL    HW131331   2.752   1.545   0.400  3.6835  0.2055 -0.1387
 6624SOL    HW231332   2.844   1.449   0.328 -0.2430 -0.6154 -1.7498
 6625SOL     OW31333   2.349   1.088   5.695  0.2842  0.1948  0.0279
 6625SOL    HW131334   2.393   1.136   5.625 -2.1429  0.5224 -1.2765
 6625SOL    HW231335   2.403   1.011   5.713 -0.3420  0.0196  1.1350
 6626SOL     OW31336   4.580   4.480   8.249 -0.2744 -0.1731 -0.1202
 6626SOL    HW131337   4.533   4.495   8.332  0.3197 -1.2401  0.4129
 6626SOL    HW231338   4.661   4.444   8.285  1.3903  2.1477 -1.5671
 6627SOL     OW31339   1.147   3.202   3.175  0.0987  0.1527  0.4496
 6627SOL    HW131340   1.058   3.207   3.139  0.3977 -0.0217 -0.3049
 6627SOL    HW231341   1.147   3.139   3.248 -1.0542  2.9304  2.8695
 6628SOL     OW31342   2.914   4.400   7.580  0.6638 -0.1474 -0.0778
 6628SOL    HW131343   2.939   4.343   7.507  0.0634  1.6352 -1.6878
 6628SOL    HW231344   2.858   4.467   7.540  0.5771 -0.2885 -0.1926
 6629SOL     OW31345   2.043   3.168   6.572 -0.1105  0.8811  0.5037
 6629SOL    HW131346   1.968   3.227   6.566 -1.2856 -0.7615 -1.0062
 6629SOL    HW231347   2.074   3.166   6.482  1.0963 -1.0518  0.9592
 6630SOL     OW31348   3.372   0.294   9.401  0.2956  0.5839 -0.4196
 6630SOL    HW131349   3.453   0.301   9.452  0.2893 -0.9370 -0.1847
 6630SOL    HW231350   3.356   0.204   9.373  0.6134 -0.3553  2.3651
 6631SOL     OW31351   0.865   0.337   6.569 -0.0933  0.0563 -0.6278
 6631SOL    HW131352   0.939   0.289   6.604 -0.5145 -0.6561 -0.7161
 6631SOL    HW231353   0.801   0.266   6.564 -0.0690 -0.1474  1.8017
 6632SOL     OW31354   4.310   4.381   4.759  0.1549  0.0724  0.2170
 6632SOL    HW131355   4.315   4.303   4.814  1.4321  0.3613  0.5113
 6632SOL    HW231356   4.344   4.343   4.679  0.6881 -0.7822  0.8591
 6633SOL     OW31357   3.055   2.589   8.577  0.1535  0.0979  0.0893
 6633SOL    HW131358   3.136   2.552   8.612  1.0804  0.4477 -1.7383
 6633SOL    HW231359   3.071   2.586   8.483 -1.3539 -2.0731 -0.1132
 6634SOL     OW31360   2.466   1.166  15.070 -0.1211 -0.1255  0.4724
 6634SOL    HW131361   2.474   1.255  15.104  0.0675 -0.4289  1.2224
 6634SOL    HW231362   2.477   1.174  14.975 -1.9052 -1.2469  0.1742
 6635SOL     OW31363   2.938   2.129   9.074 -0.2480 -0.4156  0.3430
 6635SOL    HW131364   2.962   2.111   8.983 -0.3529  1.6755 -0.0973
 6635SOL    HW231365   2.942   2.224   9.079  3.7942 -0.6563  1.2012
 6636SOL     OW31366   1.412   3.309   6.127  0.5912  0.6636 -0.4811
 6636SOL    HW131367   1.448   3.222   6.112 -2.5892 -1.2803  3.1051
 6636SOL    HW231368   1.342   3.308   6.061 -1.0502 -3.1712  1.3022
 6637SOL     OW31369   3.284   1.098   6.702 -0.2153 -0.0327  0.2405
 6637SOL    HW131370   3.251   1.008   6.710 -1.8672  0.7883  2.7939
 6637SOL    HW231371   3.218   1.130   6.641 -0.7613 -0.9885  0.3205
 6638SOL     OW31372   3.252   1.499  16.094  0.1872  0.1879  0.3681
 6638SOL    HW131373   3.216   1.558  16.029 -0.8634 -0.7501  0.1061
 6638SOL    HW231374   3.307   1.559  16.145 -2.2309  1.8342  1.0258
 6639SOL     OW31375   1.658   1.019   7.172  0.2124  0.0978 -0.2796
 6639SOL    HW131376   1.582   1.049   7.121  0.2783 -2.0954 -1.6797
 6639SOL    HW231377   1.649   0.924   7.162  0.7173 -0.0319  0.5469
 6640SOL     OW31378   0.119   2.444  11.489  0.0089  0.1837  0.2146
 6640SOL    HW131379   0.172   2.366  11.475  1.2007  0.9935  0.1918
 6640SOL    HW231380   0.037   2.399  11.510 -0.3586  0.6131 -0.3045
 6641SOL     OW31381   4.619   0.989   4.437  0.2915  0.4924  0.0344
 6641SOL    HW131382   4.541   0.998   4.383  0.6864 -0.6450 -0.7291
 6641SOL    HW231383   4.619   1.077   4.474  2.6561  0.4768  0.0950
 6642SOL     OW31384   3.837   3.862   6.640  0.6804 -0.1542  0.0260
 6642SOL    HW131385   3.790   3.832   6.562  2.0790 -2.1848 -0.0188
 6642SOL    HW231386   3.925   3.878   6.608  0.7069  2.8208  1.5391
 6643SOL     OW31387   2.497   2.869   0.322 -0.5091 -0.3598  0.6271
 6643SOL    HW131388   2.465   2.958   0.313  0.5716  0.1554  1.7836
 6643SOL    HW231389   2.511   2.839   0.232  1.4459 -1.4084  1.2779
 6644SOL     OW31390   1.357   3.651   6.066  0.4690  0.1632  0.0759
 6644SOL    HW131391   1.422   3.615   6.125 -0.4273  0.3858  1.2061
 6644SOL    HW231392   1.403   3.655   5.982 -3.2657 -2.4768 -2.1328
 6645SOL     OW31393   3.834   1.851   3.049 -0.9296 -0.5990  0.0485
 6645SOL    HW131394   3.754   1.885   3.089 -1.0519  0.2815 -0.9424
 6645SOL    HW231395   3.819   1.756   3.043  1.8666 -1.0037 -0.7779
 6646SOL     OW31396   3.840   0.648   7.096  0.1870  0.0603  0.3738
 6646SOL    HW131397   3.823   0.720   7.157  1.3585  0.1875  0.5496
 6646SOL    HW231398   3.825   0.569   7.147  0.4414 -0.1347  0.1497
 6647SOL     OW31399   0.343   4.680   6.397  0.7559  0.2061  0.0122
 6647SOL    HW131400   0.348   4.685   6.493  0.9357  1.1025 -0.0423
 6647SOL    HW231401   0.430   4.708   6.369  0.8294 -0.7572 -0.7166
 6648SOL     OW31402   0.414   3.302   7.659 -0.2423 -0.0000  0.1501
 6648SOL    HW131403   0.495   3.252   7.648 -0.0365  0.8508 -2.2492
 6648SOL    HW231404   0.417   3.340   7.747  0.0522  0.8167 -0.2065
 6649SOL     OW31405   0.107   2.954  11.166  0.1766  0.8120 -0.2005
 6649SOL    HW131406   0.117   3.047  11.183  1.8547  0.9785 -2.1007
 6649SOL    HW231407   0.071   2.954  11.077 -1.0409 -1.2729  0.2769
 6650SOL     OW31408   0.643   3.342  13.331  0.3847 -0.1550  0.1227
 6650SOL    HW131409   0.697   3.267  13.357  0.7041 -1.7147 -5.0509
 6650SOL    HW231410   0.576   3.355  13.398  2.0908  1.3165  1.5512
 6651SOL     OW31411   4.049   0.752   9.520  0.2133 -0.0748 -0.5533
 6651SOL    HW131412   4.069   0.668   9.479  0.0034 -2.0896  3.4831
 6651SOL    HW231413   3.955   0.738   9.525  0.7295 -3.1934  0.0649
 6652SOL     OW31414   2.723   3.000  10.299 -0.7205  0.1552  0.6874
 6652SOL    HW131415   2.700   2.945  10.374 -1.3512 -0.7934 -0.2020
 6652SOL    HW231416   2.676   2.946  10.235 -0.5546 -0.4884  1.1024
 6653SOL     OW31417   1.147   1.087   0.658  0.5667 -0.3218  0.6057
 6653SOL    HW131418   1.160   1.039   0.739  1.3640 -1.2566 -0.0794
 6653SOL    HW231419   1.218   1.150   0.641  0.3723 -0.5646 -1.1034
 6654SOL     OW31420   1.948   3.130   8.068  0.1380 -0.1703  0.4094
 6654SOL    HW131421   2.039   3.102   8.060  0.1954  0.5050 -1.1917
 6654SOL    HW231422   1.929   3.089   8.153 -0.5720  1.2051  0.9061
 6655SOL     OW31423   4.506   4.396  10.873  0.0323  0.3841  0.2068
 6655SOL    HW131424   4.468   4.473  10.832 -0.4516  0.8461  1.5274
 6655SOL    HW231425   4.433   4.364  10.927  1.0559 -0.3016  1.2002
 6656SOL     OW31426   2.549   3.771   8.058 -0.0096  0.0062 -0.6434
 6656SOL    HW131427   2.592   3.723   7.988 -1.1238  0.1564 -1.4310
 6656SOL    HW231428   2.504   3.695   8.095 -0.2866  0.4524 -0.0693
 6657SOL     OW31429   4.627   0.987   7.209  0.1051  0.1201  0.1424
 6657SOL    HW131430   4.636   0.891   7.214  0.7264  0.2258  0.9561
 6657SOL    HW231431   4.692   1.007   7.276 -0.2283 -1.2838  0.8755
 6658SOL     OW31432   1.707   4.091   0.047 -0.0443 -0.7147  0.5778
 6658SOL    HW131433   1.677   4.115  17.663  1.8774 -0.9780 -0.1729
 6658SOL    HW231434   1.681   4.165   0.100  1.2571 -0.8720  1.4387
 6659SOL     OW31435   2.999   4.435   5.978  0.3147 -0.8037 -0.0045
 6659SOL    HW131436   3.064   4.376   5.938  1.4380  0.5852 -0.2200
 6659SOL    HW231437   2.965   4.382   6.050  0.0320  0.3623  0.7159
 6660SOL     OW31438   0.162   2.227   7.541  0.0648  0.5773  0.3805
 6660SOL    HW131439   0.138   2.310   7.582  0.8936  0.1217  1.7884
 6660SOL    HW231440   0.247   2.209   7.581  0.4250  2.4075  0.4578
 6661SOL     OW31441   0.532   4.046   6.065 -0.1708  0.2388 -0.2983
 6661SOL    HW131442   0.439   4.064   6.052 -0.1740  0.1882 -0.3485
 6661SOL    HW231443   0.543   3.954   6.039  0.4956  0.5697 -1.1980
 6662SOL     OW31444   0.013   1.400   8.978 -0.0681 -0.2561 -0.4347
 6662SOL    HW131445   4.659   1.453   8.974  0.5682  0.6911 -0.6182
 6662SOL    HW231446   0.016   1.385   9.073  1.2134  0.3018 -0.3773
 6663SOL     OW31447   1.211   0.461   2.828 -0.2499  0.2292  0.3881
 6663SOL    HW131448   1.212   0.541   2.775 -0.1783  0.7790  1.2262
 6663SOL    HW231449   1.176   0.398   2.765  2.0778  1.2584 -1.9453
 6664SOL     OW31450   3.192   0.818   9.542 -0.2684 -0.0569 -0.2374
 6664SOL    HW131451   3.104   0.845   9.514  0.1537  0.3664 -1.1800
 6664SOL    HW231452   3.178   0.798   9.634  1.3508  1.4629  0.3489
 6665SOL     OW31453   1.382   1.927  13.911 -0.2394  1.0536 -0.1869
 6665SOL    HW131454   1.330   1.946  13.833 -0.8576  0.5958  0.1167
 6665SOL    HW231455   1.345   1.839  13.920 -2.0611  1.8563  0.3162
 6666SOL     OW31456   3.844   0.632   4.731  0.2069 -0.2692  0.0810
 6666SOL    HW131457   3.808   0.718   4.752  2.9164  0.9294 -0.2561
 6666SOL    HW231458   3.782   0.608   4.662  1.0282  2.8624 -1.7331
 6667SOL     OW31459   1.139   0.940  12.615  0.6694 -0.2809 -0.3708
 6667SOL    HW131460   1.219   0.953  12.565  1.3022 -0.0947  0.6848
 6667SOL    HW231461   1.075   0.987  12.561 -1.4846 -2.6301  0.1049
 6668SOL     OW31462   0.677   1.985   6.412  0.1730  0.3102 -0.7350
 6668SOL    HW131463   0.731   2.058   6.381  2.0794 -0.5086  0.7547
 6668SOL    HW231464   0.624   2.043   6.467  0.6506  1.0496 -1.0578
 6669SOL     OW31465   4.147   3.807   3.218 -0.6587 -0.4056  0.2541
 6669SOL    HW131466   4.096   3.878   3.259 -0.2956  0.7831 -1.3267
 6669SOL    HW231467   4.092   3.730   3.205 -0.3385 -0.7254  0.7779
 6670SOL     OW31468   4.366   4.256  15.768  0.2208  0.5302  0.3678
 6670SOL    HW131469   4.427   4.300  15.707  0.7710  0.4266  0.8454
 6670SOL    HW231470   4.394   4.302  15.847  2.6983 -3.6488  1.9085
 6671SOL     OW31471   2.643   0.073   6.054 -0.0178  0.1069 -0.5890
 6671SOL    HW131472   2.610   0.026   6.131 -0.4263  1.3306 -0.0173
 6671SOL    HW231473   2.724   0.115   6.084  0.1419  1.1219 -2.4651
 6672SOL     OW31474   1.013   2.328  14.809  0.5149 -0.4422  0.1758
 6672SOL    HW131475   0.992   2.395  14.744 -0.3379 -0.5047  0.3968
 6672SOL    HW231476   1.064   2.267  14.755 -2.1868 -0.0084 -2.8631
 6673SOL     OW31477   3.593   0.301   6.594  0.1981  0.1047 -0.3764
 6673SOL    HW131478   3.548   0.386   6.598 -2.1501 -1.1175 -1.2152
 6673SOL    HW231479   3.585   0.283   6.688 -1.0695  0.4746 -0.4132
 6674SOL     OW31480   2.699   3.501  12.250  0.0844 -0.2935 -0.1657
 6674SOL    HW131481   2.729   3.582  12.206  2.8882  0.7654  3.6666
 6674SOL    HW231482   2.646   3.553  12.310 -0.3728  1.0711 -1.7276
 6675SOL     OW31483   2.064   0.585   4.699  0.3463 -1.0441 -1.0666
 6675SOL    HW131484   1.987   0.528   4.690 -2.0185  1.8917  0.5536
 6675SOL    HW231485   2.031   0.653   4.757  0.5524 -1.5837 -0.3128
 6676SOL     OW31486   3.655   2.685   4.486  0.4012  0.6614  0.5560
 6676SOL    HW131487   3.682   2.656   4.573 -2.8356 -0.9272  1.0439
 6676SOL    HW231488   3.562   2.664   4.483  1.0611 -1.9581 -1.3504
 6677SOL     OW31489   0.020   4.153   6.163 -0.3024 -0.0046  0.5762
 6677SOL    HW131490   4.673   4.139   6.224  1.7869 -1.8579  2.6195
 6677SOL    HW231491   0.041   4.245   6.179  1.5639 -0.5936  1.5208
 6678SOL     OW31492   2.470   4.387   2.067  0.1304 -0.1892  0.3579
 6678SOL    HW131493   2.396   4.358   2.120  0.3342 -1.9958 -0.3868
 6678SOL    HW231494   2.497   4.302   2.034  1.8281 -0.5759  2.7237
 6679SOL     OW31495   1.988   0.676   0.932 -0.3182 -0.1241  0.4571
 6679SOL    HW131496   1.903   0.712   0.957 -0.6174 -0.0460 -0.6585
 6679SOL    HW231497   1.974   0.582   0.943  3.1077 -0.7363 -0.2959
 6680SOL     OW31498   3.937   2.897   8.180  0.5625 -0.3058 -0.4728
 6680SOL    HW131499   3.887   2.831   8.228 -2.1164  0.7053 -1.8863
 6680SOL    HW231500   3.887   2.975   8.202  1.7985 -0.0557  1.4376
 6681SOL     OW31501   1.013   0.491   9.118  0.4628  0.3037  0.1285
 6681SOL    HW131502   1.026   0.584   9.105  1.1300 -0.0253 -1.4630
 6681SOL    HW231503   1.101   0.458   9.101  0.5846 -0.3449  1.9560
 6682SOL     OW31504   0.763   0.136   2.727 -0.2022 -0.3184  0.3277
 6682SOL    HW131505   0.765   0.041   2.727 -1.0244 -0.3397 -2.4603
 6682SOL    HW231506   0.850   0.162   2.697 -1.2831  1.4887 -1.2694
 6683SOL     OW31507   0.337   1.096   2.960 -0.0174 -0.5627  0.8104
 6683SOL    HW131508   0.350   1.185   2.925 -0.9060 -0.1951  1.4183
 6683SOL    HW231509   0.361   1.099   3.053 -0.2346 -2.4525  0.9280
 6684SOL     OW31510   0.118   3.498   7.816  0.0747 -0.0803 -0.5967
 6684SOL    HW131511   0.077   3.421   7.856  0.2577  1.2908  2.2031
 6684SOL    HW231512   0.121   3.468   7.725  0.6252  0.3001 -0.7034
 6685SOL     OW31513   2.174   3.115   4.758  0.4856 -0.1182  0.2804
 6685SOL    HW131514   2.138   3.198   4.787  2.1017  0.2785  1.1563
 6685SOL    HW231515   2.173   3.110   4.662 -1.4540  0.1841  0.2832
 6686SOL     OW31516   4.625   3.492   6.779  0.0347 -0.6700  0.4958
 6686SOL    HW131517   4.616   3.584   6.806 -1.5875 -0.6105 -0.2516
 6686SOL    HW231518   4.577   3.450   6.851 -1.4584 -0.8801 -0.6266
 6687SOL     OW31519   2.824   1.211  16.947 -0.3113  0.4251  0.0152
 6687SOL    HW131520   2.807   1.124  16.912  0.7956  0.1036  0.2803
 6687SOL    HW231521   2.905   1.237  16.904  1.2357 -1.9670  1.5058
 6688SOL     OW31522   3.163   3.848   6.772 -0.7909  0.5365  0.7091
 6688SOL    HW131523   3.217   3.927   6.772 -0.5113  0.3482 -0.1520
 6688SOL    HW231524   3.225   3.777   6.753 -0.0545  1.6634 -1.1989
 6689SOL     OW31525   4.349   3.108   6.013  0.0607  0.1079  0.4051
 6689SOL    HW131526   4.294   3.180   6.043 -0.1387  0.2816 -0.3709
 6689SOL    HW231527   4.277   3.066   5.965  0.2136  0.3463 -0.0374
 6690SOL     OW31528   3.688   2.898  10.675  0.3238  0.0415 -0.2768
 6690SOL    HW131529   3.752   2.858  10.616 -0.3267  1.7208 -2.1090
 6690SOL    HW231530   3.687   2.828  10.740  0.0213 -0.0810 -0.4155
 6691SOL     OW31531   1.251   3.477   6.433 -0.1098 -0.0814  0.0917
 6691SOL    HW131532   1.298   3.556   6.406  2.0484 -1.6301 -0.7009
 6691SOL    HW231533   1.178   3.474   6.371 -0.2489  0.8556  0.2051
 6692SOL     OW31534   1.208   1.044   2.209  0.0167 -0.3453 -0.1983
 6692SOL    HW131535   1.153   1.022   2.284  2.0879 -0.5040  1.2633
 6692SOL    HW231536   1.296   1.030   2.244 -0.0083  0.3866  0.1604
 6693SOL     OW31537   0.501   2.999   2.529  0.1744  0.9080 -0.3731
 6693SOL    HW131538   0.591   2.967   2.532  0.3930  1.2084 -3.7580
 6693SOL    HW231539   0.513   3.075   2.587  0.8606 -0.3616  1.1579
 6694SOL     OW31540   2.480   1.851   9.316 -0.6914  0.1317  0.3313
 6694SOL    HW131541   2.501   1.890   9.231  1.2379  0.8230  1.1071
 6694SOL    HW231542   2.398   1.805   9.300 -0.6988 -0.3324  1.6947
 6695SOL     OW31543   3.949   1.795  13.743  0.2476 -0.2531 -0.4334
 6695SOL    HW131544   3.935   1.875  13.794  4.8641  0.6039 -0.5062
 6695SOL    HW231545   3.903   1.824  13.664 -0.1376 -0.8409 -0.4250
 6696SOL     OW31546   3.277   3.639  11.456  0.0116  0.6784 -0.1566
 6696SOL    HW131547   3.354   3.587  11.478 -1.6953 -1.8853 -0.1698
 6696SOL    HW231548   3.266   3.708  11.521 -1.2251  0.2616  0.0877
 6697SOL     OW31549   1.356   2.034   2.668 -0.3012 -0.0973 -0.4982
 6697SOL    HW131550   1.377   1.941   2.673 -1.0864 -0.2715 -0.3785
 6697SOL    HW231551   1.409   2.066   2.742  1.1552 -0.0367 -1.5755
 6698SOL     OW31552   4.123   4.533   8.416  0.2523 -0.5474 -0.1981
 6698SOL    HW131553   4.122   4.578   8.332  0.1759 -0.2506 -0.0369
 6698SOL    HW231554   4.149   4.602   8.477  1.1210  0.4828 -1.7439
 6699SOL     OW31555   0.482   2.761   6.068 -0.0429 -0.2175 -0.5184
 6699SOL    HW131556   0.511   2.781   6.157  2.5468  0.0838 -1.4356
 6699SOL    HW231557   0.449   2.847   6.041  0.9700  1.5353  3.8627
 6700SOL     OW31558   1.433   2.967  15.714  0.2082  0.4055  0.3459
 6700SOL    HW131559   1.450   2.895  15.653  0.0733  0.6182  0.0590
 6700SOL    HW231560   1.480   2.943  15.794  0.8336  0.8561  0.1105
 6701SOL     OW31561   1.080   3.046   3.383  0.0436  0.0825 -0.9565
 6701SOL    HW131562   1.102   3.053   3.476  2.7735 -0.6220 -1.5418
 6701SOL    HW231563   1.039   2.959   3.381  0.5157 -0.1157 -1.8966
 6702SOL     OW31564   0.940   3.765   5.738  0.8513  0.2459  0.3747
 6702SOL    HW131565   1.004   3.836   5.732  0.3732  0.5730 -0.8616
 6702SOL    HW231566   0.915   3.777   5.830  0.5590  1.4434  0.1383
 6703SOL     OW31567   4.301   1.452  14.491  0.3259 -0.3726 -0.0220
 6703SOL    HW131568   4.368   1.407  14.544  1.6233  0.9527 -0.5258
 6703SOL    HW231569   4.272   1.513  14.560 -0.1000 -1.4045  0.7092
 6704SOL     OW31570   3.263   3.623  10.960 -0.3782  0.2299  0.2285
 6704SOL    HW131571   3.342   3.676  10.972 -1.0265  1.3978 -0.6770
 6704SOL    HW231572   3.302   3.547  11.003 -1.6008  0.0713  1.0826
 6705SOL     OW31573   1.268   3.311   4.990 -0.2963 -0.4821 -0.4295
 6705SOL    HW131574   1.310   3.274   5.068  0.2827 -0.3312 -0.6776
 6705SOL    HW231575   1.316   3.393   4.979  0.1340 -0.5791  0.6729
 6706SOL     OW31576   1.578   2.853  15.168  0.3998 -0.1345 -0.0926
 6706SOL    HW131577   1.514   2.802  15.117  1.4854 -0.9402 -0.6452
 6706SOL    HW231578   1.540   2.940  15.181 -3.6832 -2.0458  0.6973
 6707SOL     OW31579   2.255   1.275   7.620 -0.1250 -0.0965 -0.5101
 6707SOL    HW131580   2.274   1.287   7.713  0.1837 -1.8022 -0.3557
 6707SOL    HW231581   2.242   1.367   7.596 -2.4767  0.1898  1.9736
 6708SOL     OW31582   1.025   3.444   6.625 -0.5906 -0.5755 -0.0775
 6708SOL    HW131583   1.068   3.363   6.654  1.6739  0.8869  0.6526
 6708SOL    HW231584   1.008   3.417   6.534  1.6970 -2.9007  0.1839
 6709SOL     OW31585   0.329   4.498   3.000 -0.2227 -0.3000 -0.0671
 6709SOL    HW131586   0.366   4.461   3.079  0.7684  1.0537  0.0952
 6709SOL    HW231587   0.397   4.563   2.982  0.4794 -1.0298 -0.0095
 6710SOL     OW31588   0.670   1.754   4.543  0.1182  0.0760 -0.2670
 6710SOL    HW131589   0.751   1.759   4.493  0.4008  0.9860  0.2866
 6710SOL    HW231590   0.605   1.751   4.473 -0.1539 -2.6763  0.0987
 6711SOL     OW31591   3.838   1.341   3.892 -0.1816  0.1735 -0.3409
 6711SOL    HW131592   3.851   1.436   3.904  0.9804  0.1748 -1.6030
 6711SOL    HW231593   3.773   1.337   3.822  1.2506  1.1140 -1.7511
 6712SOL     OW31594   2.860   2.884   5.883 -0.0447  0.1034 -0.0471
 6712SOL    HW131595   2.777   2.839   5.902  0.3392 -0.0825  1.1473
 6712SOL    HW231596   2.900   2.890   5.969 -0.7191 -4.7100  0.6158
 6713SOL     OW31597   1.088   2.800   8.096  0.3406 -0.3778  0.2545
 6713SOL    HW131598   1.065   2.765   8.010  4.5114 -0.5905 -0.7850
 6713SOL    HW231599   1.003   2.804   8.140  0.0206  0.6320 -0.4441
 6714SOL     OW31600   2.213   3.657  15.262  0.4423 -0.0180 -0.0370
 6714SOL    HW131601   2.295   3.697  15.291  1.3100  0.4236 -3.1567
 6714SOL    HW231602   2.207   3.705  15.180 -2.4255 -1.9947 -0.9784
 6715SOL     OW31603   2.456   4.281   4.302 -0.1984 -0.9091  0.0768
 6715SOL    HW131604   2.507   4.273   4.222 -2.7320  0.4093 -1.6934
 6715SOL    HW231605   2.376   4.318   4.264 -0.1342 -2.3933 -1.5160
 6716SOL     OW31606   3.357   4.063   6.812  0.1232 -0.2559 -0.5122
 6716SOL    HW131607   3.326   4.125   6.746  2.8529  0.3414 -1.2226
 6716SOL    HW231608   3.448   4.048   6.785  0.9362  0.0656  2.0244
 6717SOL     OW31609   3.478   3.886  14.698  0.0380 -0.4688  0.7615
 6717SOL    HW131610   3.474   3.924  14.610 -0.5135 -0.5923  0.7376
 6717SOL    HW231611   3.571   3.888  14.723 -0.0284 -2.1338  1.1287
 6718SOL     OW31612   0.712   0.562   6.182  0.5908 -0.3689 -0.6538
 6718SOL    HW131613   0.632   0.615   6.186  1.0969  0.1900  1.9604
 6718SOL    HW231614   0.683   0.483   6.136 -2.8223  1.3582 -1.4603
 6719SOL     OW31615   3.424   4.460  15.574  0.2266 -0.8151 -0.6088
 6719SOL    HW131616   3.459   4.485  15.489 -2.0687  1.2382 -0.9655
 6719SOL    HW231617   3.340   4.419  15.550  0.6094 -1.5939 -0.6016
 6720SOL     OW31618   0.848   1.273   7.703 -0.0019  0.2645  0.3361
 6720SOL    HW131619   0.895   1.314   7.776  1.1973 -0.8666  0.1729
 6720SOL    HW231620   0.762   1.268   7.746  0.0583 -1.8688  0.1656
 6721SOL     OW31621   2.924   3.297  17.194 -0.1352 -0.6011  0.3365
 6721SOL    HW131622   2.877   3.305  17.111  1.3920  0.8840 -0.3900
 6721SOL    HW231623   2.959   3.383  17.217 -1.3582  0.3200 -1.2739
 6722SOL     OW31624   4.464   2.444  16.351 -0.2569 -0.0440 -0.1751
 6722SOL    HW131625   4.411   2.489  16.285  1.6067 -0.3349 -1.8425
 6722SOL    HW231626   4.390   2.407  16.401  1.7020 -1.5729  1.6386
 6723SOL     OW31627   2.242   1.160   6.333  0.2260  0.5593  0.7042
 6723SOL    HW131628   2.302   1.225   6.296  0.3156 -0.6881 -1.3803
 6723SOL    HW231629   2.177   1.220   6.367 -0.9467 -1.5833  2.2536
 6724SOL     OW31630   2.513   4.535   3.938  0.1931 -0.3248 -0.5946
 6724SOL    HW131631   2.573   4.607   3.958 -0.0920 -0.6897  1.5823
 6724SOL    HW231632   2.540   4.502   3.852  2.7219 -0.5148  0.2515
 6725SOL     OW31633   0.963   4.504   2.179  0.0036  0.5947 -0.2408
 6725SOL    HW131634   0.945   4.423   2.226 -1.3202 -0.8926 -3.3129
 6725SOL    HW231635   0.923   4.565   2.241 -0.9713 -0.0804 -0.1975
 6726SOL     OW31636   3.227   2.691  11.941  0.2565  0.0949 -0.2241
 6726SOL    HW131637   3.219   2.757  12.010 -0.5613 -1.6381  1.3429
 6726SOL    HW231638   3.147   2.702  11.888  0.5509  1.5575 -0.3499
 6727SOL     OW31639   3.167   2.899  10.752 -0.2369 -0.2798 -0.4138
 6727SOL    HW131640   3.231   2.851  10.803 -0.5239  0.8822  1.0340
 6727SOL    HW231641   3.157   2.839  10.678  2.0957  1.7749 -2.4153
 6728SOL     OW31642   1.907   3.715   6.330 -0.2135  0.6982 -0.2004
 6728SOL    HW131643   1.853   3.789   6.359 -0.2976  0.5303  0.0710
 6728SOL    HW231644   1.851   3.642   6.357  0.8774 -0.6616 -1.6217
 6729SOL     OW31645   1.562   1.103  14.348  0.1075 -0.3360  0.0604
 6729SOL    HW131646   1.538   1.126  14.437  0.8162  2.3749 -0.4535
 6729SOL    HW231647   1.611   1.181  14.321 -0.3354 -0.5977 -1.5307
 6730SOL     OW31648   3.178   0.329   5.618 -0.0473  0.1527  0.3125
 6730SOL    HW131649   3.121   0.359   5.547 -1.3240 -2.3483  0.2551
 6730SOL    HW231650   3.229   0.261   5.574 -0.6392 -0.3586  0.4051
 6731SOL     OW31651   1.399   0.115   2.395  0.4232 -0.7916 -0.2835
 6731SOL    HW131652   1.490   0.088   2.384  0.8481  0.8567 -0.8604
 6731SOL    HW231653   1.393   0.200   2.350 -0.6167 -1.0116 -0.5714
 6732SOL     OW31654   0.854   2.374  16.491  0.1181 -0.6186  0.1054
 6732SOL    HW131655   0.768   2.404  16.519  0.4283 -2.1471  2.7480
 6732SOL    HW231656   0.914   2.433  16.537 -0.3633  0.4573 -0.6447
 6733SOL     OW31657   3.949   4.240   6.344  0.3785 -0.5141 -0.3578
 6733SOL    HW131658   4.027   4.280   6.306 -0.8895  1.1759 -1.1627
 6733SOL    HW231659   3.923   4.305   6.409 -3.6891 -2.1863 -0.3628
 6734SOL     OW31660   3.791   3.681   3.689 -0.2069  0.3996  0.5119
 6734SOL    HW131661   3.709   3.728   3.703 -1.4073 -1.6553  0.3083
 6734SOL    HW231662   3.787   3.611   3.754  1.9719  0.8022  1.1027
 6735SOL     OW31663   0.706   0.683   1.757  0.3466 -0.1032 -0.4357
 6735SOL    HW131664   0.719   0.732   1.677  1.3485  0.7929  0.2863
 6735SOL    HW231665   0.671   0.600   1.724  0.8095  0.0593 -1.3296
 6736SOL     OW31666   4.013   0.222  17.668 -0.2943  0.2795 -0.2371
 6736SOL    HW131667   3.920   0.205  17.686 -0.1409 -0.5434 -0.2446
 6736SOL    HW231668   4.046   0.134  17.687  0.0085  0.7075  1.2203
 6737SOL     OW31669   3.178   4.264   3.424  0.1393  0.5063 -0.1990
 6737SOL    HW131670   3.208   4.299   3.340  1.8445  0.3113  0.3144
 6737SOL    HW231671   3.149   4.341   3.473 -1.8972 -0.0269 -0.5976
 6738SOL     OW31672   3.146   4.280  10.764 -0.2961 -0.9893 -0.0257
 6738SOL    HW131673   3.224   4.333  10.751 -1.4797 -0.2679 -4.0412
 6738SOL    HW231674   3.183   4.195  10.741  0.1348 -0.7375 -0.2627
 6739SOL     OW31675   2.059   3.028  10.575  0.1363  0.2805 -0.4143
 6739SOL    HW131676   2.088   3.107  10.530 -1.2996  0.5044 -0.9247
 6739SOL    HW231677   1.972   3.019  10.536 -0.7306  1.3863  1.2198
 6740SOL     OW31678   2.567   4.707  12.859  0.0651 -0.1906  0.6860
 6740SOL    HW131679   2.547   4.624  12.903 -1.0912  0.4645  1.3959
 6740SOL    HW231680   2.552   0.039  12.935 -2.9787  2.3459 -1.8657
 6741SOL     OW31681   4.307   2.107  13.898 -0.1972  0.7816 -0.3220
 6741SOL    HW131682   4.349   2.091  13.982  1.1835  1.7058 -0.8489
 6741SOL    HW231683   4.323   2.022  13.855 -1.8777 -0.7467  2.0455
 6742SOL     OW31684   1.618   2.125   7.270 -0.0019 -0.4901  0.2480
 6742SOL    HW131685   1.650   2.036   7.278  0.1613 -0.7555 -3.3659
 6742SOL    HW231686   1.526   2.111   7.248 -0.0223  0.4700 -0.2866
 6743SOL     OW31687   2.948   3.250   9.863 -0.0796 -0.5894  0.0695
 6743SOL    HW131688   2.854   3.251   9.879 -0.2065  0.5376 -0.6947
 6743SOL    HW231689   2.987   3.187   9.923 -0.0091  0.9674  1.6579
 6744SOL     OW31690   0.248   3.003  11.592  0.1288 -0.0316 -0.6385
 6744SOL    HW131691   0.281   2.937  11.653 -1.9674 -2.0343 -1.7092
 6744SOL    HW231692   0.160   3.024  11.622  0.1259 -0.4841 -0.3397
 6745SOL     OW31693   1.349   3.273  11.665  0.1191  0.5890 -0.5237
 6745SOL    HW131694   1.398   3.311  11.591  0.5134  2.1214  0.5304
 6745SOL    HW231695   1.312   3.193  11.629  0.8067  0.8931 -1.9327
 6746SOL     OW31696   1.584   3.264   7.595  0.8651  0.1695  0.8017
 6746SOL    HW131697   1.672   3.278   7.558  0.1935  1.6489 -0.2231
 6746SOL    HW231698   1.595   3.171   7.616  0.9816  0.5493  2.3525
 6747SOL     OW31699   1.207   2.331   4.510 -0.1013 -0.2662  0.1816
 6747SOL    HW131700   1.225   2.310   4.602 -0.2910 -1.2541 -0.0105
 6747SOL    HW231701   1.143   2.264   4.487 -0.7193  1.2815 -2.5767
 6748SOL     OW31702   0.388   3.001   4.031 -0.2424  0.6567  0.1926
 6748SOL    HW131703   0.377   2.999   3.936  1.7140 -0.8349 -0.0058
 6748SOL    HW231704   0.436   2.922   4.056  0.6719  2.4018  4.0129
 6749SOL     OW31705   2.849   1.578   7.181  0.1638  0.6283 -0.1592
 6749SOL    HW131706   2.888   1.637   7.117  1.4315  0.0324  0.0621
 6749SOL    HW231707   2.801   1.518   7.123  0.1085 -0.3084  0.8582
 6750SOL     OW31708   2.549   4.413   3.672  0.3745 -0.7328  0.0842
 6750SOL    HW131709   2.511   4.451   3.592  2.2754  0.8201 -0.0812
 6750SOL    HW231710   2.511   4.325   3.673 -0.0213 -0.5556  0.9266
 6751SOL     OW31711   1.459   1.047   9.827  0.4062 -0.1461 -0.4575
 6751SOL    HW131712   1.549   1.063   9.801  0.7477  0.5439  1.2055
 6751SOL    HW231713   1.452   1.071   9.919 -1.1207 -0.3480 -0.5129
 6752SOL     OW31714   3.943   4.252   9.492  0.3093 -0.0639  0.6592
 6752SOL    HW131715   4.009   4.202   9.445  0.6384 -0.0331  1.0936
 6752SOL    HW231716   3.867   4.194   9.497  1.5217 -1.8197 -1.5760
 6753SOL     OW31717   2.039   2.652   9.201  0.0974  0.0959  0.5188
 6753SOL    HW131718   2.020   2.719   9.267  1.4040 -0.5540  1.5460
 6753SOL    HW231719   2.103   2.699   9.147 -0.0913  0.7682  0.8729
 6754SOL     OW31720   3.933   4.711   9.533  0.2674 -0.6263  0.0103
 6754SOL    HW131721   3.932   4.633   9.478 -0.2833 -1.4395  1.1979
 6754SOL    HW231722   3.944   0.051   9.463  1.0554 -1.4251 -0.6090
 6755SOL     OW31723   1.560   3.063   0.418 -0.0887  0.2702  0.1545
 6755SOL    HW131724   1.518   2.991   0.370  1.2715 -0.0790 -0.5159
 6755SOL    HW231725   1.655   3.050   0.410 -0.4571 -2.1612 -0.3298
 6756SOL     OW31726   1.072   4.066   5.078 -0.0938 -0.2585  0.3373
 6756SOL    HW131727   1.158   4.067   5.035 -0.7734  1.2169 -1.0026
 6756SOL    HW231728   1.030   3.992   5.034 -0.5941 -0.2904  0.8786
 6757SOL     OW31729   3.473   0.708   5.665 -0.2143  0.2665 -0.0547
 6757SOL    HW131730   3.414   0.694   5.591 -0.2488 -0.5310  0.1235
 6757SOL    HW231731   3.557   0.707   5.618 -0.3151 -1.0044 -0.2090
 6758SOL     OW31732   1.163   2.490   7.240 -0.2567  0.0846  0.1251
 6758SOL    HW131733   1.164   2.486   7.336 -1.4154 -1.3045  0.0877
 6758SOL    HW231734   1.144   2.583   7.233  0.4167  0.0377 -2.2136
 6759SOL     OW31735   1.070   2.159  11.000 -0.0401  0.0200  0.0868
 6759SOL    HW131736   0.982   2.192  10.979  0.9450 -0.4313 -4.6459
 6759SOL    HW231737   1.104   2.221  11.065 -2.0168  1.6579 -0.4364
 6760SOL     OW31738   3.479   4.009   3.007 -0.0791  0.0193 -0.6172
 6760SOL    HW131739   3.432   3.992   2.926 -2.3989 -0.1094  0.7491
 6760SOL    HW231740   3.479   4.104   3.021 -1.5752 -0.0875  0.2008
 6761SOL     OW31741   0.116   3.665   1.633 -0.0141 -0.0419  0.1401
 6761SOL    HW131742   0.066   3.745   1.649 -0.6179 -0.4993  0.5162
 6761SOL    HW231743   0.046   3.608   1.600  1.1438 -0.8062 -0.9989
 6762SOL     OW31744   3.526   4.276   5.242 -1.5229 -0.1883  0.4109
 6762SOL    HW131745   3.475   4.349   5.210  0.1951  1.6036  1.7529
 6762SOL    HW231746   3.469   4.244   5.312  1.9803  0.4616  3.5707
 6763SOL     OW31747   0.404   0.608   5.155  0.3743  0.1999 -0.7699
 6763SOL    HW131748   0.419   0.593   5.061  0.7557 -2.7173 -0.2361
 6763SOL    HW231749   0.470   0.550   5.194 -1.3091 -1.2659 -0.1240
 6764SOL     OW31750   0.422   3.577  11.345  0.1156  0.2445 -0.1100
 6764SOL    HW131751   0.503   3.577  11.295  0.7674 -1.8795  0.9213
 6764SOL    HW231752   0.442   3.638  11.415 -0.5668  1.0741 -0.6394
 6765SOL     OW31753   4.258   1.567   3.677  0.1095  0.0534  0.2894
 6765SOL    HW131754   4.245   1.660   3.696 -0.1292 -0.1080  0.9123
 6765SOL    HW231755   4.352   1.571   3.661  0.4870  1.3482  2.9482
 6766SOL     OW31756   0.426   3.630   7.624 -0.5114 -0.4368 -0.0480
 6766SOL    HW131757   0.358   3.692   7.649 -0.7989  0.0959 -2.1126
 6766SOL    HW231758   0.448   3.587   7.706  3.2387  1.4247 -0.0406
 6767SOL     OW31759   0.188   1.146   8.155  0.4223 -0.3647  0.0463
 6767SOL    HW131760   0.177   1.097   8.236 -0.2236 -3.4232 -1.9208
 6767SOL    HW231761   0.281   1.168   8.150  0.9372 -2.0878  2.1701
 6768SOL     OW31762   3.770   0.065   9.720  0.1745  0.4263  0.3203
 6768SOL    HW131763   3.839   0.037   9.659 -1.1395 -1.8219 -0.1510
 6768SOL    HW231764   3.691   0.039   9.673 -0.7669 -0.3116  2.3169
 6769SOL     OW31765   3.060   1.481   3.175 -0.1006 -0.2210  0.5169
 6769SOL    HW131766   3.070   1.539   3.250 -0.9437 -0.4433  0.7958
 6769SOL    HW231767   2.982   1.429   3.190 -0.6674  0.4040 -0.2957
 6770SOL     OW31768   4.511   3.236   3.723 -0.1703  0.4464  0.2783
 6770SOL    HW131769   4.430   3.280   3.698 -0.7659 -0.0763  1.2727
 6770SOL    HW231770   4.572   3.304   3.752  1.8696 -2.1823  2.2221
 6771SOL     OW31771   4.623   1.313   7.219  0.3191  0.2722 -0.7179
 6771SOL    HW131772   4.591   1.234   7.174  0.3548 -0.2141  0.1136
 6771SOL    HW231773   4.624   1.376   7.146 -3.2164 -0.3068 -1.2804
 6772SOL     OW31774   4.013   3.935   2.125 -0.3114  0.4152 -0.2289
 6772SOL    HW131775   3.996   4.011   2.180 -0.9559 -0.1993  0.4206
 6772SOL    HW231776   4.095   3.970   2.089 -0.7417  0.3622 -1.2566
 6773SOL     OW31777   1.040   0.888   3.578 -0.4759 -0.2686  0.5119
 6773SOL    HW131778   0.986   0.952   3.625 -0.2917 -0.8163  1.4868
 6773SOL    HW231779   1.043   0.826   3.652 -1.6006 -0.0782  0.7163
 6774SOL     OW31780   0.089   1.632   3.715  0.2046  0.2885  0.4531
 6774SOL    HW131781   0.069   1.657   3.625 -1.0852  0.2045  0.7249
 6774SOL    HW231782   0.121   1.714   3.752 -0.1907  0.7923 -0.3153
 6775SOL     OW31783   1.817   4.397   6.253 -0.6440  0.6554 -0.3531
 6775SOL    HW131784   1.768   4.378   6.333 -0.3741  1.5977  0.0425
 6775SOL    HW231785   1.791   4.325   6.196 -0.4055  2.0960 -2.3209
 6776SOL     OW31786   2.874   1.307  17.693 -0.0649  0.4102  0.4726
 6776SOL    HW131787   2.959   1.267   0.011 -1.0143 -1.6641  0.3519
 6776SOL    HW231788   2.830   1.279   0.070 -1.1066  0.8394  0.0498
 6777SOL     OW31789   3.282   1.426   5.232  0.7344 -0.2109  0.1512
 6777SOL    HW131790   3.309   1.353   5.176 -1.8045 -1.4406  0.5450
 6777SOL    HW231791   3.188   1.407   5.235  0.5171  1.0421  1.2798
 6778SOL     OW31792   3.018   3.268  10.867  0.3253  0.2025 -0.3329
 6778SOL    HW131793   3.015   3.178  10.899 -1.1551  0.9602  1.6714
 6778SOL    HW231794   3.000   3.323  10.943  0.0887 -1.0700  0.5269
 6779SOL     OW31795   1.613   1.564   1.805  0.2446  1.0111  0.0363
 6779SOL    HW131796   1.616   1.638   1.745 -0.4832 -0.2438 -1.5558
 6779SOL    HW231797   1.695   1.588   1.848  0.0720 -2.5220  2.3996
 6780SOL     OW31798   2.147   1.011  16.904  0.2958  0.3403 -0.0918
 6780SOL    HW131799   2.239   0.991  16.924  0.1405  0.2163  0.5158
 6780SOL    HW231800   2.157   1.103  16.881 -1.0285  0.5952  0.3829
 6781SOL     OW31801   3.747   3.598   4.063  0.0407  0.5802 -0.2835
 6781SOL    HW131802   3.791   3.519   4.095 -1.7247 -0.0945  0.5119
 6781SOL    HW231803   3.728   3.565   3.976  3.5338 -2.1925  0.0190
 6782SOL     OW31804   1.690   3.266   9.318 -0.5069 -0.2419 -0.7905
 6782SOL    HW131805   1.694   3.171   9.312  0.9823 -0.0892 -2.3578
 6782SOL    HW231806   1.635   3.288   9.242  0.6080  2.2919 -0.8858
 6783SOL     OW31807   2.279   2.409   6.629  0.3277  0.0870 -0.0607
 6783SOL    HW131808   2.343   2.391   6.698  1.0661 -2.4440 -1.4063
 6783SOL    HW231809   2.200   2.431   6.679 -0.3251 -1.0044 -0.6050
 6784SOL     OW31810   3.610   4.235   7.213 -0.4647  0.3368  0.0948
 6784SOL    HW131811   3.638   4.293   7.285  3.8461  0.0388 -1.3547
 6784SOL    HW231812   3.524   4.214   7.248 -0.2169 -1.4470 -0.4111
 6785SOL     OW31813   2.755   3.996   4.722 -0.0112 -0.0403  0.3243
 6785SOL    HW131814   2.789   3.912   4.692 -0.3389  0.0523 -0.3075
 6785SOL    HW231815   2.819   4.034   4.783 -0.1398  2.3705 -1.0288
 6786SOL     OW31816   3.540   3.473  11.590 -0.0299  0.4897 -0.4558
 6786SOL    HW131817   3.601   3.547  11.594  0.1305  0.3616 -0.4986
 6786SOL    HW231818   3.500   3.491  11.675  0.4620  2.5123 -0.6456
 6787SOL     OW31819   1.018   3.001   0.631  0.1980 -0.4852 -0.4623
 6787SOL    HW131820   0.946   2.993   0.695 -0.5420  0.3237 -1.2014
 6787SOL    HW231821   1.042   3.093   0.639  1.0782 -0.9909  2.9913
 6788SOL     OW31822   2.460   2.770   7.738 -0.4401  0.5063  0.0353
 6788SOL    HW131823   2.512   2.821   7.676 -1.4541  0.6195 -0.7062
 6788SOL    HW231824   2.535   2.724   7.777 -0.4217  1.7327  1.4776
 6789SOL     OW31825   4.694   2.253   6.979 -0.2788 -0.1978 -0.0352
 6789SOL    HW131826   4.606   2.219   6.995 -1.5612  2.9156 -0.5808
 6789SOL    HW231827   0.001   2.260   7.069  2.0632 -0.3784 -0.8618
 6790SOL     OW31828   0.226   3.609  15.356 -0.4486 -0.2519 -0.7920
 6790SOL    HW131829   0.226   3.622  15.261 -1.7751 -2.6510 -1.1307
 6790SOL    HW231830   0.134   3.621  15.381 -0.4671 -2.1993  0.0431
 6791SOL     OW31831   4.641   2.001   3.796 -0.1136  0.5000 -0.5145
 6791SOL    HW131832   4.645   2.049   3.713 -0.6757  0.5743 -0.4974
 6791SOL    HW231833   4.581   2.055   3.847 -0.7816  0.5732 -1.3767
 6792SOL     OW31834   1.700   3.629   5.151  0.9583  0.2217  0.3058
 6792SOL    HW131835   1.761   3.695   5.185  0.0259  1.5559 -0.6123
 6792SOL    HW231836   1.621   3.655   5.198  0.5165  0.3744 -0.5062
 6793SOL     OW31837   1.163   1.200   6.961 -0.1159 -0.0599  0.8524
 6793SOL    HW131838   1.113   1.264   6.910 -0.1210 -0.0809  0.8307
 6793SOL    HW231839   1.140   1.217   7.052 -2.9446 -1.9012  0.4781
 6794SOL     OW31840   4.369   2.280   5.804  0.0651 -0.4832 -0.0376
 6794SOL    HW131841   4.283   2.238   5.806  1.3812 -3.1941  0.1898
 6794SOL    HW231842   4.347   2.367   5.835 -0.2174 -0.3217 -0.6925
 6795SOL     OW31843   4.673   2.851   1.559  0.3715  0.8144 -0.5740
 6795SOL    HW131844   4.631   2.858   1.645  2.3466 -1.8587  0.6070
 6795SOL    HW231845   4.602   2.864   1.496  0.2756  1.1066 -0.4040
 6796SOL     OW31846   3.876   0.496   6.869 -0.2711 -0.1790  0.7341
 6796SOL    HW131847   3.868   0.569   6.931 -2.4940 -0.3420  0.6265
 6796SOL    HW231848   3.944   0.444   6.912  0.3755 -0.3464 -0.4669
 6797SOL     OW31849   4.109   0.659  14.827  1.2319  0.2574  0.4642
 6797SOL    HW131850   4.102   0.564  14.827  0.3859  0.3179  0.2326
 6797SOL    HW231851   4.183   0.671  14.887  1.0381 -1.6160  1.0780
 6798SOL     OW31852   1.836   3.364   7.491 -0.3987 -0.0591 -0.6661
 6798SOL    HW131853   1.923   3.395   7.466  1.2468 -1.6174  3.1233
 6798SOL    HW231854   1.807   3.310   7.417 -2.6180 -0.7475  0.7304
 6799SOL     OW31855   2.399   1.188   2.908  0.0682  0.0254 -0.0560
 6799SOL    HW131856   2.427   1.154   2.823 -1.6206  0.7565 -0.9086
 6799SOL    HW231857   2.466   1.254   2.925 -2.1189  2.3005 -0.2525
 6800SOL     OW31858   3.285   4.575   2.685 -0.5780  0.4675 -0.1097
 6800SOL    HW131859   3.277   4.484   2.712  1.1452 -0.3501 -2.3603
 6800SOL    HW231860   3.306   4.622   2.766  1.9040 -1.7188  0.5131
 6801SOL     OW31861   2.832   3.615   7.244  0.4365  0.6192 -0.6751
 6801SOL    HW131862   2.918   3.607   7.203  1.1702 -0.6764  1.0825
 6801SOL    HW231863   2.842   3.557   7.319 -2.4746 -0.5968 -1.2193
 6802SOL     OW31864   3.689   2.771   1.990  0.0772  0.4702 -0.0649
 6802SOL    HW131865   3.643   2.725   1.919  1.1377  0.3626 -0.6840
 6802SOL    HW231866   3.623   2.777   2.059 -0.6182 -0.1610 -0.6722
 6803SOL     OW31867   2.500   2.777   8.682  0.7627  0.1271  0.4397
 6803SOL    HW131868   2.523   2.720   8.755  2.0726  1.5443  1.1204
 6803SOL    HW231869   2.439   2.727   8.627  0.6936 -0.2128  0.8262
 6804SOL     OW31870   4.615   2.350   0.346 -0.0154  0.1662 -0.3135
 6804SOL    HW131871   4.681   2.416   0.368 -1.2189  1.2867 -0.0970
 6804SOL    HW231872   4.534   2.398   0.359  0.0676  1.0462 -3.0631
 6805SOL     OW31873   3.896   2.854   1.680 -0.0106  0.0662  0.2720
 6805SOL    HW131874   3.879   2.760   1.676  2.0638 -0.2329 -1.8379
 6805SOL    HW231875   3.976   2.854   1.733  0.9805  1.5698 -1.2087
 6806SOL     OW31876   0.576   2.656   8.232  0.1150  0.4016 -0.1567
 6806SOL    HW131877   0.530   2.659   8.148 -3.2173  1.6326  1.6720
 6806SOL    HW231878   0.563   2.563   8.249  0.8861  0.4659  0.8032
 6807SOL     OW31879   3.026   2.359   5.030 -0.2413  0.0991  0.5331
 6807SOL    HW131880   3.091   2.316   5.086  1.4310 -2.0563 -3.0714
 6807SOL    HW231881   3.067   2.345   4.945  0.6346 -0.6384  1.0700
 6808SOL     OW31882   2.475   0.994   8.757  0.1033 -0.6360 -0.0623
 6808SOL    HW131883   2.464   0.966   8.848 -1.2058  1.4359  0.4142
 6808SOL    HW231884   2.565   0.963   8.748  0.4460 -0.1064  1.5800
 6809SOL     OW31885   0.939   0.136  14.158 -0.2457  0.6417  0.4085
 6809SOL    HW131886   0.998   0.089  14.099 -2.2608 -0.0060 -1.0776
 6809SOL    HW231887   0.950   0.223  14.118  1.6273  1.1081  1.9504
 6810SOL     OW31888   3.384   1.867   7.889 -0.7315 -0.0555  0.2227
 6810SOL    HW131889   3.322   1.932   7.920 -3.2007 -0.9256 -2.9127
 6810SOL    HW231890   3.457   1.915   7.930 -0.9957  1.2304 -0.7953
 6811SOL     OW31891   2.627   3.443   2.829  0.0008 -0.2341 -0.0881
 6811SOL    HW131892   2.559   3.451   2.762 -1.1779  0.2426  1.1568
 6811SOL    HW231893   2.582   3.490   2.899 -3.2670 -3.1613 -0.2195
 6812SOL     OW31894   1.589   2.998   3.777  0.6164  0.1071 -0.2613
 6812SOL    HW131895   1.626   3.012   3.690 -0.9441  0.3243 -0.8826
 6812SOL    HW231896   1.660   2.945   3.814 -0.7732 -0.9338  0.8741
 6813SOL     OW31897   0.873   1.012   8.198 -0.3839  0.5420  0.5012
 6813SOL    HW131898   0.831   0.929   8.223 -1.3863  1.1664  0.8766
 6813SOL    HW231899   0.939   1.018   8.267  0.4722 -0.3895 -0.2332
 6814SOL     OW31900   4.084   0.143   5.936 -0.6449  0.1148 -0.5216
 6814SOL    HW131901   4.095   0.049   5.943 -0.9963  0.1952  1.1686
 6814SOL    HW231902   4.175   0.172   5.946 -0.5163 -0.5833  0.2978
 6815SOL     OW31903   1.353   0.492   7.312 -0.1696  0.1762  0.4698
 6815SOL    HW131904   1.367   0.483   7.218 -2.1734  0.3335  0.1649
 6815SOL    HW231905   1.308   0.413   7.344  1.5083 -0.0914  2.1796
 6816SOL     OW31906   1.382   3.901   6.947  0.5309 -0.0482  0.1024
 6816SOL    HW131907   1.392   3.807   6.960 -0.2107 -0.1652 -0.1955
 6816SOL    HW231908   1.373   3.911   7.042  2.1358  0.1735  0.2264
 6817SOL     OW31909   4.258   2.378   0.859  0.0347 -0.1295  0.0832
 6817SOL    HW131910   4.283   2.292   0.824 -0.3502  0.0298 -0.5801
 6817SOL    HW231911   4.228   2.425   0.781  0.9080  0.0891 -0.1230
 6818SOL     OW31912   4.011   2.439   5.577 -0.4792  0.5763 -1.0219
 6818SOL    HW131913   4.018   2.435   5.673  0.0608  0.9233 -1.0465
 6818SOL    HW231914   3.916   2.435   5.579 -0.3659  0.1868  4.7673
 6819SOL     OW31915   4.192   1.590   9.337 -0.2669 -0.3354  0.2451
 6819SOL    HW131916   4.233   1.510   9.304  0.8533  0.7951 -1.1145
 6819SOL    HW231917   4.151   1.566   9.420  2.9388 -0.6666  1.7096
 6820SOL     OW31918   2.586   0.119  16.601  0.2496  1.0569 -0.2786
 6820SOL    HW131919   2.565   0.086  16.514 -0.3641 -0.5831  0.4996
 6820SOL    HW231920   2.514   0.091  16.656  1.2174 -1.0755 -0.1013
 6821SOL     OW31921   4.189   3.826  14.295  0.1325 -0.4962  0.6505
 6821SOL    HW131922   4.173   3.731  14.298 -0.8784 -0.2973  1.3925
 6821SOL    HW231923   4.236   3.837  14.377  1.7619 -0.8968 -0.2136
 6822SOL     OW31924   1.868   4.333  10.223 -0.0635  0.0598 -0.0854
 6822SOL    HW131925   1.921   4.321  10.302  0.8360  1.7558 -0.4551
 6822SOL    HW231926   1.924   4.279  10.167  0.6943 -0.6234  1.3341
 6823SOL     OW31927   1.541   3.403   1.509 -0.3978  0.1216  0.3152
 6823SOL    HW131928   1.526   3.315   1.544  0.1709  0.8975  2.5193
 6823SOL    HW231929   1.531   3.452   1.590 -0.0064  1.0119 -0.1702
 6824SOL     OW31930   3.510   1.933  12.002 -0.6555 -0.1020 -0.0664
 6824SOL    HW131931   3.530   1.853  11.953 -2.3995 -1.3673  1.2617
 6824SOL    HW231932   3.522   2.002  11.936  0.0149  0.3782  0.5653
 6825SOL     OW31933   3.244   0.618  17.653 -0.0362  0.2563  0.3822
 6825SOL    HW131934   3.217   0.689   0.008  2.9992  1.1062  0.7900
 6825SOL    HW231935   3.243   0.548   0.015  2.6203  0.0937  0.2552
 6826SOL     OW31936   3.228   0.579   5.027 -0.2947  0.0383 -0.4655
 6826SOL    HW131937   3.320   0.563   5.003 -0.6337 -0.3694 -1.4770
 6826SOL    HW231938   3.207   0.500   5.077  1.4629  1.6166  2.7778
 6827SOL     OW31939   3.723   1.691  12.833  0.4480  0.3188  0.0001
 6827SOL    HW131940   3.709   1.771  12.884  1.9092  0.5291  0.0868
 6827SOL    HW231941   3.794   1.719  12.776  0.4049 -3.2067 -1.8299
 6828SOL     OW31942   0.606   1.512   4.313 -0.8248 -0.3620 -0.0876
 6828SOL    HW131943   0.599   1.606   4.300  0.8588 -0.1215  0.7886
 6828SOL    HW231944   0.513   1.493   4.301 -1.0876  1.5000 -1.0700
 6829SOL     OW31945   0.555   3.429   0.509 -0.1920  0.0920  0.5786
 6829SOL    HW131946   0.621   3.496   0.489 -1.9024  1.5409 -0.2444
 6829SOL    HW231947   0.478   3.483   0.528 -0.2666  0.8644 -1.9583
 6830SOL     OW31948   0.898   1.104   2.588 -0.0056  0.1951 -0.1498
 6830SOL    HW131949   0.856   1.078   2.506  0.3044  0.5225 -0.4069
 6830SOL    HW231950   0.838   1.173   2.615  0.2697  0.2657  0.2767
 6831SOL     OW31951   1.413   3.515  14.720  0.2851  0.0407  0.3060
 6831SOL    HW131952   1.378   3.571  14.790  1.2232  1.9946 -0.7721
 6831SOL    HW231953   1.354   3.536  14.648 -1.7889  1.3381  2.3600
 6832SOL     OW31954   0.751   0.967  15.402 -0.1943 -0.3690 -0.5620
 6832SOL    HW131955   0.679   0.957  15.340 -0.7277 -2.7748  0.4169
 6832SOL    HW231956   0.805   1.028  15.353  0.2995 -0.8910 -0.6678
 6833SOL     OW31957   3.025   2.793   5.346  0.5376  0.2740 -0.0263
 6833SOL    HW131958   3.066   2.868   5.389  1.3467  0.0226 -0.3531
 6833SOL    HW231959   3.058   2.812   5.259 -0.1741  2.0517  0.0875
 6834SOL     OW31960   0.858   1.420   6.988 -0.3612  0.6121 -0.2930
 6834SOL    HW131961   0.782   1.373   7.023 -1.6833  0.9609 -2.7069
 6834SOL    HW231962   0.876   1.481   7.060 -0.2332  0.2666 -0.0337
 6835SOL     OW31963   3.000   0.273   1.004 -0.3696  0.2775 -0.1856
 6835SOL    HW131964   2.935   0.224   0.953 -1.6640  1.4684  0.2914
 6835SOL    HW231965   3.080   0.263   0.953  1.2062  0.4195  2.2709
 6836SOL     OW31966   2.450   2.738   0.063  0.4606 -0.4453  0.2910
 6836SOL    HW131967   2.415   2.676   0.127 -0.3636  0.8634  1.1245
 6836SOL    HW231968   2.466   2.675  17.696 -0.2894  0.1007 -0.3647
 6837SOL     OW31969   0.491   2.043   5.340  0.5108  0.3712 -0.4647
 6837SOL    HW131970   0.407   2.009   5.368  0.2887  1.5873  0.3634
 6837SOL    HW231971   0.536   1.960   5.325  0.9608  0.6572 -0.7085
 6838SOL     OW31972   4.408   4.543  15.893  0.2425  0.1002 -0.1817
 6838SOL    HW131973   4.476   4.484  15.860  1.2432  1.1749 -0.0063
 6838SOL    HW231974   4.452   4.626  15.879 -0.9907  0.9986  1.2701
 6839SOL     OW31975   0.192   3.849  17.467 -0.8853  0.5341 -0.0246
 6839SOL    HW131976   0.194   3.935  17.425  0.5528  0.7265  0.4511
 6839SOL    HW231977   0.278   3.849  17.508 -0.1506 -1.9489 -1.5478
 6840SOL     OW31978   0.085   2.621   5.922  0.6046 -0.7020 -1.0334
 6840SOL    HW131979   0.004   2.582   5.890 -1.6309  2.2989  0.9840
 6840SOL    HW231980   0.065   2.714   5.923 -0.4798 -0.9126 -3.2449
 6841SOL     OW31981   3.470   2.382  16.822 -0.3630 -0.0752  1.0438
 6841SOL    HW131982   3.384   2.420  16.838 -1.5356 -2.1373 -0.4259
 6841SOL    HW231983   3.506   2.457  16.774 -1.0979  1.2367  2.5216
 6842SOL     OW31984   2.959   0.833   6.415  0.0502 -0.1682  0.0132
 6842SOL    HW131985   2.954   0.843   6.320  1.4698 -0.2154 -0.0701
 6842SOL    HW231986   2.930   0.743   6.427 -0.1500 -0.1542 -0.3516
 6843SOL     OW31987   2.762   4.657   3.988 -0.3219 -0.2680  0.0513
 6843SOL    HW131988   2.846   4.612   4.000  2.1896  4.6196  0.4658
 6843SOL    HW231989   2.774   4.709   3.909 -0.4106  0.4824  0.5405
 6844SOL     OW31990   1.394   4.116  13.909  0.2035 -0.3236 -0.2669
 6844SOL    HW131991   1.357   4.028  13.909  1.3441 -0.7977 -0.1068
 6844SOL    HW231992   1.489   4.115  13.906  0.2553 -0.4394  1.3603
 6845SOL     OW31993   3.258   1.729   9.204  0.0901 -1.0602 -0.4625
 6845SOL    HW131994   3.201   1.669   9.252  0.6195 -1.2497 -0.0710
 6845SOL    HW231995   3.192   1.791   9.171  1.4917  0.1545 -1.0041
 6846SOL     OW31996   2.709   2.856   8.532 -0.2990  0.2969  0.7182
 6846SOL    HW131997   2.782   2.848   8.593 -0.7961  0.5132  1.3456
 6846SOL    HW231998   2.626   2.826   8.569  0.2337  0.5822  2.1380
 6847SOL     OW31999   3.956   1.005  15.076  0.3080 -0.4366  0.1582
 6847SOL    HW132000   3.939   0.913  15.060  0.5058 -0.8327  2.2486
 6847SOL    HW232001   3.876   1.039  15.035  1.7052  1.1419 -1.2685
 6848SOL     OW32002   2.465   4.706   8.681  0.2756  0.2166 -0.4714
 6848SOL    HW132003   2.457   4.619   8.722  0.1436  0.9731  1.1128
 6848SOL    HW232004   2.475   0.041   8.754 -0.1080 -0.4499  0.1461
 6849SOL     OW32005   0.650   2.982   3.027  0.6125  0.0159 -0.3377
 6849SOL    HW132006   0.647   2.887   3.033 -0.0985  0.1060  0.7793
 6849SOL    HW232007   0.615   3.007   3.113 -2.3471 -1.2704 -1.1730
 6850SOL     OW32008   2.087   1.397   5.482  0.5407  0.1912  0.0184
 6850SOL    HW132009   2.131   1.472   5.443 -2.7974  1.4093 -1.3459
 6850SOL    HW232010   2.106   1.414   5.574 -2.7842  2.7577  0.2449
 6851SOL     OW32011   2.478   3.869   5.398  0.9605 -0.2461 -0.3223
 6851SOL    HW132012   2.446   3.919   5.474  2.3615 -1.4983  1.0764
 6851SOL    HW232013   2.407   3.805   5.392  1.0662 -0.4010  0.0672
 6852SOL     OW32014   2.971   0.301   8.348  0.3362 -0.0243 -0.2298
 6852SOL    HW132015   2.887   0.348   8.351 -0.2727 -1.0437 -1.3012
 6852SOL    HW232016   3.006   0.323   8.262 -0.6693 -1.8634 -1.1228
 6853SOL     OW32017   0.038   3.177   5.428  0.2660  0.9486  0.3238
 6853SOL    HW132018   0.021   3.176   5.333  1.7199 -4.1122  0.1187
 6853SOL    HW232019   4.691   3.122   5.457 -0.0377  0.9509 -0.4174
 6854SOL     OW32020   0.063   2.844   6.336 -0.3109 -0.2174 -0.4949
 6854SOL    HW132021   0.047   2.908   6.267 -0.0014 -0.2541 -0.6019
 6854SOL    HW232022   0.109   2.779   6.282 -1.2275 -1.6221  0.4137
 6855SOL     OW32023   4.327   3.185   8.470 -0.2913  0.2406 -0.5088
 6855SOL    HW132024   4.407   3.211   8.424  0.7493 -0.0083  1.1826
 6855SOL    HW232025   4.323   3.256   8.533 -0.2091 -0.5509  0.3821
 6856SOL     OW32026   4.483   2.584  13.730  0.2478  0.3939  0.1728
 6856SOL    HW132027   4.391   2.599  13.706  0.0465 -0.1057  0.6212
 6856SOL    HW232028   4.466   2.501  13.775  3.9692 -0.2681  0.3193
 6857SOL     OW32029   2.351   2.558   9.074  0.1177 -1.0250 -0.3692
 6857SOL    HW132030   2.307   2.633   9.034 -0.3674 -1.1414 -0.0533
 6857SOL    HW232031   2.375   2.604   9.155  0.6002 -1.1147 -0.4628
 6858SOL     OW32032   0.699   3.721  14.566 -0.0126 -0.5827 -0.0284
 6858SOL    HW132033   0.746   3.797  14.599 -0.1016 -0.2379 -0.7038
 6858SOL    HW232034   0.767   3.689  14.506  1.7391 -0.2838  1.7881
 6859SOL     OW32035   4.646   1.695   3.165  0.3276 -0.5237 -0.1867
 6859SOL    HW132036   4.635   1.780   3.121  2.2467 -0.5932 -0.8116
 6859SOL    HW232037   4.560   1.655   3.151  1.6976 -2.7277 -2.3378
 6860SOL     OW32038   3.035   0.058  10.046 -0.2809  0.5613  0.2072
 6860SOL    HW132039   2.958   0.058   9.990 -0.3132 -1.2739  0.2484
 6860SOL    HW232040   3.082   4.702  10.026 -0.2611  0.7078 -0.3483
 6861SOL     OW32041   1.170   0.669   2.690 -0.1299 -0.5782 -0.2475
 6861SOL    HW132042   1.092   0.706   2.648  0.0672  1.9042  1.6321
 6861SOL    HW232043   1.243   0.685   2.630 -1.0300  0.8805 -0.9584
 6862SOL     OW32044   2.126   4.044   5.267 -0.3394 -0.4361  0.2811
 6862SOL    HW132045   2.032   4.058   5.254  0.0965  2.5900  0.3642
 6862SOL    HW232046   2.139   4.068   5.359  2.0001  0.4683 -0.2990
 6863SOL     OW32047   1.557   2.997  11.470  0.0282  0.1744  0.8249
 6863SOL    HW132048   1.514   2.935  11.529  3.6707 -1.6355  1.6029
 6863SOL    HW232049   1.644   2.992  11.512 -0.3446  1.5779  1.7472
 6864SOL     OW32050   4.672   3.354   9.022 -0.1708 -0.7556  0.0037
 6864SOL    HW132051   4.612   3.428   9.035  1.3806  0.2947  1.1784
 6864SOL    HW232052   4.599   3.291   9.025  0.2586 -1.3272 -2.0315
 6865SOL     OW32053   1.565   3.142  11.832  0.6051 -1.0737  0.1229
 6865SOL    HW132054   1.518   3.224  11.816  0.1914 -1.4301 -0.4860
 6865SOL    HW232055   1.625   3.124  11.760  0.3303  1.0738 -0.6411
 6866SOL     OW32056   3.986   4.700  13.996  0.5127  1.3652 -0.5319
 6866SOL    HW132057   3.992   0.040  14.065 -0.8112  0.6675  0.2575
 6866SOL    HW232058   3.934   0.025  13.933  2.3134  1.5582 -1.8492
 6867SOL     OW32059   0.423   3.630   0.126  0.3677 -0.2785 -0.5798
 6867SOL    HW132060   0.369   3.554   0.108  0.1845 -0.8776  2.4765
 6867SOL    HW232061   0.352   3.693   0.123  0.1735 -0.4971 -0.5609
 6868SOL     OW32062   1.479   3.870  13.763  0.1081 -0.4391  0.4067
 6868SOL    HW132063   1.456   3.929  13.691  1.6104 -0.8486 -0.4023
 6868SOL    HW232064   1.573   3.876  13.746 -0.2373 -1.3335 -1.8246
 6869SOL     OW32065   2.979   1.576   5.472  0.3138 -0.1383  0.1910
 6869SOL    HW132066   2.931   1.525   5.537  0.3377  0.3372  0.5833
 6869SOL    HW232067   2.925   1.568   5.393  1.5011 -2.2983 -0.3964
 6870SOL     OW32068   1.577   2.764   2.619 -0.4137  0.0029  0.8546
 6870SOL    HW132069   1.588   2.671   2.602 -3.3512 -0.1127 -0.5158
 6870SOL    HW232070   1.580   2.771   2.714 -2.2814 -0.5477  0.9599
 6871SOL     OW32071   4.056   4.063   4.359 -0.6945 -0.0003 -0.4450
 6871SOL    HW132072   4.005   3.983   4.349 -1.0902  0.2122 -0.1173
 6871SOL    HW232073   4.095   4.054   4.446 -0.7068  2.3121 -0.2074
 6872SOL     OW32074   4.081   4.132   4.855 -0.0821  0.0947 -0.2830
 6872SOL    HW132075   4.042   4.184   4.925 -2.1854  0.5869 -1.8007
 6872SOL    HW232076   4.077   4.197   4.784  0.3552 -1.9192 -2.1460
 6873SOL     OW32077   0.232   2.514   1.201  0.1738 -0.1173 -0.1774
 6873SOL    HW132078   0.297   2.583   1.189 -0.4627  0.5231  0.0515
 6873SOL    HW232079   0.276   2.441   1.245 -0.5531  0.1760  1.0532
 6874SOL     OW32080   4.679   3.606   7.333  0.1891 -0.2573  0.5332
 6874SOL    HW132081   4.680   3.629   7.426 -2.3135 -0.8815  0.7279
 6874SOL    HW232082   0.020   3.659   7.289 -1.0096  0.4220 -0.4438
 6875SOL     OW32083   3.880   0.516   9.137 -0.3252 -0.2912  0.2020
 6875SOL    HW132084   3.885   0.472   9.222  0.7965 -1.9841 -0.7291
 6875SOL    HW232085   3.958   0.569   9.153  0.8153 -1.5195 -1.2802
 6876SOL     OW32086   0.814   1.364   0.116  0.0862 -0.1992 -0.2939
 6876SOL    HW132087   0.869   1.435   0.084  2.3043 -1.5144  0.6202
 6876SOL    HW232088   0.795   1.318   0.034 -2.6989 -1.6547  1.1358
 6877SOL     OW32089   4.244   2.784   4.561  0.0014 -0.1464 -0.0223
 6877SOL    HW132090   4.328   2.770   4.605 -0.5378 -2.8083  0.1483
 6877SOL    HW232091   4.263   2.873   4.531 -1.2648  0.4199  0.8375
 6878SOL     OW32092   4.572   0.440   3.814 -0.0724 -0.4516 -1.2165
 6878SOL    HW132093   4.613   0.364   3.854 -1.1553 -0.7155 -0.6061
 6878SOL    HW232094   4.486   0.439   3.855  0.4551 -1.9337 -0.1613
 6879SOL     OW32095   2.518   2.774   6.241  0.5157  0.1780  0.2444
 6879SOL    HW132096   2.607   2.796   6.269 -0.4014  2.3817  1.3950
 6879SOL    HW232097   2.513   2.683   6.272 -0.7830  0.1654 -0.0029
 6880SOL     OW32098   2.652   1.442   5.116  0.3103  0.1861  0.1160
 6880SOL    HW132099   2.683   1.367   5.065  0.4390  0.4844 -0.2401
 6880SOL    HW232100   2.585   1.491   5.068 -0.6771 -0.3188  0.9946
 6881SOL     OW32101   4.289   2.500   4.903  0.2142 -0.0197 -0.9368
 6881SOL    HW132102   4.240   2.421   4.926  0.7852 -0.0054  0.3374
 6881SOL    HW232103   4.347   2.504   4.979 -1.3264 -3.5944  0.4198
 6882SOL     OW32104   3.698   0.203   1.805 -0.4705 -0.1475 -0.0805
 6882SOL    HW132105   3.614   0.161   1.784 -1.0206 -0.8990  3.6595
 6882SOL    HW232106   3.691   0.287   1.761 -0.2021  0.2766  0.6883
 6883SOL     OW32107   1.417   0.474   7.055 -0.2339 -0.5993 -0.2273
 6883SOL    HW132108   1.501   0.506   7.022 -0.3870  0.9553  0.8938
 6883SOL    HW232109   1.373   0.439   6.978  0.6193 -0.4067 -0.8057
 6884SOL     OW32110   3.319   2.943  11.484  0.1344 -0.4173 -0.2796
 6884SOL    HW132111   3.300   3.036  11.476  1.5524 -0.1141 -0.2210
 6884SOL    HW232112   3.374   2.923  11.409  0.9270  1.3440 -0.1584
 6885SOL     OW32113   0.247   1.371   5.938 -0.5169  0.0950 -0.0034
 6885SOL    HW132114   0.185   1.366   5.866 -0.9208 -1.5037  0.4525
 6885SOL    HW232115   0.324   1.352   5.885 -0.5908  0.5048 -0.2596
 6886SOL     OW32116   4.084   3.134   8.826  0.4679 -0.4254  1.2206
 6886SOL    HW132117   3.988   3.127   8.827  0.5171 -1.6906 -2.7496
 6886SOL    HW232118   4.081   3.230   8.833 -1.7391 -0.3789 -0.1872
 6887SOL     OW32119   3.123   3.577   3.161  0.0902  0.1758  0.2998
 6887SOL    HW132120   3.058   3.532   3.107  2.4388 -1.9270 -0.8373
 6887SOL    HW232121   3.161   3.636   3.095 -1.1020 -1.2564 -1.6825
 6888SOL     OW32122   3.980   2.860   4.661 -0.6905 -0.3619  0.0671
 6888SOL    HW132123   4.064   2.821   4.640 -0.0160  0.3842  1.3070
 6888SOL    HW232124   3.985   2.850   4.756  3.0661 -2.4730 -0.3671
 6889SOL     OW32125   4.646   2.065   8.127  0.7833  0.3867  0.0181
 6889SOL    HW132126   4.710   2.010   8.083  0.8568  0.4648  0.0269
 6889SOL    HW232127   4.583   2.002   8.163 -1.8307  0.5399 -4.2989
 6890SOL     OW32128   0.769   1.445  13.068 -0.0377  0.1356  0.0146
 6890SOL    HW132129   0.735   1.375  13.012 -0.9471 -0.4224  1.2457
 6890SOL    HW232130   0.796   1.512  13.005  0.8782  1.6690  2.0417
 6891SOL     OW32131   1.167   3.867   0.518 -0.5345 -0.1787  0.7250
 6891SOL    HW132132   1.114   3.918   0.457 -0.4239  0.6244  1.2976
 6891SOL    HW232133   1.257   3.870   0.484 -0.5136  0.4826  0.8390
 6892SOL     OW32134   3.608   3.886   5.193  0.1019  0.2755 -0.1553
 6892SOL    HW132135   3.636   3.898   5.284 -2.9432 -2.1591  1.0818
 6892SOL    HW232136   3.680   3.830   5.162  0.9551  0.5586  1.2879
 6893SOL     OW32137   2.923   0.567   9.511  0.0423  0.3046  0.1896
 6893SOL    HW132138   2.964   0.513   9.578 -0.8669  0.2706  0.7200
 6893SOL    HW232139   2.917   0.655   9.549  0.6684 -0.0688  1.1469
 6894SOL     OW32140   4.170   4.099  14.399  0.0904 -0.5110  0.2801
 6894SOL    HW132141   4.264   4.100  14.417  0.1461 -1.8525  0.0601
 6894SOL    HW232142   4.141   4.190  14.407  1.5945 -0.1475  1.5854
 6895SOL     OW32143   2.096   3.090  15.656  0.2194  0.0333 -0.5217
 6895SOL    HW132144   2.014   3.105  15.608 -0.5228 -1.1692  0.3864
 6895SOL    HW232145   2.138   3.021  15.606  1.1154  0.1101  0.1222
 6896SOL     OW32146   4.234   3.010  16.713 -0.0922 -0.5451  0.3522
 6896SOL    HW132147   4.265   2.932  16.667  2.5372  0.1239  1.0226
 6896SOL    HW232148   4.149   2.976  16.742  0.2108  0.5759  2.5573
 6897SOL     OW32149   2.819   1.798  12.226  0.1032  0.5860 -0.2801
 6897SOL    HW132150   2.800   1.768  12.137  0.2897  0.2613 -0.2101
 6897SOL    HW232151   2.767   1.877  12.242  0.4370  0.9333 -0.9074
 6898SOL     OW32152   0.145   3.848   5.612 -0.2899 -0.2454 -0.0037
 6898SOL    HW132153   0.184   3.933   5.630  1.3260 -1.2846  1.3447
 6898SOL    HW232154   0.051   3.868   5.609 -0.3940 -0.9981 -1.6134
 6899SOL     OW32155   1.200   3.674   6.683 -0.4350 -0.1500 -0.5625
 6899SOL    HW132156   1.156   3.593   6.655 -2.2143 -0.0223  1.9494
 6899SOL    HW232157   1.275   3.670   6.623 -0.6479 -1.8255 -0.7269
 6900SOL     OW32158   4.338   1.130   7.432  0.2171  0.2726  0.4814
 6900SOL    HW132159   4.341   1.185   7.353  1.3611  0.2420  0.5096
 6900SOL    HW232160   4.248   1.105   7.411  0.1558 -0.1185  1.2015
 6901SOL     OW32161   4.476   1.629   0.383 -0.1089  0.0213  0.6332
 6901SOL    HW132162   4.480   1.567   0.310 -1.5560  0.3380  0.2799
 6901SOL    HW232163   4.447   1.563   0.445  2.0604  0.3489  1.9969
 6902SOL     OW32164   1.583   3.848   2.014 -0.3852 -0.0098  0.3974
 6902SOL    HW132165   1.672   3.883   2.020  0.3221 -1.6269 -0.4686
 6902SOL    HW232166   1.589   3.762   1.972 -0.7451  0.1831 -0.0414
 6903SOL     OW32167   2.921   0.685  11.953 -0.5346  1.3750  0.2855
 6903SOL    HW132168   2.874   0.676  11.871  0.4431 -0.3563 -0.0734
 6903SOL    HW232169   2.906   0.777  11.974 -1.0704  1.2347  0.5099
 6904SOL     OW32170   3.535   2.953  16.014 -0.1592 -0.7689 -0.1631
 6904SOL    HW132171   3.586   2.881  15.978  1.9552  0.4313  0.4133
 6904SOL    HW232172   3.484   2.903  16.078 -0.3024 -1.0221 -0.4746
 6905SOL     OW32173   3.744   0.112   8.781  0.0306 -0.2713  0.4921
 6905SOL    HW132174   3.686   0.166   8.727  2.5593  0.8268 -1.1557
 6905SOL    HW232175   3.784   0.184   8.830  1.1224 -1.1467  0.8858
 6906SOL     OW32176   0.342   2.152   0.069 -0.0444  0.4968  0.4815
 6906SOL    HW132177   0.303   2.234   0.040 -0.9506 -0.3911 -0.8308
 6906SOL    HW232178   0.326   2.093  17.698 -0.7857  3.1235 -1.4505
 6907SOL     OW32179   2.887   1.359   1.042  0.4500 -0.9720  0.1415
 6907SOL    HW132180   2.820   1.294   1.063  0.7775 -1.6378 -0.8530
 6907SOL    HW232181   2.839   1.440   1.028  0.7334 -0.9356 -0.6191
 6908SOL     OW32182   1.177   3.993  10.714  0.6835  0.4837  0.3993
 6908SOL    HW132183   1.191   4.072  10.661  0.3092  0.1750 -0.1577
 6908SOL    HW232184   1.248   3.942  10.674  0.4166  1.2739 -1.0839
 6909SOL     OW32185   4.068   3.746   1.637 -0.7312  0.0782 -0.7679
 6909SOL    HW132186   4.116   3.719   1.559  2.4071  1.3353  0.7301
 6909SOL    HW232187   3.982   3.708   1.621 -0.1421 -1.4726 -0.3023
 6910SOL     OW32188   3.295   3.132   6.646 -0.2483 -0.0730 -0.2221
 6910SOL    HW132189   3.216   3.144   6.698 -0.7884  1.4167 -1.3801
 6910SOL    HW232190   3.349   3.200   6.686 -0.8787 -0.7083  1.6735
 6911SOL     OW32191   3.687   4.312   2.465  0.0261  0.0050  0.2103
 6911SOL    HW132192   3.628   4.277   2.399 -1.6333  1.0508  1.1239
 6911SOL    HW232193   3.699   4.390   2.411  0.2626 -0.3565 -0.2587
 6912SOL     OW32194   1.305   0.959  16.838  0.0292 -0.2886 -0.4904
 6912SOL    HW132195   1.286   0.925  16.750 -4.1921  1.5116 -0.2635
 6912SOL    HW232196   1.329   0.876  16.880  0.5472 -0.7077 -1.6159
 6913SOL     OW32197   4.024   3.545   3.216 -0.0186  0.6801 -0.0122
 6913SOL    HW132198   4.005   3.547   3.310  1.4958  0.6550  0.2997
 6913SOL    HW232199   3.972   3.472   3.182  2.1933 -1.1977  0.6658
 6914SOL     OW32200   0.773   3.769   6.822  0.0748 -0.1456  0.3681
 6914SOL    HW132201   0.706   3.765   6.890  0.4481  0.4809  0.7721
 6914SOL    HW232202   0.790   3.675   6.808  0.0212  0.0735 -1.1917
 6915SOL     OW32203   0.961   2.847   3.112 -0.2885  0.2311  0.7045
 6915SOL    HW132204   1.031   2.842   3.178  1.9689 -0.6006 -1.7590
 6915SOL    HW232205   0.983   2.784   3.043 -0.9724 -0.7508  1.3792
 6916SOL     OW32206   3.514   4.366   7.822  0.8575  0.5512  0.2665
 6916SOL    HW132207   3.452   4.435   7.845 -1.3832 -1.5624  0.5722
 6916SOL    HW232208   3.478   4.292   7.872  2.0048 -1.0063 -1.2207
 6917SOL     OW32209   1.972   2.395   9.150  0.3147  0.4424 -0.3618
 6917SOL    HW132210   1.976   2.491   9.146  1.3483  0.3990 -0.5501
 6917SOL    HW232211   2.026   2.378   9.228 -1.2460  1.0161  0.8336
 6918SOL     OW32212   2.087   3.931   2.097 -0.1869  0.0163 -0.1663
 6918SOL    HW132213   2.174   3.932   2.057  0.0831  1.6670  0.4317
 6918SOL    HW232214   2.077   3.841   2.126 -0.3593 -0.2636 -1.1106
 6919SOL     OW32215   0.230   0.707  13.825 -0.2686  0.1266 -0.0363
 6919SOL    HW132216   0.135   0.697  13.811 -0.6358 -0.3942  2.7659
 6919SOL    HW232217   0.235   0.735  13.916 -0.3977 -0.6296  0.2077
 6920SOL     OW32218   0.575   4.131   9.036 -0.3999  1.0033 -0.0762
 6920SOL    HW132219   0.487   4.164   9.057 -0.6851 -0.3403  0.8375
 6920SOL    HW232220   0.567   4.044   9.076  0.2299  0.2605 -1.5779
 6921SOL     OW32221   2.866   3.911   6.631  0.6704 -0.0960 -0.2347
 6921SOL    HW132222   2.947   3.860   6.644 -0.3224 -1.1257  1.9306
 6921SOL    HW232223   2.835   3.943   6.715 -0.6641  0.7097 -1.0402
 6922SOL     OW32224   0.468   0.735   6.122 -0.6837 -0.4383 -0.0286
 6922SOL    HW132225   0.390   0.786   6.143  0.2401 -0.1193  2.5681
 6922SOL    HW232226   0.508   0.770   6.042 -1.1038  0.8787  0.3355
 6923SOL     OW32227   4.114   2.629   3.934 -0.4630 -0.1495  0.2960
 6923SOL    HW132228   4.051   2.602   3.866 -0.4089 -0.1074  0.2296
 6923SOL    HW232229   4.079   2.594   4.016 -0.0918  0.2546  0.6213
 6924SOL     OW32230   2.235   0.022   8.186 -0.5404  0.0337 -0.5960
 6924SOL    HW132231   2.144   0.002   8.161 -0.6139 -1.1968  0.6759
 6924SOL    HW232232   2.243   0.117   8.182  1.9676 -0.1474  0.7288
 6925SOL     OW32233   3.004   0.700  10.267  0.3986  0.0798  0.5083
 6925SOL    HW132234   2.926   0.678  10.318  0.1281 -0.6223 -0.2218
 6925SOL    HW232235   3.066   0.664  10.331  1.2720  0.6045 -0.0253
 6926SOL     OW32236   0.559   4.607  14.447 -0.5968 -0.1208 -0.0125
 6926SOL    HW132237   0.615   4.667  14.496 -0.3744  1.0281 -1.7055
 6926SOL    HW232238   0.620   4.533  14.446 -1.8307 -1.1178 -1.5451
 6927SOL     OW32239   0.254   2.585   0.336  0.1317 -0.2222  0.2562
 6927SOL    HW132240   0.219   2.536   0.411 -2.1429  0.8217 -0.1545
 6927SOL    HW232241   0.328   2.622   0.385  0.3143 -0.8557  0.4720
 6928SOL     OW32242   3.046   3.654  12.240 -0.5552 -0.2082  0.2290
 6928SOL    HW132243   2.977   3.661  12.175 -1.9359 -1.5843  1.5336
 6928SOL    HW232244   3.115   3.715  12.214 -0.8748 -0.6388 -1.6006
 6929SOL     OW32245   0.747   2.869   2.543  0.7542  0.0630 -0.4068
 6929SOL    HW132246   0.787   2.879   2.629  0.8071 -3.3404 -0.0021
 6929SOL    HW232247   0.757   2.775   2.526  3.4374  0.8186 -3.0861
 6930SOL     OW32248   2.600   0.117   3.666 -0.4031 -0.3001  0.2963
 6930SOL    HW132249   2.673   0.072   3.708 -1.5291 -0.4018  2.1298
 6930SOL    HW232250   2.564   0.171   3.736 -0.9618  0.3713 -0.4958
 6931SOL     OW32251   2.808   0.367   7.066 -0.2621 -0.1343  0.6842
 6931SOL    HW132252   2.874   0.298   7.076 -2.5230 -2.5341 -1.1991
 6931SOL    HW232253   2.840   0.437   7.124  1.3823 -0.5555  0.2988
 6932SOL     OW32254   0.065   2.555   0.142 -0.0624  0.0322  0.3611
 6932SOL    HW132255   0.065   2.647   0.115 -2.7329  0.1681  0.8759
 6932SOL    HW232256   0.134   2.565   0.207  0.2486  0.2042  0.0084
 6933SOL     OW32257   2.790   2.889   7.313 -0.1949 -0.0627 -0.2889
 6933SOL    HW132258   2.753   2.817   7.262 -0.1614  0.3605 -0.9219
 6933SOL    HW232259   2.876   2.895   7.270  0.1894  2.0176  0.8010
 6934SOL     OW32260   0.625   4.687   7.190 -0.0185  0.0577  0.1584
 6934SOL    HW132261   0.540   4.711   7.155 -0.1959 -0.8296 -0.0219
 6934SOL    HW232262   0.642   4.611   7.134 -1.0370 -0.4798  0.5721
 6935SOL     OW32263   3.318   2.614   3.591  0.2075  0.0048 -0.1860
 6935SOL    HW132264   3.299   2.524   3.618  1.1403 -0.3362 -0.6359
 6935SOL    HW232265   3.231   2.654   3.598  0.2017  0.1034 -0.8707
 6936SOL     OW32266   4.694   4.384   7.376  0.2777 -0.3547  0.3902
 6936SOL    HW132267   4.631   4.437   7.426 -0.7674 -0.5821 -0.6967
 6936SOL    HW232268   4.676   4.407   7.285 -0.3098 -0.7735  0.4050
 6937SOL     OW32269   2.807   1.778   7.680 -0.1258  0.5293 -0.2366
 6937SOL    HW132270   2.810   1.721   7.756 -0.3538 -3.2328 -3.0667
 6937SOL    HW232271   2.790   1.711   7.614  0.8058 -0.2211  0.2862
 6938SOL     OW32272   2.660   2.718   7.168  0.5788 -0.2602  0.2046
 6938SOL    HW132273   2.605   2.796   7.160 -1.5931 -1.9824 -1.5357
 6938SOL    HW232274   2.612   2.667   7.234 -0.9764  0.9243 -0.0082
 6939SOL     OW32275   1.499   2.063  12.004  0.3807  0.7880  0.0594
 6939SOL    HW132276   1.583   2.062  12.051 -1.1925 -3.5104  2.7596
 6939SOL    HW232277   1.444   2.043  12.080  0.7081 -3.1133 -0.7528
 6940SOL     OW32278   2.678   3.174   5.318 -0.5737  0.0295 -0.6652
 6940SOL    HW132279   2.753   3.191   5.375 -0.5125 -0.2040 -0.6749
 6940SOL    HW232280   2.688   3.259   5.276 -3.4259 -0.1702 -1.6985
 6941SOL     OW32281   3.783   0.601   8.712  0.5876  0.0164 -0.4669
 6941SOL    HW132282   3.707   0.623   8.658  1.2658  0.0146 -1.4197
 6941SOL    HW232283   3.804   0.514   8.678 -2.9598 -1.1509  0.2587
 6942SOL     OW32284   0.180   2.614  13.067  0.1327  0.4882  0.0159
 6942SOL    HW132285   0.172   2.699  13.025  2.0062  0.7425  0.1597
 6942SOL    HW232286   0.193   2.559  12.990  1.9172  0.5575  0.2706
 6943SOL     OW32287   4.601   2.205   9.597 -0.5192  0.0606 -0.0295
 6943SOL    HW132288   4.551   2.232   9.674  0.0983  0.0522  0.3727
 6943SOL    HW232289   4.531   2.191   9.532  0.8818 -0.2769 -1.4672
 6944SOL     OW32290   0.127   2.475   0.963  0.2280 -0.3993  0.3681
 6944SOL    HW132291   0.158   2.471   1.054 -0.1832  1.1780  0.5709
 6944SOL    HW232292   0.170   2.557   0.940  0.1538 -0.7433 -1.0120
 6945SOL     OW32293   0.682   3.638  10.872  0.4197 -0.0288  0.3489
 6945SOL    HW132294   0.695   3.682  10.788  2.3755  1.1936  1.2702
 6945SOL    HW232295   0.732   3.560  10.848 -0.1695 -0.4045  0.3466
 6946SOL     OW32296   1.497   3.749   5.295  0.8347 -0.0276 -0.7613
 6946SOL    HW132297   1.563   3.803   5.339  0.1868 -0.0287  0.1837
 6946SOL    HW232298   1.440   3.732   5.369 -1.4884 -1.4219 -2.8685
 6947SOL     OW32299   3.398   0.676   0.939 -0.1465  0.4166 -0.1996
 6947SOL    HW132300   3.309   0.687   0.907 -0.9110 -1.1142  1.4213
 6947SOL    HW232301   3.404   0.586   0.973 -0.2483 -0.3505 -2.2082
 6948SOL     OW32302   2.873   1.457   7.667  0.0248  0.0762 -0.2132
 6948SOL    HW132303   2.870   1.510   7.588  1.3679  1.7370  0.8668
 6948SOL    HW232304   2.960   1.482   7.697  0.7300 -3.3367  0.6029
 6949SOL     OW32305   4.530   1.951  10.359  0.1133 -0.2789  0.1590
 6949SOL    HW132306   4.568   2.037  10.341  0.6421 -0.2626  1.3421
 6949SOL    HW232307   4.454   1.947  10.301  0.0425 -0.1056  0.2394
 6950SOL     OW32308   1.198   3.691  14.001 -0.1663 -0.0978  0.0550
 6950SOL    HW132309   1.229   3.612  13.955 -2.1319 -0.5179 -0.5431
 6950SOL    HW232310   1.104   3.674  13.994 -0.8542  4.7181 -2.7489
 6951SOL     OW32311   4.293   1.341   9.241  0.0346  0.4010  0.1462
 6951SOL    HW132312   4.306   1.278   9.311 -0.4747 -0.0869 -0.1973
 6951SOL    HW232313   4.240   1.287   9.182  2.3423  0.3628 -1.9287
 6952SOL     OW32314   0.011   0.590  12.136 -0.0088 -0.3505  0.3000
 6952SOL    HW132315   4.656   0.622  12.095  0.0370 -1.0092 -0.2985
 6952SOL    HW232316   0.042   0.668  12.183  0.4721 -0.5825  0.3719
 6953SOL     OW32317   2.827   4.143   7.102  0.4644  0.0901  0.5829
 6953SOL    HW132318   2.814   4.238   7.091 -0.5658 -0.0359  0.7609
 6953SOL    HW232319   2.768   4.123   7.175  0.1869  0.9357  0.5955
 6954SOL     OW32320   2.372   1.487   9.169  0.3045 -0.5345 -0.1884
 6954SOL    HW132321   2.393   1.477   9.076 -0.4554  1.2818 -0.5550
 6954SOL    HW232322   2.455   1.513   9.210 -0.0503  0.2247  0.0610
 6955SOL     OW32323   1.473   2.581   6.919 -0.4332 -0.0019  0.2009
 6955SOL    HW132324   1.520   2.546   6.844  2.0086  1.4712  1.0607
 6955SOL    HW232325   1.415   2.639   6.870 -3.2431 -1.2329  2.0539
 6956SOL     OW32326   1.933   0.641   7.278 -0.2889 -0.0129  0.0609
 6956SOL    HW132327   1.881   0.561   7.279  2.1672 -1.6340 -1.9306
 6956SOL    HW232328   1.896   0.676   7.359 -0.2402  1.8675 -0.7265
 6957SOL     OW32329   3.373   3.737   6.470 -0.1181 -0.3509  0.0200
 6957SOL    HW132330   3.407   3.755   6.557  1.6224 -0.1377 -0.7063
 6957SOL    HW232331   3.363   3.827   6.438  2.8908 -0.3702 -0.9707
 6958SOL     OW32332   1.957   1.272  14.837  0.6972  0.8000  0.0640
 6958SOL    HW132333   1.950   1.327  14.915 -3.8123  0.6647 -0.2319
 6958SOL    HW232334   1.868   1.247  14.812  0.4245  0.7773  1.0417
 6959SOL     OW32335   1.799   3.418   4.351  0.6180 -0.4685  0.6127
 6959SOL    HW132336   1.742   3.474   4.299  2.6970  0.5170 -0.6002
 6959SOL    HW232337   1.772   3.431   4.442  1.6754  0.8447  0.7325
 6960SOL     OW32338   0.475   2.436  15.794 -0.1727 -0.1394 -0.5911
 6960SOL    HW132339   0.520   2.511  15.833 -0.9340  0.4451 -0.8257
 6960SOL    HW232340   0.385   2.442  15.826 -0.0602  4.1239 -0.9904
 6961SOL     OW32341   3.796   2.193   4.708 -0.2956 -0.3861  0.1228
 6961SOL    HW132342   3.769   2.255   4.639 -1.9860 -1.5832 -0.2868
 6961SOL    HW232343   3.826   2.250   4.778  1.9410 -0.5435 -0.7085
 6962SOL     OW32344   0.394   1.364   4.033  0.0279 -0.2465 -0.3789
 6962SOL    HW132345   0.373   1.375   4.126 -0.9990  0.0628 -0.6441
 6962SOL    HW232346   0.310   1.394   3.998  0.8637  1.7108 -0.6604
 6963SOL     OW32347   0.647   1.834  17.281 -0.3795  0.0764  0.0727
 6963SOL    HW132348   0.722   1.882  17.315  0.8424 -1.5069 -0.3927
 6963SOL    HW232349   0.650   1.765  17.346  0.1743  1.5535  1.6106
 6964SOL     OW32350   1.242   1.671   1.713  0.0092  0.3508 -0.3753
 6964SOL    HW132351   1.253   1.592   1.660 -1.5835 -0.0463 -0.1073
 6964SOL    HW232352   1.177   1.641   1.777  0.8915 -0.0540  0.3305
 6965SOL     OW32353   0.176   0.903   2.009  0.4992 -0.7307  0.2213
 6965SOL    HW132354   0.233   0.846   1.958  1.3477  1.5323 -1.3456
 6965SOL    HW232355   0.210   0.883   2.097  2.1313  2.4471  0.3335
 6966SOL     OW32356   1.195   4.616   8.435 -0.1873  0.5062  0.3886
 6966SOL    HW132357   1.256   4.555   8.476  0.0011  0.9094  0.7130
 6966SOL    HW232358   1.151   4.550   8.382  0.9979 -0.6107  0.8053
 6967SOL     OW32359   2.553   1.952   0.055  0.1330  0.8118  0.5116
 6967SOL    HW132360   2.556   1.862   0.023  1.4369  1.2918 -0.7021
 6967SOL    HW232361   2.534   1.944   0.149 -1.9839  0.8884  0.0888
 6968SOL     OW32362   2.158   0.935   7.522  0.3408  0.1245  0.4149
 6968SOL    HW132363   2.137   0.973   7.607 -2.9668  1.9366 -1.1906
 6968SOL    HW232364   2.099   0.860   7.516 -0.1803  0.4790  1.1377
 6969SOL     OW32365   4.135   1.484   6.989  0.1059 -0.2588 -0.0948
 6969SOL    HW132366   4.068   1.422   7.019  0.1676  0.7580  2.1267
 6969SOL    HW232367   4.081   1.545   6.939  1.5340  0.0899 -1.2118
 6970SOL     OW32368   3.542   4.484   5.452  0.1893 -0.5202  0.3979
 6970SOL    HW132369   3.512   4.498   5.362 -0.4041  1.3283  0.8775
 6970SOL    HW232370   3.459   4.457   5.491 -0.8153  0.5392 -0.9689
 6971SOL     OW32371   3.034   4.337   0.232 -0.1686 -0.2362 -0.1147
 6971SOL    HW132372   3.123   4.303   0.240 -0.4954 -0.8177  1.0518
 6971SOL    HW232373   2.981   4.257   0.228  1.2475 -1.1538 -0.5187
 6972SOL     OW32374   1.914   0.300   1.920 -0.6765  0.4865 -0.5715
 6972SOL    HW132375   1.990   0.355   1.901 -1.5800  2.0780  0.4365
 6972SOL    HW232376   1.951   0.218   1.887  0.3326  0.9388 -0.5886
 6973SOL     OW32377   1.597   2.090   4.032  0.3799 -0.4657 -0.1771
 6973SOL    HW132378   1.562   2.179   4.032 -1.8327 -1.3390  0.1748
 6973SOL    HW232379   1.560   2.060   4.115 -2.2375 -1.0215 -1.5695
 6974SOL     OW32380   2.729   0.463   9.950 -0.0378  0.7063  0.1914
 6974SOL    HW132381   2.727   0.553   9.982 -1.4068  1.0226 -0.7732
 6974SOL    HW232382   2.821   0.457   9.977 -0.9230 -1.0031  2.9019
 6975SOL     OW32383   3.431   1.242   6.447  0.2867  0.7090 -1.2440
 6975SOL    HW132384   3.464   1.166   6.496  2.0666  0.8946 -2.1524
 6975SOL    HW232385   3.356   1.199   6.407 -0.2505 -0.1574  0.6669
 6976SOL     OW32386   1.220   3.597   8.137 -0.2942  0.1435  0.2865
 6976SOL    HW132387   1.233   3.568   8.227 -0.2195 -1.0666 -0.1118
 6976SOL    HW232388   1.303   3.641   8.118  0.1401 -0.7849  0.0294
 6977SOL     OW32389   4.546   0.707  11.923  0.5806 -0.4508  0.2677
 6977SOL    HW132390   4.478   0.772  11.941  1.8001  0.5756  1.2330
 6977SOL    HW232391   4.616   0.762  11.887 -1.4812  0.8441 -1.7210
 6978SOL     OW32392   2.413   3.356   0.689  0.4528 -0.0086 -0.0365
 6978SOL    HW132393   2.375   3.354   0.777  1.1286 -2.4397  0.2042
 6978SOL    HW232394   2.372   3.433   0.648  1.7897  1.1484  0.8112
 6979SOL     OW32395   2.395   4.700   7.940 -0.2688  0.4416  0.2988
 6979SOL    HW132396   2.350   0.004   8.018 -0.1481 -1.2315  1.0141
 6979SOL    HW232397   2.428   4.615   7.971  0.8613  0.1660 -1.6453
 6980SOL     OW32398   4.310   2.705   7.653  0.6179 -0.4407 -0.1495
 6980SOL    HW132399   4.330   2.773   7.717  0.6003  2.4915 -3.2646
 6980SOL    HW232400   4.394   2.664   7.634  1.1351  0.5596 -0.0304
 6981SOL     OW32401   3.085   0.532   8.651  0.1903  0.0802 -0.0232
 6981SOL    HW132402   3.112   0.548   8.560 -0.1309 -0.5728 -0.2290
 6981SOL    HW232403   3.162   0.506   8.700  0.3274 -0.1938 -0.3860
 6982SOL     OW32404   4.337   3.746   2.453  0.3032  0.1878 -0.2084
 6982SOL    HW132405   4.395   3.819   2.474  1.2021 -0.7079  0.4782
 6982SOL    HW232406   4.367   3.675   2.511  0.5347 -0.7248 -1.4552
 6983SOL     OW32407   3.829   0.481  11.830  0.0800 -0.1687 -0.5365
 6983SOL    HW132408   3.893   0.552  11.840 -0.0943 -0.1260  0.2346
 6983SOL    HW232409   3.890   0.407  11.833 -0.0525 -0.2232  0.7740
 6984SOL     OW32410   0.566   2.094  12.476 -0.1854  0.1479 -0.0177
 6984SOL    HW132411   0.516   2.029  12.427 -0.6035  1.6260 -1.5823
 6984SOL    HW232412   0.600   2.150  12.406  1.2877 -1.6771 -0.7344
 6985SOL     OW32413   3.452   2.816   7.673 -0.4654 -0.3494 -0.5553
 6985SOL    HW132414   3.520   2.883   7.676 -0.6483 -0.1677 -0.3912
 6985SOL    HW232415   3.494   2.732   7.653  0.8893  0.3340 -0.5696
 6986SOL     OW32416   4.143   3.102   1.898 -0.0255  0.2272  0.4516
 6986SOL    HW132417   4.137   3.198   1.896  1.4986  0.2869 -1.0724
 6986SOL    HW232418   4.113   3.072   1.984 -2.4190 -1.7417 -1.0921
 6987SOL     OW32419   4.334   3.355   4.072  0.0232 -0.0640 -0.2814
 6987SOL    HW132420   4.270   3.353   4.001  2.8680 -2.8752 -2.7525
 6987SOL    HW232421   4.327   3.259   4.077  1.9956 -0.1552  0.9522
 6988SOL     OW32422   0.475   3.926   7.485 -0.2041  0.6724  0.1941
 6988SOL    HW132423   0.410   3.919   7.555 -0.1322  0.3575  0.2255
 6988SOL    HW232424   0.483   3.834   7.460 -0.6532 -0.0554  2.6546
 6989SOL     OW32425   2.089   1.958   4.470 -0.2848  0.2098 -0.1176
 6989SOL    HW132426   2.080   1.884   4.409 -0.7543 -0.0740  0.3016
 6989SOL    HW232427   2.041   2.027   4.424  0.6617  1.1039  0.2392
 6990SOL     OW32428   0.932   3.230  12.329 -0.2003 -0.5696  0.4255
 6990SOL    HW132429   0.920   3.152  12.276 -0.5396 -0.3117  0.1197
 6990SOL    HW232430   0.998   3.199  12.391  0.2788 -1.1469 -0.3749
 6991SOL     OW32431   4.140   2.661   0.919  0.0900  0.3846  0.1736
 6991SOL    HW132432   4.215   2.669   0.861  1.8869  0.3281  2.4925
 6991SOL    HW232433   4.182   2.638   1.002  3.0472  0.2989 -1.3509
 6992SOL     OW32434   2.534   0.987   3.573 -0.2693  0.4201 -0.7502
 6992SOL    HW132435   2.588   1.022   3.644  0.0673  1.3643 -1.4773
 6992SOL    HW232436   2.492   1.067   3.540 -2.1553 -0.2781 -0.0641
 6993SOL     OW32437   2.094   3.390  13.422 -0.3256  0.4303 -0.2830
 6993SOL    HW132438   2.029   3.407  13.353 -0.1368  2.5336  0.0501
 6993SOL    HW232439   2.058   3.310  13.460 -0.1799  0.5129  0.0239
 6994SOL     OW32440   3.099   1.543  14.422 -1.0959 -0.1204  0.1523
 6994SOL    HW132441   3.179   1.512  14.465 -1.2272 -2.0942 -0.9806
 6994SOL    HW232442   3.125   1.521  14.332  0.1150  1.3214  0.1407
 6995SOL     OW32443   1.860   0.615   1.837 -0.1505 -0.8739  0.1246
 6995SOL    HW132444   1.951   0.600   1.862  0.7345 -0.3845 -2.7998
 6995SOL    HW232445   1.840   0.532   1.795  2.0402 -0.5645 -1.5356
 6996SOL     OW32446   1.052   2.598   9.012  0.3489 -0.0950 -0.2713
 6996SOL    HW132447   1.072   2.532   9.078  1.2266 -1.0946 -1.5289
 6996SOL    HW232448   1.042   2.675   9.068 -2.5246 -0.9691  0.3658
 6997SOL     OW32449   1.973   4.141   6.432 -0.2728 -0.2115 -0.1205
 6997SOL    HW132450   1.910   4.213   6.434  1.5010  1.4171 -2.6917
 6997SOL    HW232451   1.957   4.105   6.345  0.6687  0.2421 -0.4867
 6998SOL     OW32452   1.084   2.956  11.780 -0.8077 -0.0248 -0.5077
 6998SOL    HW132453   1.175   2.985  11.785 -1.1527  0.7458  1.5442
 6998SOL    HW232454   1.086   2.892  11.709 -0.8460 -0.1602 -0.3862
 6999SOL     OW32455   2.236   2.687   4.687 -0.2365  0.2762  0.3789
 6999SOL    HW132456   2.156   2.688   4.635  1.9867 -1.6378 -3.1096
 6999SOL    HW232457   2.235   2.765   4.742  1.9431 -0.0212  0.8658
 7000SOL     OW32458   0.148   3.359  13.910 -0.5544 -0.0655 -0.2681
 7000SOL    HW132459   0.226   3.363  13.856  0.0642 -0.6127  0.5717
 7000SOL    HW232460   0.108   3.441  13.881  0.4993 -0.6462 -3.3806
 7001SOL     OW32461   1.075   4.643  16.413 -0.5632  0.1600  0.6438
 7001SOL    HW132462   0.987   4.638  16.451 -0.6614 -0.5119  0.3241
 7001SOL    HW232463   1.059   4.616  16.323 -0.6678 -0.7922  0.9496
 7002SOL     OW32464   1.866   1.618   3.841  0.6958  0.0528 -0.5230
 7002SOL    HW132465   1.902   1.638   3.927  2.0016 -0.1203 -1.0303
 7002SOL    HW232466   1.887   1.694   3.788 -1.5301  2.2902  1.8286
 7003SOL     OW32467   0.673   3.348   3.270  0.1449  0.2244  0.7501
 7003SOL    HW132468   0.682   3.260   3.305 -0.1015 -0.2315 -0.3151
 7003SOL    HW232469   0.600   3.333   3.210 -1.5049 -0.6369  2.9837
 7004SOL     OW32470   4.258   2.308   7.462  0.3332  0.3503  0.1461
 7004SOL    HW132471   4.270   2.260   7.380 -0.8712 -0.7332  0.5993
 7004SOL    HW232472   4.169   2.296   7.493  0.5746 -1.0746  0.2826
 7005SOL     OW32473   3.805   1.966   8.547  0.0843  0.1363  0.8910
 7005SOL    HW132474   3.881   1.927   8.590 -0.4751 -2.4273 -0.4647
 7005SOL    HW232475   3.761   2.003   8.625  1.1673  0.1884  1.4741
 7006SOL     OW32476   3.992   1.983   2.783 -0.1007 -0.7096  0.6322
 7006SOL    HW132477   3.951   1.936   2.856 -0.5759 -2.6163 -0.8521
 7006SOL    HW232478   3.930   2.055   2.771  0.8089 -0.1058 -0.4453
 7007SOL     OW32479   0.294   3.305   5.480  0.2330  0.1196  0.0420
 7007SOL    HW132480   0.290   3.282   5.387  0.5250 -0.1271  0.0890
 7007SOL    HW232481   0.237   3.240   5.522  0.0231 -0.3335 -0.9475
 7008SOL     OW32482   2.510   1.661  14.762 -0.4541  0.3122  0.2092
 7008SOL    HW132483   2.551   1.597  14.705 -2.4033 -1.0066  0.2730
 7008SOL    HW232484   2.477   1.721  14.695  1.0465 -0.7458 -1.4735
 7009SOL     OW32485   2.880   0.412   2.537 -0.4018  0.7882 -0.0572
 7009SOL    HW132486   2.850   0.323   2.522  1.3609  0.4257 -1.3760
 7009SOL    HW232487   2.974   0.395   2.534 -0.5654  0.0198 -0.9717
 7010SOL     OW32488   2.516   4.126  10.395 -0.2030 -0.0861  0.1970
 7010SOL    HW132489   2.480   4.162  10.475 -1.1243  0.2218 -0.3647
 7010SOL    HW232490   2.593   4.182  10.384 -0.3747  0.8706  3.8533
 7011SOL     OW32491   3.053   3.022   3.524 -0.0456 -0.0648  0.0278
 7011SOL    HW132492   2.988   3.093   3.523  0.3641  0.3153  0.0868
 7011SOL    HW232493   3.131   3.072   3.501  0.2021 -0.2473  0.4622
 7012SOL     OW32494   4.342   0.499   7.243  0.3603  0.0257 -0.1218
 7012SOL    HW132495   4.273   0.550   7.200  1.1519 -0.3231 -1.8153
 7012SOL    HW232496   4.404   0.561   7.280 -0.5612  1.2215 -0.5859
 7013SOL     OW32497   1.045   0.314   6.036 -0.5832 -0.5481  0.1728
 7013SOL    HW132498   1.037   0.334   6.130  0.6652 -1.8178  0.5546
 7013SOL    HW232499   1.132   0.273   6.043 -1.6048 -2.6867  0.4187
 7014SOL     OW32500   3.282   0.451   6.696  0.2273 -0.6576 -0.1222
 7014SOL    HW132501   3.344   0.378   6.699  0.3264 -0.5184  1.1277
 7014SOL    HW232502   3.196   0.411   6.687  0.7510 -1.1364 -2.8641
 7015SOL     OW32503   2.513   2.262   2.455 -0.0328  0.4915  0.1698
 7015SOL    HW132504   2.549   2.222   2.376 -2.3070 -1.4884  0.1348
 7015SOL    HW232505   2.532   2.196   2.522 -2.5779 -0.7796 -0.3635
 7016SOL     OW32506   0.551   2.433   5.703 -0.1464 -0.1350 -0.1313
 7016SOL    HW132507   0.456   2.428   5.696 -0.2980 -0.4234  2.1252
 7016SOL    HW232508   0.553   2.525   5.729 -1.7261 -0.6038  1.5720
 7017SOL     OW32509   3.148   3.158   2.633  0.1784 -0.1338  0.1681
 7017SOL    HW132510   3.164   3.096   2.562  3.4368 -0.4489  1.1898
 7017SOL    HW232511   3.209   3.122   2.697  0.7751 -1.6368 -1.2497
 7018SOL     OW32512   0.881   0.908  15.628  0.0998  0.3501  0.3062
 7018SOL    HW132513   0.862   0.952  15.545  1.8274 -2.4124 -1.5328
 7018SOL    HW232514   0.825   0.949  15.695 -0.0772 -0.6200  0.7511
 7019SOL     OW32515   4.296   0.230   6.727  0.2057  0.2613  0.7020
 7019SOL    HW132516   4.218   0.198   6.772 -0.1967 -1.7251 -1.3989
 7019SOL    HW232517   4.269   0.308   6.679 -0.1930 -0.1300  0.2902
 7020SOL     OW32518   3.390   2.972   4.184  0.1222  0.0304  0.1908
 7020SOL    HW132519   3.467   2.916   4.187 -0.6246 -0.9109  1.5105
 7020SOL    HW232520   3.345   2.954   4.102 -0.2657  0.1653  0.3726
 7021SOL     OW32521   1.388   3.110   3.345  0.1539 -0.0205 -0.1854
 7021SOL    HW132522   1.305   3.091   3.389  1.1993 -1.3929  1.2229
 7021SOL    HW232523   1.414   3.018   3.343 -1.1320 -0.3830 -0.2497
 7022SOL     OW32524   0.684   1.243   8.495  0.2471  0.4453  0.2730
 7022SOL    HW132525   0.780   1.252   8.494  0.3496 -0.3892  2.1841
 7022SOL    HW232526   0.659   1.205   8.411 -0.3081 -0.3962  0.8181
 7023SOL     OW32527   0.213   0.567  15.401 -0.0666 -0.3810 -0.3149
 7023SOL    HW132528   0.281   0.505  15.376  0.1580  0.0123 -0.6844
 7023SOL    HW232529   0.227   0.571  15.495  0.6187  1.0742 -0.4805
 7024SOL     OW32530   0.723   2.674   0.634 -0.2931  0.1410 -0.0350
 7024SOL    HW132531   0.676   2.639   0.558 -0.6046  0.8062 -0.1503
 7024SOL    HW232532   0.811   2.681   0.598  0.7789 -1.7610  2.2225
 7025SOL     OW32533   1.814   3.949   7.362  0.6322 -0.3036  0.0610
 7025SOL    HW132534   1.901   3.946   7.324  0.7286  0.3547  0.2363
 7025SOL    HW232535   1.825   3.944   7.457 -1.2543  0.7736  0.3267
 7026SOL     OW32536   1.093   0.670   9.554  0.1886  0.4872 -0.1688
 7026SOL    HW132537   1.027   0.620   9.506  0.5624  0.1430 -0.3240
 7026SOL    HW232538   1.168   0.662   9.496  0.9758  0.2433  0.8712
 7027SOL     OW32539   4.320   1.548   5.797  0.3338  0.1818  0.3484
 7027SOL    HW132540   4.397   1.567   5.850  1.0279  0.8686 -0.9091
 7027SOL    HW232541   4.274   1.491   5.859 -0.9927  0.5885 -0.2567
 7028SOL     OW32542   2.370   0.743   1.922  0.4497  0.3397  0.5938
 7028SOL    HW132543   2.288   0.788   1.904  1.3445  1.4001 -0.8398
 7028SOL    HW232544   2.368   0.659   1.877  2.5473 -0.2560  1.5808
 7029SOL     OW32545   2.765   2.444   0.223  0.0177  0.0171 -0.2959
 7029SOL    HW132546   2.750   2.355   0.188 -0.8019 -0.8207  2.1878
 7029SOL    HW232547   2.696   2.447   0.290  0.8758  2.7114  0.4441
 7030SOL     OW32548   0.648   3.486  10.514  0.4224 -0.2361 -0.0684
 7030SOL    HW132549   0.630   3.417  10.579  0.5893 -0.0612  0.1644
 7030SOL    HW232550   0.561   3.490  10.475  1.2315  0.5254 -1.7651
 7031SOL     OW32551   3.516   4.220   3.583 -0.2038 -0.1285 -0.1464
 7031SOL    HW132552   3.431   4.194   3.548  0.0788 -0.2486 -0.7451
 7031SOL    HW232553   3.575   4.212   3.508 -2.2514 -2.6150 -1.4910
 7032SOL     OW32554   2.923   3.540   0.268 -0.0787 -0.5042 -0.6858
 7032SOL    HW132555   3.008   3.584   0.271 -0.9664  1.0946  0.5561
 7032SOL    HW232556   2.937   3.469   0.331  0.3989 -0.7194 -1.0298
 7033SOL     OW32557   4.517   2.966   5.069 -0.1534  0.1038  0.0004
 7033SOL    HW132558   4.539   3.038   5.009 -0.0558 -0.9346 -1.2017
 7033SOL    HW232559   4.585   2.907   5.036  0.9409  1.6459 -0.4921
 7034SOL     OW32560   2.169   2.775  17.453  0.7457 -0.4785  0.4151
 7034SOL    HW132561   2.181   2.723  17.373 -2.5676  1.3184 -1.2453
 7034SOL    HW232562   2.081   2.761  17.486  1.0525 -0.2538  1.3369
 7035SOL     OW32563   1.577   2.892   7.532 -0.0411  0.0735 -0.4759
 7035SOL    HW132564   1.494   2.850   7.552 -0.2111  0.6846  0.0980
 7035SOL    HW232565   1.548   2.924   7.447  0.5504 -0.7437 -0.9897
 7036SOL     OW32566   1.577   2.664  16.525  0.4817  0.0173  0.3104
 7036SOL    HW132567   1.523   2.702  16.594 -1.1547  0.0647 -0.9967
 7036SOL    HW232568   1.520   2.629  16.457  2.2756 -0.9742 -0.7074
 7037SOL     OW32569   0.597   2.529   9.463  0.4274  0.3422  0.4849
 7037SOL    HW132570   0.604   2.466   9.535 -0.2116 -0.4083 -0.1027
 7037SOL    HW232571   0.561   2.473   9.394  1.7764 -2.2965  1.9263
 7038SOL     OW32572   3.524   1.045  11.769  0.1050  0.8181 -0.3459
 7038SOL    HW132573   3.450   1.104  11.782  0.0887  0.4101  1.4453
 7038SOL    HW232574   3.577   1.078  11.842  2.6448 -1.3592 -1.1895
 7039SOL     OW32575   0.522   3.314   4.107 -0.0006  0.1339  0.3417
 7039SOL    HW132576   0.525   3.408   4.092 -3.7606  0.1001 -0.3822
 7039SOL    HW232577   0.526   3.289   4.015 -3.3330 -0.3191  0.3470
 7040SOL     OW32578   4.245   1.153  15.959 -0.0844  0.0021 -0.5512
 7040SOL    HW132579   4.247   1.133  15.866 -0.7599  0.3975 -0.6578
 7040SOL    HW232580   4.326   1.202  15.966  0.0613  0.0617 -2.9487
 7041SOL     OW32581   2.844   0.793  16.018  0.6802  0.0970  0.0493
 7041SOL    HW132582   2.869   0.734  16.088  0.4310  0.4393  0.4289
 7041SOL    HW232583   2.755   0.810  16.047 -0.3811 -1.2505 -2.4455
 7042SOL     OW32584   1.412   3.308   1.029 -0.1117 -0.2320  0.1564
 7042SOL    HW132585   1.343   3.245   1.047 -0.0214 -1.1378 -2.6476
 7042SOL    HW232586   1.414   3.334   1.121  1.3582  0.9749 -0.2137
 7043SOL     OW32587   4.058   1.293  17.676  0.0750  0.2876 -0.2784
 7043SOL    HW132588   4.053   1.250   0.058 -1.2441 -1.3552 -1.1874
 7043SOL    HW232589   4.029   1.378   0.006  1.9479  1.0396 -0.5791
 7044SOL     OW32590   2.938   2.896   2.052  0.0426 -0.4805 -0.5203
 7044SOL    HW132591   2.932   2.801   2.041 -1.2924 -0.5833  1.0685
 7044SOL    HW232592   3.019   2.915   2.004 -1.3126  1.0097 -2.2400
 7045SOL     OW32593   2.764   0.379   4.805  0.4915 -0.4770  0.5405
 7045SOL    HW132594   2.780   0.285   4.796  3.7341  0.2069 -1.0438
 7045SOL    HW232595   2.845   0.412   4.843  0.3039  2.4804 -1.5633
 7046SOL     OW32596   1.776   2.463  16.691  0.3924  0.2365 -0.1870
 7046SOL    HW132597   1.823   2.413  16.624 -1.9590 -0.1847 -1.5224
 7046SOL    HW232598   1.717   2.398  16.727 -0.2430 -0.1940 -1.9786
 7047SOL     OW32599   2.279   1.433  14.579  0.1785  0.3162  0.1196
 7047SOL    HW132600   2.288   1.407  14.671  2.4287  2.2731  0.4419
 7047SOL    HW232601   2.352   1.376  14.555 -0.8256 -0.7523 -0.4271
 7048SOL     OW32602   0.015   2.816   1.925 -0.4409  0.5246  0.1362
 7048SOL    HW132603   4.719   2.852   2.010 -0.4886  0.4405  0.1605
 7048SOL    HW232604   0.051   2.893   1.881  0.6924  0.2698  0.6145
 7049SOL     OW32605   4.146   0.375  11.085  0.4449  0.5786  0.6542
 7049SOL    HW132606   4.090   0.377  11.163  0.2082 -0.0796  0.5025
 7049SOL    HW232607   4.121   0.287  11.058  1.2240 -0.0482  1.9762
 7050SOL     OW32608   3.776   1.848   7.477 -0.3577  0.1865  0.3806
 7050SOL    HW132609   3.827   1.837   7.557  1.5874  0.7439 -0.7733
 7050SOL    HW232610   3.844   1.829   7.413  1.0029  0.6531  1.6935
 7051SOL     OW32611   1.927   1.790   3.242 -0.2269 -0.1647  0.1774
 7051SOL    HW132612   1.988   1.823   3.176  0.0870  0.9122  1.0086
 7051SOL    HW232613   1.980   1.721   3.281 -1.6742 -1.4413 -0.1027
 7052SOL     OW32614   4.622   3.209   6.333 -0.3026  0.3025  0.1193
 7052SOL    HW132615   4.706   3.183   6.296 -0.3712 -3.0489  2.2791
 7052SOL    HW232616   4.572   3.235   6.256  1.7610  0.0499 -1.3077
 7053SOL     OW32617   2.333   4.291  15.667 -0.2728 -1.0458  0.2152
 7053SOL    HW132618   2.296   4.315  15.752 -2.0410  0.7883 -1.0887
 7053SOL    HW232619   2.420   4.262  15.693 -0.1674  0.0752  1.0989
 7054SOL     OW32620   2.571   2.483   1.073  0.0755  0.1762 -1.1201
 7054SOL    HW132621   2.531   2.527   0.998 -0.3959  3.1590  0.9259
 7054SOL    HW232622   2.505   2.491   1.142  1.7939  0.8773  0.4331
 7055SOL     OW32623   3.455   3.398  15.454  0.6340  0.9284 -0.8993
 7055SOL    HW132624   3.380   3.411  15.512 -0.4120 -0.0104 -2.0491
 7055SOL    HW232625   3.466   3.304  15.465 -0.2964  0.3976 -4.5070
 7056SOL     OW32626   2.541   1.857   3.410  0.1440  0.3608  0.0211
 7056SOL    HW132627   2.592   1.776   3.419  1.0903  1.1747  1.9868
 7056SOL    HW232628   2.489   1.835   3.333  0.5306  1.8568 -0.6713
 7057SOL     OW32629   3.106   1.942   6.973  0.0309  0.3477 -0.5049
 7057SOL    HW132630   3.186   1.983   7.008 -2.2966  2.4183  2.3193
 7057SOL    HW232631   3.087   2.006   6.905 -4.3671 -2.1978 -1.6345
 7058SOL     OW32632   2.807   2.540   5.107  0.3842  0.2584 -0.4021
 7058SOL    HW132633   2.737   2.508   5.164  1.7259  1.1768  1.7641
 7058SOL    HW232634   2.836   2.462   5.061 -2.5562 -1.4946  0.7881
 7059SOL     OW32635   1.721   3.010   2.281  0.3533  0.1811  0.3078
 7059SOL    HW132636   1.650   3.071   2.259  0.1610  0.4173  1.5577
 7059SOL    HW232637   1.795   3.069   2.288  0.1420  0.5201 -0.3482
 7060SOL     OW32638   2.894   0.841   3.205 -0.0351  0.0069 -0.1909
 7060SOL    HW132639   2.819   0.856   3.262 -0.5242 -0.5063 -0.7091
 7060SOL    HW232640   2.959   0.910   3.222 -0.7595  1.0809 -1.8358
 7061SOL     OW32641   1.400   2.439   3.257 -0.3745  0.1544 -0.3968
 7061SOL    HW132642   1.387   2.346   3.276  1.6255  0.4031  2.1974
 7061SOL    HW232643   1.394   2.474   3.346 -0.9094 -1.3237  0.1376
 7062SOL     OW32644   2.368   4.260  14.994  0.5685 -0.1670 -0.2017
 7062SOL    HW132645   2.405   4.293  14.912 -1.4223 -0.6181 -1.2641
 7062SOL    HW232646   2.432   4.288  15.059 -0.1137 -1.9241  1.2360
 7063SOL     OW32647   1.259   3.310   9.268  0.3618  0.5882 -0.3561
 7063SOL    HW132648   1.265   3.405   9.275  0.8076  0.5542 -0.2657
 7063SOL    HW232649   1.285   3.288   9.357 -0.6361  0.2840 -0.1430
 7064SOL     OW32650   4.593   2.964  10.313  0.0800 -0.3321 -0.0763
 7064SOL    HW132651   4.553   3.043  10.349 -1.4683 -2.1606  2.1985
 7064SOL    HW232652   4.649   2.934  10.385 -1.3532  0.1500  1.2223
 7065SOL     OW32653   0.442   4.195   7.763 -0.3196  0.3223 -0.3643
 7065SOL    HW132654   0.361   4.207   7.713 -0.7283  1.1591  0.5086
 7065SOL    HW232655   0.408   4.127   7.820 -2.9139  1.1464 -0.9195
 7066SOL     OW32656   2.453   2.529   8.821  0.0610 -1.0926  0.5244
 7066SOL    HW132657   2.444   2.509   8.914 -1.4146 -0.7199  0.4575
 7066SOL    HW232658   2.415   2.449   8.784  0.8915 -0.2705 -2.0712
 7067SOL     OW32659   3.838   2.398   3.299  0.3374  0.1348  0.3864
 7067SOL    HW132660   3.790   2.434   3.224  0.6604  0.6587  0.4367
 7067SOL    HW232661   3.844   2.308   3.267 -1.3597  0.4256 -0.7473
 7068SOL     OW32662   2.762   4.067   6.834 -0.4225 -1.0374  0.2548
 7068SOL    HW132663   2.780   4.122   6.910  2.0878 -0.0641 -1.0684
 7068SOL    HW232664   2.682   4.027   6.869 -0.7067 -1.3181 -0.7269
 7069SOL     OW32665   0.154   3.919   3.442  0.1481  0.3769  0.4695
 7069SOL    HW132666   0.169   3.924   3.536 -0.8267  2.0302  0.5490
 7069SOL    HW232667   0.060   3.936   3.437 -0.0973 -0.5467  2.2310
 7070SOL     OW32668   1.250   3.162  11.096 -0.5455 -0.0893 -0.0032
 7070SOL    HW132669   1.262   3.249  11.133 -2.1625  0.4267 -0.7034
 7070SOL    HW232670   1.285   3.103  11.162 -0.3638  0.2566  0.2075
 7071SOL     OW32671   2.295   1.944   6.268  0.0230 -0.5509 -0.2591
 7071SOL    HW132672   2.348   2.020   6.244 -1.9749  0.3065 -1.9673
 7071SOL    HW232673   2.290   1.945   6.363 -0.4209 -1.0991 -0.2728
 7072SOL     OW32674   1.787   3.302   7.937 -0.0904 -0.4385  0.2436
 7072SOL    HW132675   1.840   3.265   8.007  3.3735  2.4499 -0.8802
 7072SOL    HW232676   1.704   3.313   7.985  0.0939  0.5257  0.3490
 7073SOL     OW32677   4.602   2.290   2.584  0.3199  0.3604 -0.0858
 7073SOL    HW132678   4.688   2.328   2.603  1.0626 -0.7214 -1.1862
 7073SOL    HW232679   4.639   2.229   2.519  1.7048 -0.4951  1.5059
 7074SOL     OW32680   2.689   1.387   3.994 -0.7416 -0.1852 -0.5999
 7074SOL    HW132681   2.631   1.325   4.038 -2.2900  0.6841 -1.4167
 7074SOL    HW232682   2.765   1.391   4.052 -0.7235  3.0109 -0.8504
 7075SOL     OW32683   2.525   1.693   8.527  0.6573 -0.2939  0.3956
 7075SOL    HW132684   2.451   1.632   8.530  0.7507 -0.3452  1.4999
 7075SOL    HW232685   2.532   1.705   8.432  1.4422 -0.0072  0.4937
 7076SOL     OW32686   3.783   4.046  17.470 -0.5497  0.2570 -0.6376
 7076SOL    HW132687   3.827   4.069  17.552  1.7773  0.1225 -1.8652
 7076SOL    HW232688   3.816   3.956  17.473  1.2596  0.9376 -0.1719
 7077SOL     OW32689   0.490   0.999   7.340  0.7664  0.3043 -1.0441
 7077SOL    HW132690   0.467   1.064   7.407  1.8019  0.5528 -0.9278
 7077SOL    HW232691   0.585   1.012   7.337  1.5008 -4.7394 -0.1377
 7078SOL     OW32692   1.595   1.480  10.288  0.2915 -0.4126  0.1205
 7078SOL    HW132693   1.688   1.502  10.294 -0.2867  1.9838  0.2752
 7078SOL    HW232694   1.583   1.467  10.382  0.6082 -3.2499 -0.2380
 7079SOL     OW32695   3.256   0.467   1.200  0.4583  0.0104  0.7566
 7079SOL    HW132696   3.291   0.434   1.117 -1.0404  0.6609 -0.1281
 7079SOL    HW232697   3.312   0.423   1.265 -0.4324 -0.8175  0.9626
 7080SOL     OW32698   0.433   2.916   7.107  0.6456 -0.1559 -0.0953
 7080SOL    HW132699   0.443   2.832   7.061  2.0288  0.2959 -0.6375
 7080SOL    HW232700   0.438   2.885   7.198  0.0792  2.3365  0.7685
 7081SOL     OW32701   1.972   0.736  11.874 -0.1456  0.0037  0.2072
 7081SOL    HW132702   1.906   0.805  11.874  1.3111  1.3876 -1.3113
 7081SOL    HW232703   1.980   0.717  11.968  2.3765 -3.9132 -0.7842
 7082SOL     OW32704   2.157   0.116   6.798  0.0742 -0.5687 -0.1872
 7082SOL    HW132705   2.210   0.115   6.718  0.9926  1.4002  0.3827
 7082SOL    HW232706   2.184   0.200   6.837  1.8610 -1.1998 -0.0750
 7083SOL     OW32707   2.996   4.097   9.062  0.0094  0.1240  0.0034
 7083SOL    HW132708   2.944   4.028   9.021  1.6009 -0.9493 -0.2236
 7083SOL    HW232709   2.995   4.159   8.989  2.0061 -0.0722 -0.1931
 7084SOL     OW32710   1.626   4.510   7.445 -0.0930  0.0500 -0.2858
 7084SOL    HW132711   1.567   4.527   7.519  1.1998 -1.7766  1.1612
 7084SOL    HW232712   1.570   4.502   7.367 -1.1271  3.6042  0.0843
 7085SOL     OW32713   2.675   2.106   5.898  0.8646 -0.1281  0.5123
 7085SOL    HW132714   2.684   2.027   5.951 -0.4458 -2.0691 -2.1592
 7085SOL    HW232715   2.580   2.112   5.893  0.9134 -0.5716 -1.0587
 7086SOL     OW32716   4.358   1.609   5.467  0.5946 -0.8082  0.0003
 7086SOL    HW132717   4.343   1.701   5.490  1.0304 -1.0406  1.2437
 7086SOL    HW232718   4.339   1.564   5.549 -1.0401 -1.7515 -0.9089
 7087SOL     OW32719   0.530   1.940   4.740  0.1236 -0.0772 -0.0501
 7087SOL    HW132720   0.594   1.876   4.708 -1.4172 -1.9128  0.5407
 7087SOL    HW232721   0.513   1.923   4.832  1.4504 -0.4364  0.1263
 7088SOL     OW32722   4.108   2.526   7.884 -0.3719 -0.1368 -0.5973
 7088SOL    HW132723   4.094   2.614   7.918 -1.9055 -0.0409 -1.4911
 7088SOL    HW232724   4.075   2.481   7.961 -0.7048  0.6109 -0.3063
 7089SOL     OW32725   3.194   1.567   4.567  0.2114  0.9061  0.4792
 7089SOL    HW132726   3.184   1.634   4.499 -0.0933  0.2509 -0.1151
 7089SOL    HW232727   3.256   1.507   4.526  0.5025  0.4974  1.5114
 7090SOL     OW32728   0.214   1.183   5.053 -0.6128 -0.4719 -0.6539
 7090SOL    HW132729   0.200   1.089   5.062 -0.8485 -0.4510 -0.8098
 7090SOL    HW232730   0.224   1.189   4.958  2.5883  1.9219 -0.1640
 7091SOL     OW32731   2.286   2.908   1.746  0.1298  0.4790 -0.6481
 7091SOL    HW132732   2.238   2.825   1.743 -0.8688  0.9957  1.7996
 7091SOL    HW232733   2.333   2.901   1.829 -0.9032  0.0509 -0.1069
 7092SOL     OW32734   2.427   4.460   5.804 -0.0470 -0.1908 -0.0540
 7092SOL    HW132735   2.395   4.544   5.837  1.6082 -0.7286  2.9438
 7092SOL    HW232736   2.521   4.467   5.825 -0.4158  1.4977  1.0956
 7093SOL     OW32737   3.266   3.675  13.920 -0.0767  0.1446 -0.5211
 7093SOL    HW132738   3.217   3.609  13.968 -1.4588  1.0029 -0.7519
 7093SOL    HW232739   3.194   3.722  13.877  0.9923 -0.8149 -3.3689
 7094SOL     OW32740   0.513   3.490  17.009 -0.4127  0.3165 -0.2560
 7094SOL    HW132741   0.593   3.460  16.966  0.0604  0.8989  0.2256
 7094SOL    HW232742   0.516   3.457  17.099  1.2568  0.1134 -0.3900
 7095SOL     OW32743   2.781   4.570   1.866  0.0854 -0.2131  0.2353
 7095SOL    HW132744   2.835   4.494   1.889  1.3477  0.3700 -0.7823
 7095SOL    HW232745   2.756   4.553   1.776  0.7640  0.9247 -0.1769
 7096SOL     OW32746   1.695   3.381   8.372 -0.2084 -0.0171  0.0408
 7096SOL    HW132747   1.674   3.366   8.464  0.1575  1.8676  0.4343
 7096SOL    HW232748   1.654   3.467   8.362 -2.1961 -0.9040  0.5412
 7097SOL     OW32749   1.379   1.844  17.301 -0.1209 -0.2530 -0.0850
 7097SOL    HW132750   1.432   1.904  17.248 -0.0915 -0.9578 -0.8393
 7097SOL    HW232751   1.298   1.894  17.311  1.2442  1.8997  0.4628
 7098SOL     OW32752   1.377   0.207   6.531 -0.3236 -0.5199 -0.0966
 7098SOL    HW132753   1.391   0.139   6.597  0.0321 -0.5170 -0.1714
 7098SOL    HW232754   1.416   0.285   6.569 -0.8642  0.9868 -2.6277
 7099SOL     OW32755   3.692   3.904  16.389  0.8287 -0.2188 -0.0493
 7099SOL    HW132756   3.627   3.930  16.455  0.9902  1.4408 -0.5279
 7099SOL    HW232757   3.677   3.954  16.309 -2.2863 -1.7268 -0.4354
 7100SOL     OW32758   4.543   1.492   4.451 -0.7744 -0.1435  0.8052
 7100SOL    HW132759   4.535   1.405   4.491  1.9552 -0.7709 -0.0030
 7100SOL    HW232760   4.467   1.479   4.394  0.6533 -0.3171 -1.0909
 7101SOL     OW32761   0.878   2.256   9.390  0.4677  0.1914 -0.5060
 7101SOL    HW132762   0.964   2.293   9.410 -0.1382  0.8267  0.9350
 7101SOL    HW232763   0.879   2.229   9.298 -0.7573 -1.0379 -0.1630
 7102SOL     OW32764   3.706   0.225   9.948  0.9563 -0.4657  0.0430
 7102SOL    HW132765   3.639   0.223   9.880 -0.8401  0.7665  1.7829
 7102SOL    HW232766   3.706   0.316   9.976 -3.7726 -0.3286 -0.4267
 7103SOL     OW32767   3.997   4.318   4.684  0.4335 -0.4421 -0.0586
 7103SOL    HW132768   4.068   4.375   4.654 -0.7876  1.5348  0.7745
 7103SOL    HW232769   3.966   4.369   4.759  0.5220  0.7496 -0.8446
 7104SOL     OW32770   3.552   2.364   3.523  0.2018  0.2063  0.3227
 7104SOL    HW132771   3.563   2.284   3.471 -0.0153 -0.3368  1.1086
 7104SOL    HW232772   3.468   2.389   3.485 -0.0595 -2.5223 -0.8803
 7105SOL     OW32773   3.413   2.907   3.619 -0.3729  0.5194  0.9331
 7105SOL    HW132774   3.485   2.849   3.596 -0.0627  1.5048 -0.6002
 7105SOL    HW232775   3.349   2.850   3.661 -1.0775  0.8329  0.2967
 7106SOL     OW32776   4.226   1.973   2.039 -0.4210 -0.0658 -0.2521
 7106SOL    HW132777   4.199   1.969   1.947  0.0444  1.8457 -0.4781
 7106SOL    HW232778   4.302   1.915   2.035  0.7420  1.5626 -2.6658
 7107SOL     OW32779   1.713   3.885   8.649  0.3209 -0.0712  0.4084
 7107SOL    HW132780   1.719   3.819   8.580  0.6131  0.4258 -0.0378
 7107SOL    HW232781   1.620   3.909   8.638  0.3874 -0.4753 -1.0162
 7108SOL     OW32782   0.235   3.394   0.082  0.1233 -0.0151 -0.6177
 7108SOL    HW132783   0.196   3.436   0.159  2.1477  1.7916 -0.5728
 7108SOL    HW232784   0.169   3.332   0.053 -0.9714  1.0730 -0.4286
 7109SOL     OW32785   1.170   2.585  17.536 -0.0303  0.2670 -0.4159
 7109SOL    HW132786   1.113   2.520  17.577 -0.1727  0.8958  0.3627
 7109SOL    HW232787   1.255   2.541  17.540 -0.2027  0.0933  1.2095
 7110SOL     OW32788   0.128   0.038   4.915 -0.4088 -0.1953  0.2828
 7110SOL    HW132789   0.151   0.071   5.002 -1.9500  1.0027  0.2281
 7110SOL    HW232790   0.152   0.108   4.855  0.0791  1.1010  1.9697
 7111SOL     OW32791   3.443   3.009  11.020  0.1159 -0.1893 -0.3094
 7111SOL    HW132792   3.389   3.059  10.958 -0.1442 -2.2669 -1.7595
 7111SOL    HW232793   3.381   3.001  11.092  0.7415 -1.7974  0.0525
 7112SOL     OW32794   1.622   4.347   2.340 -0.0301 -0.0148 -0.8127
 7112SOL    HW132795   1.564   4.374   2.411  0.2176  0.0859 -0.6510
 7112SOL    HW232796   1.618   4.254   2.318 -0.3921 -0.3892  0.8334
 7113SOL     OW32797   0.589   1.453   6.364 -0.3751 -0.2788  0.2143
 7113SOL    HW132798   0.625   1.425   6.280  1.1380  0.5519  0.6010
 7113SOL    HW232799   0.664   1.484   6.413  0.1802  1.1001 -1.5044
 7114SOL     OW32800   0.370   4.078  11.639  0.1336  0.1094  0.3054
 7114SOL    HW132801   0.379   4.153  11.581  0.9640 -0.4786 -0.3331
 7114SOL    HW232802   0.456   4.069  11.681  0.1816  5.2593  1.2386
 7115SOL     OW32803   3.233   4.608   4.621 -0.2431  0.2856  0.0361
 7115SOL    HW132804   3.318   4.580   4.586 -1.6343 -1.4048 -2.0234
 7115SOL    HW232805   3.260   4.652   4.701 -1.3632  1.2770 -0.1443
 7116SOL     OW32806   3.177   4.249  13.596  0.3602  0.0158 -0.1984
 7116SOL    HW132807   3.262   4.208  13.584  0.2665 -0.3846  0.5144
 7116SOL    HW232808   3.162   4.288  13.510  0.5978 -0.4159 -0.4337
 7117SOL     OW32809   1.085   1.480  10.779  0.0747  0.4391 -0.0107
 7117SOL    HW132810   1.180   1.487  10.780  0.1206  0.1133 -1.4782
 7117SOL    HW232811   1.065   1.570  10.805  0.8873  0.1485  1.5985
 7118SOL     OW32812   1.980   1.790  14.517  0.3507 -0.5295 -0.0878
 7118SOL    HW132813   1.940   1.797  14.430  1.0482  0.1219 -0.3502
 7118SOL    HW232814   2.002   1.698  14.525  0.7841 -0.6033 -2.3099
 7119SOL     OW32815   1.222   2.024  12.203  0.0062 -0.2243 -0.0595
 7119SOL    HW132816   1.267   2.095  12.249 -0.8379  1.0926 -1.2509
 7119SOL    HW232817   1.150   1.997  12.259  0.1924 -0.6434 -0.0220
 7120SOL     OW32818   4.412   1.764   2.608 -0.4073  0.6872  0.2391
 7120SOL    HW132819   4.324   1.802   2.610  0.2094  2.0793  1.2539
 7120SOL    HW232820   4.448   1.840   2.562 -2.9051  1.8185  0.1061
 7121SOL     OW32821   3.859   2.478   1.328  0.3029 -0.2837  0.1575
 7121SOL    HW132822   3.795   2.490   1.258 -0.7404  2.5755  1.6087
 7121SOL    HW232823   3.910   2.559   1.318  0.0689 -0.3723 -1.9031
 7122SOL     OW32824   2.222   2.310   4.494 -0.4125 -0.4078 -0.0422
 7122SOL    HW132825   2.253   2.343   4.409 -0.8281  0.0442 -0.0167
 7122SOL    HW232826   2.245   2.384   4.550 -0.8627  0.3067 -0.7893
 7123SOL     OW32827   2.778   1.696   1.946  0.2123  0.3296  0.5092
 7123SOL    HW132828   2.833   1.675   1.871  0.3755 -0.9658  1.0010
 7123SOL    HW232829   2.824   1.651   2.016  0.3822 -0.7823 -0.3150
 7124SOL     OW32830   3.534   1.036   9.008 -0.4496 -0.3298 -0.8209
 7124SOL    HW132831   3.477   1.078   8.943  1.4838  2.8333 -0.4602
 7124SOL    HW232832   3.494   0.949   9.002  1.3536 -1.1138 -1.3345
 7125SOL     OW32833   2.786   4.639  16.733  0.5375  0.1222 -0.3383
 7125SOL    HW132834   2.734   4.710  16.772  0.3631  0.4468 -1.1688
 7125SOL    HW232835   2.755   4.579  16.800  1.9234 -0.0296  0.1655
 7126SOL     OW32836   1.224   2.527   2.103 -0.3137  0.3338  0.6428
 7126SOL    HW132837   1.130   2.514   2.116 -0.8833  1.3259 -2.5539
 7126SOL    HW232838   1.243   2.591   2.172  0.9660  0.6903 -0.0522
 7127SOL     OW32839   3.668   2.998   7.761  0.3880  0.1621  0.4632
 7127SOL    HW132840   3.661   2.982   7.855  0.0317 -0.6865  0.2849
 7127SOL    HW232841   3.646   3.091   7.757 -0.1010  0.0385  0.2130
 7128SOL     OW32842   1.390   2.487  10.542  0.5428  0.1973 -0.4649
 7128SOL    HW132843   1.386   2.564  10.484  2.2904 -1.1772 -2.4174
 7128SOL    HW232844   1.482   2.482  10.566  0.3724 -1.1475 -0.1061
 7129SOL     OW32845   0.002   2.857  14.577  0.2751 -0.7741 -0.3506
 7129SOL    HW132846   0.098   2.856  14.571  0.1658  0.5219 -2.2696
 7129SOL    HW232847   4.721   2.766  14.549  1.9182 -1.0465  0.1430
 7130SOL     OW32848   1.353   1.789  12.891  0.2591 -0.5923  0.4907
 7130SOL    HW132849   1.376   1.881  12.902  1.4408 -0.7069 -1.0662
 7130SOL    HW232850   1.400   1.765  12.811  1.9599  2.1188  0.6961
 7131SOL     OW32851   1.395   2.998   5.434 -0.0247 -0.3643 -0.0433
 7131SOL    HW132852   1.301   2.989   5.450  0.5913 -1.1407  3.2517
 7131SOL    HW232853   1.407   3.091   5.416  1.0249 -0.9872 -2.6529
 7132SOL     OW32854   2.338   1.490   2.701  0.1120 -0.0056 -0.1567
 7132SOL    HW132855   2.414   1.530   2.743 -0.7659  2.0550 -0.5320
 7132SOL    HW232856   2.273   1.537   2.753  1.5030  0.4967  1.1431
 7133SOL     OW32857   3.671   2.672   6.201 -0.0727  0.0867 -0.0908
 7133SOL    HW132858   3.695   2.751   6.153  0.0066 -1.6951 -3.0094
 7133SOL    HW232859   3.588   2.705   6.236  1.1312  0.6989  2.1858
 7134SOL     OW32860   1.180   0.730   9.133 -0.2024  0.0104 -0.1306
 7134SOL    HW132861   1.149   0.788   9.063  1.5037  1.1402  0.0620
 7134SOL    HW232862   1.261   0.697   9.095 -1.1077 -2.7952  0.3819
 7135SOL     OW32863   1.040   3.117   2.735 -0.1284 -0.2094  0.0568
 7135SOL    HW132864   0.980   3.048   2.764 -0.0419 -0.5879 -0.6597
 7135SOL    HW232865   1.086   3.068   2.667 -1.0837 -1.7567  0.5314
 7136SOL     OW32866   0.276   3.354   0.721  0.3158 -0.2681  0.0978
 7136SOL    HW132867   0.317   3.431   0.761  2.4411 -0.7307 -1.1706
 7136SOL    HW232868   0.269   3.376   0.628 -1.2978  1.8079  0.6988
 7137SOL     OW32869   0.010   0.185  12.474 -0.0823  0.2204 -0.2069
 7137SOL    HW132870   0.063   0.149  12.403  0.3648 -0.9783  0.7408
 7137SOL    HW232871   4.649   0.173  12.433  0.7343  1.5793 -2.3484
 7138SOL     OW32872   4.170   2.242   4.680  0.3075  0.3172  0.5577
 7138SOL    HW132873   4.159   2.337   4.680 -2.1684  0.0448  2.9780
 7138SOL    HW232874   4.135   2.229   4.768  0.2864 -1.6697  0.2636
 7139SOL     OW32875   4.110   2.722   6.153  0.4706 -0.1977 -0.0686
 7139SOL    HW132876   4.031   2.717   6.100 -0.0420 -0.8330  0.7490
 7139SOL    HW232877   4.178   2.720   6.086 -0.9230 -0.6663 -1.4631
 7140SOL     OW32878   2.316   0.591   2.632  0.4105  0.0295  0.0496
 7140SOL    HW132879   2.284   0.513   2.677  0.4075 -1.0168 -1.7610
 7140SOL    HW232880   2.269   0.585   2.549  1.9157 -0.7736 -0.7487
 7141SOL     OW32881   1.681   3.977   9.195 -0.1178 -0.1807  0.9481
 7141SOL    HW132882   1.681   3.924   9.275  1.6260  0.4752  1.3638
 7141SOL    HW232883   1.626   4.052   9.218  2.2708  1.7399  0.2655
 7142SOL     OW32884   0.873   4.511   6.728 -0.0607 -0.3644  0.7848
 7142SOL    HW132885   0.794   4.464   6.703 -0.1051  1.6677 -2.8353
 7142SOL    HW232886   0.944   4.450   6.749  1.0329  1.0832  1.3257
 7143SOL     OW32887   4.258   1.564   4.777 -0.7050  0.2182  0.1578
 7143SOL    HW132888   4.286   1.536   4.865 -1.3889  2.3036  1.0360
 7143SOL    HW232889   4.232   1.653   4.801  2.7717  1.1040  0.7823
 7144SOL     OW32890   3.810   1.107   7.328 -0.0111  0.2077 -0.0228
 7144SOL    HW132891   3.871   1.176   7.304 -0.0082  0.1323 -0.2273
 7144SOL    HW232892   3.828   1.120   7.421  1.5074 -0.5489 -0.2186
 7145SOL     OW32893   1.388   3.955   3.457 -0.2722  0.1342  0.2970
 7145SOL    HW132894   1.360   3.882   3.402  4.2567 -0.5678 -1.1402
 7145SOL    HW232895   1.409   3.909   3.539  2.5591  0.4482 -0.2259
 7146SOL     OW32896   1.793   1.074   7.453  0.3487 -0.0347 -0.4487
 7146SOL    HW132897   1.764   1.023   7.378  1.6666 -2.0424  0.4165
 7146SOL    HW232898   1.888   1.066   7.445  0.1766 -0.5022 -1.9282
 7147SOL     OW32899   0.241   0.576  17.120  0.0779  0.0158 -0.0626
 7147SOL    HW132900   0.207   0.512  17.057  3.1910 -0.2471 -1.4521
 7147SOL    HW232901   0.166   0.624  17.155 -1.6770 -2.2346 -0.7059
 7148SOL     OW32902   1.558   0.865   9.195 -0.1479 -0.1717  0.0051
 7148SOL    HW132903   1.647   0.832   9.188 -1.2514 -3.3398  0.7529
 7148SOL    HW232904   1.532   0.782   9.236  0.4926 -0.5878 -0.4241
 7149SOL     OW32905   3.402   2.499   4.422  0.3796 -0.2224  0.2886
 7149SOL    HW132906   3.356   2.425   4.461  0.5044 -0.6297 -0.3238
 7149SOL    HW232907   3.411   2.473   4.330 -1.1661 -0.1905  0.1375
 7150SOL     OW32908   0.740   1.922  13.837 -0.1533 -0.0957 -0.5898
 7150SOL    HW132909   0.778   1.986  13.777  0.3429  1.3213  1.2540
 7150SOL    HW232910   0.773   1.838  13.803 -0.7170  0.7857 -3.2855
 7151SOL     OW32911   1.611   4.181   4.893  0.0095 -0.0785 -0.1082
 7151SOL    HW132912   1.654   4.257   4.933 -1.4711  0.0468  1.2650
 7151SOL    HW232913   1.683   4.119   4.882  0.5985  0.7785 -1.1386
 7152SOL     OW32914   4.500   1.829   7.303 -0.0196 -0.1031 -0.0839
 7152SOL    HW132915   4.523   1.736   7.310  0.4115 -0.0534 -0.8263
 7152SOL    HW232916   4.574   1.878   7.269  0.5485 -0.1982  1.0282
 7153SOL     OW32917   1.807   0.953  15.202 -0.2141  0.6618  0.5094
 7153SOL    HW132918   1.824   0.985  15.114 -0.2026 -2.0036 -0.4734
 7153SOL    HW232919   1.761   0.871  15.182  0.8654  0.3638 -0.7631
 7154SOL     OW32920   1.860   3.218  12.637 -0.2023 -0.0251 -0.9830
 7154SOL    HW132921   1.781   3.208  12.584 -1.3779  1.9747  0.3734
 7154SOL    HW232922   1.822   3.258  12.716 -1.4356 -3.0283 -0.0584
 7155SOL     OW32923   0.735   3.873  11.724  0.2639 -0.2583 -0.2619
 7155SOL    HW132924   0.819   3.869  11.770  0.8980  2.2601 -1.1893
 7155SOL    HW232925   0.742   3.797  11.667  0.4760  0.6021 -1.3811
 7156SOL     OW32926   1.369   1.976  11.781  0.4394  0.6702  0.1424
 7156SOL    HW132927   1.425   2.011  11.851  0.0287 -0.8734  1.2562
 7156SOL    HW232928   1.347   1.892  11.822  2.0616 -0.2854 -0.9120
 7157SOL     OW32929   1.737   3.566   6.522 -0.2591 -0.6955 -0.9466
 7157SOL    HW132930   1.686   3.512   6.581 -1.4293  0.3992 -0.9458
 7157SOL    HW232931   1.823   3.535   6.551 -0.3598 -0.4100 -0.3497
 7158SOL     OW32932   2.450   3.665   6.762  0.3124  0.0886 -0.7281
 7158SOL    HW132933   2.538   3.673   6.798  0.6532 -1.0495 -1.2894
 7158SOL    HW232934   2.415   3.586   6.804 -1.0168  1.3868  0.5538
 7159SOL     OW32935   2.756   3.548   6.452 -0.0271 -0.3014 -0.1795
 7159SOL    HW132936   2.664   3.538   6.425 -0.2234  0.9563  0.0069
 7159SOL    HW232937   2.769   3.642   6.439 -2.5141  0.1580  0.7337
 7160SOL     OW32938   1.980   2.872   9.356 -0.1660 -0.4618 -0.1624
 7160SOL    HW132939   1.935   2.946   9.396 -0.2865 -1.3886  1.3790
 7160SOL    HW232940   1.990   2.909   9.268  1.3123 -0.4107  0.0300
 7161SOL     OW32941   2.264   1.276   1.983  0.0399 -1.0241 -0.2908
 7161SOL    HW132942   2.283   1.336   1.911  1.8472  0.2494  1.2687
 7161SOL    HW232943   2.193   1.324   2.025 -0.9115 -1.1169 -1.7723
 7162SOL     OW32944   2.620   0.158   9.504 -0.1784  0.3880  0.0586
 7162SOL    HW132945   2.639   0.200   9.588  2.2816  0.0762 -0.3608
 7162SOL    HW232946   2.611   0.231   9.443 -0.8245  0.2909  0.0318
 7163SOL     OW32947   3.569   2.672   3.955  0.1194  0.1560  0.3669
 7163SOL    HW132948   3.594   2.713   3.872  1.9368  0.4437  1.0734
 7163SOL    HW232949   3.531   2.594   3.914  1.8778 -0.9309  0.8252
 7164SOL     OW32950   1.186   3.491   2.511 -0.6681 -0.1331 -0.0987
 7164SOL    HW132951   1.123   3.420   2.497 -1.9287  0.3445  3.2728
 7164SOL    HW232952   1.259   3.429   2.508 -1.4213 -1.0302 -0.0850
 7165SOL     OW32953   2.548   2.919   5.369  0.0363 -0.3994  0.4766
 7165SOL    HW132954   2.545   2.930   5.274 -0.4942 -0.1667  0.5243
 7165SOL    HW232955   2.631   2.966   5.380  0.9113 -1.7636 -0.2149
 7166SOL     OW32956   3.640   2.339   5.053  0.2347 -0.1037 -0.2804
 7166SOL    HW132957   3.625   2.338   5.148 -3.3001  0.3158 -0.8589
 7166SOL    HW232958   3.703   2.267   5.050 -1.3655 -1.6289  2.3863
 7167SOL     OW32959   2.884   0.074   9.486 -0.3691  0.1020 -0.6138
 7167SOL    HW132960   2.903   4.710   9.457 -2.2691  0.0244 -1.6627
 7167SOL    HW232961   2.790   0.079   9.503 -0.2634  1.1438 -0.3465
 7168SOL     OW32962   3.720   3.230   7.412  0.6318 -0.1739 -0.0698
 7168SOL    HW132963   3.771   3.304   7.445  4.1138 -2.0324 -1.3746
 7168SOL    HW232964   3.648   3.224   7.476 -0.2035  2.1113 -0.8005
 7169SOL     OW32965   4.429   2.464   5.186 -0.2336 -0.0067 -0.2314
 7169SOL    HW132966   4.503   2.450   5.245 -2.2301 -1.1684  1.9568
 7169SOL    HW232967   4.375   2.505   5.253 -0.5228 -0.5144 -0.1602
 7170SOL     OW32968   3.980   1.872   7.654 -0.3792 -0.4525 -0.0514
 7170SOL    HW132969   3.973   1.964   7.679 -0.4911 -0.4240 -0.1846
 7170SOL    HW232970   3.931   1.852   7.733  1.1283 -0.4186  0.8826
 7171SOL     OW32971   0.165   1.125   7.637 -0.1500  0.5493 -0.8126
 7171SOL    HW132972   0.085   1.073   7.622 -2.5103  3.4494  1.8746
 7171SOL    HW232973   0.114   1.197   7.674 -1.1125 -0.0665 -0.9438
 7172SOL     OW32974   3.013   2.406   6.073  0.3535 -0.0539 -0.2948
 7172SOL    HW132975   2.920   2.410   6.047 -0.2893  0.2016  2.0690
 7172SOL    HW232976   3.031   2.499   6.088  0.1073 -0.3172  1.6634
 7173SOL     OW32977   0.391   0.422   8.164  0.0157  0.5381 -0.9135
 7173SOL    HW132978   0.391   0.327   8.153 -2.3329  0.5783 -1.2548
 7173SOL    HW232979   0.307   0.450   8.127 -1.1673  0.5642  1.7803
 7174SOL     OW32980   0.678   2.660   1.959 -0.1307 -0.1592  0.4299
 7174SOL    HW132981   0.628   2.661   1.877  0.3098  1.5776  0.1771
 7174SOL    HW232982   0.687   2.754   1.971  0.5128 -0.2742  0.8584
 7175SOL     OW32983   4.031   3.484  17.486  0.0249 -0.3782 -0.4490
 7175SOL    HW132984   4.029   3.539  17.564 -0.3212 -1.0353  0.0114
 7175SOL    HW232985   4.004   3.399  17.520 -1.3496  0.1782 -0.1648
 7176SOL     OW32986   0.997   0.536  14.469  0.0421 -0.9084 -0.1841
 7176SOL    HW132987   1.067   0.495  14.418 -0.0605 -1.3973  0.0610
 7176SOL    HW232988   1.019   0.628  14.454 -2.5392  0.0412  1.9075
 7177SOL     OW32989   1.960   3.087  14.369 -0.2035 -0.2833 -0.8301
 7177SOL    HW132990   2.021   3.083  14.295 -0.8353 -1.9212 -1.2483
 7177SOL    HW232991   1.885   3.141  14.344  0.7881  0.7539 -1.6067
 7178SOL     OW32992   2.844   4.542   5.386  0.6148 -0.1639  0.3423
 7178SOL    HW132993   2.912   4.608   5.402 -1.5290  1.4057  2.9348
 7178SOL    HW232994   2.811   4.559   5.298  2.1521  3.1538  0.3984
 7179SOL     OW32995   1.836   3.510  14.385 -0.0624  0.1342  0.3201
 7179SOL    HW132996   1.836   3.416  14.365  1.5644 -0.1786  1.7248
 7179SOL    HW232997   1.755   3.509  14.436 -0.8032  0.1534 -0.8670
 7180SOL     OW32998   0.687   2.815   3.733 -0.1676 -0.2605  0.1249
 7180SOL    HW132999   0.712   2.860   3.813 -1.1596  1.0702 -0.3061
 7180SOL    HW233000   0.598   2.848   3.718  0.2058  0.5953 -0.2197
 7181SOL     OW33001   2.121   4.325   7.031 -0.1243 -0.0807  0.0482
 7181SOL    HW133002   2.085   4.300   6.946 -0.4387 -0.1906  0.2145
 7181SOL    HW233003   2.087   4.414   7.040 -2.6479 -1.0158 -0.0012
 7182SOL     OW33004   4.022   2.823  17.341 -0.0997 -0.0416 -0.1511
 7182SOL    HW133005   4.088   2.857  17.401 -1.1669 -0.7563  1.4282
 7182SOL    HW233006   3.963   2.768  17.393  1.4400  1.1634  2.8680
 7183SOL     OW33007   1.732   4.426   8.300  0.0285 -0.0148 -0.0161
 7183SOL    HW133008   1.680   4.346   8.287  0.5312 -0.4664  0.7628
 7183SOL    HW233009   1.815   4.380   8.316  0.8173  0.7069 -1.9130
 7184SOL     OW33010   0.350   1.642   7.674  0.6602  0.4018 -0.4719
 7184SOL    HW133011   0.428   1.613   7.721 -0.4908 -2.9416 -0.6283
 7184SOL    HW233012   0.275   1.601   7.717  0.0114  1.2102 -0.8265
 7185SOL     OW33013   1.743   4.293   6.491  0.0579  0.6244  0.6307
 7185SOL    HW133014   1.734   4.221   6.553 -0.0633 -0.8606 -1.1245
 7185SOL    HW233015   1.744   4.364   6.555 -1.5111  0.8695  0.4017
 7186SOL     OW33016   4.504   0.403  16.252 -0.3224  0.3948 -0.5929
 7186SOL    HW133017   4.509   0.498  16.237  0.6941  0.3831 -0.3231
 7186SOL    HW233018   4.587   0.367  16.221  0.2978  0.5765  0.8995
 7187SOL     OW33019   3.278   3.272   2.369  0.2241  0.1264 -0.2478
 7187SOL    HW133020   3.346   3.339   2.377 -0.0077  0.0715  2.4455
 7187SOL    HW233021   3.297   3.214   2.443 -1.1419  0.6696  0.5361
 7188SOL     OW33022   3.225   2.421   2.792  0.6321 -0.2566 -0.4741
 7188SOL    HW133023   3.150   2.470   2.759  1.1797  0.4707 -0.6361
 7188SOL    HW233024   3.230   2.352   2.726 -1.8666 -1.3175  0.4490
 7189SOL     OW33025   3.964   0.487   6.266  0.1440 -0.6084 -0.4040
 7189SOL    HW133026   4.045   0.505   6.315 -0.3135  1.8805 -0.5373
 7189SOL    HW233027   3.955   0.392   6.267 -0.3004 -0.5635  0.8484
 7190SOL     OW33028   2.779   2.605   3.130  0.2420 -0.1954  0.6424
 7190SOL    HW133029   2.713   2.655   3.083  2.0348  0.6404 -0.9852
 7190SOL    HW233030   2.749   2.623   3.219  1.6441 -1.1842  1.3193
 7191SOL     OW33031   3.847   2.738   2.992 -0.3768  0.3613 -0.4527
 7191SOL    HW133032   3.845   2.760   2.899  0.3510 -0.6714 -0.7099
 7191SOL    HW233033   3.936   2.758   3.021  0.3049 -2.7559 -0.4614
 7192SOL     OW33034   0.478   4.473   5.414  0.4940 -0.6447 -0.3171
 7192SOL    HW133035   0.541   4.421   5.364  1.4128  0.8494 -0.6810
 7192SOL    HW233036   0.410   4.410   5.441 -0.0826  0.3805  0.5953
 7193SOL     OW33037   3.947   3.191   7.243  0.0783 -0.0050 -0.1782
 7193SOL    HW133038   3.882   3.155   7.182  0.7810  1.0002 -1.5137
 7193SOL    HW233039   3.892   3.192   7.321 -1.2933 -3.2777 -1.0621
 7194SOL     OW33040   1.103   1.010   5.206 -0.0993  0.0372  0.5433
 7194SOL    HW133041   1.090   1.027   5.112  0.6706 -1.4833  0.1532
 7194SOL    HW233042   1.047   0.936   5.228 -0.1482 -0.6151 -1.7858
 7195SOL     OW33043   3.602   0.790  15.036  0.4638 -0.2017  0.4767
 7195SOL    HW133044   3.599   0.695  15.049  0.1645 -0.5630 -2.1513
 7195SOL    HW233045   3.692   0.796  15.004  0.7282 -0.1669  1.2188
 7196SOL     OW33046   2.382   1.078   7.468  0.1329 -0.0526 -0.6286
 7196SOL    HW133047   2.307   1.018   7.468  0.7105 -0.7399  2.1474
 7196SOL    HW233048   2.338   1.144   7.521 -0.4050  0.4821 -1.7248
 7197SOL     OW33049   3.565   0.916   0.828 -0.3333 -0.7860 -0.0927
 7197SOL    HW133050   3.513   0.847   0.870 -0.2769 -0.2170  0.9074
 7197SOL    HW233051   3.515   0.928   0.747  0.0728  1.8011  0.0731
 7198SOL     OW33052   4.178   1.495   1.905  0.0902 -0.1328  0.1793
 7198SOL    HW133053   4.137   1.581   1.911 -2.2885 -1.2604  0.0865
 7198SOL    HW233054   4.258   1.522   1.950  0.3535 -1.0459  0.2514
 7199SOL     OW33055   4.485   4.555   8.488 -0.2397  0.2430 -0.7156
 7199SOL    HW133056   4.500   4.650   8.491  1.8026 -0.1731  2.4647
 7199SOL    HW233057   4.403   4.550   8.536 -1.4759 -2.0229 -3.0811
 7200SOL     OW33058   0.548   4.233   2.814 -0.0747 -0.0948  0.4974
 7200SOL    HW133059   0.591   4.293   2.874  2.0535 -0.3018 -0.8122
 7200SOL    HW233060   0.558   4.284   2.733  2.9350  0.3949  1.1888
 7201SOL     OW33061   3.813   2.263  11.876 -0.3920  0.1716 -0.5847
 7201SOL    HW133062   3.722   2.266  11.904 -0.4985 -1.2220 -0.7586
 7201SOL    HW233063   3.807   2.256  11.781 -1.9692 -1.2742 -0.3733
 7202SOL     OW33064   1.217   2.060   3.121 -0.8622 -0.3247  0.3325
 7202SOL    HW133065   1.138   2.112   3.108  0.5188  1.7044 -0.0385
 7202SOL    HW233066   1.266   2.118   3.179  1.2886 -1.4077 -0.3702
 7203SOL     OW33067   3.017   3.734  16.692  0.0414  0.3716 -0.2686
 7203SOL    HW133068   3.005   3.786  16.771 -0.3239  1.9798 -1.3758
 7203SOL    HW233069   3.063   3.657  16.724 -0.8141  0.1188  0.3507
 7204SOL     OW33070   4.211   1.753   7.574 -0.1379 -0.7904 -0.2814
 7204SOL    HW133071   4.140   1.812   7.549 -0.8874 -2.0868 -1.2415
 7204SOL    HW233072   4.188   1.707   7.654 -0.8387  1.5914  0.8803
 7205SOL     OW33073   0.155   3.584   5.161 -0.3233  0.1564 -0.3498
 7205SOL    HW133074   0.125   3.551   5.076 -0.1339 -1.6911  0.2895
 7205SOL    HW233075   0.210   3.509   5.186 -2.2661 -1.6304 -1.4317
 7206SOL     OW33076   1.864   1.062  17.689  0.2472 -0.1365  0.6199
 7206SOL    HW133077   1.881   0.968  17.681 -2.3024 -0.5295 -0.1165
 7206SOL    HW233078   1.825   1.068   0.072  0.1793 -1.3600  0.6763
 7207SOL     OW33079   1.411   4.059  16.666 -0.7656 -0.0892  0.2747
 7207SOL    HW133080   1.421   4.078  16.573 -3.5278  0.6637  0.1189
 7207SOL    HW233081   1.503   4.044  16.685 -1.4430 -3.4349  0.9435
 7208SOL     OW33082   0.375   0.498   3.213  0.8063 -0.4443 -0.3611
 7208SOL    HW133083   0.309   0.527   3.276  1.6460 -0.8560  0.7092
 7208SOL    HW233084   0.444   0.504   3.279 -0.4656  0.4452  0.8902
 7209SOL     OW33085   1.669   4.143   4.001  0.4713 -0.2471  0.3704
 7209SOL    HW133086   1.706   4.056   3.983  0.4942 -0.0953 -0.3275
 7209SOL    HW233087   1.606   4.165   3.933  0.6118 -1.7507 -0.2615
 7210SOL     OW33088   0.611   3.434  17.286  0.1992  0.5103  0.8738
 7210SOL    HW133089   0.641   3.387  17.364  2.5219  0.7790  0.1505
 7210SOL    HW233090   0.530   3.479  17.310 -1.1870 -1.6262  0.2382
 7211SOL     OW33091   0.763   3.534  14.362 -0.3039 -0.3014 -0.1734
 7211SOL    HW133092   0.720   3.545  14.447 -1.2551  0.9106 -0.8173
 7211SOL    HW233093   0.824   3.462  14.378  0.7033  0.2956 -1.2990
 7212SOL     OW33094   0.090   4.435   4.503  0.0015 -0.4315  0.1515
 7212SOL    HW133095   0.184   4.446   4.491  0.0286 -0.4955  0.3042
 7212SOL    HW233096   0.055   4.429   4.414  1.2780  0.1814 -0.3846
 7213SOL     OW33097   1.626   2.243  12.518 -0.2000 -0.2274 -0.0466
 7213SOL    HW133098   1.721   2.240  12.530 -0.4528 -3.2900  1.0717
 7213SOL    HW233099   1.623   2.287  12.433  3.0462  0.8555  0.4064
 7214SOL     OW33100   2.364   3.903   8.712  0.0770 -0.0829  0.0955
 7214SOL    HW133101   2.351   3.926   8.620 -0.1348 -2.6435 -0.4950
 7214SOL    HW233102   2.452   3.868   8.712  0.0091 -0.2508 -0.6845
 7215SOL     OW33103   3.812   4.528   6.173  0.8173 -0.0101 -0.3957
 7215SOL    HW133104   3.816   4.550   6.079  0.1970  1.8773  0.0142
 7215SOL    HW233105   3.891   4.566   6.209  0.7995  2.7611 -3.2618
 7216SOL     OW33106   4.429   0.512  14.737 -0.1489  0.0646  0.2374
 7216SOL    HW133107   4.410   0.602  14.710  1.8470  0.1203 -0.9940
 7216SOL    HW233108   4.492   0.484  14.669 -0.4588  0.9325 -0.4033
 7217SOL     OW33109   1.108   4.045  17.239  0.3091 -0.1811 -0.3522
 7217SOL    HW133110   1.051   4.110  17.280  2.6018  0.2933  2.0317
 7217SOL    HW233111   1.182   4.102  17.220  0.9283 -0.0397  2.4366
 7218SOL     OW33112   2.086   1.250  10.706 -0.1060 -0.6123  0.2709
 7218SOL    HW133113   2.070   1.279  10.796 -1.1011  1.6011 -0.6201
 7218SOL    HW233114   1.997   1.227  10.679 -0.3089  1.1249 -0.5421
 7219SOL     OW33115   1.132   3.676   7.371  0.1584 -0.2250 -0.2647
 7219SOL    HW133116   1.045   3.711   7.388  0.4406  0.6170 -0.5512
 7219SOL    HW233117   1.163   3.651   7.458 -1.7311 -1.4619  0.0590
 7220SOL     OW33118   1.062   2.126   7.197  0.3308  0.6673  0.0208
 7220SOL    HW133119   1.137   2.182   7.175 -0.0604  0.5674 -1.5143
 7220SOL    HW233120   1.037   2.091   7.112  2.6093  2.6351 -1.4557
 7221SOL     OW33121   2.492   2.342   6.149 -0.3065 -0.5677  0.3742
 7221SOL    HW133122   2.413   2.384   6.114  1.1282  0.4806 -1.5842
 7221SOL    HW233123   2.528   2.411   6.204 -4.2573  1.5448  0.2968
 7222SOL     OW33124   4.067   2.097   8.903 -0.1892  0.1383  0.2730
 7222SOL    HW133125   4.115   2.158   8.959  0.5039  1.4619 -1.7707
 7222SOL    HW233126   4.000   2.153   8.864  2.4779  3.3354  0.2773
 7223SOL     OW33127   0.847   0.694   4.591 -0.4958 -0.2414  0.3045
 7223SOL    HW133128   0.809   0.762   4.536 -0.3809 -0.1394  0.3505
 7223SOL    HW233129   0.940   0.715   4.584 -0.0668 -2.2789 -0.1624
 7224SOL     OW33130   1.335   2.184   3.361 -0.2001  0.0819  0.7068
 7224SOL    HW133131   1.261   2.173   3.421 -2.1133 -0.1389 -1.6965
 7224SOL    HW233132   1.396   2.122   3.401  0.7070  1.1359  0.9276
 7225SOL     OW33133   1.259   2.674   9.354  0.3827  0.3605 -0.4077
 7225SOL    HW133134   1.234   2.740   9.419  0.1068 -3.7499  3.6381
 7225SOL    HW233135   1.180   2.672   9.300  0.4651 -1.8591 -0.4473
 7226SOL     OW33136   2.816   1.486  14.732 -0.0181  0.2869  0.1039
 7226SOL    HW133137   2.901   1.446  14.716  0.2556  1.3900 -1.2208
 7226SOL    HW233138   2.838   1.562  14.787  1.1985  0.7279 -1.0057
 7227SOL     OW33139   0.667   2.927   4.236 -0.1291 -0.4224  0.1771
 7227SOL    HW133140   0.592   2.878   4.202 -0.4573 -0.9633  1.6428
 7227SOL    HW233141   0.703   2.862   4.297  0.6846  0.3844  0.5473
 7228SOL     OW33142   3.045   3.596   6.267  0.1147  0.2206 -0.2142
 7228SOL    HW133143   3.007   3.540   6.199  1.9097 -1.2597 -0.0371
 7228SOL    HW233144   3.060   3.530   6.336 -0.4408  0.0976 -0.2137
 7229SOL     OW33145   0.943   4.324  17.014 -0.8627  0.1554  0.3811
 7229SOL    HW133146   1.021   4.346  16.963 -1.3433  2.7345  0.7530
 7229SOL    HW233147   0.972   4.370  17.093 -0.6437  0.8688 -0.1184
 7230SOL     OW33148   0.801   0.490  10.549  0.5451  0.2447 -0.2146
 7230SOL    HW133149   0.859   0.476  10.473  3.6590 -1.7859  2.5616
 7230SOL    HW233150   0.724   0.444  10.515  0.9878  0.3606 -1.3942
 7231SOL     OW33151   3.463   3.768   0.629  0.4562  0.3973  0.5092
 7231SOL    HW133152   3.456   3.859   0.603 -1.0875  0.6200  1.6782
 7231SOL    HW233153   3.490   3.730   0.545 -0.7025  2.9945 -1.0351
 7232SOL     OW33154   3.571   0.522   8.944 -0.1503  0.1590 -0.1320
 7232SOL    HW133155   3.538   0.444   8.987 -0.2202  0.4110  0.2695
 7232SOL    HW233156   3.653   0.492   8.906  0.5802 -1.6494  2.8892
 7233SOL     OW33157   4.388   1.480   5.005 -0.9023 -0.1128 -0.4178
 7233SOL    HW133158   4.440   1.407   4.972 -1.2448 -0.0094 -1.1974
 7233SOL    HW233159   4.422   1.488   5.094 -1.6252 -0.7421 -0.0869
 7234SOL     OW33160   4.208   0.252   2.472  0.0541  0.3568  0.1720
 7234SOL    HW133161   4.156   0.266   2.393  1.8531  0.8003 -0.9423
 7234SOL    HW233162   4.245   0.166   2.452 -3.2408 -1.1334  0.4851
 7235SOL     OW33163   1.948   0.422  10.636 -0.5026  0.6618  0.9223
 7235SOL    HW133164   1.993   0.500  10.603 -0.1709 -0.4468 -1.2372
 7235SOL    HW233165   1.879   0.421  10.570  1.8413 -0.0782 -1.5733
 7236SOL     OW33166   1.770   4.264   7.487 -0.3115  0.6357 -0.0988
 7236SOL    HW133167   1.682   4.298   7.468 -0.3845 -0.2479 -1.3812
 7236SOL    HW233168   1.807   4.246   7.400 -0.0543  2.4471 -0.3721
 7237SOL     OW33169   0.491   0.593  15.825 -0.0872  0.3450 -0.2207
 7237SOL    HW133170   0.446   0.572  15.907 -0.0928  1.0247 -0.0529
 7237SOL    HW233171   0.520   0.505  15.803  0.9446  1.2499 -2.5134
 7238SOL     OW33172   2.051   0.092   2.093 -0.2365 -0.2450 -0.6771
 7238SOL    HW133173   2.056   0.091   1.998 -2.9299  3.6282 -0.8640
 7238SOL    HW233174   2.090   0.175   2.122 -2.7984  0.1846  1.5788
 7239SOL     OW33175   3.870   1.972  12.626  0.2549 -0.5536 -0.1551
 7239SOL    HW133176   3.799   2.032  12.603 -1.8711 -2.2484  1.9445
 7239SOL    HW233177   3.905   1.937  12.543 -1.8992 -0.8238 -0.9627
 7240SOL     OW33178   2.461   1.344   3.651 -0.0923 -0.8210  0.3670
 7240SOL    HW133179   2.552   1.368   3.672  0.6165 -2.0201 -1.3711
 7240SOL    HW233180   2.410   1.363   3.730  2.3863  0.5258  1.6489
 7241SOL     OW33181   2.991   1.342   8.951 -0.0196  0.7500  0.1714
 7241SOL    HW133182   3.042   1.421   8.972 -0.2900  1.2299 -0.9941
 7241SOL    HW233183   3.042   1.267   8.981 -0.6082  0.3185  0.0862
 7242SOL     OW33184   0.062   0.270   9.091  0.0982 -0.3346 -0.1275
 7242SOL    HW133185   4.709   0.321   9.111  0.9553  0.8895  0.1082
 7242SOL    HW233186   0.120   0.330   9.137 -0.0574  0.7714 -1.3826
 7243SOL     OW33187   0.849   1.462   0.581 -0.2718  0.1437 -0.7455
 7243SOL    HW133188   0.895   1.423   0.655  1.0828 -0.1066 -1.7233
 7243SOL    HW233189   0.848   1.384   0.526 -1.2138 -0.6304  0.3727
 7244SOL     OW33190   1.529   4.289  17.157 -0.4203 -0.0318  0.1365
 7244SOL    HW133191   1.614   4.314  17.122  0.6305 -3.0779  0.4584
 7244SOL    HW233192   1.512   4.222  17.089  0.0739 -1.4063  1.3669
 7245SOL     OW33193   0.379   2.598  17.048 -0.4696 -0.1239  0.1446
 7245SOL    HW133194   0.358   2.683  17.085  0.5245 -0.3756  1.2891
 7245SOL    HW233195   0.293   2.558  17.041 -1.2723  1.3005  2.0461
 7246SOL     OW33196   3.695   1.019   0.477  0.6515 -0.1549  0.4704
 7246SOL    HW133197   3.644   1.099   0.492  1.3617  0.5113 -0.6616
 7246SOL    HW233198   3.786   1.047   0.480  0.5024  0.5397 -1.4944
 7247SOL     OW33199   2.197   0.180   1.089 -0.0448 -0.5186  0.9037
 7247SOL    HW133200   2.135   0.251   1.109  0.7073  0.2628  0.4545
 7247SOL    HW233201   2.134   0.118   1.053 -0.0709 -0.1084  0.2395
 7248SOL     OW33202   4.679   4.536   0.199 -0.3786  0.2339 -0.0425
 7248SOL    HW133203   4.712   4.617   0.237  0.5254  0.0289 -0.4089
 7248SOL    HW233204   4.593   4.539   0.242 -1.2869  1.5336 -1.9289
 7249SOL     OW33205   4.594   0.963   6.495 -0.1003  0.3633  0.5190
 7249SOL    HW133206   4.672   0.927   6.452 -1.8964 -1.7200 -0.9868
 7249SOL    HW233207   4.525   0.950   6.431  0.1976  1.9654 -0.1204
 7250SOL     OW33208   2.850   4.396   2.543  0.1783 -0.0065  0.4977
 7250SOL    HW133209   2.799   4.353   2.612  1.3042 -0.9458  0.7388
 7250SOL    HW233210   2.937   4.366   2.569 -0.6787 -0.5958  2.6591
 7251SOL     OW33211   0.534   0.476   5.774  0.4634 -0.1906  0.0938
 7251SOL    HW133212   0.582   0.550   5.810  1.6822 -1.3213  0.7810
 7251SOL    HW233213   0.465   0.472   5.840 -0.4415 -3.4929 -1.0193
 7252SOL     OW33214   1.410   2.137   6.128  0.0952  0.4271  0.1808
 7252SOL    HW133215   1.398   2.166   6.038 -0.1024 -0.0824  0.0393
 7252SOL    HW233216   1.461   2.056   6.129 -0.8803 -0.2137 -1.4365
 7253SOL     OW33217   2.539   3.799  13.122  0.1758  0.2893  0.1943
 7253SOL    HW133218   2.603   3.733  13.095 -3.2607 -1.5943 -3.3578
 7253SOL    HW233219   2.522   3.839  13.037  0.7158 -1.2740 -0.6494
 7254SOL     OW33220   1.409   2.192   5.797 -0.5232  0.1069 -0.5726
 7254SOL    HW133221   1.500   2.185   5.770 -0.9028 -0.8825 -1.5896
 7254SOL    HW233222   1.361   2.117   5.763 -1.5775  0.2107  0.6973
 7255SOL     OW33223   2.267   2.389   9.882  0.0347  0.0563 -0.4843
 7255SOL    HW133224   2.230   2.475   9.862 -0.9596 -0.3018 -0.2039
 7255SOL    HW233225   2.278   2.398   9.976  3.3341 -0.4082 -0.8338
 7256SOL     OW33226   4.370   3.316   2.685 -0.3392 -0.6068  0.0132
 7256SOL    HW133227   4.403   3.236   2.726  2.1524 -0.4511 -1.7046
 7256SOL    HW233228   4.332   3.358   2.762 -0.9347 -0.0086 -0.6097
 7257SOL     OW33229   0.282   4.186   9.070  0.3472 -0.2625 -0.5386
 7257SOL    HW133230   0.246   4.161   8.985 -0.6592  0.5573 -0.3467
 7257SOL    HW233231   0.224   4.261   9.082 -0.7872 -1.1994 -0.1449
 7258SOL     OW33232   2.654   2.263   9.314  0.4207  0.0252 -0.2628
 7258SOL    HW133233   2.573   2.272   9.364  1.6524  0.5468  1.6321
 7258SOL    HW233234   2.720   2.220   9.368  1.6958 -0.0240 -1.8549
 7259SOL     OW33235   3.400   3.367   1.996 -0.1849  0.4064 -0.2180
 7259SOL    HW133236   3.411   3.314   1.917 -2.4708  0.0730 -0.3133
 7259SOL    HW233237   3.308   3.358   2.024  0.3581  0.0323  1.4481
 7260SOL     OW33238   1.767   0.127  13.963 -0.3028  0.4847  0.4803
 7260SOL    HW133239   1.779   0.219  13.987 -0.2114  0.1138  1.8640
 7260SOL    HW233240   1.846   0.111  13.910 -0.3232 -0.3936  0.7119
 7261SOL     OW33241   3.975   1.330   8.683 -0.4821 -0.1837  0.6126
 7261SOL    HW133242   4.044   1.346   8.748 -0.5236 -1.4692  0.9716
 7261SOL    HW233243   3.901   1.352   8.739  1.4808  0.1195  3.0756
 7262SOL     OW33244   4.460   1.609  17.602  0.3304 -0.0645  0.1914
 7262SOL    HW133245   4.469   1.521  17.565  1.6314 -0.3171  1.1008
 7262SOL    HW233246   4.546   1.634  17.635  0.9106 -0.3547 -1.1068
 7263SOL     OW33247   1.316   4.058   5.437 -0.0642  0.5085 -0.3038
 7263SOL    HW133248   1.279   4.140   5.405 -1.3407  0.8881  2.1446
 7263SOL    HW233249   1.241   4.018   5.481  0.5336  0.7717  0.9761
 7264SOL     OW33250   0.164   2.481   8.454 -0.2444  0.4618 -0.0289
 7264SOL    HW133251   0.085   2.534   8.466  1.3262  2.4698  1.6128
 7264SOL    HW233252   0.216   2.518   8.526  1.2812  0.7368 -1.2654
 7265SOL     OW33253   4.084   2.467  16.128 -0.8148 -0.6466 -0.0562
 7265SOL    HW133254   4.128   2.386  16.101  0.2841  0.3071 -1.1043
 7265SOL    HW233255   4.060   2.430  16.213  0.2127 -1.7363 -0.2253
 7266SOL     OW33256   2.907   3.335   9.620 -0.0089 -0.5478 -0.9015
 7266SOL    HW133257   2.820   3.361   9.651 -0.0545 -0.1198 -1.3893
 7266SOL    HW233258   2.949   3.301   9.699 -2.8886 -0.3628  0.7293
 7267SOL     OW33259   2.220   4.477   8.578  0.0054  0.0197 -0.2067
 7267SOL    HW133260   2.201   4.570   8.585  3.0797  0.4994  1.8481
 7267SOL    HW233261   2.268   4.461   8.659  0.5019 -1.3162 -0.7499
 7268SOL     OW33262   2.932   2.446   9.144  0.2820  0.0131 -0.3733
 7268SOL    HW133263   2.942   2.529   9.097 -0.3229  0.5653  0.4652
 7268SOL    HW233264   2.844   2.461   9.180  0.1656  1.9054 -1.4557
 7269SOL     OW33265   0.340   3.080   1.370  0.0123 -0.5120 -0.0746
 7269SOL    HW133266   0.347   3.155   1.428  0.9499 -0.6911  0.0573
 7269SOL    HW233267   0.296   3.012   1.421 -0.7747  0.5249  0.6122
 7270SOL     OW33268   0.556   2.129   2.430  0.3899 -0.2479 -0.1852
 7270SOL    HW133269   0.578   2.050   2.479  2.7924  1.2560  1.1690
 7270SOL    HW233270   0.535   2.092   2.345  0.2082 -1.1728  0.2580
 7271SOL     OW33271   1.745   3.336   3.558 -0.3686  0.0769 -0.5779
 7271SOL    HW133272   1.724   3.353   3.650  1.6746  3.7784 -0.8007
 7271SOL    HW233273   1.725   3.243   3.552  0.5718 -0.1803  0.4378
 7272SOL     OW33274   0.823   1.653  14.119 -0.3886 -0.4538 -0.0340
 7272SOL    HW133275   0.767   1.730  14.112  3.8721  2.6487  0.2026
 7272SOL    HW233276   0.900   1.710  14.119  0.2929 -1.3930  2.0039
 7273SOL     OW33277   2.649   1.348   2.482  0.1953  0.0221 -0.3235
 7273SOL    HW133278   2.627   1.284   2.415 -1.5017 -0.4965  0.7208
 7273SOL    HW233279   2.566   1.353   2.531  0.2355 -1.0960 -0.1570
 7274SOL     OW33280   4.014   1.811   4.566  0.6220  0.0583 -0.0270
 7274SOL    HW133281   4.006   1.763   4.483  0.6568 -0.6332  0.3687
 7274SOL    HW233282   4.025   1.895   4.521  0.1529  1.8649  3.2663
 7275SOL     OW33283   4.164   3.719   2.044 -0.4087  0.7708  0.0479
 7275SOL    HW133284   4.116   3.786   2.094  1.1598  1.0542  1.1692
 7275SOL    HW233285   4.207   3.780   1.984 -0.1895  0.9175  0.3562
 7276SOL     OW33286   4.677   3.913   1.425  0.0205  0.2499 -0.0435
 7276SOL    HW133287   4.650   3.937   1.514  0.8309  1.6074 -0.1561
 7276SOL    HW233288   4.612   3.939   1.360  1.0788 -0.7883 -1.4930
 7277SOL     OW33289   0.623   4.605   0.246  0.6129 -0.0863  0.7175
 7277SOL    HW133290   0.547   4.581   0.300 -0.2237  0.4124 -0.2313
 7277SOL    HW233291   0.694   4.575   0.302  2.2490  1.4997 -0.5356
 7278SOL     OW33292   3.305   0.274   3.884 -0.0143 -0.0752  0.6071
 7278SOL    HW133293   3.267   0.218   3.951 -0.3018 -0.5445  0.0548
 7278SOL    HW233294   3.384   0.303   3.928 -1.8196  1.8309  2.5983
 7279SOL     OW33295   1.891   0.381   5.731 -0.4262  0.3469 -0.1522
 7279SOL    HW133296   1.800   0.388   5.703 -1.2494 -1.7156  1.9278
 7279SOL    HW233297   1.911   0.291   5.702 -1.2854  0.5612 -1.4109
 7280SOL     OW33298   3.936   0.297  15.167 -0.3201 -0.1411  0.1066
 7280SOL    HW133299   3.991   0.220  15.182 -0.1257 -0.5067 -2.5587
 7280SOL    HW233300   3.940   0.340  15.252  0.7929  0.2192 -0.1283
 7281SOL     OW33301   1.394   1.139  16.641 -0.3570  0.4464 -0.4318
 7281SOL    HW133302   1.367   1.070  16.702  0.0940  0.6242 -0.0313
 7281SOL    HW233303   1.401   1.218  16.695  0.3880  0.8438 -1.1138
 7282SOL     OW33304   1.126   4.273  11.038  0.1211  0.2384  0.4414
 7282SOL    HW133305   1.051   4.219  11.017  0.5866  0.2314 -1.2255
 7282SOL    HW233306   1.107   4.320  11.119 -0.9210  1.3157 -0.4235
 7283SOL     OW33307   0.202   4.096   3.127  0.7099 -0.4002 -0.0463
 7283SOL    HW133308   0.223   4.007   3.154  2.0779  0.6743  2.4103
 7283SOL    HW233309   0.198   4.087   3.032  1.8544  1.1773 -0.2553
 7284SOL     OW33310   0.630   3.549   6.035  0.2205  0.0608  0.4761
 7284SOL    HW133311   0.684   3.559   6.113  2.2818  2.6200 -1.2871
 7284SOL    HW233312   0.699   3.514   5.979  0.1309 -1.3978  1.2636
 7285SOL     OW33313   0.525   4.545  10.980 -0.1529  0.7581 -0.5968
 7285SOL    HW133314   0.447   4.593  10.951 -0.3257  0.7775 -0.1047
 7285SOL    HW233315   0.594   4.608  10.960  0.8706  0.7030  2.7515
 7286SOL     OW33316   3.162   2.474   5.680 -0.3385 -0.3665  0.6025
 7286SOL    HW133317   3.199   2.454   5.765 -1.2929 -0.8493  0.9072
 7286SOL    HW233318   3.138   2.566   5.696 -2.4424 -0.5424 -1.3928
 7287SOL     OW33319   1.387   0.960  16.186  0.4099  0.7513 -0.2101
 7287SOL    HW133320   1.412   0.909  16.263 -1.3871  0.8373  0.4360
 7287SOL    HW233321   1.296   0.933  16.172  0.6592  0.0957 -0.5406
 7288SOL     OW33322   4.488   1.906   0.359  0.6538 -0.3547 -0.1001
 7288SOL    HW133323   4.458   1.815   0.351  1.9648 -0.7723 -0.2932
 7288SOL    HW233324   4.410   1.950   0.392  1.4439  0.7338  0.3267
 7289SOL     OW33325   0.988   3.379  15.412 -0.1978 -0.0499 -0.4158
 7289SOL    HW133326   0.969   3.285  15.401 -3.1103  0.2560  2.0432
 7289SOL    HW233327   0.974   3.385  15.507 -0.0840  1.2437 -0.4790
 7290SOL     OW33328   0.978   0.350  14.003 -0.5595  0.3383  0.7409
 7290SOL    HW133329   0.973   0.445  14.008 -1.2599  0.2455  1.7684
 7290SOL    HW233330   1.071   0.338  14.021 -0.7345 -2.2320 -0.0485
 7291SOL     OW33331   4.374   0.880   4.845  0.0293 -0.0514  0.7043
 7291SOL    HW133332   4.306   0.860   4.909  0.0904 -3.1573 -0.1768
 7291SOL    HW233333   4.375   0.804   4.786  1.3245  0.1619  0.4426
 7292SOL     OW33334   0.507   0.431   4.313  0.8421 -0.3536 -0.8990
 7292SOL    HW133335   0.467   0.501   4.262  0.9039 -0.2992 -0.8728
 7292SOL    HW233336   0.592   0.468   4.336  0.8672 -2.5190  2.5353
 7293SOL     OW33337   3.083   0.363   2.356 -0.8618 -0.3311  0.2230
 7293SOL    HW133338   3.085   0.309   2.277  2.5134  1.3535 -0.8064
 7293SOL    HW233339   3.176   0.378   2.371 -1.5847  1.9642  2.4731
 7294SOL     OW33340   1.086   2.833   5.302  0.5096  0.6276  0.6770
 7294SOL    HW133341   1.097   2.808   5.394  0.0150 -2.3212 -0.1026
 7294SOL    HW233342   1.010   2.891   5.307 -0.5121 -0.6939  0.1154
 7295SOL     OW33343   4.225   1.987  12.152 -0.3354 -0.2244  0.0862
 7295SOL    HW133344   4.202   2.004  12.061 -0.4748 -1.6718 -0.1616
 7295SOL    HW233345   4.185   2.067  12.186 -0.4998  0.0102 -0.6755
 7296SOL     OW33346   0.383   4.721  11.584 -0.3452  0.3707 -0.3060
 7296SOL    HW133347   0.471   4.709  11.547 -1.5031 -0.4455 -2.8017
 7296SOL    HW233348   0.371   4.629  11.610  1.4552  0.0168 -0.7358
 7297SOL     OW33349   0.205   4.279  16.664  0.3429 -0.0027  0.5472
 7297SOL    HW133350   0.295   4.251  16.682  0.4340  0.2705  0.5187
 7297SOL    HW233351   0.175   4.188  16.670 -1.8421  0.7471  1.1110
 7298SOL     OW33352   1.230   3.894   2.544  0.3502  0.6309  0.1719
 7298SOL    HW133353   1.184   3.899   2.627  2.4648 -0.3813  1.4040
 7298SOL    HW233354   1.318   3.871   2.572 -0.4445  1.1246  3.0761
 7299SOL     OW33355   3.093   0.173   7.305  0.6349  0.2971  0.5975
 7299SOL    HW133356   3.073   0.200   7.215 -0.3805 -0.4428  0.6003
 7299SOL    HW233357   3.033   0.227   7.356  0.4951  2.6655 -2.0354
 7300SOL     OW33358   1.885   4.685   5.015  0.2202 -0.4374 -0.3202
 7300SOL    HW133359   1.804   4.638   4.993 -1.7792  1.3021  3.4696
 7300SOL    HW233360   1.869   0.035   4.959  0.0981 -0.5880 -0.4904
 7301SOL     OW33361   1.752   2.961  17.675  0.3826 -0.5829  0.3473
 7301SOL    HW133362   1.842   2.989  17.691  0.6407 -1.0605 -0.2467
 7301SOL    HW233363   1.766   2.887  17.616 -0.7797  1.2111 -2.1812
 7302SOL     OW33364   1.028   1.545   8.330 -0.5476 -0.1430 -0.2579
 7302SOL    HW133365   1.044   1.500   8.248  0.2768 -0.1643 -0.0822
 7302SOL    HW233366   1.013   1.637   8.307 -0.3302  0.3954  1.7206
 7303SOL     OW33367   2.903   1.947   6.333  0.2974  0.1426 -0.1565
 7303SOL    HW133368   2.920   1.895   6.412 -1.1516 -1.7021 -1.0389
 7303SOL    HW233369   2.902   2.040   6.352  1.8787 -0.3460  2.3681
 7304SOL     OW33370   3.908   2.925  10.138  0.1158 -0.0420 -0.4379
 7304SOL    HW133371   3.986   2.939  10.191 -0.4219  2.4044 -0.2769
 7304SOL    HW233372   3.894   2.834  10.162 -1.5424  0.2330 -0.3600
 7305SOL     OW33373   0.871   3.251  17.227  0.1479  0.0191  0.4330
 7305SOL    HW133374   0.821   3.169  17.226  0.3836 -0.0825 -1.6489
 7305SOL    HW233375   0.813   3.303  17.283 -0.3860 -1.3840  1.1706
 7306SOL     OW33376   4.622   1.156   8.890 -0.3895 -0.5331 -0.3241
 7306SOL    HW133377   4.533   1.159   8.856 -0.7604  0.0812  0.7011
 7306SOL    HW233378   4.632   1.249   8.907  1.6555 -0.5704 -1.2903
 7307SOL     OW33379   2.352   1.626  17.646 -0.3870 -0.1394  0.3287
 7307SOL    HW133380   2.286   1.559  17.627 -2.6144  1.9994  0.5037
 7307SOL    HW233381   2.405   1.582   0.008  2.6952  0.2196 -1.9239
 7308SOL     OW33382   2.045   4.175   4.406  0.5916  0.4247  0.0046
 7308SOL    HW133383   2.055   4.269   4.390 -0.9292  0.3814 -1.2736
 7308SOL    HW233384   2.053   4.179   4.501 -1.7781 -0.2969  0.2302
 7309SOL     OW33385   3.241   3.941  12.837 -0.3493  0.0067 -0.3574
 7309SOL    HW133386   3.327   3.900  12.826 -0.5687 -1.1077  2.0816
 7309SOL    HW233387   3.253   4.024  12.791  1.7910  0.0949  0.3757
 7310SOL     OW33388   0.178   2.614  17.542 -0.3340  0.8411 -0.1133
 7310SOL    HW133389   0.250   2.671  17.513  0.1740 -0.8335 -2.0849
 7310SOL    HW233390   0.111   2.682  17.538 -1.0463  0.2802  2.3345
 7311SOL     OW33391   2.849   0.651   8.926 -0.4139 -0.0666  0.3189
 7311SOL    HW133392   2.926   0.627   8.874  0.8606  0.9967  1.7230
 7311SOL    HW233393   2.889   0.669   9.011 -1.0436  0.6428  0.4581
 7312SOL     OW33394   0.053   2.158   6.729  0.0178  0.3604 -0.2537
 7312SOL    HW133395   4.709   2.212   6.690 -0.2071  1.5026  1.7588
 7312SOL    HW233396   0.041   2.195   6.816  1.6805  1.6427 -0.5528
 7313SOL     OW33397   4.034   3.505  11.761  0.6237  0.6756 -0.1665
 7313SOL    HW133398   4.098   3.433  11.761  0.2577  0.3472 -1.2573
 7313SOL    HW233399   3.958   3.450  11.781  0.8300 -0.2372 -1.9063
 7314SOL     OW33400   1.844   2.354   2.931  0.3462 -0.1160 -0.0899
 7314SOL    HW133401   1.891   2.275   2.955  1.6870 -0.7294 -4.6700
 7314SOL    HW233402   1.779   2.363   3.000 -0.4378 -0.1083 -0.8233
 7315SOL     OW33403   0.281   1.384   8.872  0.4618  0.8829 -0.2141
 7315SOL    HW133404   0.196   1.400   8.912  0.1721 -1.9497  0.2629
 7315SOL    HW233405   0.263   1.296   8.842 -0.0662  1.5758 -1.9085
 7316SOL     OW33406   1.695   2.286   0.357 -0.3539  0.2662 -0.0700
 7316SOL    HW133407   1.712   2.194   0.373  1.7810  0.4079 -1.4299
 7316SOL    HW233408   1.695   2.310   0.450 -0.3529  0.2809 -0.0738
 7317SOL     OW33409   1.592   2.905   1.953  0.2086  0.0129 -0.3986
 7317SOL    HW133410   1.593   3.000   1.964 -2.9535  0.1859 -1.5924
 7317SOL    HW233411   1.615   2.883   2.044 -1.0729  2.1915  0.4399
 7318SOL     OW33412   4.295   0.827  15.717 -0.0112  0.5994  0.3143
 7318SOL    HW133413   4.257   0.909  15.684 -0.0871  0.7289  0.7293
 7318SOL    HW233414   4.387   0.841  15.737  0.3343 -3.7492  1.7603
 7319SOL     OW33415   4.082   0.432  14.339  0.1437 -0.1950  0.4310
 7319SOL    HW133416   4.147   0.375  14.380 -1.8515 -1.5990  1.6137
 7319SOL    HW233417   4.102   0.512  14.388 -0.1008 -2.7005  4.6277
 7320SOL     OW33418   1.124   3.195  17.103  0.1596  0.1536 -1.0550
 7320SOL    HW133419   1.081   3.207  17.187  0.1686 -1.3992 -0.8435
 7320SOL    HW233420   1.051   3.151  17.060  0.7453 -0.2307 -1.6601
 7321SOL     OW33421   1.268   4.627   9.050  0.1947  0.1266  0.1481
 7321SOL    HW133422   1.330   4.632   9.123 -0.6433  0.3255  0.8524
 7321SOL    HW233423   1.253   4.533   9.036 -0.8474  0.0576  1.6020
 7322SOL     OW33424   3.100   3.678  10.195 -0.2855  0.5026  0.1093
 7322SOL    HW133425   3.045   3.602  10.177 -0.4797  0.8609 -0.8386
 7322SOL    HW233426   3.188   3.641  10.193 -0.9730 -1.0888 -1.0223
 7323SOL     OW33427   3.642   3.797   7.921 -0.1837  0.4801 -0.8597
 7323SOL    HW133428   3.605   3.721   7.967 -0.2719  0.9322 -0.1833
 7323SOL    HW233429   3.653   3.766   7.831  1.7000 -1.6991  0.1212
 7324SOL     OW33430   1.671   1.713  12.371 -0.0241  0.0970 -1.0918
 7324SOL    HW133431   1.761   1.689  12.392 -1.4352 -1.7741  2.7867
 7324SOL    HW233432   1.659   1.791  12.425 -0.2986 -1.7318  1.4505
 7325SOL     OW33433   0.525   0.785   3.442  0.2174 -0.4401 -0.3168
 7325SOL    HW133434   0.596   0.847   3.424  0.7322 -1.0226 -0.2756
 7325SOL    HW233435   0.445   0.831   3.466  0.3262 -0.9071  0.9364
 7326SOL     OW33436   2.237   3.340  11.490  0.1311  0.7142  0.3101
 7326SOL    HW133437   2.176   3.401  11.449 -0.1629 -0.2611 -0.6735
 7326SOL    HW233438   2.303   3.401  11.523  0.4212  0.4723  0.1802
 7327SOL     OW33439   4.660   3.600  15.410  0.1159 -0.5711  0.1957
 7327SOL    HW133440   4.579   3.637  15.445 -0.2366 -0.4092 -0.7816
 7327SOL    HW233441   4.674   3.515  15.452 -1.8040 -0.4126  1.1648
 7328SOL     OW33442   3.837   0.461   5.190 -0.6317  0.6648 -0.0572
 7328SOL    HW133443   3.777   0.487   5.260 -1.4748 -1.5895  0.0520
 7328SOL    HW233444   3.912   0.454   5.248 -0.9549  2.3777  0.5857
 7329SOL     OW33445   2.572   2.882   4.757  0.0666 -0.1427  0.3307
 7329SOL    HW133446   2.545   2.972   4.771  2.1095  0.3367  1.2285
 7329SOL    HW233447   2.491   2.834   4.742  1.6482 -1.6487 -3.2542
 7330SOL     OW33448   2.844   1.099   0.899 -0.6215  0.3989  0.0620
 7330SOL    HW133449   2.765   1.148   0.922 -0.8963 -0.6786  1.3838
 7330SOL    HW233450   2.869   1.065   0.985 -0.5829  0.8506  0.2304
 7331SOL     OW33451   0.788   2.794  11.608  0.0861  0.2922 -0.7115
 7331SOL    HW133452   0.715   2.811  11.668  0.9051  1.9185 -0.1708
 7331SOL    HW233453   0.859   2.761  11.662 -0.5860  1.2102  0.7354
 7332SOL     OW33454   4.198   2.758  15.846 -0.0109  0.1466 -0.5546
 7332SOL    HW133455   4.198   2.780  15.939 -2.3314  0.9528 -0.7403
 7332SOL    HW233456   4.286   2.722  15.836 -1.0808 -2.6256  0.0550
 7333SOL     OW33457   2.357   0.109   0.169 -0.4325 -0.3170 -0.0616
 7333SOL    HW133458   2.353   0.168   0.093  0.3326 -1.8577 -1.2861
 7333SOL    HW233459   2.439   0.122   0.216 -0.6543  4.2518 -0.8956
 7334SOL     OW33460   0.366   2.478  11.977 -0.9279 -0.1691  0.5996
 7334SOL    HW133461   0.389   2.490  12.069  2.3812  0.8047 -0.3739
 7334SOL    HW233462   0.427   2.407  11.956  0.4960  1.2194  0.0294
 7335SOL     OW33463   1.027   1.511   8.907 -0.2229  0.3150  0.3841
 7335SOL    HW133464   1.021   1.596   8.952 -0.4364 -0.4776  1.8454
 7335SOL    HW233465   1.017   1.447   8.978 -0.1899 -0.1730 -0.0574
 7336SOL     OW33466   2.194   0.618   7.267 -0.1645 -0.6009 -0.2049
 7336SOL    HW133467   2.220   0.603   7.358  0.5724  3.2188  0.2321
 7336SOL    HW233468   2.098   0.621   7.265 -0.1087  1.0597 -0.7121
 7337SOL     OW33469   4.072   4.137   9.722 -0.0753 -0.0643 -0.5580
 7337SOL    HW133470   4.157   4.180   9.717 -0.2512  0.2488 -0.8667
 7337SOL    HW233471   4.026   4.176   9.648  1.2656  0.4310 -1.1275
 7338SOL     OW33472   0.190   2.158   7.298 -0.0476  0.2621 -0.4217
 7338SOL    HW133473   0.266   2.100   7.300 -0.2457 -0.0230 -1.0843
 7338SOL    HW233474   0.180   2.173   7.392 -1.3689  1.0384 -0.6932
 7339SOL     OW33475   4.629   4.724  14.424  0.5007  0.2410 -0.6857
 7339SOL    HW133476   4.672   4.705  14.341  3.5073  0.7852  0.7596
 7339SOL    HW233477   4.707   0.038  14.462 -0.9841  1.1251  1.5117
 7340SOL     OW33478   4.167   3.072   3.175  0.2359  0.0289 -0.2694
 7340SOL    HW133479   4.174   3.168   3.177  2.5891 -0.2439  3.1753
 7340SOL    HW233480   4.228   3.049   3.245  0.3998 -0.9212 -0.7278
 7341SOL     OW33481   0.264   0.578  14.949  0.0624 -0.0218 -0.5337
 7341SOL    HW133482   0.263   0.573  15.044  0.2669 -1.1033 -0.5958
 7341SOL    HW233483   0.200   0.507  14.940  0.5882 -0.6862  0.9945
 7342SOL     OW33484   1.128   1.660   4.666 -0.6228 -0.1735 -0.2705
 7342SOL    HW133485   1.072   1.594   4.626 -0.7196  0.1450 -0.6540
 7342SOL    HW233486   1.088   1.730   4.616 -0.0877  0.1714 -0.2132
 7343SOL     OW33487   1.507   3.135  15.495 -0.2124  0.7234  0.5467
 7343SOL    HW133488   1.548   3.195  15.557 -1.7786  0.0327  2.2443
 7343SOL    HW233489   1.480   3.071  15.561  1.0594  0.5844  0.9289
 7344SOL     OW33490   2.404   2.514   4.570 -0.3070  0.1115  0.4027
 7344SOL    HW133491   2.365   2.594   4.607  2.5253  0.7869  1.8562
 7344SOL    HW233492   2.494   2.544   4.558  0.1938 -0.2098  3.2961
 7345SOL     OW33493   2.329   0.262   4.130  0.0073 -0.2502  0.1239
 7345SOL    HW133494   2.337   0.346   4.175 -0.7779 -0.1596  0.0911
 7345SOL    HW233495   2.349   0.202   4.202  1.2523 -0.4466 -0.3798
 7346SOL     OW33496   0.761   1.217   3.261 -0.5555  0.3525 -0.1820
 7346SOL    HW133497   0.690   1.173   3.306  0.3566 -1.2441 -0.3097
 7346SOL    HW233498   0.796   1.144   3.210  0.0457  0.3436  0.2345
 7347SOL     OW33499   0.763   1.161   7.302  0.2841  0.3283 -0.4661
 7347SOL    HW133500   0.756   1.179   7.208 -1.4555  0.4838 -0.3114
 7347SOL    HW233501   0.823   1.229   7.333  1.5394 -1.5107  1.1667
 7348SOL     OW33502   4.072   1.458   2.368 -0.1723 -0.4195  0.7239
 7348SOL    HW133503   4.059   1.548   2.340  0.3159 -0.4576  0.3752
 7348SOL    HW233504   4.081   1.411   2.285 -3.5459 -1.3097  0.8601
 7349SOL     OW33505   1.258   1.891   8.504 -0.6650 -0.0819 -0.4787
 7349SOL    HW133506   1.205   1.963   8.470  0.7909  0.8234 -0.8335
 7349SOL    HW233507   1.202   1.838   8.561  1.1676 -1.3455  0.1442
 7350SOL     OW33508   0.039   3.466   4.916  0.1961  0.2627  0.6232
 7350SOL    HW133509   4.676   3.436   4.898  0.4037 -0.3526  0.5999
 7350SOL    HW233510   0.049   3.537   4.853  0.3314 -1.7428 -1.6348
 7351SOL     OW33511   4.438   1.831   1.940 -0.4688  0.2431 -0.9794
 7351SOL    HW133512   4.532   1.815   1.935 -0.3772  0.3759  0.2727
 7351SOL    HW233513   4.411   1.876   1.861 -0.0640  3.5189  0.7525
 7352SOL     OW33514   1.049   3.906   6.568  0.4684  0.3059 -0.5081
 7352SOL    HW133515   0.972   3.870   6.613  0.6683 -0.5167 -0.8251
 7352SOL    HW233516   1.012   3.923   6.481  0.1698  2.1299 -0.0258
 7353SOL     OW33517   0.196   1.624   8.767  0.0854  0.8843  0.0559
 7353SOL    HW133518   0.103   1.605   8.773 -0.1944  2.3139  0.1109
 7353SOL    HW233519   0.235   1.543   8.802 -1.7032 -0.1011 -0.2436
 7354SOL     OW33520   0.425   4.368   6.233  0.2626  0.8416  0.0947
 7354SOL    HW133521   0.514   4.346   6.260  0.6183 -0.3541 -2.0602
 7354SOL    HW233522   0.448   4.447   6.184 -1.0480  0.8773 -0.4711
 7355SOL     OW33523   3.067   1.431   0.239 -0.0565  0.5802 -0.4499
 7355SOL    HW133524   3.145   1.480   0.209 -0.3405  0.7679 -0.8840
 7355SOL    HW233525   3.001   1.483   0.193 -1.8655 -0.3915  1.0621
 7356SOL     OW33526   4.256   1.110   5.063 -0.0378  0.5782 -0.3224
 7356SOL    HW133527   4.172   1.146   5.091 -0.5169 -1.6795  1.1569
 7356SOL    HW233528   4.228   1.021   5.043  0.0680 -0.3049  3.5000
 7357SOL     OW33529   1.581   2.346   7.468 -0.5954 -0.1794  0.9252
 7357SOL    HW133530   1.609   2.260   7.434 -0.5212 -0.0719  0.7144
 7357SOL    HW233531   1.639   2.407   7.423  1.1461 -1.0059  2.0508
 7358SOL     OW33532   2.249   2.951   0.644 -0.1648  0.6111 -0.8287
 7358SOL    HW133533   2.298   2.917   0.719 -1.7721  0.4594  0.1522
 7358SOL    HW233534   2.172   2.895   0.634  1.5833 -1.9777  0.2212
 7359SOL     OW33535   0.261   1.936   0.282  0.1157 -0.2759 -0.5301
 7359SOL    HW133536   0.313   2.008   0.247 -2.3826  1.5889 -0.3800
 7359SOL    HW233537   0.322   1.909   0.351 -0.9593  0.8835  0.8631
 7360SOL     OW33538   1.830   0.456  10.406 -0.3638  0.1065 -0.2728
 7360SOL    HW133539   1.772   0.518  10.361 -1.2020 -0.1684  0.4240
 7360SOL    HW233540   1.902   0.452  10.343 -1.8240 -1.8694 -1.8039
 7361SOL     OW33541   4.093   0.423  12.171 -0.2076  0.4451 -0.1079
 7361SOL    HW133542   4.093   0.418  12.075  2.9136 -0.0630 -0.0806
 7361SOL    HW233543   4.003   0.445  12.195 -0.0657  2.5563 -1.4888
 7362SOL     OW33544   3.742   0.043   4.056 -0.0983 -0.4340 -0.1939
 7362SOL    HW133545   3.798   0.084   4.122  0.1167  0.0711 -0.6901
 7362SOL    HW233546   3.796   0.026   3.979  2.0273 -0.3895  1.2934
 7363SOL     OW33547   2.406   0.282   7.925  0.0355  0.1993 -0.1946
 7363SOL    HW133548   2.427   0.192   7.950 -0.7666  0.2880  0.7700
 7363SOL    HW233549   2.465   0.297   7.851  0.9527  0.1448  0.5251
 7364SOL     OW33550   4.582   2.240   5.960 -0.2460  0.6162 -0.3896
 7364SOL    HW133551   4.530   2.237   5.879 -1.0329  3.5817 -0.0038
 7364SOL    HW233552   4.539   2.306   6.015  0.9794  0.7180  0.4551
 7365SOL     OW33553   0.359   4.653   3.399  0.3182  0.8063  0.3266
 7365SOL    HW133554   0.395   4.708   3.469  1.1006 -0.3678  0.8324
 7365SOL    HW233555   0.300   4.723   3.369  0.3548 -0.1369 -1.9189
 7366SOL     OW33556   2.400   2.092  15.338 -0.3935 -0.1663 -0.2085
 7366SOL    HW133557   2.484   2.113  15.295 -0.2711 -0.4142 -0.0875
 7366SOL    HW233558   2.346   2.168  15.319  0.5915  0.7378  0.6361
 7367SOL     OW33559   2.152   1.478  13.182  0.1332  0.1529  0.1391
 7367SOL    HW133560   2.068   1.433  13.169  1.0851 -0.5459 -3.4483
 7367SOL    HW233561   2.135   1.543  13.114  1.9909  0.4182 -0.0450
 7368SOL     OW33562   0.889   2.920   6.104 -0.0836 -0.4195  0.4257
 7368SOL    HW133563   0.949   2.896   6.174 -0.4481 -1.0391  0.5193
 7368SOL    HW233564   0.833   2.843   6.098  0.8867 -1.0188 -0.8017
 7369SOL     OW33565   3.353   4.642   7.059  0.1796  0.2214 -0.2093
 7369SOL    HW133566   3.337   4.677   7.146  0.6913  1.2956 -0.5514
 7369SOL    HW233567   3.284   4.680   7.004  2.3715  3.2354 -0.8602
 7370SOL     OW33568   1.007   3.062   7.432 -0.3692  0.5694 -0.0638
 7370SOL    HW133569   0.972   3.083   7.519 -0.8692 -0.1219 -0.1006
 7370SOL    HW233570   1.051   2.980   7.453 -0.9885 -0.0235 -1.1039
 7371SOL     OW33571   3.164   3.800   6.073 -0.1533  0.2273 -0.1337
 7371SOL    HW133572   3.168   3.815   6.168  0.2344 -0.9768  0.0366
 7371SOL    HW233573   3.087   3.743   6.068  0.5404 -0.6842 -0.3573
 7372SOL     OW33574   4.655   1.885  14.876  0.3304  0.7673 -0.4008
 7372SOL    HW133575   0.005   1.831  14.898 -0.8347  0.3413  2.4750
 7372SOL    HW233576   4.692   1.963  14.918  2.5398 -0.1025 -0.7783
 7373SOL     OW33577   0.824   2.791   1.567  0.0813  0.6694  0.3162
 7373SOL    HW133578   0.773   2.768   1.645  2.9012  1.4791  2.3859
 7373SOL    HW233579   0.870   2.869   1.598  1.1890  0.4753 -0.8347
 7374SOL     OW33580   0.927   0.635   6.876 -0.3247  0.5014  0.1069
 7374SOL    HW133581   0.944   0.555   6.925  1.2683  1.6334  1.4195
 7374SOL    HW233582   0.998   0.689   6.910 -1.6132  0.2061  3.3485
 7375SOL     OW33583   0.840   0.361   8.622  0.5768 -0.6088 -0.1196
 7375SOL    HW133584   0.781   0.413   8.567  0.2107  0.2060  1.0640
 7375SOL    HW233585   0.841   0.405   8.706 -0.2441 -2.4911  0.8849
 7376SOL     OW33586   1.591   2.409   8.482 -0.0367 -0.0988 -0.3127
 7376SOL    HW133587   1.647   2.331   8.483  1.9131  1.3498  0.9807
 7376SOL    HW233588   1.617   2.449   8.565 -0.9287  0.8755 -0.5013
 7377SOL     OW33589   4.363   1.217   2.595  0.0241 -0.1871  0.0731
 7377SOL    HW133590   4.375   1.158   2.670  0.9349 -1.0283 -0.7310
 7377SOL    HW233591   4.297   1.279   2.625 -0.9776 -0.1765 -2.1780
 7378SOL     OW33592   2.156   0.913  13.923  0.5103  0.2355  0.2046
 7378SOL    HW133593   2.194   0.876  14.003 -0.4843 -1.9022 -0.2889
 7378SOL    HW233594   2.222   0.979  13.903  2.1463 -0.9480  1.6525
 7379SOL     OW33595   4.113   2.786   7.986 -0.1429 -0.0912  0.4755
 7379SOL    HW133596   4.071   2.818   8.065 -0.4204 -0.1737  0.3635
 7379SOL    HW233597   4.101   2.867   7.937 -0.0415 -0.4502 -0.1498
 7380SOL     OW33598   3.441   4.330   3.982 -0.2201  0.4066 -0.4700
 7380SOL    HW133599   3.456   4.375   4.066 -4.9972  2.0888 -0.5572
 7380SOL    HW233600   3.476   4.244   4.006 -1.0724  0.2172  0.1021
 7381SOL     OW33601   2.238   4.614   2.920  0.5328 -0.5319 -0.2575
 7381SOL    HW133602   2.243   4.669   2.842 -0.0899 -2.4061 -1.6115
 7381SOL    HW233603   2.156   4.567   2.906  0.9151 -1.3855  0.3738
 7382SOL     OW33604   3.212   2.456   1.934 -0.4750  0.0251 -0.4093
 7382SOL    HW133605   3.137   2.514   1.918 -0.4717 -0.1599 -1.0921
 7382SOL    HW233606   3.272   2.524   1.964  0.7881 -0.6623 -1.4014
 7383SOL     OW33607   3.126   2.751   8.314 -0.0259  0.2323  0.3031
 7383SOL    HW133608   3.067   2.792   8.251 -0.1517  2.6797  2.0100
 7383SOL    HW233609   3.110   2.657   8.298 -2.2542  0.3464  1.9342
 7384SOL     OW33610   2.910   0.116   8.952 -0.0487  0.8897 -0.4708
 7384SOL    HW133611   2.931   0.175   8.880 -0.4691  1.6198 -0.0012
 7384SOL    HW233612   2.973   0.146   9.018  0.8625  0.7230 -1.2565
 7385SOL     OW33613   0.586   2.371   7.367  0.4151  0.1300  0.3894
 7385SOL    HW133614   0.644   2.295   7.358 -0.9384 -0.9569  0.7952
 7385SOL    HW233615   0.632   2.434   7.313 -0.0980  0.6491  0.5608
 7386SOL     OW33616   2.821   1.598   5.254 -0.1924  0.1278 -0.3179
 7386SOL    HW133617   2.808   1.682   5.210  3.0165 -0.3068 -2.1620
 7386SOL    HW233618   2.752   1.549   5.209 -1.3041  1.8901 -0.5272
 7387SOL     OW33619   3.046   0.034  16.654  0.3525  0.3801  0.4061
 7387SOL    HW133620   3.017   0.062  16.567  0.4900 -0.8438 -0.0292
 7387SOL    HW233621   2.965   0.003  16.693  0.5918  0.7949  1.2367
 7388SOL     OW33622   3.421   1.663   3.748 -0.4902 -0.2521 -0.4184
 7388SOL    HW133623   3.513   1.683   3.730 -1.0025  2.6701  0.1158
 7388SOL    HW233624   3.420   1.574   3.784  0.4238 -0.2266 -0.3296
 7389SOL     OW33625   3.806   1.329   6.518  0.1647 -0.2447 -0.1197
 7389SOL    HW133626   3.763   1.413   6.501 -1.5164 -1.0130  0.3708
 7389SOL    HW233627   3.852   1.343   6.601 -1.5139 -0.8748  0.9202
 7390SOL     OW33628   1.082   4.644   1.283  0.1327  0.4992 -0.1725
 7390SOL    HW133629   1.147   4.592   1.331  1.0874  1.5602 -0.2957
 7390SOL    HW233630   1.059   4.711   1.348 -0.3652 -0.0362  0.1974
 7391SOL     OW33631   2.516   0.913   9.292 -0.7199 -0.0946 -1.1869
 7391SOL    HW133632   2.545   0.993   9.335  1.5087 -1.1483 -0.6781
 7391SOL    HW233633   2.428   0.911   9.328 -0.9726 -0.2289 -1.8227
 7392SOL     OW33634   2.525   1.176   9.688  0.0911  0.0428  0.2712
 7392SOL    HW133635   2.466   1.233   9.639  0.2423 -0.3698 -0.3954
 7392SOL    HW233636   2.469   1.110   9.729 -0.1165 -0.5696 -0.9711
 7393SOL     OW33637   1.633   1.363   7.241  0.1002 -0.3144 -0.1245
 7393SOL    HW133638   1.681   1.282   7.259 -0.3251 -0.2644  1.2091
 7393SOL    HW233639   1.543   1.332   7.252  0.1020 -0.5715 -0.8658
 7394SOL     OW33640   0.772   1.459   8.256 -0.0094 -0.2011  0.2674
 7394SOL    HW133641   0.803   1.521   8.322 -0.7461 -1.9576  2.2745
 7394SOL    HW233642   0.692   1.436   8.304  0.4823 -0.1401  1.1305
 7395SOL     OW33643   2.931   2.897  16.806  0.0740  0.5840 -0.0429
 7395SOL    HW133644   2.875   2.975  16.811  0.1126  0.8124 -3.2482
 7395SOL    HW233645   3.016   2.936  16.788 -0.8336  2.4218 -0.3407
 7396SOL     OW33646   1.818   1.233  10.406  0.4116  0.2148 -0.5034
 7396SOL    HW133647   1.831   1.174  10.480  1.6075 -0.3985 -1.2140
 7396SOL    HW233648   1.771   1.302  10.453  1.4896  0.3936  0.3068
 7397SOL     OW33649   3.124   0.251   1.913 -0.5803  0.1383  0.5385
 7397SOL    HW133650   3.063   0.179   1.925  0.0500 -0.2123  1.6230
 7397SOL    HW233651   3.166   0.260   1.999  2.5055  1.5224 -1.1110
 7398SOL     OW33652   1.224   2.280   7.901  0.1836 -0.3658  0.4688
 7398SOL    HW133653   1.169   2.229   7.959 -0.8978  0.0659 -0.1696
 7398SOL    HW233654   1.171   2.360   7.902  1.9581  0.8564 -0.5993
 7399SOL     OW33655   0.775   1.209   6.599  0.2802 -0.2486  0.0062
 7399SOL    HW133656   0.752   1.292   6.642 -1.2684 -1.1232  0.8784
 7399SOL    HW233657   0.822   1.252   6.527 -0.9036  2.8251  1.0438
 7400SOL     OW33658   0.630   0.318   4.798 -0.4094 -0.2793  0.3866
 7400SOL    HW133659   0.584   0.279   4.724  2.0361 -1.2561 -0.6271
 7400SOL    HW233660   0.573   0.288   4.869  0.5162 -1.3146  0.6998
 7401SOL     OW33661   1.286   2.292   7.087  0.0553  0.2961 -0.1295
 7401SOL    HW133662   1.256   2.377   7.118 -1.6590  0.1369 -1.3282
 7401SOL    HW233663   1.307   2.309   6.995 -2.4803 -0.5661 -0.8663
 7402SOL     OW33664   2.846   1.516  12.203  0.5990 -0.0133 -0.1971
 7402SOL    HW133665   2.849   1.587  12.267 -0.1742  1.1900 -1.4890
 7402SOL    HW233666   2.923   1.466  12.227  0.9442  0.4070 -0.4293
 7403SOL     OW33667   1.372   3.774  11.469 -0.1544  0.5561 -0.7159
 7403SOL    HW133668   1.452   3.721  11.464  2.0432  3.6819  0.8167
 7403SOL    HW233669   1.377   3.827  11.390 -1.0150  0.0831 -1.0747
 7404SOL     OW33670   1.680   2.685  13.885 -0.0611  0.3323 -0.0054
 7404SOL    HW133671   1.659   2.624  13.956 -1.9143  0.2695 -0.6235
 7404SOL    HW233672   1.760   2.654  13.842 -0.9888  0.9501 -2.1833
 7405SOL     OW33673   2.222   1.442   0.371 -0.0852  0.2801  0.6477
 7405SOL    HW133674   2.225   1.348   0.386 -1.8023  0.0010 -0.7936
 7405SOL    HW233675   2.128   1.452   0.357  0.1831  0.6929 -0.8537
 7406SOL     OW33676   1.763   0.772   5.511 -0.1504 -0.4711  0.1856
 7406SOL    HW133677   1.852   0.746   5.489 -0.4036 -0.8925 -0.3171
 7406SOL    HW233678   1.782   0.838   5.579  0.3941 -1.1371  0.6741
 7407SOL     OW33679   1.822   1.736   1.858  0.4147  0.1576  0.2067
 7407SOL    HW133680   1.838   1.827   1.835 -0.6621  0.1872 -0.4559
 7407SOL    HW233681   1.900   1.698   1.817  2.2899  0.7316  3.2784
 7408SOL     OW33682   2.564   4.228   2.337  0.0878  0.2103 -0.0751
 7408SOL    HW133683   2.480   4.272   2.343  0.8335  1.5405  0.7009
 7408SOL    HW233684   2.542   4.152   2.284 -0.9655  2.1791 -2.4766
 7409SOL     OW33685   3.811   4.586   4.889  0.0852  0.2031 -0.3835
 7409SOL    HW133686   3.757   4.547   4.820  0.9440  1.7253 -1.9192
 7409SOL    HW233687   3.780   4.544   4.969  2.3347 -0.2926  0.2337
 7410SOL     OW33688   2.118   2.796   5.942  0.6464  0.9188  0.3930
 7410SOL    HW133689   2.207   2.791   5.908 -0.3641  1.0382 -2.2671
 7410SOL    HW233690   2.132   2.815   6.035 -0.4556 -0.5251  0.8599
 7411SOL     OW33691   0.582   2.586  12.601 -0.1065 -0.4283  0.4531
 7411SOL    HW133692   0.496   2.561  12.566 -0.0055 -0.3168  0.1264
 7411SOL    HW233693   0.611   2.503  12.639  3.3653  0.0694 -1.1677
 7412SOL     OW33694   3.716   4.189  16.729 -0.5949  0.5545  0.1755
 7412SOL    HW133695   3.763   4.192  16.813 -0.4137  0.2699  0.0824
 7412SOL    HW233696   3.736   4.100  16.701 -2.3995 -0.6878  2.7970
 7413SOL     OW33697   3.164   2.897   1.241 -0.5054  0.2093 -0.9781
 7413SOL    HW133698   3.183   2.874   1.333  0.4111 -0.8421 -1.4220
 7413SOL    HW233699   3.247   2.863   1.208  1.1890  2.7667  0.6181
 7414SOL     OW33700   1.316   3.128   8.334 -0.1592  1.0002 -0.1184
 7414SOL    HW133701   1.246   3.165   8.387 -0.4446 -0.5385  0.5973
 7414SOL    HW233702   1.266   3.115   8.253  0.9933 -0.4767 -0.6060
 7415SOL     OW33703   2.903   1.266   4.978  0.1081 -0.4382  0.6357
 7415SOL    HW133704   2.938   1.240   4.893 -3.6272 -3.0897 -0.0825
 7415SOL    HW233705   2.833   1.321   4.941  0.4713  1.0751  2.2059
 7416SOL     OW33706   0.488   4.314   6.987  0.6963 -0.5337 -0.1456
 7416SOL    HW133707   0.490   4.268   7.071 -0.2800  0.8846  0.6474
 7416SOL    HW233708   0.425   4.257   6.943 -0.9790  0.1116  1.4392
 7417SOL     OW33709   1.496   3.618   0.422  0.4517 -0.8369  0.1912
 7417SOL    HW133710   1.461   3.531   0.444 -1.3542 -0.0936  0.2617
 7417SOL    HW233711   1.588   3.617   0.447  0.9049  3.2099 -1.3737
 7418SOL     OW33712   3.314   1.346  12.577 -0.9641 -0.4244  0.2090
 7418SOL    HW133713   3.409   1.345  12.566 -0.8313 -0.9514  1.3985
 7418SOL    HW233714   3.286   1.431  12.542 -4.4686 -1.0289  1.5584
 7419SOL     OW33715   4.493   2.966   1.378  0.3570 -0.4530  0.4203
 7419SOL    HW133716   4.414   3.010   1.411  0.0776 -0.7724  0.1747
 7419SOL    HW233717   4.494   2.990   1.285 -1.4216  0.1263  0.5439
 7420SOL     OW33718   0.676   3.786   7.112 -0.0480  0.4918 -0.4298
 7420SOL    HW133719   0.648   3.715   7.054  0.3136  1.1126 -1.3713
 7420SOL    HW233720   0.610   3.852   7.093  1.1165  1.8948  0.4431
 7421SOL     OW33721   4.660   1.031  12.908 -0.1380  0.5152 -0.1133
 7421SOL    HW133722   0.004   1.017  12.971 -0.9952 -1.3549  0.4238
 7421SOL    HW233723   4.586   1.026  12.968  1.5125 -1.7280  1.6977
 7422SOL     OW33724   1.144   3.652  17.165 -0.1680 -0.3712  0.1402
 7422SOL    HW133725   1.117   3.735  17.125 -1.0618  0.3607  2.2828
 7422SOL    HW233726   1.140   3.598  17.086  0.8853 -0.8881  0.4382
 7423SOL     OW33727   2.704   3.160   4.875  0.0251  0.2251 -0.0196
 7423SOL    HW133728   2.624   3.142   4.826  0.0598 -1.7751  0.6831
 7423SOL    HW233729   2.683   3.243   4.919  0.5063  0.7930 -0.8653
 7424SOL     OW33730   2.159   3.617   2.219  0.0525  0.6082  0.4774
 7424SOL    HW133731   2.129   3.679   2.286 -2.0346 -1.5338  1.5162
 7424SOL    HW233732   2.154   3.534   2.266  1.4995  0.0221 -0.4188
 7425SOL     OW33733   2.663   2.586   4.547  0.1035  0.5573  0.4299
 7425SOL    HW133734   2.725   2.513   4.540 -0.5022 -0.1531  2.2165
 7425SOL    HW233735   2.705   2.645   4.609 -1.4530  0.5450  1.5035
 7426SOL     OW33736   2.682   2.101   4.452 -0.5318 -0.0410 -0.1361
 7426SOL    HW133737   2.677   2.047   4.531  2.8573  0.5550  0.4819
 7426SOL    HW233738   2.615   2.056   4.400 -0.5050 -0.3989  0.1369
 7427SOL     OW33739   1.078   4.051   8.026 -0.0045 -0.2129 -0.3860
 7427SOL    HW133740   1.056   3.968   8.070 -3.5399  1.3554  0.8324
 7427SOL    HW233741   0.989   4.083   8.011  1.0402  2.7952 -0.1746
 7428SOL     OW33742   2.444   4.215   8.604  0.5450  0.0203  0.6235
 7428SOL    HW133743   2.473   4.281   8.541 -0.2305  0.1019  0.3512
 7428SOL    HW233744   2.506   4.142   8.609  2.2815  1.4090 -0.7186
 7429SOL     OW33745   4.519   3.018  15.641  0.3531  0.4470  0.2387
 7429SOL    HW133746   4.427   3.005  15.619  0.1151 -1.4258  2.2943
 7429SOL    HW233747   4.531   3.113  15.639  0.4278  0.3850 -2.9239
 7430SOL     OW33748   2.684   1.080   2.066 -0.2374 -0.0226 -0.1668
 7430SOL    HW133749   2.611   1.074   2.128 -0.7116  0.8896 -0.6428
 7430SOL    HW233750   2.647   1.037   1.989  0.4253 -1.0958  0.1129
 7431SOL     OW33751   4.509   1.617   9.345 -0.1997 -1.0259 -0.0505
 7431SOL    HW133752   4.471   1.700   9.372 -0.9938 -1.0410 -1.1470
 7431SOL    HW233753   4.557   1.597   9.426  0.6203  1.1544  0.0073
 7432SOL     OW33754   3.835   2.808   1.393  0.3761  0.3237 -0.2590
 7432SOL    HW133755   3.910   2.767   1.351  1.6758  1.1385  1.2262
 7432SOL    HW233756   3.863   2.788   1.483 -0.8610 -0.8631 -0.1560
 7433SOL     OW33757   0.519   1.088   4.761  0.0045 -0.0097 -0.5133
 7433SOL    HW133758   0.553   1.083   4.671 -0.2641 -2.3504 -0.4855
 7433SOL    HW233759   0.449   1.025   4.772 -0.1543 -0.2349 -2.7580
 7434SOL     OW33760   4.514   3.273  14.311 -0.3008 -0.0488 -0.0580
 7434SOL    HW133761   4.537   3.306  14.224 -2.0116 -1.6950 -1.1622
 7434SOL    HW233762   4.590   3.220  14.333 -0.7923 -1.8940 -2.7720
 7435SOL     OW33763   0.058   4.164   8.117 -0.0467 -0.3108 -0.3378
 7435SOL    HW133764   0.098   4.192   8.199  0.0248 -3.2531  0.6328
 7435SOL    HW233765   0.064   4.070   8.133  1.6303 -0.5183 -2.1940
 7436SOL     OW33766   1.960   1.986   9.324 -0.6168  0.2825 -0.0038
 7436SOL    HW133767   2.000   2.001   9.238 -0.6883  1.7428  0.2041
 7436SOL    HW233768   1.887   2.047   9.316 -3.5632 -3.1938  0.4923
 7437SOL     OW33769   2.474   0.106   8.923  0.5744  0.0575 -0.2450
 7437SOL    HW133770   2.395   0.080   8.969  0.6860  1.1469  0.5731
 7437SOL    HW233771   2.527   0.069   8.994  2.0966  3.8675  0.6124
 7438SOL     OW33772   4.164   2.857   6.853  0.0453 -0.2504  0.2201
 7438SOL    HW133773   4.238   2.810   6.814 -0.1244  0.1115 -0.5441
 7438SOL    HW233774   4.136   2.792   6.918  1.2584 -3.1279 -2.1529
 7439SOL     OW33775   3.342   3.948   4.862  0.0133 -0.2176 -0.5341
 7439SOL    HW133776   3.249   3.933   4.876  0.6053 -1.4320  2.0523
 7439SOL    HW233777   3.372   3.978   4.947  1.9854  0.0072 -1.2974
 7440SOL     OW33778   2.185   2.223  16.170  0.0131 -0.1936  0.1510
 7440SOL    HW133779   2.130   2.261  16.238 -1.5329 -0.9279 -0.6969
 7440SOL    HW233780   2.229   2.149  16.212  2.3599  2.4034  2.2128
 7441SOL     OW33781   0.343   3.040   5.347 -0.6364 -0.1944 -0.1356
 7441SOL    HW133782   0.258   2.997   5.336 -2.8988  3.6100  2.3522
 7441SOL    HW233783   0.368   3.012   5.435 -0.8553  0.4791  0.1411
 7442SOL     OW33784   0.176   0.344  16.923 -0.0859  0.5743 -0.4912
 7442SOL    HW133785   0.209   0.284  16.990 -2.6406  0.2650  0.4667
 7442SOL    HW233786   0.179   0.281  16.851 -2.1101  0.4323 -0.4516
 7443SOL     OW33787   1.833   3.516   7.759 -0.3525 -0.4907 -0.7057
 7443SOL    HW133788   1.806   3.465   7.835  3.1504 -3.3827 -1.3978
 7443SOL    HW233789   1.852   3.447   7.696  0.9903 -1.8409  1.1632
 7444SOL     OW33790   0.509   2.750   8.877  0.2719 -0.2478 -0.2025
 7444SOL    HW133791   0.474   2.664   8.902 -0.3065 -0.1957 -0.8337
 7444SOL    HW233792   0.584   2.760   8.935  2.4444  0.7030 -3.1791
 7445SOL     OW33793   2.544   0.403   6.689 -0.0085  0.3726  0.0752
 7445SOL    HW133794   2.471   0.385   6.748  1.5763  0.6954  2.1652
 7445SOL    HW233795   2.607   0.460   6.733  0.5958 -0.3613  0.1702
 7446SOL     OW33796   0.284   0.907   3.485  0.1139 -0.5491  0.6596
 7446SOL    HW133797   0.273   0.998   3.513 -2.2524 -0.5804 -0.1359
 7446SOL    HW233798   0.197   0.866   3.490 -0.1968  0.1601  1.2444
 7447SOL     OW33799   0.151   1.173   6.876 -0.2695  0.0746  0.2746
 7447SOL    HW133800   0.227   1.175   6.935 -1.2880 -2.2235  1.6911
 7447SOL    HW233801   0.083   1.149   6.939 -1.6359  0.7182 -0.9577
 7448SOL     OW33802   1.346   2.282   4.066 -0.1444  0.1580  0.0428
 7448SOL    HW133803   1.371   2.300   3.975  0.9704  0.9599  0.5091
 7448SOL    HW233804   1.337   2.367   4.107 -0.7431 -0.4871  1.2393
 7449SOL     OW33805   4.273   0.833   7.707 -0.2463  0.1763  0.2591
 7449SOL    HW133806   4.305   0.785   7.785  0.2444 -0.2608 -0.2064
 7449SOL    HW233807   4.222   0.907   7.737 -0.7374 -0.0278 -0.0855
 7450SOL     OW33808   0.169   2.073   2.598 -0.2650 -0.1109  0.0470
 7450SOL    HW133809   0.168   2.132   2.523 -1.5411 -0.3667 -0.1518
 7450SOL    HW233810   0.195   1.991   2.556 -2.5462 -2.1783  2.5849
 7451SOL     OW33811   1.515   1.936   5.571 -0.0406  0.8344  0.2472
 7451SOL    HW133812   1.588   1.995   5.556 -0.3346  0.9798 -0.6193
 7451SOL    HW233813   1.558   1.865   5.620 -1.3931 -0.4955 -0.4791
 7452SOL     OW33814   1.551   3.103   4.865  0.3446  0.1941  0.0327
 7452SOL    HW133815   1.492   3.029   4.858 -0.0608  0.8686 -3.7540
 7452SOL    HW233816   1.498   3.172   4.825 -0.1386  0.5073  1.2148
 7453SOL     OW33817   0.262   0.115   8.909  0.5780  0.1049  0.1432
 7453SOL    HW133818   0.219   0.146   8.830  2.3622 -0.3236 -0.9959
 7453SOL    HW233819   0.223   0.176   8.972  2.2166  0.8880  0.4002
 7454SOL     OW33820   0.430   4.460  11.703 -0.3539  0.5985  0.1723
 7454SOL    HW133821   0.436   4.390  11.638 -1.1227 -1.9259  2.8402
 7454SOL    HW233822   0.506   4.448  11.761  0.6705  1.4242 -0.9880
 7455SOL     OW33823   4.079   4.612   5.230 -0.1023  0.1340 -0.2357
 7455SOL    HW133824   4.087   4.544   5.297 -2.8981 -0.2792 -0.3166
 7455SOL    HW233825   4.038   4.682   5.279 -2.2310 -0.7250 -0.7932
 7456SOL     OW33826   1.280   2.801   2.678  0.3335  0.0064 -0.0422
 7456SOL    HW133827   1.311   2.873   2.733 -1.3059  2.3654 -2.1952
 7456SOL    HW233828   1.289   2.718   2.724 -0.5004 -0.1137 -0.0965
 7457SOL     OW33829   3.192   0.468   3.699 -0.3461  0.1025 -0.1922
 7457SOL    HW133830   3.260   0.439   3.638 -1.5378 -0.1500 -1.3969
 7457SOL    HW233831   3.222   0.423   3.778 -0.8600 -3.2971 -1.9267
 7458SOL     OW33832   3.063   3.834   4.914 -0.3301  0.1753  0.2024
 7458SOL    HW133833   3.080   3.754   4.963 -3.4194 -0.2938  0.5336
 7458SOL    HW233834   2.979   3.852   4.957 -1.3041 -2.2539 -0.7206
 7459SOL     OW33835   2.690   1.528  10.674 -0.4923 -0.0419 -0.2923
 7459SOL    HW133836   2.688   1.616  10.637  0.9870  0.3640  0.5858
 7459SOL    HW233837   2.599   1.513  10.698 -0.1356 -2.5988 -0.4767
 7460SOL     OW33838   3.086   2.644   7.001  0.4073  0.0841 -0.1972
 7460SOL    HW133839   3.061   2.704   6.931 -0.0201 -0.2337 -0.3202
 7460SOL    HW233840   3.158   2.677   7.055 -0.9295 -2.0907  2.8851
 7461SOL     OW33841   3.080   4.183   0.780 -0.1685 -0.1879 -0.8042
 7461SOL    HW133842   3.129   4.102   0.770 -1.4370 -1.2991  1.9917
 7461SOL    HW233843   2.992   4.151   0.760 -0.9298  1.9167 -0.9024
 7462SOL     OW33844   4.487   1.225   4.549 -0.1721  0.2262 -0.5445
 7462SOL    HW133845   4.409   1.170   4.557  0.1177 -0.1794 -0.5335
 7462SOL    HW233846   4.502   1.226   4.644 -0.1754  1.6501 -0.5495
 7463SOL     OW33847   4.701   0.681   3.656 -0.3554 -0.2068 -0.5002
 7463SOL    HW133848   0.058   0.712   3.693 -0.5355  1.2403 -1.3009
 7463SOL    HW233849   4.656   0.630   3.722  0.7170 -0.8954 -0.3016
 7464SOL     OW33850   2.162   3.746   7.962  0.4564  0.1443 -0.1799
 7464SOL    HW133851   2.086   3.752   8.019  0.4888  0.2818 -0.1508
 7464SOL    HW233852   2.208   3.819   8.004  2.3433  1.3195 -4.2866
 7465SOL     OW33853   4.153   4.524   7.178 -0.5007 -0.1696  0.1588
 7465SOL    HW133854   4.063   4.510   7.148 -0.7631  2.1582 -0.1021
 7465SOL    HW233855   4.196   4.497   7.096 -3.3730  0.2933 -1.5159
 7466SOL     OW33856   0.945   0.797   6.431 -0.1255 -0.0971  0.2136
 7466SOL    HW133857   0.876   0.781   6.495  0.3093  1.5364  1.0668
 7466SOL    HW233858   0.960   0.706   6.404  0.3038  0.8980 -2.9073
 7467SOL     OW33859   4.607   2.370   6.662  0.9205 -0.1077  0.7168
 7467SOL    HW133860   4.619   2.458   6.697 -0.2472 -0.3239  1.6738
 7467SOL    HW233861   4.553   2.390   6.586 -0.0372  2.7599  2.1561
 7468SOL     OW33862   2.695   1.462   3.720  0.1115  0.3451 -0.3481
 7468SOL    HW133863   2.695   1.443   3.814 -2.5793  2.5351  0.1190
 7468SOL    HW233864   2.785   1.494   3.714  0.1111  0.8492  1.9915
 7469SOL     OW33865   3.827   0.983   5.108  0.8451 -0.5408 -0.0027
 7469SOL    HW133866   3.757   0.925   5.138  0.8969 -0.7738 -0.3328
 7469SOL    HW233867   3.890   0.977   5.179 -0.1826  1.2055  1.0641
 7470SOL     OW33868   3.906   3.229   3.800  0.4310  0.1020 -0.1561
 7470SOL    HW133869   3.883   3.137   3.811 -0.1074  0.3061  0.4647
 7470SOL    HW233870   3.825   3.278   3.815 -1.5203 -3.6026  1.4910
 7471SOL     OW33871   2.873   1.328   3.499  0.4803  0.4041  0.2574
 7471SOL    HW133872   2.947   1.292   3.450  0.6919 -0.1456  0.9762
 7471SOL    HW233873   2.906   1.405   3.546 -0.3503 -0.2169  1.8569
 7472SOL     OW33874   0.385   1.654  10.832 -0.6809 -0.0599 -0.7815
 7472SOL    HW133875   0.341   1.720  10.885  2.4986  0.5150  1.1420
 7472SOL    HW233876   0.353   1.578  10.880 -0.8910  0.1453 -0.5969
 7473SOL     OW33877   2.530   1.456   7.479  0.4362 -0.3846  0.8609
 7473SOL    HW133878   2.496   1.521   7.541 -0.1012  0.3546 -0.2112
 7473SOL    HW233879   2.574   1.516   7.419 -0.0965 -0.4748  0.3856
 7474SOL     OW33880   2.568   3.257   3.023 -0.4262  0.0064  0.6242
 7474SOL    HW133881   2.590   3.307   2.945 -0.3041 -1.1592 -0.0883
 7474SOL    HW233882   2.487   3.293   3.059 -0.8129 -0.0706 -0.1793
 7475SOL     OW33883   0.378   2.097   7.649  0.3872  0.2311 -0.8995
 7475SOL    HW133884   0.332   2.015   7.667 -1.2192  1.5227  0.8057
 7475SOL    HW233885   0.409   2.117   7.737  1.3848  0.9952 -1.4208
 7476SOL     OW33886   0.866   1.750   3.558  0.2757 -0.3547  0.0927
 7476SOL    HW133887   0.839   1.686   3.492  0.6105  0.9923 -1.3266
 7476SOL    HW233888   0.952   1.709   3.571  0.2410 -0.5129 -0.1830
 7477SOL     OW33889   4.708   0.602   4.838  0.1475  0.1907  0.1377
 7477SOL    HW133890   4.724   0.548   4.916  0.9597 -1.1456 -0.9475
 7477SOL    HW233891   4.619   0.576   4.815 -0.5845  0.8512  2.2224
 7478SOL     OW33892   4.661   1.605   4.963  0.1469 -0.2662 -1.3465
 7478SOL    HW133893   4.721   1.582   5.033 -2.5673  1.8810  1.6553
 7478SOL    HW233894   4.579   1.619   5.011  0.0798  0.9512 -1.7968
 7479SOL     OW33895   3.318   0.201   2.627  0.0063 -0.0040  0.2035
 7479SOL    HW133896   3.372   0.267   2.583 -1.3873 -0.2645 -1.9111
 7479SOL    HW233897   3.379   0.127   2.631 -0.5257 -0.5345 -1.6429
 7480SOL     OW33898   0.625   0.859   5.622  0.0027  0.9156  0.5295
 7480SOL    HW133899   0.572   0.807   5.563  0.2105  2.6933 -1.2252
 7480SOL    HW233900   0.583   0.945   5.611  0.9440  0.9962 -2.3719
 7481SOL     OW33901   0.949   0.402   2.666  0.1793  0.4664 -0.4704
 7481SOL    HW133902   0.910   0.451   2.739 -1.1189  1.0128 -1.5203
 7481SOL    HW233903   0.912   0.449   2.591 -2.1825 -1.4116 -0.4996
 7482SOL     OW33904   1.083   1.023   1.232 -0.1134  0.5771  0.1718
 7482SOL    HW133905   1.037   0.953   1.278 -0.7753  1.5219  0.9442
 7482SOL    HW233906   1.114   1.075   1.306  0.8912  0.6092 -0.2689
 7483SOL     OW33907   3.608   3.350  17.386 -0.0355  0.4338  0.5622
 7483SOL    HW133908   3.641   3.374  17.472 -0.7503 -0.4880  1.1006
 7483SOL    HW233909   3.513   3.361  17.399 -0.0757  0.6886  0.0613
 7484SOL     OW33910   1.682   3.229   0.896  0.3355  0.9893 -0.6171
 7484SOL    HW133911   1.770   3.234   0.933 -0.5201 -2.7234  1.9633
 7484SOL    HW233912   1.657   3.137   0.910 -1.5592  1.3634 -1.5793
 7485SOL     OW33913   0.853   0.025  17.582  0.1859 -0.8724  0.3897
 7485SOL    HW133914   0.852   0.119  17.597  1.1212 -1.0999  1.8356
 7485SOL    HW233915   0.818   0.000  17.667 -1.2760  2.8111  0.8527
 7486SOL     OW33916   2.103   3.951   0.525 -0.0411  0.5363  0.1324
 7486SOL    HW133917   2.015   3.964   0.562  1.1259  0.7660  2.8676
 7486SOL    HW233918   2.153   3.909   0.595  1.5265  1.6560 -0.3216
 7487SOL     OW33919   1.898   3.197   4.222  0.2973 -0.1955 -0.1904
 7487SOL    HW133920   1.938   3.226   4.140  0.6404  0.2608  0.1354
 7487SOL    HW233921   1.871   3.282   4.256  0.5934  0.0363 -0.5319
 7488SOL     OW33922   2.276   3.940  15.976 -0.2055  0.0389 -0.0122
 7488SOL    HW133923   2.263   3.942  15.881  0.8142  1.5823 -0.1292
 7488SOL    HW233924   2.249   4.027  16.004 -0.3431  0.9616 -2.9986
 7489SOL     OW33925   0.385   2.029  12.253 -0.2668 -0.6385  0.3023
 7489SOL    HW133926   0.344   2.111  12.225  1.1136  0.6145  1.8965
 7489SOL    HW233927   0.317   1.997  12.312  0.1400 -1.6780  0.2074
 7490SOL     OW33928   3.780   2.384   7.948  0.3559  0.2101  0.0858
 7490SOL    HW133929   3.721   2.329   8.001 -1.0933  0.9070 -0.7969
 7490SOL    HW233930   3.840   2.412   8.016 -0.1825 -0.6349  0.9036
 7491SOL     OW33931   2.585   1.667   6.606 -0.2032  0.0984 -0.2853
 7491SOL    HW133932   2.491   1.674   6.623 -0.0716 -2.5531  1.6307
 7491SOL    HW233933   2.597   1.619   6.524  0.1775 -0.6959  0.2297
 7492SOL     OW33934   2.467   3.080   8.840 -0.3442  0.0270 -0.1745
 7492SOL    HW133935   2.397   3.037   8.888 -0.8407  1.0368  0.0170
 7492SOL    HW233936   2.507   3.124   8.915 -0.2647  1.3790 -1.0080
 7493SOL     OW33937   0.468   2.409  10.626 -0.9656 -0.0102  0.8333
 7493SOL    HW133938   0.478   2.314  10.622  3.8638  0.5077 -0.3195
 7493SOL    HW233939   0.405   2.421  10.697 -1.4185 -1.8000  0.7326
 7494SOL     OW33940   2.597   3.383   3.875  0.3165  0.4030 -0.3434
 7494SOL    HW133941   2.574   3.451   3.938  1.5489 -0.2103  0.7580
 7494SOL    HW233942   2.641   3.320   3.932  0.7236  0.4640 -0.5882
 7495SOL     OW33943   1.048   1.041  13.044  0.1548 -0.1556  0.0935
 7495SOL    HW133944   0.960   1.061  13.075  0.4374  0.8512  0.2704
 7495SOL    HW233945   1.086   1.012  13.127  0.0480  1.9626  0.8730
 7496SOL     OW33946   2.782   0.652   3.580 -0.0121 -0.0193  0.2650
 7496SOL    HW133947   2.859   0.657   3.636  0.1861  2.4133 -0.2475
 7496SOL    HW233948   2.780   0.747   3.575 -2.4140 -0.1299 -0.8274
 7497SOL     OW33949   4.512   0.161   9.328  0.1807 -0.3433  0.5267
 7497SOL    HW133950   4.484   0.252   9.320  0.4117 -0.3516 -0.4663
 7497SOL    HW233951   4.429   0.118   9.308 -0.9864  1.9681  0.5134
 7498SOL     OW33952   0.414   1.386  13.354  0.0763  0.3185  0.0788
 7498SOL    HW133953   0.463   1.448  13.301 -0.9540  1.6262  0.6550
 7498SOL    HW233954   0.386   1.445  13.424 -2.0431 -1.5830  0.8656
 7499SOL     OW33955   0.043   2.952   2.187  0.0201 -0.5473  0.1383
 7499SOL    HW133956   0.121   2.952   2.243  0.1382 -1.2549 -0.0301
 7499SOL    HW233957   0.055   3.030   2.134  0.7817 -1.0087 -0.3750
 7500SOL     OW33958   0.745   0.296   6.034 -0.0433  0.2956  0.2179
 7500SOL    HW133959   0.839   0.302   6.013  0.2805  0.4728  1.7037
 7500SOL    HW233960   0.701   0.273   5.953  1.1639 -0.5067 -0.2094
 7501SOL     OW33961   0.363   2.560  11.653 -0.1761 -0.3933 -0.0543
 7501SOL    HW133962   0.446   2.513  11.653  0.9115  1.5388 -1.5113
 7501SOL    HW233963   0.388   2.651  11.642  2.7638 -1.3057 -0.7744
 7502SOL     OW33964   3.387   1.935   4.215  0.1917 -0.6766 -0.3099
 7502SOL    HW133965   3.417   1.876   4.284 -0.1230 -0.5945 -0.1034
 7502SOL    HW233966   3.309   1.971   4.256  0.6529 -2.3377  2.0025
 7503SOL     OW33967   1.587   3.070   1.721  0.5632  0.3145  0.4185
 7503SOL    HW133968   1.494   3.072   1.701  0.6542  0.2219 -0.0131
 7503SOL    HW233969   1.576   3.105   1.809  1.5036  0.4611  0.4844
 7504SOL     OW33970   2.467   2.602  13.860  0.5368  0.0343 -0.3437
 7504SOL    HW133971   2.534   2.566  13.918 -1.1977  1.3927  2.4931
 7504SOL    HW233972   2.421   2.520  13.841  0.4173 -0.0890  0.4481
 7505SOL     OW33973   2.091   3.854  10.991  0.1751  0.5126 -0.3495
 7505SOL    HW133974   2.058   3.931  10.943 -0.8724  1.2768  1.6219
 7505SOL    HW233975   2.034   3.858  11.067 -0.7787 -0.3218 -1.0161
 7506SOL     OW33976   2.473   3.179  11.572  0.2716  0.0612  0.2689
 7506SOL    HW133977   2.466   3.274  11.572  0.0727  0.0619  2.1471
 7506SOL    HW233978   2.429   3.148  11.492  0.1006 -0.3052  0.5020
 7507SOL     OW33979   3.819   2.584   1.612 -0.4112  0.2805 -0.0549
 7507SOL    HW133980   3.901   2.541   1.633  0.5288  1.0055 -2.1774
 7507SOL    HW233981   3.754   2.533   1.660  0.8209 -1.5611 -0.3892
 7508SOL     OW33982   4.645   0.749   9.675  0.0011 -0.0482  0.1970
 7508SOL    HW133983   4.695   0.761   9.595  0.2811 -3.5928 -0.1555
 7508SOL    HW233984   4.646   0.833   9.721  1.4491 -0.2815  0.5869
 7509SOL     OW33985   2.735   3.957  10.042  0.1104  0.0946  0.4872
 7509SOL    HW133986   2.710   3.924  10.128  1.2511  0.8465  1.1094
 7509SOL    HW233987   2.756   3.874   9.999  2.2070  1.5980 -1.3547
 7510SOL     OW33988   0.879   2.639   2.825 -0.6472  0.2372  0.5044
 7510SOL    HW133989   0.824   2.561   2.822  0.7442 -0.6551 -1.8654
 7510SOL    HW233990   0.916   2.645   2.737  1.9618  0.1292  1.5894
 7511SOL     OW33991   3.569   1.703   4.861  0.4640  0.3249  0.1513
 7511SOL    HW133992   3.494   1.722   4.805  1.3234 -0.0747 -1.1257
 7511SOL    HW233993   3.643   1.723   4.804 -0.8501  1.0993 -1.2909
 7512SOL     OW33994   3.976   2.431   8.112 -0.0070 -0.0335 -0.7159
 7512SOL    HW133995   4.027   2.484   8.173  0.9199 -3.6492  1.6352
 7512SOL    HW233996   3.961   2.354   8.166  0.7598 -0.6498 -1.3839
 7513SOL     OW33997   2.252   0.275   2.428  0.2694 -0.1107 -0.6062
 7513SOL    HW133998   2.209   0.284   2.513 -2.0716  0.7567 -1.8667
 7513SOL    HW233999   2.232   0.184   2.406 -0.6661 -0.3817  1.3038
 7514SOL     OW34000   3.634   0.929  11.483  0.1538  0.3531 -0.2297
 7514SOL    HW134001   3.622   0.959  11.573  1.2352 -1.4242  0.5224
 7514SOL    HW234002   3.604   1.002  11.429 -0.7994  0.2068  0.0927
 7515SOL     OW34003   0.823   4.465   6.032 -0.2544 -0.5416 -0.1594
 7515SOL    HW134004   0.757   4.531   6.015 -0.6169 -0.8025  0.2566
 7515SOL    HW234005   0.889   4.502   5.972  0.8249  2.0446  2.6309
 7516SOL     OW34006   1.751   1.454   2.574  0.6423 -0.2298 -0.1225
 7516SOL    HW134007   1.788   1.536   2.607 -0.2252  0.1334 -0.0511
 7516SOL    HW234008   1.698   1.486   2.501  1.0456  0.5766 -0.0679
 7517SOL     OW34009   2.612   3.043  16.563  0.1051  0.1369 -0.0220
 7517SOL    HW134010   2.555   2.972  16.594 -0.9129  1.6900  1.6573
 7517SOL    HW234011   2.589   3.060  16.472  0.6037  0.4096 -0.0980
 7518SOL     OW34012   3.605   2.881   8.626 -0.4699 -0.3475  0.1216
 7518SOL    HW134013   3.603   2.921   8.713 -0.4015  1.0370 -0.5088
 7518SOL    HW234014   3.515   2.855   8.609  0.0283 -0.4420 -2.3029
 7519SOL     OW34015   1.192   0.744  16.187 -0.6059 -0.3603  0.3264
 7519SOL    HW134016   1.231   0.670  16.234  1.9245  1.6283  1.2938
 7519SOL    HW234017   1.135   0.789  16.249  0.2916 -0.6018  1.3249
 7520SOL     OW34018   1.162   2.717  11.936  0.7431  0.1249 -0.6828
 7520SOL    HW134019   1.232   2.656  11.957  1.4429  0.9567 -0.5751
 7520SOL    HW234020   1.207   2.800  11.917  1.9272 -0.7656 -1.7498
 7521SOL     OW34021   3.887   1.899   1.242 -0.2965  0.2202  0.2347
 7521SOL    HW134022   3.898   1.884   1.336  1.0075  1.7700  0.3328
 7521SOL    HW234023   3.940   1.978   1.237  1.1796 -0.6976  1.6592
 7522SOL     OW34024   2.384   3.215   6.707 -0.6171 -0.2831  0.6170
 7522SOL    HW134025   2.311   3.188   6.762  1.5282  0.5135  3.8754
 7522SOL    HW234026   2.366   3.168   6.626 -3.2343  3.6855 -1.1592
 7523SOL     OW34027   4.170   1.128   6.174  0.0420 -0.5636  0.1445
 7523SOL    HW134028   4.121   1.086   6.103 -1.8522 -0.8396  1.6052
 7523SOL    HW234029   4.095   1.170   6.217  2.0153  0.0486  2.9407
 7524SOL     OW34030   1.349   4.455  13.692 -0.2359  0.2372 -0.3216
 7524SOL    HW134031   1.421   4.396  13.668 -0.1063  1.1970 -2.3212
 7524SOL    HW234032   1.287   4.393  13.730  0.0744 -1.0548 -1.9386
 7525SOL     OW34033   4.330   1.252   6.941 -0.2917  0.1682 -0.1047
 7525SOL    HW134034   4.318   1.231   6.848 -1.7006  1.4770 -0.2148
 7525SOL    HW234035   4.288   1.338   6.937  1.7356  1.0488 -2.0896
 7526SOL     OW34036   2.660   4.383   2.778 -0.7134 -0.3949  0.3533
 7526SOL    HW134037   2.614   4.432   2.846 -1.2622  0.7207 -0.8156
 7526SOL    HW234038   2.724   4.329   2.825  1.2287  0.2268 -1.5421
 7527SOL     OW34039   1.193   1.767  12.052 -0.5310  0.4283  0.5042
 7527SOL    HW134040   1.239   1.850  12.061  0.2457  0.0331  0.2909
 7527SOL    HW234041   1.199   1.724  12.138  1.0894 -2.1332 -0.8734
 7528SOL     OW34042   2.540   0.082  15.601  0.3568  0.0868 -0.6085
 7528SOL    HW134043   2.482   0.007  15.614  0.5237  0.1988  0.8243
 7528SOL    HW234044   2.514   0.139  15.674 -0.4999  0.4439 -1.1910
 7529SOL     OW34045   1.915   1.525   0.675  0.3888 -0.1944  0.3553
 7529SOL    HW134046   1.930   1.445   0.725  1.7628  0.0193  0.2918
 7529SOL    HW234047   2.001   1.564   0.693 -0.7214  3.3833 -2.0430
 7530SOL     OW34048   0.063   4.370  16.876 -0.3459  0.3161  0.3595
 7530SOL    HW134049   0.132   4.336  16.820  1.6631  1.2026  2.2934
 7530SOL    HW234050   0.105   4.451  16.905  0.4539  0.5460 -1.4831
 7531SOL     OW34051   1.410   4.448   7.649  0.0403 -0.0411  0.7357
 7531SOL    HW134052   1.437   4.366   7.608  1.0685  1.2942 -1.2589
 7531SOL    HW234053   1.368   4.484   7.571  0.7657 -2.9494 -0.9940
 7532SOL     OW34054   2.144   1.429   3.679  0.0085  0.0821  0.6474
 7532SOL    HW134055   2.109   1.487   3.746  1.1930  1.6584 -0.1012
 7532SOL    HW234056   2.216   1.387   3.725 -0.1445  0.6639  1.4195
 7533SOL     OW34057   3.042   1.102  16.419 -0.5392  0.6051 -0.1149
 7533SOL    HW134058   3.065   1.190  16.390  0.7418  0.5570  0.7809
 7533SOL    HW234059   3.101   1.089  16.493 -0.5205  0.3435 -0.1754
 7534SOL     OW34060   1.017   2.702   2.597  0.5400  0.0723  0.4263
 7534SOL    HW134061   1.030   2.713   2.503  0.3323  1.3799  0.5557
 7534SOL    HW234062   1.078   2.763   2.639  1.2686  1.1622 -2.2174
 7535SOL     OW34063   1.127   1.779   5.353 -0.0075  0.4203  0.3071
 7535SOL    HW134064   1.129   1.726   5.433  0.4836  0.0269  0.0389
 7535SOL    HW234065   1.174   1.857   5.384 -1.8809  2.0317 -0.9495
 7536SOL     OW34066   2.495   4.102   3.584 -0.1942  0.3735  0.0325
 7536SOL    HW134067   2.562   4.049   3.539 -0.0278  2.0708 -1.7038
 7536SOL    HW234068   2.449   4.144   3.512 -0.1861  0.7899  0.2751
 7537SOL     OW34069   2.454   1.828   5.779  0.0925 -0.0625 -0.0077
 7537SOL    HW134070   2.362   1.819   5.803  0.3927 -1.0038  0.8012
 7537SOL    HW234071   2.478   1.905   5.830  1.2604  0.9047 -2.0223
 7538SOL     OW34072   1.070   2.001   7.719 -0.1124 -0.6661  0.3709
 7538SOL    HW134073   1.056   1.908   7.700 -2.5447 -0.0035 -1.1643
 7538SOL    HW234074   1.135   1.986   7.788 -0.8203 -0.9237  0.9854
 7539SOL     OW34075   4.145   0.653   7.157  0.4941 -0.4804  0.0534
 7539SOL    HW134076   4.158   0.635   7.064  0.0428  1.1905 -0.3407
 7539SOL    HW234077   4.049   0.654   7.160  0.4420 -3.4789 -0.8176
 7540SOL     OW34078   3.938   0.776   6.765  0.0753  0.7858 -0.2137
 7540SOL    HW134079   3.871   0.795   6.831  1.8485  0.1193  1.7922
 7540SOL    HW234080   3.947   0.859   6.718  1.7182  0.2532 -0.8676
 7541SOL     OW34081   2.273   2.511   6.121 -0.2435  0.3958  0.1286
 7541SOL    HW134082   2.284   2.594   6.074 -1.2624  0.6503  0.3463
 7541SOL    HW234083   2.214   2.523   6.195 -1.3844  1.4674 -0.9479
 7542SOL     OW34084   1.828   2.737   7.435  0.2940  0.1359  0.1610
 7542SOL    HW134085   1.746   2.768   7.472  1.2809  1.4594  1.2421
 7542SOL    HW234086   1.868   2.812   7.392  0.1687 -1.7770 -3.2560
 7543SOL     OW34087   0.062   1.974   4.460 -1.0036  0.2601  0.0741
 7543SOL    HW134088   0.077   1.967   4.554  0.4758  2.5322  0.0163
 7543SOL    HW234089   0.103   1.891   4.437 -0.5323  0.5386 -0.0990
 7544SOL     OW34090   1.723   2.811   8.718  0.2343  0.5464 -0.3427
 7544SOL    HW134091   1.765   2.829   8.803  1.1280 -0.5657 -0.5504
 7544SOL    HW234092   1.637   2.853   8.714 -1.4824 -2.8947  0.7055
 7545SOL     OW34093   2.504   0.904   6.047 -0.1599 -0.2114 -0.2607
 7545SOL    HW134094   2.496   0.895   6.142 -2.1046  1.0273 -0.3170
 7545SOL    HW234095   2.444   0.832   6.027 -0.4729  0.0013 -0.0799
 7546SOL     OW34096   1.510   0.112  14.338  0.2223 -0.1461  0.2060
 7546SOL    HW134097   1.420   0.123  14.306 -0.2685 -0.8459  1.3244
 7546SOL    HW234098   1.491   0.070  14.422  0.0592 -1.2764 -0.3901
 7547SOL     OW34099   0.081   4.555   3.867  0.0430 -0.0656  0.4926
 7547SOL    HW134100   0.053   4.533   3.779  1.2364  2.4124 -0.5042
 7547SOL    HW234101   0.111   4.472   3.904  0.5585  0.1054  0.4603
 7548SOL     OW34102   2.730   3.331   3.223 -0.5535  0.0466 -0.4364
 7548SOL    HW134103   2.665   3.380   3.272  0.3955 -0.2724  1.1370
 7548SOL    HW234104   2.676   3.290   3.156  1.3912 -1.0816 -1.3355
 7549SOL     OW34105   2.282   1.233  16.781  0.4153  1.0130 -0.1429
 7549SOL    HW134106   2.305   1.267  16.694 -1.4828 -0.2153 -1.1321
 7549SOL    HW234107   2.370   1.228  16.816  0.5306 -0.5268 -0.6571
 7550SOL     OW34108   4.700   2.374   9.381  0.0417  0.3074 -0.3593
 7550SOL    HW134109   4.632   2.432   9.417 -0.2158 -0.2466  0.0578
 7550SOL    HW234110   4.706   2.317   9.457 -2.6998  2.5100  1.5194
 7551SOL     OW34111   3.005   4.580   7.344 -0.1352  0.8405  0.1250
 7551SOL    HW134112   3.063   4.609   7.274  1.1797  0.2429  0.9820
 7551SOL    HW234113   3.049   4.617   7.420  1.8881 -1.4297  0.0332
 7552SOL     OW34114   3.227   0.005  11.460 -0.8446  0.0211 -0.5765
 7552SOL    HW134115   3.172   0.032  11.386 -2.6235 -1.4111  0.2064
 7552SOL    HW234116   3.238   0.086  11.509  1.6862  0.0556 -1.2343
 7553SOL     OW34117   0.187   1.710   2.351  0.2794 -0.4295  0.6242
 7553SOL    HW134118   0.254   1.671   2.406  1.7885  2.0245  0.5254
 7553SOL    HW234119   0.227   1.795   2.331  1.7397 -1.5133 -1.0786
 7554SOL     OW34120   2.028   2.866   0.284  0.1223 -0.6736 -0.1818
 7554SOL    HW134121   2.025   2.771   0.275 -2.2652 -0.4840 -1.2205
 7554SOL    HW234122   2.081   2.885   0.207  1.2088  0.1670  0.7625
 7555SOL     OW34123   4.319   0.257   7.372  0.1952 -0.2163 -0.2736
 7555SOL    HW134124   4.248   0.273   7.435  0.8626  1.9909 -0.0665
 7555SOL    HW234125   4.334   0.343   7.333 -0.7868 -0.0081 -0.2074
 7556SOL     OW34126   2.557   1.234   7.334 -0.5567  1.1539  0.7154
 7556SOL    HW134127   2.557   1.316   7.384 -1.3282 -0.5061  3.4329
 7556SOL    HW234128   2.496   1.173   7.375 -0.4902  1.1086  0.7464
 7557SOL     OW34129   2.755   4.182  13.634  0.3073  0.3528  0.0681
 7557SOL    HW134130   2.789   4.096  13.611 -0.1428 -0.4720  2.4346
 7557SOL    HW234131   2.667   4.154  13.659  0.5120 -2.4321 -2.3576
 7558SOL     OW34132   1.378   2.726   7.645 -0.2261 -0.0065 -0.6868
 7558SOL    HW134133   1.407   2.745   7.734  1.9171 -2.2694 -0.8726
 7558SOL    HW234134   1.384   2.630   7.645  0.1274  0.0105 -1.7866
 7559SOL     OW34135   0.202   1.966   4.702 -0.0104  0.0145 -0.2487
 7559SOL    HW134136   0.240   1.993   4.786 -1.2998 -0.9680  0.6426
 7559SOL    HW234137   0.256   2.021   4.645  2.8854 -2.0909  0.4772
 7560SOL     OW34138   2.878   0.199   3.016  0.2383  0.0443 -0.4069
 7560SOL    HW134139   2.783   0.198   3.033  0.4526  1.7885  0.8478
 7560SOL    HW234140   2.873   0.248   2.934 -0.3541 -0.7825 -0.8661
 7561SOL     OW34141   3.840   3.490   4.658 -0.4851  0.1400 -0.4254
 7561SOL    HW134142   3.814   3.574   4.696 -1.6702 -0.2494 -0.3914
 7561SOL    HW234143   3.858   3.498   4.564  1.5635 -3.2609 -0.3301
 7562SOL     OW34144   2.779   3.126  11.528 -0.0420 -0.1185 -0.2710
 7562SOL    HW134145   2.729   3.053  11.565 -0.5200  0.7750  0.8762
 7562SOL    HW234146   2.707   3.188  11.516  0.7229  0.5977 -1.1106
 7563SOL     OW34147   3.596   0.643   2.200 -0.0787  0.4547  0.3228
 7563SOL    HW134148   3.518   0.685   2.163  0.3749  1.3940  0.4328
 7563SOL    HW234149   3.618   0.711   2.264  2.9499 -0.8014  0.6174
 7564SOL     OW34150   2.324   1.086  15.629  0.1232  0.4817  0.6029
 7564SOL    HW134151   2.285   1.021  15.570  0.1047  0.0208  1.1172
 7564SOL    HW234152   2.354   1.146  15.561  1.2592  0.4634  1.0798
 7565SOL     OW34153   3.620   1.317   7.028  0.1179 -0.4584 -0.3561
 7565SOL    HW134154   3.533   1.300   6.992  0.2083  0.5346 -1.0546
 7565SOL    HW234155   3.602   1.305   7.121  1.2253  1.7083  0.1368
 7566SOL     OW34156   4.159   1.975  15.937  0.3743 -0.2217 -0.1368
 7566SOL    HW134157   4.154   1.936  16.024  1.8816 -1.2443 -0.5112
 7566SOL    HW234158   4.248   2.008  15.929  0.1646  0.2819 -0.4207
 7567SOL     OW34159   2.216   0.494   6.224 -0.3933  0.3289  0.3332
 7567SOL    HW134160   2.189   0.586   6.221 -0.3793  0.3098 -0.3719
 7567SOL    HW234161   2.274   0.496   6.299  0.5692 -1.4491 -0.3669
 7568SOL     OW34162   3.454   0.567   4.861  0.3997 -0.0223  0.2638
 7568SOL    HW134163   3.455   0.513   4.782  1.4615  0.7708 -0.2636
 7568SOL    HW234164   3.531   0.540   4.910  0.4973 -0.0509  0.0974
 7569SOL     OW34165   2.698   0.501   7.722 -0.2175 -0.2080  0.5145
 7569SOL    HW134166   2.646   0.471   7.648  1.5792 -0.8610 -0.4896
 7569SOL    HW234167   2.701   0.595   7.708 -3.4311  0.4399  4.3422
 7570SOL     OW34168   0.960   3.923   0.077  0.2282 -0.4565 -0.1333
 7570SOL    HW134169   1.015   3.880   0.012 -0.4283  1.7636 -2.1901
 7570SOL    HW234170   0.876   3.943   0.036  0.5322  2.0599  0.4608
 7571SOL     OW34171   0.983   0.509   1.641 -0.5154  0.8984  0.2725
 7571SOL    HW134172   1.013   0.481   1.555  0.0780  0.8516  0.4949
 7571SOL    HW234173   0.979   0.605   1.638 -0.0651  0.9555  1.2110
 7572SOL     OW34174   0.040   3.364   3.041 -0.3922 -0.5625 -0.6795
 7572SOL    HW134175   4.681   3.323   3.029 -0.4850 -0.7285  0.5953
 7572SOL    HW234176   0.100   3.290   3.030  1.4646  0.7143  0.8814
 7573SOL     OW34177   3.850   4.580   7.550  0.2463  0.2782 -0.3201
 7573SOL    HW134178   3.847   4.576   7.646 -0.2143  1.0166 -0.3060
 7573SOL    HW234179   3.940   4.612   7.541  0.1530  0.7984  0.4981
 7574SOL     OW34180   3.160   4.216   1.923 -0.1633  0.0650  0.2742
 7574SOL    HW134181   3.149   4.178   2.010  0.9700  1.0448  0.8337
 7574SOL    HW234182   3.130   4.153   1.857 -0.4195  0.0828  0.3707
 7575SOL     OW34183   4.350   2.305  14.354  0.2819 -0.4726  0.9916
 7575SOL    HW134184   4.389   2.281  14.438 -0.3464  3.4830  2.4369
 7575SOL    HW234185   4.290   2.374  14.383  1.8304  0.6760  1.4976
 7576SOL     OW34186   1.245   3.176   5.237 -0.6703 -0.0350 -0.6449
 7576SOL    HW134187   1.250   3.270   5.257 -2.3251 -0.0114 -0.3141
 7576SOL    HW234188   1.219   3.135   5.319  0.7377  0.1220 -0.1320
 7577SOL     OW34189   0.909   2.576   9.601  0.9827 -0.6318  0.4872
 7577SOL    HW134190   0.903   2.594   9.507 -2.0356  0.0057  0.7958
 7577SOL    HW234191   0.825   2.611   9.631  0.9944  0.0175 -0.2375
 7578SOL     OW34192   1.997   0.163   6.019  0.2777 -0.0309 -0.0154
 7578SOL    HW134193   1.980   0.234   6.081  0.5032 -0.5431  0.6329
 7578SOL    HW234194   1.911   0.168   5.977 -1.3376 -0.2900  3.2569
 7579SOL     OW34195   2.161   1.695   5.222 -0.0098  0.6200 -0.1071
 7579SOL    HW134196   2.074   1.702   5.260 -0.1829 -0.1228 -0.3780
 7579SOL    HW234197   2.210   1.656   5.294  2.8236  1.4584 -1.5693
 7580SOL     OW34198   3.976   0.369   5.866  0.1396  0.5356 -0.7309
 7580SOL    HW134199   3.883   0.350   5.875  0.2764 -0.4330 -1.4065
 7580SOL    HW234200   4.012   0.283   5.886  1.5904  1.3959  0.4187
 7581SOL     OW34201   3.662   3.803   4.517  1.3239  0.3045  0.5727
 7581SOL    HW134202   3.677   3.714   4.486 -0.7710 -0.1145  0.7994
 7581SOL    HW234203   3.696   3.789   4.605  1.2754  0.6739  0.6510
 7582SOL     OW34204   4.292   0.296   4.770 -0.2871 -0.4756  0.2064
 7582SOL    HW134205   4.271   0.293   4.677  1.9934  1.5177 -0.3707
 7582SOL    HW234206   4.350   0.220   4.782 -2.9217 -2.6261 -0.8735
 7583SOL     OW34207   2.478   1.952   3.167  0.4114  0.4398 -0.4735
 7583SOL    HW134208   2.457   1.991   3.252 -0.1475  1.0910 -0.9073
 7583SOL    HW234209   2.561   1.993   3.143  1.2611  0.4853  2.4489
 7584SOL     OW34210   1.858   4.710   2.556 -0.2294  0.4653  0.8399
 7584SOL    HW134211   1.871   4.699   2.462 -1.6680  0.7877  0.5931
 7584SOL    HW234212   1.820   0.073   2.551 -0.9715  0.0764 -0.3985
 7585SOL     OW34213   4.010   0.123  15.482  0.4434 -0.5994  0.0937
 7585SOL    HW134214   3.980   0.037  15.511 -0.7639 -1.1465 -2.8034
 7585SOL    HW234215   4.062   0.150  15.558 -1.4666  3.3862  0.0077
 7586SOL     OW34216   0.849   2.023   3.473 -0.4916  0.3920  0.0459
 7586SOL    HW134217   0.838   1.932   3.501 -1.5215  1.1634  2.1548
 7586SOL    HW234218   0.760   2.045   3.444 -0.2945  0.3164 -0.6130
 7587SOL     OW34219   4.217   2.556  13.714 -1.4446  0.1609 -0.4809
 7587SOL    HW134220   4.168   2.638  13.708 -1.0304  0.5672  1.6885
 7587SOL    HW234221   4.199   2.528  13.803 -1.3701 -1.0442 -0.8448
 7588SOL     OW34222   3.231   3.163   8.940 -0.3371 -0.3152 -0.0508
 7588SOL    HW134223   3.205   3.233   8.999  0.8406  0.1189 -0.0485
 7588SOL    HW234224   3.302   3.122   8.990  0.3248  1.6628  0.6159
 7589SOL     OW34225   4.310   2.168  11.344 -0.5772 -0.5255 -0.6782
 7589SOL    HW134226   4.263   2.143  11.423 -2.5143 -0.6830 -1.8652
 7589SOL    HW234227   4.239   2.221  11.308  1.6347  3.4823  0.8956
 7590SOL     OW34228   4.080   3.822   7.266  0.6971  0.4969  0.5343
 7590SOL    HW134229   4.073   3.782   7.352  0.1685  0.1783  0.3448
 7590SOL    HW234230   4.176   3.819   7.256  0.7414 -0.1076  1.1333
 7591SOL     OW34231   4.169   4.605  15.759  0.0827  0.3710  0.1180
 7591SOL    HW134232   4.223   4.571  15.831 -1.5798 -0.9117  0.7663
 7591SOL    HW234233   4.087   4.627  15.802 -0.4740  0.6907 -1.1150
 7592SOL     OW34234   1.333   3.789   1.800  0.0824  0.0287  0.3542
 7592SOL    HW134235   1.318   3.697   1.780 -2.3691  0.7814 -1.2311
 7592SOL    HW234236   1.401   3.819   1.740  0.4131  1.4104  1.4120
 7593SOL     OW34237   4.257   3.552   3.494  0.1614 -0.1348  0.4058
 7593SOL    HW134238   4.193   3.615   3.525 -0.8375 -0.6420 -0.6441
 7593SOL    HW234239   4.209   3.498   3.431 -1.6134  1.4656  0.4142
 7594SOL     OW34240   2.724   0.462   6.006  0.7000  0.1867 -0.1876
 7594SOL    HW134241   2.684   0.460   6.093  0.2939  2.2225 -0.3228
 7594SOL    HW234242   2.736   0.557   5.993  3.2500 -0.0339  0.4642
 7595SOL     OW34243   2.170   2.942   8.173 -0.0193  0.0454 -0.1825
 7595SOL    HW134244   2.213   2.862   8.204 -0.4973 -0.4903 -0.9199
 7595SOL    HW234245   2.233   3.002   8.214 -0.3154  0.4365 -0.3118
 7596SOL     OW34246   2.614   2.851  10.106 -0.3511  0.1244 -0.1648
 7596SOL    HW134247   2.531   2.804  10.093 -1.0645  1.4346 -0.2944
 7596SOL    HW234248   2.626   2.903  10.027 -1.8539  0.1972 -0.3434
 7597SOL     OW34249   0.760   4.329   6.452  0.0329  0.5211 -0.1404
 7597SOL    HW134250   0.714   4.257   6.408 -0.6304 -0.6432  2.4532
 7597SOL    HW234251   0.703   4.347   6.527 -0.7050  0.9201 -0.8044
 7598SOL     OW34252   2.027   0.405   4.011 -0.1568  0.0884  0.2390
 7598SOL    HW134253   2.046   0.398   4.104  0.8392  0.5461  0.0628
 7598SOL    HW234254   2.062   0.322   3.978 -1.5619 -1.2938  2.1882
 7599SOL     OW34255   3.821   3.956  16.633 -0.0894  0.3179 -0.2095
 7599SOL    HW134256   3.808   3.862  16.641  1.9252  0.0691  0.1397
 7599SOL    HW234257   3.809   3.972  16.539  2.2467  1.2961 -0.3354
 7600SOL     OW34258   0.442   4.544   4.681  0.4760 -0.0156 -0.1119
 7600SOL    HW134259   0.425   4.632   4.647 -1.9931 -0.7225 -0.7473
 7600SOL    HW234260   0.426   4.493   4.602  0.5423 -0.0427 -0.1081
 7601SOL     OW34261   2.555   3.363  12.076 -0.2120 -0.5464  0.2068
 7601SOL    HW134262   2.562   3.428  12.007 -0.4347  1.8540  2.4553
 7601SOL    HW234263   2.607   3.407  12.143 -0.8359  0.7631 -0.1663
 7602SOL     OW34264   0.009   3.474  17.563  0.3376 -0.1095 -0.1177
 7602SOL    HW134265   4.695   3.416  17.628 -0.3892  0.2770 -0.2199
 7602SOL    HW234266   0.095   3.436  17.548 -0.2080 -0.4913 -2.2678
 7603SOL     OW34267   0.247   1.927   7.038  0.0043 -0.7398  0.5191
 7603SOL    HW134268   0.270   2.016   7.011  1.8650 -1.5280 -0.4955
 7603SOL    HW234269   0.331   1.882   7.037  0.0331 -0.5531 -3.4353
 7604SOL     OW34270   2.093   3.317   3.119  0.2158  0.2552  0.4592
 7604SOL    HW134271   2.060   3.270   3.196  0.9423  0.5296  0.9342
 7604SOL    HW234272   2.132   3.392   3.164  0.0008  0.6565 -0.0338
 7605SOL     OW34273   3.492   0.206   5.013  0.0146  0.2129 -0.0929
 7605SOL    HW134274   3.553   0.137   5.041 -0.2399 -0.4408 -1.1269
 7605SOL    HW234275   3.503   0.260   5.091  0.0869 -1.7348  1.2616
 7606SOL     OW34276   0.115   0.543   8.627  0.3276 -0.0870 -0.0797
 7606SOL    HW134277   0.206   0.512   8.625  0.8613  1.1922  2.9092
 7606SOL    HW234278   0.128   0.613   8.563 -0.3597  0.5231  0.4471
 7607SOL     OW34279   2.862   0.648   4.740  0.4032 -0.5870 -0.6642
 7607SOL    HW134280   2.904   0.642   4.654  0.0533 -1.3620 -0.7802
 7607SOL    HW234281   2.909   0.580   4.788  0.8477 -0.4580 -0.9253
 7608SOL     OW34282   3.249   3.115  17.357 -0.0498 -0.2186  0.2545
 7608SOL    HW134283   3.216   3.171  17.427  1.8619 -0.7968  1.6224
 7608SOL    HW234284   3.183   3.046  17.358 -0.8856  0.5657 -0.3912
 7609SOL     OW34285   4.638   0.405   6.045 -0.3390  0.0740 -1.0127
 7609SOL    HW134286   4.608   0.331   6.098 -1.4029  0.5924 -0.8942
 7609SOL    HW234287   4.675   0.468   6.107  0.7123 -1.7552  0.2080
 7610SOL     OW34288   1.380   2.336   9.440 -0.0552  0.6618  0.1645
 7610SOL    HW134289   1.397   2.247   9.410  0.2465  0.5554  0.6439
 7610SOL    HW234290   1.284   2.337   9.446 -0.1354 -1.5659 -0.5646
 7611SOL     OW34291   2.937   1.394   4.137  0.2107  0.1705  0.2813
 7611SOL    HW134292   2.999   1.348   4.193 -0.2319  0.4650  1.0120
 7611SOL    HW234293   2.921   1.471   4.192  3.4328  2.0220 -1.3586
 7612SOL     OW34294   1.631   0.216   2.959 -0.5756 -0.8757  0.2506
 7612SOL    HW134295   1.609   0.233   2.868  2.2020 -3.5293 -0.9061
 7612SOL    HW234296   1.707   0.158   2.948 -0.2177 -0.0302 -1.6183
 7613SOL     OW34297   2.982   3.759   2.505 -0.0671 -0.1370  0.0511
 7613SOL    HW134298   2.971   3.676   2.458  0.7525 -0.2446  0.0476
 7613SOL    HW234299   2.924   3.743   2.580  0.1257 -1.6043 -0.1066
 7614SOL     OW34300   0.676   4.316  17.142  0.1816  0.0424  0.7783
 7614SOL    HW134301   0.672   4.221  17.136  3.2800  0.0336 -1.3655
 7614SOL    HW234302   0.765   4.335  17.111 -1.0321  0.3094 -2.5181
 7615SOL     OW34303   2.501   0.336   2.710 -0.3173  0.1022  0.1111
 7615SOL    HW134304   2.558   0.263   2.685 -0.7747 -0.5968  1.0635
 7615SOL    HW234305   2.501   0.386   2.629  0.0125 -0.5376 -0.2840
 7616SOL     OW34306   0.421   4.652   1.995  0.0262  0.3190  0.8217
 7616SOL    HW134307   0.444   4.635   2.087 -0.9826 -0.6247  0.9017
 7616SOL    HW234308   0.481   4.591   1.950 -2.0249 -0.4769 -0.8057
 7617SOL     OW34309   4.157   2.957   2.132 -0.2436  0.0180  0.2116
 7617SOL    HW134310   4.192   2.969   2.220  1.1114 -2.6331  0.0388
 7617SOL    HW234311   4.213   2.886   2.100 -0.0708 -0.4064  1.4732
 7618SOL     OW34312   1.517   0.699   8.499 -0.6112  0.4587 -0.1619
 7618SOL    HW134313   1.467   0.622   8.524  1.6745 -0.8748  0.3033
 7618SOL    HW234314   1.552   0.658   8.420  0.6613  2.1118 -0.4604
 7619SOL     OW34315   3.366   0.889   6.221 -0.2595 -0.2281 -0.0781
 7619SOL    HW134316   3.303   0.873   6.151  0.3207  1.2615 -0.9183
 7619SOL    HW234317   3.314   0.885   6.302  0.0678  1.5781  0.2194
 7620SOL     OW34318   2.478   4.278   7.333 -0.6063  0.2272  0.0803
 7620SOL    HW134319   2.442   4.304   7.418  2.9327 -2.7696  2.4404
 7620SOL    HW234320   2.444   4.355   7.285 -1.7943 -0.4064 -0.1033
 7621SOL     OW34321   2.307   1.878   7.725 -0.2748 -0.2468  0.1994
 7621SOL    HW134322   2.395   1.915   7.714  0.1672 -1.7813 -1.5404
 7621SOL    HW234323   2.265   1.959   7.698  1.0736  0.6272  0.7447
 7622SOL     OW34324   1.805   4.618   4.550  0.5853  0.4787 -0.6949
 7622SOL    HW134325   1.825   4.705   4.515 -0.4242  1.4522  1.1748
 7622SOL    HW234326   1.767   4.586   4.468 -0.1772  1.5046 -0.7505
 7623SOL     OW34327   4.111   4.469   9.153  0.1758  0.6239 -0.7154
 7623SOL    HW134328   4.109   4.463   9.058  3.2450 -0.0154 -0.7182
 7623SOL    HW234329   4.186   4.413   9.173  1.6171  1.8689 -2.6412
 7624SOL     OW34330   2.981   2.080   1.723 -0.7104  0.0361  0.2295
 7624SOL    HW134331   2.924   2.107   1.795  0.2151  0.5495  0.7777
 7624SOL    HW234332   3.000   1.989   1.747 -1.0715 -0.2517 -0.5798
 7625SOL     OW34333   3.921   3.659  17.299  0.4191  0.0289 -0.3729
 7625SOL    HW134334   3.877   3.596  17.241 -2.0550  0.4924  1.0335
 7625SOL    HW234335   3.983   3.611  17.355 -1.2854 -0.0021  1.4681
 7626SOL     OW34336   0.531   0.565   7.214  0.1726 -0.4232  0.2608
 7626SOL    HW134337   0.576   0.483   7.194 -1.1602 -1.2531  0.7008
 7626SOL    HW234338   0.491   0.546   7.298 -1.4470  2.2697  0.1007
 7627SOL     OW34339   1.262   4.533   1.617  0.2981  0.4661 -0.0670
 7627SOL    HW134340   1.166   4.535   1.616  0.2937  0.5131  0.4455
 7627SOL    HW234341   1.283   4.487   1.698  0.0790 -1.7829 -1.3185
 7628SOL     OW34342   0.248   1.480   9.215  0.3279 -0.2873 -0.3014
 7628SOL    HW134343   0.158   1.459   9.238 -0.5084  0.0201 -3.3299
 7628SOL    HW234344   0.295   1.401   9.240  1.5680  0.2742 -0.8182
 7629SOL     OW34345   1.218   2.973  10.888  0.0779  0.1038 -0.1527
 7629SOL    HW134346   1.241   3.023  10.967  0.3405 -1.4529  0.7568
 7629SOL    HW234347   1.168   2.901  10.925  1.6172 -0.2722  1.2078
 7630SOL     OW34348   2.300   4.642   6.390  0.5880  0.0117  0.6616
 7630SOL    HW134349   2.209   4.618   6.373  1.1154 -2.4014  1.2858
 7630SOL    HW234350   2.320   4.630   6.482  0.2361  0.6648  0.8243
 7631SOL     OW34351   0.207   3.158   5.703  0.6157  0.3422 -0.7665
 7631SOL    HW134352   0.132   3.216   5.693 -0.2797 -0.8267 -0.7692
 7631SOL    HW234353   0.175   3.086   5.758 -1.2710  0.6275 -1.4962
 7632SOL     OW34354   0.252   0.925   3.961  0.3468  0.0802 -0.0821
 7632SOL    HW134355   0.233   0.909   4.054  1.0865  0.9600  0.2246
 7632SOL    HW234356   0.188   0.873   3.913 -0.4221 -0.3263  1.3676
 7633SOL     OW34357   3.714   1.182  13.660  0.1353 -0.0517  0.0211
 7633SOL    HW134358   3.781   1.193  13.727  1.0576 -1.5523 -0.6560
 7633SOL    HW234359   3.732   1.267  13.619  1.4044  0.3380  1.4203
 7634SOL     OW34360   0.104   2.339   5.750  0.2603 -0.6267  0.0791
 7634SOL    HW134361   0.118   2.316   5.842  0.7027 -1.8366 -0.3037
 7634SOL    HW234362   0.186   2.307   5.713 -0.8668 -2.2106 -1.0189
 7635SOL     OW34363   0.917   4.250  17.389  0.3760 -0.7583 -0.0214
 7635SOL    HW134364   0.841   4.294  17.427  0.6628  1.4329 -1.9040
 7635SOL    HW234365   0.942   4.308  17.317 -1.0466  1.1110  0.9834
 7636SOL     OW34366   2.629   3.446   6.690  0.4069 -0.0345 -0.0560
 7636SOL    HW134367   2.535   3.433   6.676  0.7384 -2.7549  0.3537
 7636SOL    HW234368   2.673   3.464   6.606  1.7573  0.0767  0.6727
 7637SOL     OW34369   4.709   3.308   4.617 -0.2247  0.6057 -0.5163
 7637SOL    HW134370   4.631   3.328   4.567 -0.2204 -0.7091 -1.0413
 7637SOL    HW234371   0.043   3.263   4.556  1.6175 -1.6948  2.9464
 7638SOL     OW34372   4.442   3.597   4.116 -0.2268  0.3557  0.1161
 7638SOL    HW134373   4.405   3.511   4.098  0.0260  0.0647  0.9458
 7638SOL    HW234374   4.381   3.646   4.062  1.1871  1.1229 -0.7690
 7639SOL     OW34375   1.446   0.479   5.442 -0.6343 -0.0858  0.7936
 7639SOL    HW134376   1.456   0.574   5.435  1.3820 -0.4036 -0.4492
 7639SOL    HW234377   1.521   0.460   5.386 -0.6677 -1.2962  1.1657
 7640SOL     OW34378   0.866   1.517   2.165  0.3916 -0.2004  0.2901
 7640SOL    HW134379   0.797   1.464   2.204 -0.1360 -0.1433 -0.5588
 7640SOL    HW234380   0.822   1.578   2.105 -0.2366 -1.5892 -0.6653
 7641SOL     OW34381   3.279   4.100   3.796  0.0857  0.2421  0.0651
 7641SOL    HW134382   3.320   4.154   3.728 -0.8579  2.5435  1.3194
 7641SOL    HW234383   3.289   4.159   3.871  0.0332 -0.3463  0.5324
 7642SOL     OW34384   0.818   3.324  17.494 -0.1706  0.0194  0.2519
 7642SOL    HW134385   0.804   3.367  17.578 -0.3181  2.3080 -0.9465
 7642SOL    HW234386   0.825   3.232  17.521  0.9341  0.6183  1.9716
 7643SOL     OW34387   2.068   1.934   6.058  0.3679 -0.0098  0.1298
 7643SOL    HW134388   2.097   2.006   6.003 -2.3864  1.0689  0.1142
 7643SOL    HW234389   2.123   1.947   6.135 -0.3573  0.1609  0.6130
 7644SOL     OW34390   4.457   4.714   0.647  0.0261  0.0366  0.0972
 7644SOL    HW134391   4.432   4.650   0.580  0.1879  1.8930 -1.7502
 7644SOL    HW234392   4.480   4.662   0.724  1.0003  0.5143  0.1345
 7645SOL     OW34393   3.049   1.113   9.508 -0.1618 -0.1906  0.4019
 7645SOL    HW134394   3.029   1.202   9.477  0.5806  1.1874  3.8657
 7645SOL    HW234395   3.142   1.123   9.528 -0.1724 -1.8083  1.2121
 7646SOL     OW34396   2.917   0.121   3.296 -0.2962 -0.0166 -0.9444
 7646SOL    HW134397   2.957   0.184   3.236  0.0763 -3.1753 -4.0410
 7646SOL    HW234398   2.832   0.108   3.254 -1.2884  1.1161  0.7054
 7647SOL     OW34399   1.327   0.187  12.301  0.1040  0.2878 -0.0507
 7647SOL    HW134400   1.400   0.125  12.304 -0.3530 -0.1855  1.1139
 7647SOL    HW234401   1.254   0.125  12.293 -0.9807  1.8128 -2.0103
 7648SOL     OW34402   0.371   2.261   5.572 -0.2393  0.2572 -0.0637
 7648SOL    HW134403   0.352   2.184   5.518  0.9024  0.2558 -0.4806
 7648SOL    HW234404   0.455   2.296   5.542 -0.1610 -0.9088 -1.2019
 7649SOL     OW34405   0.545   0.243  13.954  0.2808  0.3126  0.4089
 7649SOL    HW134406   0.493   0.308  14.001  3.1107  1.6127  1.7805
 7649SOL    HW234407   0.494   0.230  13.875  0.7223 -2.9050  0.6456
 7650SOL     OW34408   0.429   3.677   0.848 -0.2039  0.1837 -0.5838
 7650SOL    HW134409   0.505   3.627   0.875 -0.2422  0.8667  0.7723
 7650SOL    HW234410   0.473   3.735   0.786 -0.9840  3.1999  1.6837
 7651SOL     OW34411   2.001   3.217   0.958  0.2006  0.2547  0.0132
 7651SOL    HW134412   2.027   3.132   0.993  1.8561  0.3847 -0.8641
 7651SOL    HW234413   1.971   3.264   1.035 -2.5153  0.0774 -0.9307
 7652SOL     OW34414   4.069   2.269   6.925  0.1449  0.2274 -0.4452
 7652SOL    HW134415   4.104   2.212   6.856  1.3896 -1.1291  1.3097
 7652SOL    HW234416   4.039   2.203   6.988 -0.1114  0.6170 -0.1553
 7653SOL     OW34417   1.450   0.731   7.876  0.4482 -0.0038 -0.1369
 7653SOL    HW134418   1.500   0.813   7.878  0.5416 -0.0610 -0.0769
 7653SOL    HW234419   1.366   0.774   7.863 -1.0257 -2.4045  1.3816
 7654SOL     OW34420   1.457   0.800   5.198 -0.3773  0.2436 -0.0795
 7654SOL    HW134421   1.448   0.773   5.289 -1.5563 -0.3534 -0.3669
 7654SOL    HW234422   1.498   0.884   5.215 -1.0021  0.2820  1.2398
 7655SOL     OW34423   4.145   0.335   8.029  0.5355  0.4896 -0.6533
 7655SOL    HW134424   4.081   0.354   7.961 -0.0854  2.1903  0.4131
 7655SOL    HW234425   4.142   0.410   8.089 -0.3278  1.2212 -1.6216
 7656SOL     OW34426   1.775   2.736   5.809  0.5154  0.2757  0.5321
 7656SOL    HW134427   1.848   2.677   5.830  2.3225  2.3303 -0.0588
 7656SOL    HW234428   1.773   2.714   5.715 -0.4603  2.7814 -0.0206
 7657SOL     OW34429   4.600   0.679   5.398 -0.2578  0.3321 -0.0356
 7657SOL    HW134430   4.667   0.699   5.463 -0.3904  0.3037  0.1104
 7657SOL    HW234431   4.534   0.748   5.409  0.2110  0.6342  0.8492
 7658SOL     OW34432   4.455   2.356   8.855 -0.4591  0.1550 -0.2609
 7658SOL    HW134433   4.533   2.342   8.909 -0.8745  0.1806  0.3346
 7658SOL    HW234434   4.399   2.383   8.927  0.7994  1.6852  0.1558
 7659SOL     OW34435   4.327   2.448  17.212  0.2276 -0.2759 -0.0341
 7659SOL    HW134436   4.298   2.515  17.274 -1.4393 -2.6510  1.7679
 7659SOL    HW234437   4.339   2.380  17.279 -3.2588 -0.6630  0.1676
 7660SOL     OW34438   2.582   3.781  13.442 -0.0736 -0.1759 -0.3823
 7660SOL    HW134439   2.561   3.722  13.369 -1.0475  0.3599 -0.5279
 7660SOL    HW234440   2.519   3.744  13.503  0.8592  0.6215  1.0527
 7661SOL     OW34441   4.651   2.012  16.446 -0.1251 -0.3821  0.6073
 7661SOL    HW134442   4.630   2.105  16.448 -0.0027 -0.3169 -1.8450
 7661SOL    HW234443   4.599   1.983  16.372  0.4629 -2.3001  0.9365
 7662SOL     OW34444   0.040   2.172   5.436 -0.2120  0.4519 -0.2537
 7662SOL    HW134445   0.101   2.188   5.508 -0.9053 -1.4979  0.7594
 7662SOL    HW234446   4.690   2.171   5.493 -0.0272 -1.2688 -0.0422
 7663SOL     OW34447   2.949   2.271  15.486  0.3193  0.0099 -0.7332
 7663SOL    HW134448   3.007   2.260  15.410  0.7006 -1.7713 -0.1900
 7663SOL    HW234449   2.997   2.340  15.533 -1.3805 -0.7634  2.1184
 7664SOL     OW34450   0.932   1.640   5.790  0.0723 -0.4777  0.5769
 7664SOL    HW134451   0.983   1.647   5.709 -0.4268  2.6430  0.5238
 7664SOL    HW234452   0.847   1.676   5.765 -0.0964 -0.7333  0.7844
 7665SOL     OW34453   4.007   0.480   3.660 -0.4935 -0.4247 -0.2522
 7665SOL    HW134454   4.053   0.408   3.703  0.5057  1.1607  1.3255
 7665SOL    HW234455   4.082   0.539   3.648 -1.7634  0.8956 -1.6847
 7666SOL     OW34456   4.215   1.068   8.475  0.6859  0.3963  0.3843
 7666SOL    HW134457   4.278   0.998   8.492  0.0087 -0.1347  0.6997
 7666SOL    HW234458   4.148   1.040   8.536  0.6579  0.7031  0.4969
 7667SOL     OW34459   2.405   2.663   2.692  0.1464  0.4048 -0.2073
 7667SOL    HW134460   2.455   2.739   2.721 -0.4658  0.2042  1.3697
 7667SOL    HW234461   2.385   2.690   2.602  0.2617  0.3941 -0.2357
 7668SOL     OW34462   4.591   0.050   4.186  0.4691 -0.1997 -0.1088
 7668SOL    HW134463   4.562   4.695   4.142 -0.8336  0.7832 -1.0323
 7668SOL    HW234464   4.683   0.034   4.165  0.9258 -0.8761  2.4014
 7669SOL     OW34465   4.469   4.495  13.534 -0.0626 -0.8453  0.0287
 7669SOL    HW134466   4.414   4.465  13.607 -1.0229 -0.6064 -0.5934
 7669SOL    HW234467   4.487   4.585  13.564  0.3806 -1.2975  1.1160
 7670SOL     OW34468   4.610   1.973   2.700 -0.0069  0.5342  0.2419
 7670SOL    HW134469   4.548   1.987   2.628  0.2140 -1.0569 -0.2723
 7670SOL    HW234470   4.662   2.053   2.695  0.4445  0.2146 -0.2044
 7671SOL     OW34471   2.010   3.140  13.541 -0.0278  0.3097  0.4110
 7671SOL    HW134472   1.982   3.124  13.631 -1.9419  0.6648 -0.1203
 7671SOL    HW234473   2.074   3.071  13.527 -1.4786 -1.1641  0.9899
 7672SOL     OW34474   1.387   3.839   3.707  0.2785  0.8734 -0.0571
 7672SOL    HW134475   1.306   3.792   3.728  0.5235 -0.1857 -1.4479
 7672SOL    HW234476   1.406   3.856   3.799  2.4026 -2.2802  0.0667
 7673SOL     OW34477   2.933   2.443   8.865 -0.0740  0.0714  0.2439
 7673SOL    HW134478   2.887   2.369   8.904  0.7688 -1.8045 -2.3202
 7673SOL    HW234479   2.876   2.477   8.795 -2.4778 -3.0203  0.7188
 7674SOL     OW34480   2.495   0.721   3.163  0.0217 -0.0788 -0.1050
 7674SOL    HW134481   2.455   0.650   3.213 -3.9660  2.4750  0.2715
 7674SOL    HW234482   2.421   0.779   3.151 -0.1695 -0.4771 -0.8457
 7675SOL     OW34483   1.171   3.940   6.096 -0.4723 -0.0336 -0.1953
 7675SOL    HW134484   1.143   3.849   6.080 -1.3819  0.1027  0.6063
 7675SOL    HW234485   1.149   3.984   6.014 -1.3555  0.2872  0.2119
 7676SOL     OW34486   2.708   2.173  15.487 -0.4589 -0.2003  0.2052
 7676SOL    HW134487   2.799   2.202  15.488 -0.9987  1.4549  1.2907
 7676SOL    HW234488   2.694   2.141  15.576 -0.8343 -0.1171  0.1764
 7677SOL     OW34489   0.770   2.529  10.986  0.1244  0.1880 -0.4227
 7677SOL    HW134490   0.784   2.582  10.908  0.2089  0.1064 -0.4624
 7677SOL    HW234491   0.675   2.527  10.998  0.6820 -0.9796  3.9741
 7678SOL     OW34492   3.002   0.270   3.954  0.2352  0.4694 -0.3077
 7678SOL    HW134493   3.042   0.246   4.037 -0.4798 -1.0585 -0.4061
 7678SOL    HW234494   2.950   0.190   3.945  1.6378 -0.1369 -3.1106
 7679SOL     OW34495   1.626   0.603   6.919  0.5909 -0.0867 -0.1291
 7679SOL    HW134496   1.694   0.602   6.852  0.3746 -0.3187 -0.3413
 7679SOL    HW234497   1.570   0.672   6.883  0.3924  0.8663  1.9732
 7680SOL     OW34498   3.504   4.668  17.580 -0.1020 -0.3661 -0.8513
 7680SOL    HW134499   3.528   4.679  17.488 -1.7905 -0.5563 -1.3269
 7680SOL    HW234500   3.576   4.608  17.599  0.7847  1.2570  0.9890
 7681SOL     OW34501   4.477   2.410   7.617  0.2341 -0.0979  0.4566
 7681SOL    HW134502   4.385   2.388   7.610 -0.2054  2.1404 -0.7984
 7681SOL    HW234503   4.519   2.324   7.624  0.5623  0.1534  1.5030
 7682SOL     OW34504   3.116   1.209   4.251  0.3564 -0.9369  0.1769
 7682SOL    HW134505   3.141   1.231   4.341  2.3165 -1.4747 -0.2407
 7682SOL    HW234506   3.049   1.143   4.268  1.1713 -1.7709  0.1672
 7683SOL     OW34507   2.976   3.747   5.369 -0.4091 -0.1526 -0.0208
 7683SOL    HW134508   2.943   3.808   5.303 -1.7459 -1.5243 -0.5964
 7683SOL    HW234509   2.911   3.770   5.436  1.3120  1.3820  1.1124
 7684SOL     OW34510   4.689   2.642   4.022 -0.3643 -0.3658  0.1055
 7684SOL    HW134511   4.626   2.570   4.013 -0.8798 -0.1273  1.8801
 7684SOL    HW234512   4.643   2.720   3.992  1.3322  1.7871  3.1525
 7685SOL     OW34513   2.175   2.214   9.423 -0.0239 -0.7499  0.1223
 7685SOL    HW134514   2.079   2.224   9.427 -0.2570 -2.8733  0.0283
 7685SOL    HW234515   2.182   2.128   9.381 -3.4281 -0.5045 -0.9887
 7686SOL     OW34516   3.331   1.372   4.884  0.1022  0.1127 -0.4378
 7686SOL    HW134517   3.289   1.287   4.897  2.8183 -0.6266  3.4301
 7686SOL    HW234518   3.255   1.420   4.919  1.1139  1.3243  0.1360
 7687SOL     OW34519   2.560   1.558   5.904  0.0470  0.1104 -0.1657
 7687SOL    HW134520   2.577   1.564   5.998 -0.4522  0.4137 -0.0967
 7687SOL    HW234521   2.534   1.646   5.879 -0.8796  0.1929  1.0805
 7688SOL     OW34522   0.916   2.936   2.340  0.1940  0.0837 -0.3957
 7688SOL    HW134523   0.899   2.986   2.261  0.2220  0.7602  0.0244
 7688SOL    HW234524   0.843   2.936   2.401  1.8413 -2.0396  1.5652
 7689SOL     OW34525   4.297   2.989   5.201 -0.1616  0.1709 -0.0900
 7689SOL    HW134526   4.380   2.980   5.155 -1.0183  0.3970 -1.6501
 7689SOL    HW234527   4.291   3.084   5.210  3.4035  0.4475 -0.5895
 7690SOL     OW34528   1.586   1.426  14.555 -0.1202 -0.7304 -0.1782
 7690SOL    HW134529   1.558   1.474  14.477 -1.6666 -0.0446  0.7925
 7690SOL    HW234530   1.543   1.478  14.623  2.0455 -0.2685  0.8192
 7691SOL     OW34531   0.400   2.501  12.238 -0.7572  0.1533  0.4576
 7691SOL    HW134532   0.492   2.497  12.213 -1.2336 -2.6535 -0.9591
 7691SOL    HW234533   0.392   2.426  12.297  2.5397 -1.6432 -1.3646
 7692SOL     OW34534   4.185   3.624  14.573 -0.6067  0.1591  1.0270
 7692SOL    HW134535   4.263   3.679  14.577 -1.5994  1.7555 -1.7497
 7692SOL    HW234536   4.190   3.591  14.663 -0.8285 -2.5745  0.0593
 7693SOL     OW34537   3.847   1.895   1.542 -0.2190  0.0027 -0.0556
 7693SOL    HW134538   3.811   1.984   1.532  0.8343  0.6478  1.8302
 7693SOL    HW234539   3.849   1.885   1.638 -0.6676 -1.6134 -0.2183
 7694SOL     OW34540   0.834   2.093   7.894 -0.4390  0.1442 -0.6911
 7694SOL    HW134541   0.845   2.091   7.799  1.7496 -0.4918 -0.4252
 7694SOL    HW234542   0.793   2.010   7.917  0.6203 -0.5482 -1.3351
 7695SOL     OW34543   1.474   0.495  17.241 -0.5702 -0.0222 -0.1162
 7695SOL    HW134544   1.415   0.453  17.179  0.1245  1.4218 -1.7568
 7695SOL    HW234545   1.413   0.515  17.312  1.1099  0.3711  1.2074
 7696SOL     OW34546   0.511   4.625   3.858  0.8906  0.1018  0.0176
 7696SOL    HW134547   0.445   4.617   3.927  1.4114 -0.2483  0.4690
 7696SOL    HW234548   0.480   4.705   3.816  1.7217  0.6456  0.4440
 7697SOL     OW34549   0.854   2.252   1.628  0.3082 -0.0800  0.4988
 7697SOL    HW134550   0.903   2.292   1.556 -0.7748  0.0325 -0.1809
 7697SOL    HW234551   0.854   2.162   1.597 -1.9070  0.4472 -1.0246
 7698SOL     OW34552   1.727   3.259   6.456 -0.0964  0.0938  0.1236
 7698SOL    HW134553   1.764   3.301   6.378 -0.2410 -0.2435 -0.1312
 7698SOL    HW234554   1.702   3.333   6.511 -0.7701 -0.5708  0.6987
 7699SOL     OW34555   1.711   2.315   6.027 -0.2261 -0.7852  0.5806
 7699SOL    HW134556   1.650   2.342   5.959 -1.3956 -1.4051  1.3752
 7699SOL    HW234557   1.795   2.343   5.992  0.0901  0.1915  2.0757
 7700SOL     OW34558   3.099   3.513   4.990 -0.2053 -0.2882  0.4176
 7700SOL    HW134559   3.144   3.432   4.969  0.6053 -0.5521  3.1311
 7700SOL    HW234560   3.068   3.527   4.901  2.6995 -0.5018 -0.6222
 7701SOL     OW34561   2.068   2.753  13.419  0.3177 -0.0437  0.1684
 7701SOL    HW134562   2.154   2.796  13.418  1.1540 -1.7611 -1.5452
 7701SOL    HW234563   2.019   2.813  13.476 -0.3039 -0.5254  0.1278
 7702SOL     OW34564   4.416   0.039   0.094 -0.2897  0.4567 -0.2145
 7702SOL    HW134565   4.469   0.091   0.034  2.4272 -0.6766  1.1968
 7702SOL    HW234566   4.402   0.098   0.167  0.6790 -1.1035  1.2348
 7703SOL     OW34567   2.926   0.736   1.604 -0.5947  0.0640  0.4902
 7703SOL    HW134568   2.907   0.761   1.695 -1.1850 -1.8073  0.8827
 7703SOL    HW234569   2.921   0.818   1.554 -1.1477 -1.5295 -2.0315
 7704SOL     OW34570   3.031   4.429   2.290 -0.0658 -0.1105  0.0146
 7704SOL    HW134571   3.003   4.518   2.270 -0.8913 -0.1317  1.0580
 7704SOL    HW234572   3.095   4.453   2.357  0.5105  0.4512 -0.7324
 7705SOL     OW34573   4.362   1.708   6.704  0.3639 -0.1972  0.2169
 7705SOL    HW134574   4.372   1.782   6.644  0.0076 -0.5940 -0.3414
 7705SOL    HW234575   4.304   1.645   6.660 -1.2540  1.3524  0.1528
 7706SOL     OW34576   1.486   2.683   3.172  0.9102 -0.1587 -0.3693
 7706SOL    HW134577   1.523   2.715   3.254  0.9876 -1.8774  0.2647
 7706SOL    HW234578   1.452   2.598   3.200  0.6069  1.0555  2.8671
 7707SOL     OW34579   1.987   1.095  11.756 -0.4078 -0.1644  0.5714
 7707SOL    HW134580   2.034   1.020  11.718  1.1974  0.8783  0.5021
 7707SOL    HW234581   2.060   1.147  11.789 -0.9786  0.5681  0.6768
 7708SOL     OW34582   0.979   1.988   8.500 -0.3886  0.0186 -0.0756
 7708SOL    HW134583   0.953   1.957   8.587 -3.1079 -0.2391 -0.9896
 7708SOL    HW234584   0.977   2.082   8.516  1.6652  0.1958 -0.8330
 7709SOL     OW34585   1.475   3.644  11.719  0.4192 -0.2260  0.1544
 7709SOL    HW134586   1.502   3.718  11.773 -0.6791  0.3615 -0.0875
 7709SOL    HW234587   1.518   3.679  11.641  1.8041 -1.9322  0.1662
 7710SOL     OW34588   3.667   2.899   6.680  0.0123  0.3531  0.1133
 7710SOL    HW134589   3.752   2.861   6.659  0.5107  1.0634  0.8220
 7710SOL    HW234590   3.641   2.853   6.760  1.5405 -2.4629 -0.9904
 7711SOL     OW34591   0.772   3.751   7.691 -0.3278  0.0836 -0.0588
 7711SOL    HW134592   0.749   3.659   7.686  0.7368 -0.1472 -0.8457
 7711SOL    HW234593   0.710   3.785   7.756  0.3996  3.0767 -0.9140
 7712SOL     OW34594   0.171   2.467   4.258  0.3628  0.0944  0.9069
 7712SOL    HW134595   0.169   2.403   4.329 -0.6061 -0.8386  0.0241
 7712SOL    HW234596   0.159   2.416   4.178 -0.3008 -1.1030  1.7742
 7713SOL     OW34597   4.593   2.134   0.630 -0.0151 -0.0522 -0.4618
 7713SOL    HW134598   4.663   2.091   0.581  1.3535  0.9655  0.6111
 7713SOL    HW234599   4.637   2.187   0.696 -0.2006  2.6061 -2.4907
 7714SOL     OW34600   2.491   2.707   3.534  0.3236 -0.6811  1.0281
 7714SOL    HW134601   2.439   2.630   3.512  0.8234 -0.6968 -0.0985
 7714SOL    HW234602   2.457   2.729   3.621 -1.3014 -0.8314  0.4320
 7715SOL     OW34603   2.705   3.226  10.962 -0.3797 -0.2805 -0.0612
 7715SOL    HW134604   2.672   3.139  10.940 -3.3872  1.3559 -2.1094
 7715SOL    HW234605   2.682   3.274  10.883  0.2752 -1.2857 -0.8579
 7716SOL     OW34606   3.290   4.136   1.257 -0.4313 -0.0291 -0.2005
 7716SOL    HW134607   3.347   4.141   1.333 -2.3137 -0.9378  1.2686
 7716SOL    HW234608   3.278   4.041   1.245 -0.6763  0.1360 -1.2588
 7717SOL     OW34609   1.651   0.013   9.919  0.4499 -0.3130 -0.1801
 7717SOL    HW134610   1.686   0.087   9.869  2.6218 -0.9675  0.3674
 7717SOL    HW234611   1.681   0.044  10.004 -0.9521 -2.2622  1.0238
 7718SOL     OW34612   2.488   1.676  14.021  0.5044 -0.2974 -0.0853
 7718SOL    HW134613   2.539   1.742  13.975 -0.7009  0.3539 -0.4984
 7718SOL    HW234614   2.519   1.706  14.107  0.3849  3.0028 -1.1863
 7719SOL     OW34615   0.005   1.201   1.260 -0.0571 -0.4626  0.0574
 7719SOL    HW134616   0.093   1.174   1.232 -0.4531 -2.2875  0.5981
 7719SOL    HW234617   0.016   1.225   1.353  1.0715 -1.7640  0.2526
 7720SOL     OW34618   0.168   2.803   3.785  0.5291  0.9439  0.4352
 7720SOL    HW134619   0.120   2.745   3.726  2.3602 -0.4914  0.3386
 7720SOL    HW234620   0.109   2.877   3.795 -0.3306 -0.0883  3.1235
 7721SOL     OW34621   1.345   0.465  13.158  0.3608  0.0153 -0.4525
 7721SOL    HW134622   1.376   0.466  13.248 -2.6364 -1.5817  0.6143
 7721SOL    HW234623   1.352   0.371  13.142  1.7516  0.2786 -1.4329
 7722SOL     OW34624   1.838   0.048   2.980  0.4082  0.4067 -0.2670
 7722SOL    HW134625   1.895   0.123   2.963  0.1687  0.9093  1.1856
 7722SOL    HW234626   1.863   0.023   3.068  0.3377  2.2986  0.2911
 7723SOL     OW34627   4.538   4.468  14.492 -0.2861 -0.2678  0.4744
 7723SOL    HW134628   4.466   4.485  14.431 -0.5395  0.2626  0.9175
 7723SOL    HW234629   4.574   4.556  14.496  2.0199 -1.2582  1.4797
 7724SOL     OW34630   4.685   4.666   3.239 -0.2263  0.0114  0.1188
 7724SOL    HW134631   0.007   4.589   3.269 -1.2224 -1.2433 -1.5338
 7724SOL    HW234632   4.628   4.689   3.312  1.2169  1.3339  0.8241
 7725SOL     OW34633   1.697   2.221   5.031 -0.2742 -0.1648 -0.7131
 7725SOL    HW134634   1.642   2.152   4.993 -1.6433  2.1128 -2.7996
 7725SOL    HW234635   1.668   2.220   5.123 -2.7440  0.9162 -1.4751
 7726SOL     OW34636   2.300   4.048  11.044  0.3811  0.6001 -0.2397
 7726SOL    HW134637   2.253   3.968  11.021  1.9599  0.0619 -1.5372
 7726SOL    HW234638   2.264   4.065  11.132  0.4990  1.9014 -0.4409
 7727SOL     OW34639   4.667   0.953  11.736  0.4965  0.3513 -0.4673
 7727SOL    HW134640   0.021   0.911  11.770 -0.2909 -0.5120  0.3349
 7727SOL    HW234641   4.695   0.991  11.653  0.3733 -1.4607 -1.3281
 7728SOL     OW34642   3.111   1.428   2.621  0.2457  0.4179 -0.0387
 7728SOL    HW134643   3.056   1.492   2.668 -0.1435 -0.5800  0.8670
 7728SOL    HW234644   3.174   1.398   2.687  0.5554 -0.0784 -0.5659
 7729SOL     OW34645   2.180   0.938  12.260  1.1620 -0.4467 -0.5850
 7729SOL    HW134646   2.139   0.964  12.177 -0.4729  1.8771  0.9401
 7729SOL    HW234647   2.113   0.899  12.316  0.3183  0.7895 -0.7281
 7730SOL     OW34648   2.366   4.425   9.103 -0.1461  0.0751 -0.2631
 7730SOL    HW134649   2.321   4.362   9.160  1.1619 -0.7800 -0.1784
 7730SOL    HW234650   2.432   4.452   9.167 -2.7270 -1.9821  3.2612
 7731SOL     OW34651   0.019   3.149  10.629  0.1948 -0.3633 -0.0133
 7731SOL    HW134652   4.691   3.078  10.664  0.8728 -0.1476  1.4738
 7731SOL    HW234653   4.708   3.221  10.681 -0.2647  0.5231 -1.5517
 7732SOL     OW34654   1.482   1.783   2.777 -0.5021  0.1771 -0.0426
 7732SOL    HW134655   1.485   1.687   2.781 -0.4620  0.2165  1.1220
 7732SOL    HW234656   1.415   1.795   2.844 -1.2864 -1.5598 -0.5119
 7733SOL     OW34657   4.392   3.335   6.405  0.6992 -0.6359 -0.0132
 7733SOL    HW134658   4.393   3.379   6.320  0.2642  0.3506  0.4886
 7733SOL    HW234659   4.470   3.281   6.398 -0.1010 -1.7119 -0.6485
 7734SOL     OW34660   4.463   0.909   3.002  0.6490  0.2859  0.4121
 7734SOL    HW134661   4.399   0.978   2.985 -0.2004 -0.8138 -0.9007
 7734SOL    HW234662   4.543   0.962   3.008  1.0836 -0.2640 -0.4676
 7735SOL     OW34663   0.963   2.514   7.044  0.6312 -0.1862 -0.2299
 7735SOL    HW134664   1.013   2.592   7.021  1.3144 -0.5222  0.1063
 7735SOL    HW234665   1.020   2.472   7.109  0.9292  2.5862  1.2926
 7736SOL     OW34666   0.016   4.320  10.169  0.1943  0.1388  0.8947
 7736SOL    HW134667   4.671   4.353  10.113  0.7430  0.9948  0.7087
 7736SOL    HW234668   0.007   4.368  10.252 -0.3973  0.8897  0.3974
 7737SOL     OW34669   1.567   1.559   6.361  0.2349  0.2581  0.1446
 7737SOL    HW134670   1.525   1.635   6.401  0.4283  0.3287  0.2128
 7737SOL    HW234671   1.615   1.520   6.434 -0.6569  0.2426  0.7197
 7738SOL     OW34672   2.050   1.377   3.999 -0.3774  0.2245 -0.1641
 7738SOL    HW134673   1.968   1.396   4.045  0.5032  1.4160  0.8837
 7738SOL    HW234674   2.014   1.305   3.947 -2.6474  1.3247 -0.1200
 7739SOL     OW34675   1.296   2.698   6.753 -0.0167 -0.3129 -0.0469
 7739SOL    HW134676   1.265   2.655   6.674 -0.0479  1.1435 -0.8213
 7739SOL    HW234677   1.217   2.729   6.797  0.1407  2.2691 -1.5822
 7740SOL     OW34678   2.851   4.094   4.472  0.1731  0.0029 -0.2961
 7740SOL    HW134679   2.804   4.068   4.552 -1.3424  0.7717 -0.9387
 7740SOL    HW234680   2.922   4.030   4.479  2.0509  1.9913 -1.0020
 7741SOL     OW34681   2.504   0.389   2.420  0.2476  0.8381  0.2295
 7741SOL    HW134682   2.542   0.349   2.343  2.0952  1.5797  0.7596
 7741SOL    HW234683   2.414   0.355   2.425  0.7358 -0.5764 -0.7128
 7742SOL     OW34684   1.646   1.966   4.895  0.2364 -0.1835 -0.5659
 7742SOL    HW134685   1.734   1.931   4.908 -0.9880 -1.7256  3.5302
 7742SOL    HW234686   1.595   1.887   4.876 -0.2841  0.4526 -1.8392
 7743SOL     OW34687   2.283   3.327   2.881 -0.2016  0.5986  0.2970
 7743SOL    HW134688   2.268   3.420   2.869  0.0382  0.2014 -3.0698
 7743SOL    HW234689   2.204   3.294   2.923  0.3864 -1.3796 -0.1486
 7744SOL     OW34690   3.134   3.510   7.805 -0.1271 -0.2008 -0.6218
 7744SOL    HW134691   3.054   3.541   7.848  0.8441 -0.9223  1.6850
 7744SOL    HW234692   3.135   3.416   7.821  1.7172 -0.0229  0.2901
 7745SOL     OW34693   1.902   1.254   8.273 -0.1847  0.2211 -0.5102
 7745SOL    HW134694   1.947   1.203   8.206  2.0166  0.8333  0.4836
 7745SOL    HW234695   1.830   1.299   8.229  1.2124  1.9070 -1.0801
 7746SOL     OW34696   0.397   3.677   1.600 -1.0159 -0.4192  0.2601
 7746SOL    HW134697   0.308   3.675   1.636 -1.1154  0.5827  0.0876
 7746SOL    HW234698   0.425   3.756   1.647  0.6852 -0.8272 -0.0979
 7747SOL     OW34699   3.692   4.559   8.616  0.2423 -0.4333  0.0223
 7747SOL    HW134700   3.629   4.631   8.619  1.5074  0.6391  1.2815
 7747SOL    HW234701   3.655   4.496   8.676 -1.2115  0.0154 -0.4152
 7748SOL     OW34702   0.259   3.686  12.632  0.1198 -0.0726  0.0605
 7748SOL    HW134703   0.190   3.746  12.604 -0.4544 -1.1751 -0.9284
 7748SOL    HW234704   0.275   3.726  12.717 -0.3540 -0.7598  0.4754
 7749SOL     OW34705   2.847   0.453   2.210  0.4446  0.2575  0.2494
 7749SOL    HW134706   2.900   0.439   2.288  0.6963 -3.9841 -0.6435
 7749SOL    HW234707   2.911   0.501   2.157  1.0793  2.5416  3.1126
 7750SOL     OW34708   2.760   3.939   4.274 -0.6357  0.0356  0.3346
 7750SOL    HW134709   2.798   4.009   4.327 -0.6101  0.9091 -0.8294
 7750SOL    HW234710   2.673   3.977   4.287 -1.0820 -1.2569  1.0481
 7751SOL     OW34711   4.618   3.912   5.499  0.3116 -0.3233  0.1198
 7751SOL    HW134712   4.576   3.998   5.496 -2.3058 -1.5959  0.2853
 7751SOL    HW234713   4.601   3.883   5.409 -0.6548  2.2797 -0.5425
 7752SOL     OW34714   1.459   2.359   4.363  0.7655  0.6567  0.2028
 7752SOL    HW134715   1.486   2.436   4.314 -0.8243  0.8884 -0.2996
 7752SOL    HW234716   1.367   2.378   4.382  1.0309  2.7379 -0.6358
 7753SOL     OW34717   1.299   2.321   4.776  0.1735  0.1685 -0.1796
 7753SOL    HW134718   1.273   2.359   4.860  3.0195  1.7605 -0.0002
 7753SOL    HW234719   1.371   2.261   4.795  0.5087  0.7252  0.3322
 7754SOL     OW34720   1.394   0.301  14.638 -0.1993  0.4805  0.3606
 7754SOL    HW134721   1.307   0.312  14.601  0.7802  1.2886 -1.7032
 7754SOL    HW234722   1.415   0.213  14.608 -1.0936  0.7689 -1.0818
 7755SOL     OW34723   0.688   4.359   8.725 -0.2633 -0.6302 -0.1551
 7755SOL    HW134724   0.747   4.286   8.742  0.7218  0.3226  0.5128
 7755SOL    HW234725   0.718   4.426   8.786  0.6115 -3.1462  2.1834
 7756SOL     OW34726   4.710   1.154   4.803  0.1300 -0.1274  0.7079
 7756SOL    HW134727   4.625   1.152   4.848  1.9612 -0.6574  4.2045
 7756SOL    HW234728   4.702   1.244   4.773  0.8776 -0.1240  0.5346
 7757SOL     OW34729   0.632   4.363   6.702 -0.0508 -0.2185 -0.1408
 7757SOL    HW134730   0.547   4.406   6.699  0.2067  0.1546 -2.0817
 7757SOL    HW234731   0.618   4.283   6.753 -2.5545 -1.3853 -2.6971
 7758SOL     OW34732   2.759   1.025   6.506  0.4487  0.0245  0.5481
 7758SOL    HW134733   2.847   0.992   6.524  0.7395  0.3503 -0.2747
 7758SOL    HW234734   2.770   1.085   6.432  1.8377 -0.7712  0.1119
 7759SOL     OW34735   2.446   3.986   6.518 -0.4189  0.3443 -0.1704
 7759SOL    HW134736   2.400   3.955   6.440 -1.5200  0.3194  0.5011
 7759SOL    HW234737   2.378   3.987   6.585  0.1991  0.0303  0.4644
 7760SOL     OW34738   2.814   4.630   9.064 -0.3677 -0.2800  0.5964
 7760SOL    HW134739   2.737   4.682   9.087 -0.0247  0.0669  0.9691
 7760SOL    HW234740   2.857   4.694   9.007  0.4554 -1.3021  0.0735
 7761SOL     OW34741   1.187   2.926  10.588  0.1312 -0.0710 -0.3411
 7761SOL    HW134742   1.188   2.934  10.683 -1.4858  3.7921 -0.6568
 7761SOL    HW234743   1.138   2.844  10.580  0.1989 -0.3083  1.7867
 7762SOL     OW34744   0.110   2.337   4.522 -0.4788  0.6083 -0.5105
 7762SOL    HW134745   0.150   2.389   4.591  1.0348 -1.4084  0.1256
 7762SOL    HW234746   0.016   2.354   4.531 -0.5268 -0.1151  0.3373
 7763SOL     OW34747   0.606   0.816   1.966 -0.2358 -0.1598 -0.0752
 7763SOL    HW134748   0.514   0.793   1.957 -0.0265 -0.8108 -0.5865
 7763SOL    HW234749   0.641   0.761   1.895  0.9233 -0.5341  0.7897
 7764SOL     OW34750   1.139   1.062   2.474 -0.6554  0.2473 -0.1171
 7764SOL    HW134751   1.199   1.024   2.538 -1.4330  1.9836  1.6617
 7764SOL    HW234752   1.056   1.071   2.519 -0.2207 -1.0415  0.9300
 7765SOL     OW34753   2.366   3.342  15.272  0.1766  0.3822 -0.4504
 7765SOL    HW134754   2.418   3.281  15.324 -0.2159 -0.1933 -0.7356
 7765SOL    HW234755   2.431   3.412  15.260  1.1509 -0.2750  0.8756
 7766SOL     OW34756   0.852   3.079   1.567 -0.1970  0.7524 -0.3307
 7766SOL    HW134757   0.934   3.121   1.540  1.8948 -2.0766  1.5981
 7766SOL    HW234758   0.796   3.148   1.602  0.0581  0.2635  1.0433
 7767SOL     OW34759   2.596   2.196  13.554 -0.5241 -0.5684 -0.1635
 7767SOL    HW134760   2.647   2.269  13.522 -1.7174 -0.0100 -0.7901
 7767SOL    HW234761   2.603   2.217  13.647  1.1723 -1.9502  0.0212
 7768SOL     OW34762   2.308   2.404  13.779 -0.4688  0.1237  0.2085
 7768SOL    HW134763   2.328   2.322  13.735 -1.2399  1.9366 -3.4728
 7768SOL    HW234764   2.254   2.449  13.715  0.6447  0.6682 -0.3586
 7769SOL     OW34765   3.166   0.577   0.625  0.4987 -0.0058 -0.0958
 7769SOL    HW134766   3.138   0.629   0.700 -0.7448 -1.4809  0.4508
 7769SOL    HW234767   3.233   0.520   0.664 -1.5116 -2.8273 -0.8187
 7770SOL     OW34768   3.125   0.566   5.795 -0.5414 -0.1799 -0.1493
 7770SOL    HW134769   3.068   0.626   5.749 -0.6795 -1.5529 -1.7670
 7770SOL    HW234770   3.136   0.495   5.732  0.0623 -0.9691  0.8493
 7771SOL     OW34771   4.273   4.682   8.622  0.3774 -0.1860 -0.2892
 7771SOL    HW134772   4.236   4.690   8.710 -0.0743 -0.4804 -0.4522
 7771SOL    HW234773   4.330   0.033   8.619  1.2819 -0.8292  0.4484
 7772SOL     OW34774   2.423   0.945   1.657  0.4222 -0.2951  0.2380
 7772SOL    HW134775   2.437   0.856   1.626 -0.4515  0.7629 -3.2880
 7772SOL    HW234776   2.342   0.925   1.704  0.0100  2.3938  0.6614
 7773SOL     OW34777   4.653   3.769   0.966 -0.6349  0.8340  0.2072
 7773SOL    HW134778   4.722   3.725   1.017  0.1134  0.4967 -1.0878
 7773SOL    HW234779   4.586   3.714   1.008 -2.0237  2.3810 -0.0097
 7774SOL     OW34780   3.300   4.653  17.081  0.1583  0.2096  0.0411
 7774SOL    HW134781   3.261   4.666  16.994  0.3225 -0.8074 -0.1881
 7774SOL    HW234782   3.384   4.619  17.052  0.7470  2.6605 -1.1127
 7775SOL     OW34783   0.145   1.116   2.706 -0.1038  0.0545 -0.4017
 7775SOL    HW134784   0.197   1.193   2.728 -0.1290 -0.2435  0.6894
 7775SOL    HW234785   0.213   1.050   2.690 -0.3152 -0.2857  0.1139
 7776SOL     OW34786   3.220   1.021   4.932  0.1674 -0.3486 -0.5751
 7776SOL    HW134787   3.163   1.049   4.861  1.7515 -0.7802 -2.0259
 7776SOL    HW234788   3.187   0.932   4.918  0.4125 -0.6863  0.9425
 7777SOL     OW34789   0.142   2.170   9.062 -0.3484  0.3272 -0.3633
 7777SOL    HW134790   0.231   2.163   9.026 -0.1890  1.1463 -0.1315
 7777SOL    HW234791   0.136   2.078   9.088  0.6034  0.6396  0.9732
 7778SOL     OW34792   2.306   3.049   4.094  0.3849 -0.0285  0.3110
 7778SOL    HW134793   2.275   3.068   4.183 -2.4827  1.9589 -1.1395
 7778SOL    HW234794   2.398   3.029   4.113  0.5406  0.2248 -0.1816
 7779SOL     OW34795   3.307   3.788  12.174  0.2487 -0.3382 -0.3387
 7779SOL    HW134796   3.311   3.871  12.222 -2.0594  0.4891 -1.5680
 7779SOL    HW234797   3.386   3.743  12.203 -0.7661 -3.2003 -2.0803
 7780SOL     OW34798   2.283   0.952   6.946 -0.6116 -0.2716 -0.6662
 7780SOL    HW134799   2.192   0.922   6.948 -0.5906 -0.2325  0.9183
 7780SOL    HW234800   2.291   0.975   6.853  0.8261 -1.6898 -0.8786
 7781SOL     OW34801   0.280   0.008  10.898 -0.1327  0.3355 -0.3661
 7781SOL    HW134802   0.343   0.068  10.938  0.4800 -0.0490 -0.7608
 7781SOL    HW234803   0.215   4.710  10.964 -0.8293  0.4140 -1.0345
 7782SOL     OW34804   4.585   1.625  15.584 -0.5665 -0.5473 -0.5578
 7782SOL    HW134805   4.543   1.547  15.618  1.1544 -0.9930  0.5109
 7782SOL    HW234806   4.614   1.663  15.666 -1.6596 -0.3683 -0.2483
 7783SOL     OW34807   0.713   4.378  14.422  0.4457 -0.4097 -0.5190
 7783SOL    HW134808   0.685   4.289  14.405 -1.6648  0.4041 -1.2595
 7783SOL    HW234809   0.784   4.378  14.357 -0.1451 -1.4240 -1.1486
 7784SOL     OW34810   2.746   3.202   6.004 -0.7627 -0.3472 -0.7875
 7784SOL    HW134811   2.705   3.133   6.057 -0.2000  0.0123  0.1134
 7784SOL    HW234812   2.671   3.241   5.959 -1.5972 -0.4301  0.5129
 7785SOL     OW34813   1.023   1.047   3.937 -0.7618  0.2043  0.1874
 7785SOL    HW134814   0.965   1.068   3.863  2.1101  0.5774 -1.9566
 7785SOL    HW234815   1.065   1.132   3.949 -3.3379  1.7458 -1.4435
 7786SOL     OW34816   0.913   1.827  14.377 -0.3105  0.0408 -0.2279
 7786SOL    HW134817   0.825   1.849  14.345 -0.6268 -3.0122 -1.4595
 7786SOL    HW234818   0.962   1.841  14.296 -0.3014  0.9402 -0.0639
 7787SOL     OW34819   2.676   3.858   4.001 -0.7548  0.1056  0.3532
 7787SOL    HW134820   2.723   3.900   4.073 -1.0230  1.4669 -0.2660
 7787SOL    HW234821   2.583   3.876   4.012 -1.0400  0.1444 -2.0959
 7788SOL     OW34822   0.159   0.208   5.144 -1.0629  0.5608  0.0760
 7788SOL    HW134823   0.194   0.294   5.168  1.3950  0.2967 -2.5530
 7788SOL    HW234824   0.152   0.159   5.226 -0.6220 -0.4822 -0.5062
 7789SOL     OW34825   0.933   1.820   2.902 -0.1782 -0.3654 -0.4197
 7789SOL    HW134826   0.922   1.800   2.809  1.8531 -3.4240 -0.0241
 7789SOL    HW234827   0.918   1.733   2.939  0.5086 -0.2178  0.1963
 7790SOL     OW34828   3.115   0.967  10.938  0.0577 -0.3187  0.5120
 7790SOL    HW134829   3.056   1.022  10.887  0.8781 -0.0046 -0.0950
 7790SOL    HW234830   3.182   0.937  10.877  0.8418  1.2213  0.6297
 7791SOL     OW34831   3.445   4.238  16.701  0.9174  0.3572  0.3908
 7791SOL    HW134832   3.416   4.252  16.791 -0.1638  0.0337  0.0936
 7791SOL    HW234833   3.540   4.240  16.711  1.1949  0.4527 -2.1066
 7792SOL     OW34834   1.287   0.641   9.367 -0.2365 -0.0969 -0.1558
 7792SOL    HW134835   1.227   0.655   9.293 -2.3700 -0.0227  1.6027
 7792SOL    HW234836   1.363   0.608   9.318  0.1954  3.8235 -2.1653
 7793SOL     OW34837   1.971   3.961   4.242  0.2008  0.3996 -0.2913
 7793SOL    HW134838   1.992   3.881   4.290 -2.2809  0.5312  1.0403
 7793SOL    HW234839   1.996   4.021   4.312 -0.6758 -0.3979  0.7033
 7794SOL     OW34840   1.943   0.253   3.756  0.4459 -0.0371 -0.2763
 7794SOL    HW134841   2.003   0.240   3.830 -1.9119  0.1600  1.6764
 7794SOL    HW234842   1.866   0.221   3.804  1.5867 -0.7864  1.0654
 7795SOL     OW34843   4.080   0.962   9.247 -0.1058 -0.0909  0.1042
 7795SOL    HW134844   4.061   0.891   9.308  0.7963 -1.7533 -1.5110
 7795SOL    HW234845   4.154   1.001   9.293 -0.5738  0.8101  0.0893
 7796SOL     OW34846   2.380   1.227   0.441 -0.0198  0.0712  0.7349
 7796SOL    HW134847   2.330   1.214   0.521 -1.1060 -1.3080 -0.1760
 7796SOL    HW234848   2.468   1.238   0.478 -0.6265 -0.7847  2.4174
 7797SOL     OW34849   4.477   2.063   7.039  0.0755  0.0267  0.1943
 7797SOL    HW134850   4.459   1.972   7.017  1.4033  0.0317 -0.9173
 7797SOL    HW234851   4.476   2.097   6.950  0.0638  1.2904  0.6766
 7798SOL     OW34852   3.120   1.490   2.204  0.1851 -0.0019 -0.3611
 7798SOL    HW134853   3.152   1.411   2.246 -2.2524 -0.4818  0.5869
 7798SOL    HW234854   3.193   1.549   2.221  1.0745 -0.1433 -3.7447
 7799SOL     OW34855   4.661   0.969   6.942 -0.1716 -0.5236 -0.4707
 7799SOL    HW134856   4.667   1.050   6.892 -3.3708 -0.4600 -0.7309
 7799SOL    HW234857   4.645   1.006   7.029  3.8705  2.2415 -0.8805
 7800SOL     OW34858   2.211   4.126  13.074 -0.4406  0.7248  0.0769
 7800SOL    HW134859   2.121   4.093  13.078 -0.1618 -0.1339 -0.6117
 7800SOL    HW234860   2.260   4.068  13.133 -0.3706  0.1819 -0.5013
 7801SOL     OW34861   1.156   0.004   2.397  0.1706  0.2186 -0.4547
 7801SOL    HW134862   1.240   0.050   2.391  1.2860 -1.9188 -1.0909
 7801SOL    HW234863   1.108   0.056   2.333 -1.6119 -0.0308  0.6868
 7802SOL     OW34864   2.958   3.436  10.116 -0.6006  0.1287 -0.1361
 7802SOL    HW134865   2.900   3.382  10.170 -0.1282 -1.2261 -0.9893
 7802SOL    HW234866   3.009   3.368  10.073 -2.0954 -2.3985  2.0965
 7803SOL     OW34867   1.015   0.737   7.335  0.0416 -0.0978 -0.0971
 7803SOL    HW134868   0.968   0.806   7.382  1.2667  0.1571  0.7500
 7803SOL    HW234869   1.095   0.780   7.306  0.1459 -0.0937  0.1919
 7804SOL     OW34870   3.679   1.850   8.295  0.0162 -0.1083 -0.2875
 7804SOL    HW134871   3.686   1.917   8.364 -0.4317 -2.2630  1.8797
 7804SOL    HW234872   3.763   1.806   8.290 -0.9717 -1.9296 -0.8123
 7805SOL     OW34873   1.926   4.239  11.886  0.3924 -0.4420  0.6496
 7805SOL    HW134874   1.893   4.328  11.901 -0.1542 -0.6125  0.4546
 7805SOL    HW234875   1.916   4.197  11.972  0.4276 -0.5507  0.6000
 7806SOL     OW34876   3.813   3.359   5.651  0.4722  0.8900 -0.1060
 7806SOL    HW134877   3.880   3.417   5.617  0.2960  1.5393  0.6595
 7806SOL    HW234878   3.831   3.371   5.744  0.3910 -2.1316  0.3054
 7807SOL     OW34879   3.882   1.297   7.548  0.7918 -0.6034 -0.2044
 7807SOL    HW134880   3.897   1.390   7.538  1.1311 -0.8018 -1.4760
 7807SOL    HW234881   3.963   1.278   7.596  1.1583  2.0276  0.2070
 7808SOL     OW34882   4.293   4.481   7.400  0.2919 -0.6580  0.5849
 7808SOL    HW134883   4.260   4.509   7.314 -1.8074 -1.5500  1.1075
 7808SOL    HW234884   4.252   4.542   7.461 -0.0218  0.2281 -0.5026
 7809SOL     OW34885   0.762   1.547   3.399 -0.0023 -0.1925  0.4329
 7809SOL    HW134886   0.739   1.466   3.353 -0.5271  2.0146 -3.1764
 7809SOL    HW234887   0.679   1.593   3.388  0.1182  0.0678  0.5904
 7810SOL     OW34888   0.407   4.086  10.999  0.1826 -0.2593 -0.7886
 7810SOL    HW134889   0.471   4.070  10.930  0.3834 -1.5275 -0.2976
 7810SOL    HW234890   0.330   4.050  10.955 -1.6822  1.6556  0.9062
 7811SOL     OW34891   4.484   1.187   6.077 -0.0069  0.1992  0.3885
 7811SOL    HW134892   4.456   1.114   6.021  0.4461  0.1512  0.2270
 7811SOL    HW234893   4.408   1.204   6.134 -0.7034 -0.8088 -0.2288
 7812SOL     OW34894   0.593   2.132   1.600 -0.5150 -0.1292  0.5605
 7812SOL    HW134895   0.636   2.078   1.534 -1.8458 -0.3570 -0.1355
 7812SOL    HW234896   0.660   2.196   1.623 -4.5133  3.4205  2.2649
 7813SOL     OW34897   4.459   1.160   5.260  0.6336 -0.5635 -0.0341
 7813SOL    HW134898   4.374   1.134   5.222  0.2977  1.5793 -0.7825
 7813SOL    HW234899   4.506   1.193   5.184  0.4645 -0.0487  0.0844
 7814SOL     OW34900   1.313   0.266   6.873 -0.1650  0.2156 -0.3057
 7814SOL    HW134901   1.348   0.189   6.918  0.0463  0.2125 -0.4767
 7814SOL    HW234902   1.219   0.248   6.875 -0.0290 -0.4862 -0.4387
 7815SOL     OW34903   0.894   4.320  14.243  0.3336  0.0125 -0.3325
 7815SOL    HW134904   0.869   4.230  14.222  0.3912  0.0819 -0.6903
 7815SOL    HW234905   0.961   4.342  14.178 -1.1110  1.0058 -1.4721
 7816SOL     OW34906   1.513   3.346   0.452 -0.2871  0.4483  0.2674
 7816SOL    HW134907   1.492   3.256   0.426 -0.2760  0.0450  1.6131
 7816SOL    HW234908   1.489   3.340   0.545 -0.7697 -2.1364 -0.0225
 7817SOL     OW34909   4.315   3.428   9.353  0.1779  0.1052 -0.4825
 7817SOL    HW134910   4.222   3.437   9.371  0.1658  0.9297 -0.9153
 7817SOL    HW234911   4.322   3.336   9.327  2.4094 -0.5246  2.2801
 7818SOL     OW34912   3.209   1.998  13.782 -0.1999 -0.4242  0.1068
 7818SOL    HW134913   3.247   2.021  13.867  1.1079  1.1682 -0.9271
 7818SOL    HW234914   3.143   2.064  13.762 -1.0510 -1.7642 -1.5120
 7819SOL     OW34915   2.156   2.680   4.070 -0.3528 -0.3790  0.4919
 7819SOL    HW134916   2.062   2.671   4.055 -0.2549 -0.3350 -0.1678
 7819SOL    HW234917   2.184   2.642   3.986 -1.1083 -2.3334  1.1318
 7820SOL     OW34918   4.581   2.599  11.543 -0.2689 -0.1274  0.0726
 7820SOL    HW134919   4.636   2.617  11.467 -1.6099  2.3232 -0.2989
 7820SOL    HW234920   4.525   2.534  11.500  0.7081  0.5875 -2.2295
 7821SOL     OW34921   3.369   0.929   3.742  0.3083  0.2629  0.0601
 7821SOL    HW134922   3.278   0.928   3.712  0.6202  1.0072 -0.9023
 7821SOL    HW234923   3.411   0.933   3.657  1.3758 -1.1277  0.5335
 7822SOL     OW34924   4.307   0.791   8.134 -0.3116  0.3131 -0.4138
 7822SOL    HW134925   4.278   0.882   8.134  1.1477  0.7847  0.0070
 7822SOL    HW234926   4.402   0.807   8.139 -0.2746 -1.1566  3.3211
 7823SOL     OW34927   4.098   0.910   7.038 -0.1119  0.2861 -0.4987
 7823SOL    HW134928   4.003   0.916   7.051 -0.3980  0.0409 -2.4676
 7823SOL    HW234929   4.107   0.840   7.102 -2.7029  1.8788  1.6053
 7824SOL     OW34930   3.155   2.366   4.055  0.4715  0.5067 -0.3230
 7824SOL    HW134931   3.161   2.270   4.056 -0.0085  0.4758  0.1893
 7824SOL    HW234932   3.247   2.377   4.077  0.7055 -0.8623 -0.5839
 7825SOL     OW34933   1.714   0.763   2.614 -0.2437  0.0619 -0.0483
 7825SOL    HW134934   1.765   0.799   2.541 -1.6765 -0.3763 -1.2522
 7825SOL    HW234935   1.631   0.743   2.571  0.3630  1.4155 -1.8723
 7826SOL     OW34936   0.546   1.988   5.025 -0.0663  0.2440  0.2568
 7826SOL    HW134937   0.638   1.972   5.004  0.0364 -0.9407  1.5943
 7826SOL    HW234938   0.530   2.000   5.119 -4.0634  0.4576 -0.4211
 7827SOL     OW34939   2.295   4.392  16.980  0.1318 -0.3477  0.3512
 7827SOL    HW134940   2.299   4.312  17.032  3.3418  0.5766  1.4929
 7827SOL    HW234941   2.270   4.457  17.044 -1.7130 -1.6555  0.9509
 7828SOL     OW34942   1.479   4.505   7.191  0.6382  0.0423  0.4206
 7828SOL    HW134943   1.400   4.488   7.139 -0.2726  1.5750  1.3062
 7828SOL    HW234944   1.540   4.439   7.157 -1.4608 -1.6680 -0.0479
 7829SOL     OW34945   1.027   4.491   8.173 -0.0653  0.0677 -0.1678
 7829SOL    HW134946   1.054   4.515   8.084 -2.1552 -0.8490 -1.0401
 7829SOL    HW234947   0.940   4.454   8.158  0.0883 -0.3654  0.0134
 7830SOL     OW34948   2.648   4.201  12.202 -0.3290 -0.5197  0.0004
 7830SOL    HW134949   2.558   4.233  12.211 -0.4147 -1.0651  1.0388
 7830SOL    HW234950   2.689   4.266  12.144 -1.7732  0.1081 -0.3193
 7831SOL     OW34951   1.400   1.658   7.873  0.0188  0.0795 -0.1217
 7831SOL    HW134952   1.472   1.713   7.903  2.0888 -1.5095 -2.1703
 7831SOL    HW234953   1.418   1.582   7.929  0.8787  1.4098  1.3849
 7832SOL     OW34954   2.599   1.387   2.990 -0.0910 -0.0961 -0.2752
 7832SOL    HW134955   2.618   1.473   2.953 -1.5710 -0.0064 -0.7933
 7832SOL    HW234956   2.574   1.423   3.075 -0.2414  1.0174 -0.7948
 7833SOL     OW34957   4.442   1.758  14.086 -1.2757  0.1489  0.2163
 7833SOL    HW134958   4.420   1.689  14.022 -3.1379  0.7175  0.2379
 7833SOL    HW234959   4.354   1.785  14.112 -0.9592  0.9953  0.4054
 7834SOL     OW34960   0.551   1.537   1.362 -0.2852 -0.3960 -0.2595
 7834SOL    HW134961   0.493   1.546   1.286  0.5917 -0.8696 -0.9971
 7834SOL    HW234962   0.532   1.448   1.390 -1.0524  0.1441  0.9035
 7835SOL     OW34963   4.089   3.685  13.068  0.2359  0.3473  0.4842
 7835SOL    HW134964   4.074   3.606  13.120 -0.9649  0.6820  0.6489
 7835SOL    HW234965   4.003   3.725  13.056 -0.9219 -2.5486 -0.7225
 7836SOL     OW34966   1.324   2.937  10.319  0.1433  0.3613  0.3218
 7836SOL    HW134967   1.269   2.945  10.396 -2.1182  2.2172 -1.4810
 7836SOL    HW234968   1.255   2.937  10.253 -0.3394 -0.2031  0.8338
 7837SOL     OW34969   3.302   3.035   2.192  0.0991  0.7790  0.2975
 7837SOL    HW134970   3.389   3.003   2.166 -0.1235  0.1222  0.3561
 7837SOL    HW234971   3.332   3.118   2.229 -0.8472  0.7962  1.0120
 7838SOL     OW34972   0.286   2.911   7.511 -0.2718 -0.3415 -0.0164
 7838SOL    HW134973   0.216   2.863   7.465 -0.6802 -0.8992  1.1697
 7838SOL    HW234974   0.341   2.835   7.529 -1.7237 -1.4858 -0.3494
 7839SOL     OW34975   2.484   1.057   2.675  0.1107  0.7700  0.2025
 7839SOL    HW134976   2.570   1.015   2.680 -1.1102 -1.9912 -1.9143
 7839SOL    HW234977   2.440   0.988   2.626  3.0358 -2.0183  1.5229
 7840SOL     OW34978   3.084   4.103   6.401 -0.3116  0.0324 -0.3967
 7840SOL    HW134979   3.033   4.077   6.324 -0.0931 -0.3247 -0.4204
 7840SOL    HW234980   3.018   4.103   6.470  1.1186 -1.2460  0.9742
 7841SOL     OW34981   1.271   1.916   3.488 -0.2639 -0.1161 -0.2696
 7841SOL    HW134982   1.256   1.853   3.417  2.5153 -1.7123  0.5541
 7841SOL    HW234983   1.364   1.935   3.480  0.0760 -2.1406 -1.2322
 7842SOL     OW34984   2.401   1.181   3.384 -0.2847  0.0437  0.6176
 7842SOL    HW134985   2.387   1.247   3.452  0.4213  1.6132 -0.7765
 7842SOL    HW234986   2.317   1.171   3.340  0.9827 -0.1489 -1.7610
 7843SOL     OW34987   4.588   0.606   6.336 -0.0541  0.1749 -0.6584
 7843SOL    HW134988   4.511   0.553   6.357  2.1286 -2.8255 -0.2477
 7843SOL    HW234989   4.643   0.566   6.404 -0.8974 -2.7919 -1.6990
 7844SOL     OW34990   3.406   2.610  14.156 -0.1787 -0.3112 -0.0795
 7844SOL    HW134991   3.348   2.625  14.231 -1.4921 -0.9697 -0.9793
 7844SOL    HW234992   3.407   2.694  14.110 -1.6231 -0.3692 -0.2260
 7845SOL     OW34993   0.824   2.648   1.085 -0.0022  0.0286 -0.0026
 7845SOL    HW134994   0.912   2.618   1.108  0.4752  0.6577 -1.0169
 7845SOL    HW234995   0.793   2.701   1.158  2.5709 -0.6708  1.6254
 7846SOL     OW34996   0.446   0.441   8.841  0.0721  0.6382  0.6124
 7846SOL    HW134997   0.465   0.403   8.926 -3.6715  0.5305  1.4086
 7846SOL    HW234998   0.407   0.525   8.864  1.0622  0.9639  1.1258
 7847SOL     OW34999   0.711   4.640   6.888  0.6710 -0.0257  0.0800
 7847SOL    HW135000   0.668   4.709   6.837  0.2176 -0.3955 -0.0331
 7847SOL    HW235001   0.780   4.603   6.833  0.5282  0.4902 -0.4500
 7848SOL     OW35002   1.604   3.138   3.083 -0.4166  0.0070 -0.2098
 7848SOL    HW135003   1.599   3.203   3.154 -2.4339 -0.5326  0.1457
 7848SOL    HW235004   1.510   3.126   3.068 -1.0430  3.0353  1.1315
 7849SOL     OW35005   0.881   2.726   7.467 -0.2199  0.1934 -0.6548
 7849SOL    HW135006   0.956   2.668   7.468 -1.1101 -0.9505 -1.3205
 7849SOL    HW235007   0.912   2.791   7.531 -1.1587  0.1757 -0.1808
 7850SOL     OW35008   1.272   1.990   6.872 -0.8125 -0.4005 -0.1666
 7850SOL    HW135009   1.339   1.964   6.808  0.8976  1.3439  0.9382
 7850SOL    HW235010   1.307   2.077   6.890 -0.0417 -1.5302  3.6876
 7851SOL     OW35011   2.105   3.154   4.495  0.1509  0.0598 -0.3494
 7851SOL    HW135012   2.154   3.227   4.455  0.9428  0.3968  1.2400
 7851SOL    HW235013   2.063   3.125   4.414  1.8666  0.1389 -1.2665
 7852SOL     OW35014   1.904   3.490   4.767 -0.2113 -0.6506 -0.0268
 7852SOL    HW135015   1.841   3.497   4.838  1.8064 -3.3694  2.0227
 7852SOL    HW235016   1.840   3.453   4.706  0.6733 -2.0626 -0.0861
 7853SOL     OW35017   1.761   0.422   5.095  0.1392 -0.7217  0.5524
 7853SOL    HW135018   1.667   0.412   5.110  0.1996 -1.2241  0.5647
 7853SOL    HW235019   1.797   0.453   5.178 -0.1307 -0.9223  0.7451
 7854SOL     OW35020   1.418   1.754   5.003  0.0944  0.0665  0.1199
 7854SOL    HW135021   1.373   1.824   5.050 -0.6295 -0.7352  0.6087
 7854SOL    HW235022   1.354   1.684   5.019 -0.9587  1.0160  0.0299
 7855SOL     OW35023   2.417   2.303   2.938 -0.1007 -0.7105  0.6782
 7855SOL    HW135024   2.385   2.387   2.907  0.8417 -0.3182  0.7605
 7855SOL    HW235025   2.512   2.311   2.926 -0.3419 -0.7412 -1.2008
 7856SOL     OW35026   3.722   1.829   6.631 -0.3647  0.4265  0.1272
 7856SOL    HW135027   3.732   1.874   6.547  1.5337  0.9950  0.6457
 7856SOL    HW235028   3.680   1.748   6.602 -1.5217  1.5221 -1.2787
 7857SOL     OW35029   3.841   1.420   4.426  0.1116  0.2744 -0.2992
 7857SOL    HW135030   3.883   1.335   4.434  0.2052  0.4418  0.9851
 7857SOL    HW235031   3.838   1.442   4.519 -1.9135  0.8859 -0.5197
 7858SOL     OW35032   1.525   4.232   5.913  0.4334  0.5696  0.1934
 7858SOL    HW135033   1.532   4.168   5.984  1.0392  0.0977 -0.3024
 7858SOL    HW235034   1.615   4.257   5.894  0.9615  1.2782  3.6222
 7859SOL     OW35035   4.376   0.658   3.963  0.6422 -0.3725  0.2875
 7859SOL    HW135036   4.431   0.660   4.041  0.5686 -1.2853  0.3663
 7859SOL    HW235037   4.415   0.732   3.916 -0.9063  0.2546  0.0003
 7860SOL     OW35038   3.459   2.855  15.530  0.3229  0.0135 -0.0844
 7860SOL    HW135039   3.394   2.831  15.464 -1.2177 -0.0786  1.4936
 7860SOL    HW235040   3.425   2.936  15.567 -1.0733 -1.0796  0.9824
 7861SOL     OW35041   4.328   4.324  11.068  0.4481 -0.4049  0.3992
 7861SOL    HW135042   4.335   4.356  11.158  0.1461  1.2402 -0.1634
 7861SOL    HW235043   4.291   4.240  11.095 -3.2986  0.7629 -1.0419
 7862SOL     OW35044   1.164   3.018   1.025 -0.3434  0.8420  0.0609
 7862SOL    HW135045   1.196   3.076   1.094  0.6888  1.1400 -0.6811
 7862SOL    HW235046   1.078   2.987   1.054 -0.6988  0.5008 -1.3469
 7863SOL     OW35047   3.543   2.660   4.735  0.0565  0.0504  0.1648
 7863SOL    HW135048   3.612   2.648   4.800 -2.6384  0.2051  3.0056
 7863SOL    HW235049   3.460   2.637   4.776  0.7126  1.6589  2.3563
 7864SOL     OW35050   0.664   0.133   7.411  0.3230 -0.1931  0.6271
 7864SOL    HW135051   0.654   0.214   7.362  0.8048 -0.7460 -0.3932
 7864SOL    HW235052   0.648   0.072   7.339 -0.3176  0.2134  0.4252
 7865SOL     OW35053   1.208   0.059  10.071  0.4815  0.0710 -0.1204
 7865SOL    HW135054   1.254   0.074   9.988  1.1253  0.2866  0.2788
 7865SOL    HW235055   1.274   0.074  10.138  0.9440 -0.2668 -0.5006
 7866SOL     OW35056   0.257   4.487   2.733  0.1652  0.1685 -0.3153
 7866SOL    HW135057   0.295   4.448   2.812  0.1781 -1.3709 -1.0766
 7866SOL    HW235058   0.258   4.419   2.666 -0.0083  1.4512 -1.6163
 7867SOL     OW35059   1.773   0.507   5.404 -0.4703 -0.1267 -0.3263
 7867SOL    HW135060   1.754   0.583   5.459 -1.3463  1.5975 -3.0020
 7867SOL    HW235061   1.867   0.501   5.418 -0.2122 -0.2016 -2.1364
 7868SOL     OW35062   1.972   3.555   3.299 -0.0408 -0.8286 -0.3234
 7868SOL    HW135063   1.880   3.531   3.291 -0.1530 -1.2402  2.1394
 7868SOL    HW235064   1.991   3.588   3.211 -0.2313  2.5195  0.8793
 7869SOL     OW35065   2.143   1.911   5.086 -0.1107 -0.1046 -0.1808
 7869SOL    HW135066   2.173   1.835   5.136  0.6229 -0.1800 -0.7400
 7869SOL    HW235067   2.199   1.982   5.117  1.3202 -1.5934  0.5906
 7870SOL     OW35068   1.950   4.448  14.672  0.0742  0.5956  0.1959
 7870SOL    HW135069   2.023   4.490  14.717 -2.3468  1.5720  3.2414
 7870SOL    HW235070   1.925   4.380  14.735  2.1016  0.6218  1.0426
 7871SOL     OW35071   4.348   3.868   1.202  0.0451 -0.2218  0.2449
 7871SOL    HW135072   4.295   3.932   1.154 -1.2917 -0.7316  1.0121
 7871SOL    HW235073   4.418   3.932   1.214 -0.8086  0.8724 -0.5553
 7872SOL     OW35074   2.881   0.224   6.068 -0.0875 -0.2606  0.0650
 7872SOL    HW135075   2.971   0.250   6.049  0.4718 -2.0658  0.1750
 7872SOL    HW235076   2.842   0.304   6.034  1.7281 -0.4655 -2.5504
 7873SOL     OW35077   4.149   3.349  12.224 -0.3222  0.1647 -0.4349
 7873SOL    HW135078   4.107   3.280  12.277  2.4075 -0.9766  0.2327
 7873SOL    HW235079   4.215   3.377  12.286 -1.6594  0.6208  0.7918
 7874SOL     OW35080   4.675   3.819   4.053  0.3073 -0.5811  0.4988
 7874SOL    HW135081   4.648   3.886   3.989 -1.2228  0.2930  2.0765
 7874SOL    HW235082   4.594   3.770   4.064 -1.0053  1.2104 -1.1008
 7875SOL     OW35083   2.284   2.658   5.382  0.5436 -0.0243 -0.0535
 7875SOL    HW135084   2.230   2.625   5.311 -0.4914 -0.2548  0.8487
 7875SOL    HW235085   2.245   2.744   5.397 -1.1568 -0.6516 -0.9316
 7876SOL     OW35086   0.624   3.095   4.925  0.6168 -0.1902  0.0198
 7876SOL    HW135087   0.635   3.030   4.993  2.1003  0.3821  0.3159
 7876SOL    HW235088   0.716   3.102   4.902  0.3267  2.8713 -0.3238
 7877SOL     OW35089   2.527   3.969   0.839 -0.4961 -0.1155 -0.1593
 7877SOL    HW135090   2.566   3.980   0.926  1.6654  1.6705 -1.3388
 7877SOL    HW235091   2.446   4.019   0.845 -1.2471 -1.3023 -0.5469
 7878SOL     OW35092   3.599   2.486  15.828 -0.8567  0.4053  0.2016
 7878SOL    HW135093   3.614   2.568  15.876  0.8067 -0.3486  0.9817
 7878SOL    HW235094   3.632   2.525  15.747 -1.8522 -1.8784 -1.3054
 7879SOL     OW35095   3.907   3.337   3.097  0.2755 -0.1184 -0.3525
 7879SOL    HW135096   3.842   3.307   3.034 -1.6256 -0.3414  1.6973
 7879SOL    HW235097   3.978   3.277   3.073  0.6067  0.8600 -1.8168
 7880SOL     OW35098   2.568   1.392   7.965 -0.5873  0.0072 -0.4316
 7880SOL    HW135099   2.566   1.302   7.996 -0.9926  0.2385  0.1983
 7880SOL    HW235100   2.557   1.363   7.874 -1.2556 -0.6743 -0.1292
 7881SOL     OW35101   0.775   3.439  12.531  0.6333 -0.1441  0.5155
 7881SOL    HW135102   0.825   3.363  12.500 -0.2659 -0.6249  0.2496
 7881SOL    HW235103   0.774   3.427  12.626  2.8302 -0.1006  0.5440
 7882SOL     OW35104   2.651   0.410  10.903  0.1251 -0.6626  0.3359
 7882SOL    HW135105   2.737   0.436  10.936 -0.6042  0.6593  1.1493
 7882SOL    HW235106   2.602   0.485  10.868 -0.0459 -0.8234  0.2292
 7883SOL     OW35107   1.062   3.963   7.035 -0.4341  0.2488 -0.0498
 7883SOL    HW135108   1.008   3.934   7.109  2.5330  2.5046  2.9642
 7883SOL    HW235109   1.093   3.882   6.995 -0.6564  0.6118 -0.9555
 7884SOL     OW35110   2.006   0.506   5.181 -0.0478  0.2913  0.1783
 7884SOL    HW135111   2.083   0.483   5.129  0.9710  0.8805  1.4195
 7884SOL    HW235112   1.962   0.566   5.122  0.6576  0.4230 -0.2204
 7885SOL     OW35113   3.676   1.026   2.558  0.1816 -0.1784  0.0860
 7885SOL    HW135114   3.600   1.045   2.614  0.0332  2.0805 -0.8705
 7885SOL    HW235115   3.746   1.085   2.588 -1.2020  0.8132  1.4150
 7886SOL     OW35116   4.233   0.932   9.471  0.1798  0.0434 -0.3431
 7886SOL    HW135117   4.172   0.866   9.505 -0.5981  1.2259  0.5512
 7886SOL    HW235118   4.304   0.879   9.434 -0.6377 -0.7803 -0.7427
 7887SOL     OW35119   0.088   0.167   5.403  0.9434  0.1334  0.4933
 7887SOL    HW135120   4.723   0.138   5.391  0.7401  0.1787  1.9071
 7887SOL    HW235121   0.089   0.212   5.488 -0.4876  0.6811  0.2160
 7888SOL     OW35122   3.865   0.838   7.290 -0.7513 -0.0249  0.8322
 7888SOL    HW135123   3.861   0.932   7.307 -0.2074 -0.0879  1.3326
 7888SOL    HW235124   3.885   0.803   7.377  1.4797 -2.1646 -0.5240
 7889SOL     OW35125   2.325   1.426  10.514 -0.2051  0.1166 -0.0661
 7889SOL    HW135126   2.243   1.380  10.495  0.1207 -0.0695 -1.0109
 7889SOL    HW235127   2.335   1.457  10.424 -2.6339 -1.0132 -0.7296
 7890SOL     OW35128   2.397   3.466   5.384  0.1420  0.1063 -0.1980
 7890SOL    HW135129   2.333   3.398   5.363 -1.7218  1.4519  1.0928
 7890SOL    HW235130   2.406   3.440   5.476 -3.4487 -0.6406 -0.0596
 7891SOL     OW35131   1.349   0.208  13.262 -1.0256 -0.1757  0.1725
 7891SOL    HW135132   1.360   0.163  13.178 -0.9614  0.3441 -0.0971
 7891SOL    HW235133   1.415   0.168  13.318 -0.9567 -0.9351 -0.4547
 7892SOL     OW35134   3.622   2.274   6.385 -0.0858 -0.4692 -0.2188
 7892SOL    HW135135   3.674   2.206   6.427 -0.2694 -0.8296 -0.5813
 7892SOL    HW235136   3.686   2.304   6.320  0.7843 -0.4118  0.6540
 7893SOL     OW35137   3.913   0.865   3.464  0.4998 -0.0745  0.0838
 7893SOL    HW135138   4.002   0.852   3.497  0.4446  2.6799  1.3423
 7893SOL    HW235139   3.892   0.789   3.411  1.2073 -1.8562  2.3923
 7894SOL     OW35140   0.889   3.180   6.186 -0.5011  0.3969 -0.3127
 7894SOL    HW135141   0.903   3.096   6.143 -0.7069  0.7726 -1.1119
 7894SOL    HW235142   0.801   3.170   6.222  0.2833  0.2358  1.5942
 7895SOL     OW35143   3.704   4.617   0.542 -0.1860  0.1002  0.1425
 7895SOL    HW135144   3.727   4.533   0.582 -2.0589 -0.0908  0.8474
 7895SOL    HW235145   3.614   4.639   0.567 -1.0268 -0.7272 -2.1499
 7896SOL     OW35146   2.128   1.956   8.212  0.2313  0.2631  0.1001
 7896SOL    HW135147   2.166   1.949   8.124  0.4933  1.0101  0.1575
 7896SOL    HW235148   2.099   1.865   8.217  3.2013 -0.7034 -0.3411
 7897SOL     OW35149   1.819   4.351  15.849  0.4464 -0.0981 -0.3420
 7897SOL    HW135150   1.725   4.336  15.835  0.4639  0.3354 -0.9178
 7897SOL    HW235151   1.845   4.284  15.786  1.5283 -0.3021  0.3177
 7898SOL     OW35152   2.012   4.029  14.449  0.4105 -0.4905 -0.3429
 7898SOL    HW135153   2.052   4.095  14.392  2.4821 -1.7445 -0.2946
 7898SOL    HW235154   1.928   4.018  14.403  0.3281 -0.6371 -0.1559
 7899SOL     OW35155   4.519   0.840   2.675  0.4243  0.1134  0.8181
 7899SOL    HW135156   4.555   0.897   2.606 -0.8197  0.1205  0.1650
 7899SOL    HW235157   4.470   0.777   2.621 -1.6224 -1.4482  4.5269
 7900SOL     OW35158   3.573   1.003   5.442  0.3826 -0.4443 -0.1497
 7900SOL    HW135159   3.562   1.082   5.390  1.4717 -0.0752  0.1702
 7900SOL    HW235160   3.588   1.041   5.529  0.6667  1.3165 -0.9725
 7901SOL     OW35161   2.924   3.548   5.700  0.2962 -0.0079  0.3218
 7901SOL    HW135162   2.895   3.638   5.689  1.1961  0.4926  2.0694
 7901SOL    HW235163   2.999   3.546   5.640  0.2462 -0.9486  0.2932
 7902SOL     OW35164   2.659   3.346   9.691 -0.0157 -0.1444  0.5881
 7902SOL    HW135165   2.649   3.281   9.761  3.5808 -0.8687  0.4439
 7902SOL    HW235166   2.569   3.346   9.661 -0.1056 -1.8391  0.8700
 7903SOL     OW35167   1.498   2.074   4.273 -0.1021 -0.3499  0.2150
 7903SOL    HW135168   1.473   2.166   4.288  3.9172  0.0149  4.7945
 7903SOL    HW235169   1.536   2.047   4.357 -0.0500 -2.6682 -0.5751
 7904SOL     OW35170   0.230   2.023  12.464 -0.1901 -0.7183 -0.2790
 7904SOL    HW135171   0.148   2.058  12.497  0.9367  0.2420  1.5286
 7904SOL    HW235172   0.222   1.935  12.499 -2.5684 -0.8129 -1.0551
 7905SOL     OW35173   0.094   2.239  10.473 -0.5164 -0.0337 -0.0714
 7905SOL    HW135174   0.076   2.147  10.453  2.1147 -0.3459 -1.0070
 7905SOL    HW235175   0.187   2.226  10.491 -1.0387 -2.0261  1.1616
 7906SOL     OW35176   0.214   3.851   1.307  0.0300 -0.5813 -0.4649
 7906SOL    HW135177   0.196   3.944   1.291 -2.4197 -1.2676 -1.8052
 7906SOL    HW235178   0.140   3.834   1.366 -0.2629  0.8352 -0.4196
 7907SOL     OW35179   0.560   2.395   8.590 -0.1345 -0.2715  0.0969
 7907SOL    HW135180   0.574   2.481   8.629 -1.7277  1.2855 -2.8124
 7907SOL    HW235181   0.484   2.368   8.642 -0.4584 -0.3991 -0.4466
 7908SOL     OW35182   0.404   1.840   3.339  0.0429  0.8507  0.4207
 7908SOL    HW135183   0.447   1.878   3.262 -0.0462  1.1330  0.5096
 7908SOL    HW235184   0.319   1.882   3.325 -0.7296 -0.4653  1.0971
 7909SOL     OW35185   2.264   2.348  11.752  0.5697  0.0452  0.2766
 7909SOL    HW135186   2.284   2.255  11.761 -0.2828 -0.3029 -1.3383
 7909SOL    HW235187   2.351   2.384  11.735  0.1874  0.9456  0.2383
 7910SOL     OW35188   2.769   3.328   5.659 -0.4152 -0.2888 -0.2250
 7910SOL    HW135189   2.822   3.284   5.593 -2.0048 -2.8011  0.2025
 7910SOL    HW235190   2.817   3.410   5.676  0.1133 -0.6096 -0.1599
 7911SOL     OW35191   2.817   3.178   3.542  0.1897  0.0505  0.1564
 7911SOL    HW135192   2.768   3.096   3.543  1.3709 -0.6497  0.2014
 7911SOL    HW235193   2.747   3.241   3.561  0.1529  1.0879 -3.4138
 7912SOL     OW35194   0.954   4.363   4.761  0.1306 -0.3904 -0.5307
 7912SOL    HW135195   0.862   4.352   4.739 -0.0123  1.7015 -1.0229
 7912SOL    HW235196   0.990   4.281   4.729 -0.2621 -0.3921 -0.9713
 7913SOL     OW35197   3.854   3.081   5.622 -0.2552 -0.2122  0.5604
 7913SOL    HW135198   3.856   3.078   5.718 -1.7065  2.5145  0.6650
 7913SOL    HW235199   3.838   3.174   5.605 -0.8077  0.1380  2.9186
 7914SOL     OW35200   3.814   3.557   1.896  0.0484  0.1090  0.4868
 7914SOL    HW135201   3.866   3.526   1.971 -1.3955 -0.7877  1.1218
 7914SOL    HW235202   3.726   3.555   1.933 -0.0668 -2.5698  0.0984
 7915SOL     OW35203   3.430   3.772   6.742  0.4038 -0.0245  0.0281
 7915SOL    HW135204   3.412   3.737   6.829 -0.0212  0.1848  0.0286
 7915SOL    HW235205   3.493   3.840   6.766  1.3683  0.1448 -3.0863
 7916SOL     OW35206   0.443   3.723   1.322  0.2341 -0.2761 -0.2483
 7916SOL    HW135207   0.356   3.761   1.328  0.1966 -0.3984 -0.0189
 7916SOL    HW235208   0.465   3.705   1.414 -1.1266  0.3292  0.1956
 7917SOL     OW35209   2.002   4.397   8.417  0.0118 -0.4938 -0.4241
 7917SOL    HW135210   2.024   4.420   8.327 -2.0133  0.0739 -0.7763
 7917SOL    HW235211   2.080   4.415   8.469  0.3355  0.0058 -1.0867
 7918SOL     OW35212   3.768   4.703   3.572 -0.0012  0.0005 -0.0944
 7918SOL    HW135213   3.797   0.066   3.591 -0.2156  0.4302 -1.8007
 7918SOL    HW235214   3.672   4.707   3.567  0.1104  0.3134 -1.7878
 7919SOL     OW35215   4.713   3.573   5.462  0.6218 -0.6515  0.0016
 7919SOL    HW135216   0.012   3.648   5.517 -1.1490 -0.4565  0.5103
 7919SOL    HW235217   0.068   3.560   5.412  0.8211 -3.0208  0.9365
 7920SOL     OW35218   3.717   2.151   2.178  0.2268  0.4621  0.0845
 7920SOL    HW135219   3.657   2.082   2.206  1.1894 -0.9810 -1.3873
 7920SOL    HW235220   3.787   2.098   2.141  0.1570 -0.4882  1.3053
 7921SOL     OW35221   1.729   2.783  17.081 -0.5001 -0.6523 -0.5331
 7921SOL    HW135222   1.803   2.742  17.036 -0.2992  0.2587 -1.0432
 7921SOL    HW235223   1.758   2.783  17.172  1.8347  0.1888 -1.2666
 7922SOL     OW35224   2.706   3.728   6.908 -0.5276 -0.5657 -0.0653
 7922SOL    HW135225   2.799   3.751   6.914 -0.1808 -1.4712 -2.1429
 7922SOL    HW235226   2.705   3.641   6.949  2.0351 -1.0117 -0.9595
 7923SOL     OW35227   3.833   2.729   9.911  0.5621  0.5554  0.0832
 7923SOL    HW135228   3.844   2.657   9.848  0.1251  0.2061  0.4018
 7923SOL    HW235229   3.767   2.698   9.972  0.8590  2.3333  1.2957
 7924SOL     OW35230   2.211   3.369   0.892  0.8268 -0.4710  0.3259
 7924SOL    HW135231   2.190   3.447   0.944 -1.4858 -0.5810 -0.4219
 7924SOL    HW235232   2.151   3.308   0.936 -0.1964  1.5459  1.7547
 7925SOL     OW35233   1.374   1.051  10.770 -0.0137  0.9393 -0.0348
 7925SOL    HW135234   1.281   1.071  10.771 -0.3885 -0.7536 -0.8551
 7925SOL    HW235235   1.380   0.974  10.714 -1.1018  0.6384  0.2702
 7926SOL     OW35236   4.298   0.139  12.522 -0.5320 -0.2259  0.6735
 7926SOL    HW135237   4.372   0.117  12.577 -0.1332  0.6470  0.4830
 7926SOL    HW235238   4.323   0.226  12.493  0.4933 -0.4922  0.7839
 7927SOL     OW35239   2.962   3.698  15.892 -0.9058  0.0499  0.5744
 7927SOL    HW135240   3.053   3.675  15.911 -0.9241  1.6966  2.6888
 7927SOL    HW235241   2.916   3.623  15.930 -0.6597 -0.2273  0.3143
 7928SOL     OW35242   3.114   2.548   5.325  0.3959  0.5405 -0.3085
 7928SOL    HW135243   3.031   2.501   5.332 -0.3478  1.7806 -0.9912
 7928SOL    HW235244   3.072   2.634   5.323 -1.5473 -0.3862  1.3564
 7929SOL     OW35245   3.729   0.746   5.488 -0.1262 -0.2759 -0.1646
 7929SOL    HW135246   3.709   0.839   5.483  2.0600  0.3049  1.7130
 7929SOL    HW235247   3.739   0.730   5.394  1.9669 -3.5101  0.5666
 7930SOL     OW35248   0.578   1.853  10.777  0.5206 -0.2319 -0.7860
 7930SOL    HW135249   0.631   1.834  10.855 -2.2618 -0.0932  1.1455
 7930SOL    HW235250   0.508   1.788  10.785  1.1450 -1.1920 -3.2980
 7931SOL     OW35251   0.412   3.086   6.601 -0.3348  0.0192 -0.1470
 7931SOL    HW135252   0.394   3.043   6.685  0.7994  1.0551  0.6261
 7931SOL    HW235253   0.322   3.117   6.591 -0.6580 -0.0358  2.4764
 7932SOL     OW35254   4.486   3.876   5.247 -0.2303  0.1003  0.4489
 7932SOL    HW135255   4.415   3.925   5.206 -0.4069 -1.0355 -0.6274
 7932SOL    HW235256   4.565   3.889   5.195  0.4398 -0.1283  1.4172
 7933SOL     OW35257   3.953   3.266   2.357 -0.0085  0.5219  0.2149
 7933SOL    HW135258   3.974   3.189   2.304  2.1355  1.4109 -0.2118
 7933SOL    HW235259   4.032   3.283   2.409  0.2767 -3.6581  1.1632
 7934SOL     OW35260   3.924   3.468  13.635  0.3890  0.1550 -0.4616
 7934SOL    HW135261   3.834   3.475  13.602 -0.6325 -1.3655  2.0198
 7934SOL    HW235262   3.956   3.390  13.589  0.7583  0.8152 -1.3467
 7935SOL     OW35263   4.110   1.386   3.552 -0.2213 -0.4318 -0.6258
 7935SOL    HW135264   4.127   1.466   3.601  1.5971 -0.3819 -1.3401
 7935SOL    HW235265   4.030   1.353   3.592  0.2217  2.0272  2.2368
 7936SOL     OW35266   3.143   4.104   4.215  0.4015  0.2353 -0.0936
 7936SOL    HW135267   3.141   4.023   4.164 -0.0328  1.3167 -1.7532
 7936SOL    HW235268   3.101   4.082   4.299  1.4481  2.3268  0.9787
 7937SOL     OW35269   0.952   2.399   2.354 -0.2585 -0.4138 -0.2313
 7937SOL    HW135270   0.871   2.348   2.344 -0.8934  0.2969  1.2634
 7937SOL    HW235271   0.942   2.471   2.291  2.0041 -0.2295 -0.3751
 7938SOL     OW35272   2.814   0.378  12.605  0.3004  0.0070 -0.1843
 7938SOL    HW135273   2.752   0.446  12.578 -0.7031 -0.1198  1.7653
 7938SOL    HW235274   2.897   0.426  12.604  0.6472 -0.6429 -2.1776
 7939SOL     OW35275   4.454   4.490   2.621 -0.3440  0.2479  0.0597
 7939SOL    HW135276   4.463   4.585   2.622  0.6726  0.1553 -0.6210
 7939SOL    HW235277   4.543   4.468   2.650  0.6635  0.1663 -3.0854
 7940SOL     OW35278   3.027   3.033  11.665  0.4304 -0.2746  0.3124
 7940SOL    HW135279   2.963   3.038  11.594 -1.1626  0.6979  1.8364
 7940SOL    HW235280   3.046   3.126  11.675 -0.9323  0.0952 -0.5573
 7941SOL     OW35281   2.752   0.982   9.629  0.1426  0.2056 -0.2067
 7941SOL    HW135282   2.770   1.013   9.540  0.0061  0.0159 -0.2982
 7941SOL    HW235283   2.685   1.047   9.651  0.9216  1.2083 -0.7539
 7942SOL     OW35284   3.799   2.223   6.005 -0.1376  0.3500  0.1069
 7942SOL    HW135285   3.770   2.315   6.003 -2.9933 -0.5975 -1.6898
 7942SOL    HW235286   3.723   2.186   6.049 -0.5060  1.0336  0.0517
 7943SOL     OW35287   0.445   4.490   9.012 -0.0337  0.3555  0.2758
 7943SOL    HW135288   0.500   4.555   8.967 -0.3003  1.7884  2.0350
 7943SOL    HW235289   0.511   4.467   9.077  0.3741 -1.5414 -0.8151
 7944SOL     OW35290   0.742   0.328  11.605  0.9119 -0.9973 -0.7309
 7944SOL    HW135291   0.684   0.329  11.528 -1.5361  0.2501  1.1248
 7944SOL    HW235292   0.832   0.325  11.573  2.3151  3.2585  2.8688
 7945SOL     OW35293   4.391   3.433   8.086  0.3809  0.3565  0.5335
 7945SOL    HW135294   4.306   3.459   8.119  1.0871  1.6954  1.3096
 7945SOL    HW235295   4.400   3.356   8.141 -2.4054  0.2082  0.7708
 7946SOL     OW35296   2.090   0.683  10.559 -0.2646  0.1534  0.1052
 7946SOL    HW135297   2.146   0.663  10.484  0.3355 -1.1734  0.9032
 7946SOL    HW235298   2.015   0.714  10.507  0.6425 -0.2944 -1.4669
 7947SOL     OW35299   2.612   1.933   4.632 -0.6711  0.0446 -0.3361
 7947SOL    HW135300   2.552   1.968   4.698 -0.1024  0.3443  0.0184
 7947SOL    HW235301   2.590   1.840   4.632  1.8171 -0.5443 -1.1605
 7948SOL     OW35302   2.969   0.511   1.951  0.4113  0.2284 -0.3818
 7948SOL    HW135303   2.909   0.504   1.877  2.7860 -1.4291 -2.2012
 7948SOL    HW235304   2.986   0.417   1.960  0.9393  0.4857  1.1906
 7949SOL     OW35305   0.280   4.008   0.523 -0.0876 -0.4918 -0.0021
 7949SOL    HW135306   0.253   3.997   0.432  0.1431  0.6454 -0.2178
 7949SOL    HW235307   0.347   3.939   0.523  0.9756  0.5346 -0.2339
 7950SOL     OW35308   3.212   2.075   4.375 -0.3213  0.2129  0.8139
 7950SOL    HW135309   3.153   2.149   4.358  0.8127  0.8565 -0.3138
 7950SOL    HW235310   3.211   2.095   4.469  0.3305 -0.3057  0.9274
 7951SOL     OW35311   3.642   1.160   5.710  0.4032  0.5394 -0.0414
 7951SOL    HW135312   3.623   1.181   5.802 -1.1790  1.4692 -0.5907
 7951SOL    HW235313   3.620   1.241   5.664 -1.8369 -1.2848 -2.2000
 7952SOL     OW35314   2.220   4.462   2.550 -0.2905 -0.1774  0.5222
 7952SOL    HW135315   2.155   4.393   2.563  1.3376 -1.7988 -0.0107
 7952SOL    HW235316   2.281   4.435   2.618  0.2055 -1.1114 -0.3077
 7953SOL     OW35317   0.456   3.671   4.353 -0.4936  0.3406 -0.2494
 7953SOL    HW135318   0.449   3.763   4.378 -0.6783  0.6422 -1.4038
 7953SOL    HW235319   0.424   3.680   4.263  1.1303  0.9513 -0.7629
 7954SOL     OW35320   1.971   1.719  13.050 -0.1898  0.0943 -0.3533
 7954SOL    HW135321   1.909   1.744  12.981  0.8705 -1.1397 -1.7548
 7954SOL    HW235322   2.043   1.675  13.006 -0.8837 -0.6781 -0.7240
 7955SOL     OW35323   1.190   2.015   6.255  0.1107  0.0294 -0.2368
 7955SOL    HW135324   1.277   2.035   6.220 -0.4999  1.2673 -1.0872
 7955SOL    HW235325   1.176   2.095   6.306  0.2062 -0.6969  0.9033
 7956SOL     OW35326   0.147   2.202  12.173 -0.0590  0.1939  0.3294
 7956SOL    HW135327   0.134   2.274  12.113  3.0242  0.6340  0.1585
 7956SOL    HW235328   0.169   2.244  12.256  0.1256  3.3892 -1.3722
 7957SOL     OW35329   0.702   2.670   4.396  0.3797 -0.6747  0.0539
 7957SOL    HW135330   0.661   2.746   4.437  0.6908 -0.1666 -0.5834
 7957SOL    HW235331   0.679   2.599   4.456  0.6977  0.0987  1.1066
 7958SOL     OW35332   1.030   1.353   0.772 -0.0011  0.3910 -0.6561
 7958SOL    HW135333   1.074   1.283   0.723  1.2460  1.4559 -1.0458
 7958SOL    HW235334   1.031   1.315   0.860 -0.3206  1.3438 -0.2411
 7959SOL     OW35335   2.823   0.093   4.719 -0.1903 -0.0408  0.1658
 7959SOL    HW135336   2.862   0.010   4.749  0.7434  0.0385 -0.8521
 7959SOL    HW235337   2.894   0.110   4.658  0.3142  2.5359  1.4885
 7960SOL     OW35338   0.667   2.440   4.587 -0.0803  0.0466  0.2560
 7960SOL    HW135339   0.663   2.466   4.680 -1.8648  2.5489 -0.5096
 7960SOL    HW235340   0.619   2.358   4.597 -2.8640  1.4852 -1.2282
 7961SOL     OW35341   2.482   1.174   4.015  0.4510 -0.3676 -0.1543
 7961SOL    HW135342   2.437   1.234   3.957  0.6834  0.7499  0.8224
 7961SOL    HW235343   2.471   1.212   4.102  0.2997 -0.3866 -0.1656
 7962SOL     OW35344   2.369   4.326   8.076  0.2530 -0.0477  0.3048
 7962SOL    HW135345   2.392   4.265   8.145  0.1038 -0.2802  0.1506
 7962SOL    HW235346   2.371   4.276   7.994 -2.5685 -0.8141  0.6999
 7963SOL     OW35347   2.523   1.592   2.232  0.2463  0.4957 -0.0110
 7963SOL    HW135348   2.526   1.524   2.165  1.4573  0.5400  0.0057
 7963SOL    HW235349   2.601   1.641   2.208  0.3029  1.3787  1.9782
 7964SOL     OW35350   3.544   3.484   7.119 -0.4222  0.5932  0.3136
 7964SOL    HW135351   3.635   3.458   7.106 -0.8003 -0.2103 -0.7489
 7964SOL    HW235352   3.514   3.405   7.163  1.3927 -0.4632 -0.3211
 7965SOL     OW35353   1.896   3.216   4.642 -0.9026  0.4511  0.4284
 7965SOL    HW135354   1.852   3.131   4.652  1.3437 -0.5802  1.5063
 7965SOL    HW235355   1.975   3.196   4.592 -1.0498 -0.1837  0.4502
 7966SOL     OW35356   3.705   4.037   7.052 -0.2999 -0.2001 -0.0779
 7966SOL    HW135357   3.742   3.973   7.112  2.0185  2.8097  1.7372
 7966SOL    HW235358   3.685   4.113   7.107  0.7527 -2.5493  3.5155
 7967SOL     OW35359   1.014   1.352   3.968 -0.0390  0.3312  0.3899
 7967SOL    HW135360   1.071   1.415   3.925  1.5407 -0.3451  1.5046
 7967SOL    HW235361   1.023   1.385   4.057  0.5201 -0.2054  0.5379
 7968SOL     OW35362   4.066   3.637   0.010 -0.1852 -0.5764 -0.4201
 7968SOL    HW135363   4.082   3.653   0.103 -2.1564  2.5740 -0.6304
 7968SOL    HW235364   4.126   3.703  17.677 -0.1041  0.9984  2.6418
 7969SOL     OW35365   2.935   2.883   8.932 -0.0183  0.0482 -0.2112
 7969SOL    HW135366   2.850   2.840   8.937 -0.6186  1.6631  3.4783
 7969SOL    HW235367   2.937   2.941   9.008  0.1790 -0.0784 -0.1213
 7970SOL     OW35368   3.511   0.252  12.131 -0.3050 -0.4000 -0.0075
 7970SOL    HW135369   3.595   0.209  12.114  0.3613  0.6120  0.7712
 7970SOL    HW235370   3.531   0.332  12.083 -2.4920  1.3495  2.0068
 7971SOL     OW35371   3.803   0.080   6.485 -0.5412 -0.1564  0.0442
 7971SOL    HW135372   3.774   0.001   6.532 -3.7825  0.9561 -0.0848
 7971SOL    HW235373   3.723   0.095   6.436 -1.1290  0.5155  1.2098
 7972SOL     OW35374   0.000   4.355   2.720 -0.3501 -0.1829  0.0044
 7972SOL    HW135375   0.039   4.356   2.808 -1.4087  0.5313  0.4581
 7972SOL    HW235376   0.056   4.415   2.672  0.4380 -0.5699  0.4320
 7973SOL     OW35377   1.620   3.182  17.005 -0.2140  0.3075 -0.1972
 7973SOL    HW135378   1.627   3.087  16.993  1.4936  0.4024  0.0224
 7973SOL    HW235379   1.525   3.187  17.004 -0.1990  0.6705  0.3105
 7974SOL     OW35380   3.754   2.432  12.540 -0.0369 -0.0924 -0.0289
 7974SOL    HW135381   3.716   2.344  12.534  0.8751 -0.4946  0.0383
 7974SOL    HW235382   3.793   2.427  12.452 -1.8194  0.4769 -0.8577
 7975SOL     OW35383   3.657   4.500   7.188  0.1929 -0.1591 -0.1071
 7975SOL    HW135384   3.567   4.527   7.203 -0.2024 -0.2658 -2.2967
 7975SOL    HW235385   3.646   4.423   7.133  1.6100  0.2938 -1.0425
 7976SOL     OW35386   2.085   4.247   4.653 -0.5794 -0.2781 -0.7489
 7976SOL    HW135387   2.062   4.339   4.661 -0.9715 -0.5304  0.9278
 7976SOL    HW235388   2.040   4.206   4.727 -0.7329  0.0477 -0.6625
 7977SOL     OW35389   1.895   1.907   4.972  0.3481  0.2507 -0.6479
 7977SOL    HW135390   1.875   1.835   5.032  3.6400 -1.6643 -1.8388
 7977SOL    HW235391   1.990   1.908   4.983  0.5333 -1.0247 -2.0374
 7978SOL     OW35392   2.176   3.577   2.643  0.3686  0.1699  0.8093
 7978SOL    HW135393   2.106   3.512   2.650  0.4537  0.2983  2.9001
 7978SOL    HW235394   2.168   3.617   2.729 -1.7101  0.3478  0.5328
 7979SOL     OW35395   3.008   0.307  10.427 -0.3572 -0.1441 -0.0472
 7979SOL    HW135396   2.994   0.255  10.506  1.5838  1.8435  1.5932
 7979SOL    HW235397   3.074   0.259  10.377 -0.4583  3.3349 -3.4916
 7980SOL     OW35398   2.474   4.383   6.949 -0.0953 -0.5490  0.3441
 7980SOL    HW135399   2.428   4.339   6.877  2.8279  0.9263 -2.4322
 7980SOL    HW235400   2.411   4.410   7.016  2.0897  1.4300  1.5905
 7981SOL     OW35401   0.834   3.482   6.784  0.6970 -0.1981  0.1318
 7981SOL    HW135402   0.908   3.476   6.725 -0.3898  1.8844 -1.4630
 7981SOL    HW235403   0.761   3.451   6.731 -1.7245  2.4182  1.9022
 7982SOL     OW35404   0.221   3.160  11.332  0.5975  0.0383 -0.0189
 7982SOL    HW135405   0.209   3.250  11.364 -1.0806 -0.4443  0.6913
 7982SOL    HW235406   0.209   3.108  11.411 -0.2365  0.0802 -0.1174
 7983SOL     OW35407   3.021   1.323   8.351  0.2637  0.2144 -0.4176
 7983SOL    HW135408   2.931   1.328   8.320 -0.5953 -1.8062  1.8494
 7983SOL    HW235409   3.022   1.233   8.381 -1.1521  0.2375 -0.3249
 7984SOL     OW35410   3.042   2.075   8.818 -0.2516 -0.1845  0.0537
 7984SOL    HW135411   3.039   2.043   8.728  1.8495 -3.1391  1.0409
 7984SOL    HW235412   3.134   2.101   8.817  0.1233 -1.5031  1.3861
 7985SOL     OW35413   3.599   3.074   2.225  0.2438 -0.4344  0.1534
 7985SOL    HW135414   3.596   3.159   2.182  0.8769  0.6248  2.2029
 7985SOL    HW235415   3.628   3.101   2.313 -0.7130  3.3385 -0.7110
 7986SOL     OW35416   4.396   1.894   3.086  0.1200  0.2028 -0.6213
 7986SOL    HW135417   4.465   1.852   3.035  0.4562 -0.6009  0.4851
 7986SOL    HW235418   4.329   1.878   3.020  0.1416  0.7588 -0.7801
 7987SOL     OW35419   4.700   3.881   7.639  0.0808  0.3758 -0.0170
 7987SOL    HW135420   4.616   3.854   7.603 -0.0820  1.0458 -0.1489
 7987SOL    HW235421   4.677   3.974   7.648 -0.2112  0.2409  0.6318
 7988SOL     OW35422   0.333   1.737   2.110 -0.7365  0.4371  0.0816
 7988SOL    HW135423   0.274   1.805   2.143 -0.9486 -1.2841  3.2831
 7988SOL    HW235424   0.323   1.748   2.015  1.0674  2.1882  0.1110
 7989SOL     OW35425   0.953   1.784   8.958 -0.1122 -0.3939 -0.2936
 7989SOL    HW135426   1.045   1.810   8.967 -0.3826  0.5147 -0.1052
 7989SOL    HW235427   0.934   1.803   8.866 -0.4743  1.2240  0.1060
 7990SOL     OW35428   2.320   2.538   0.203  0.3127 -0.0865  0.1005
 7990SOL    HW135429   2.258   2.548   0.275  1.7256 -2.6393  1.6598
 7990SOL    HW235430   2.335   2.444   0.212  2.5242  0.3624  1.1219
 7991SOL     OW35431   0.326   0.534  16.032 -0.1933  0.5010  0.1695
 7991SOL    HW135432   0.376   0.498  16.105 -0.6626 -0.8576 -0.1877
 7991SOL    HW235433   0.269   0.594  16.080 -0.7687 -0.4089  0.6173
 7992SOL     OW35434   3.027   0.484   1.561  0.0196  0.0022 -0.7766
 7992SOL    HW135435   2.983   0.564   1.591  0.5697  0.7598 -1.9867
 7992SOL    HW235436   2.962   0.443   1.504  0.6725 -1.8839 -0.1575
 7993SOL     OW35437   2.368   4.600   4.826 -0.1577  0.1361 -0.4928
 7993SOL    HW135438   2.350   4.555   4.743 -0.5641 -0.8739  0.1473
 7993SOL    HW235439   2.279   4.630   4.842 -0.9702 -1.2703 -2.3409
 7994SOL     OW35440   0.551   2.304   8.108 -0.2312  0.1903 -0.3073
 7994SOL    HW135441   0.620   2.285   8.171  0.1866  2.2055 -0.1498
 7994SOL    HW235442   0.489   2.334   8.175 -1.2828 -1.9062 -0.3373
 7995SOL     OW35443   3.392   1.658   5.298 -0.1343  0.3411  0.1621
 7995SOL    HW135444   3.474   1.629   5.256  0.2290  0.2975  0.8997
 7995SOL    HW235445   3.336   1.581   5.292 -0.2513  0.3769  0.8018
 7996SOL     OW35446   4.030   1.136  11.099  0.3292 -0.3477 -0.0165
 7996SOL    HW135447   4.039   1.069  11.167  0.3678 -0.6086 -0.2804
 7996SOL    HW235448   3.949   1.176  11.130  1.3066  1.3903  0.2974
 7997SOL     OW35449   0.914   3.255   7.275 -0.0507  0.5897  0.1046
 7997SOL    HW135450   0.915   3.307   7.355  1.4163 -0.5578  0.8068
 7997SOL    HW235451   0.921   3.170   7.317 -0.8929  1.1967  1.4874
 7998SOL     OW35452   1.953   1.000   3.302 -0.0195 -0.0270 -0.1800
 7998SOL    HW135453   1.959   0.969   3.393 -2.6759  0.1054  0.0451
 7998SOL    HW235454   1.956   1.095   3.314  1.9920  0.0214 -1.1167
 7999SOL     OW35455   2.347   1.643   2.431 -0.2493  0.3358  0.0548
 7999SOL    HW135456   2.367   1.588   2.507  0.8112 -0.3943 -0.7509
 7999SOL    HW235457   2.427   1.627   2.381  0.4575 -0.1622  1.3228
 8000SOL     OW35458   0.836   1.147   7.968  0.1307 -0.6336  0.3238
 8000SOL    HW135459   0.884   1.106   8.040 -2.9959 -2.0981  1.5685
 8000SOL    HW235460   0.857   1.077   7.906  1.5675 -0.2029  0.3228
 8001SOL     OW35461   0.721   0.805   7.286  0.6344 -0.4834 -0.3167
 8001SOL    HW135462   0.733   0.712   7.266  1.6315 -0.4677  0.1791
 8001SOL    HW235463   0.676   0.819   7.203  1.3475 -0.2117 -0.6592
 8002SOL     OW35464   2.380   0.284   6.884 -0.1561  0.7707 -0.3230
 8002SOL    HW135465   2.432   0.328   6.951 -0.1744 -0.5410  0.5512
 8002SOL    HW235466   2.304   0.342   6.870 -0.0686  0.9820  0.0772
 8003SOL     OW35467   1.213   2.905   7.553  0.8604 -0.1232 -0.3039
 8003SOL    HW135468   1.276   2.951   7.498 -3.1083  4.5572 -0.9780
 8003SOL    HW235469   1.268   2.860   7.617  0.6185 -0.3987 -0.2926
 8004SOL     OW35470   1.394   0.724   3.894  0.5000  0.4061 -0.2438
 8004SOL    HW135471   1.470   0.676   3.860  0.0406  0.0227 -0.7226
 8004SOL    HW235472   1.330   0.715   3.824 -0.1083  3.0031 -0.0229
 8005SOL     OW35473   2.529   3.544  15.329 -0.7877 -0.3185 -0.0212
 8005SOL    HW135474   2.488   3.627  15.302  1.2568  1.5753  2.6363
 8005SOL    HW235475   2.624   3.554  15.322 -0.6369 -2.6570 -1.2747
 8006SOL     OW35476   3.213   2.068   4.979  0.3447  0.7501  0.0030
 8006SOL    HW135477   3.230   1.977   5.002  0.9331  1.1533  1.1582
 8006SOL    HW235478   3.248   2.115   5.055 -4.4823  1.2986  1.9016
 8007SOL     OW35479   0.380   3.429  10.471  0.4413 -0.3710 -0.4789
 8007SOL    HW135480   0.349   3.351  10.517  1.3536 -1.1841 -1.2432
 8007SOL    HW235481   0.312   3.491  10.496  1.7151  1.1356 -0.7415
 8008SOL     OW35482   4.345   0.691   9.393  0.7445 -0.0014 -0.4550
 8008SOL    HW135483   4.433   0.728   9.394  0.6732  0.1695 -0.6235
 8008SOL    HW235484   4.359   0.598   9.412  0.8396 -0.1244 -1.1249
 8009SOL     OW35485   1.976   3.689   5.423  0.7334 -0.3797 -0.0420
 8009SOL    HW135486   2.071   3.690   5.438  0.6867 -2.5393  0.4783
 8009SOL    HW235487   1.965   3.595   5.410 -2.2774  0.1671 -1.3339
 8010SOL     OW35488   2.144   2.251   3.368  0.2375 -0.2359 -0.4756
 8010SOL    HW135489   2.172   2.311   3.299  0.6999 -0.4352 -0.4630
 8010SOL    HW235490   2.230   2.218   3.393  0.9668  1.3333 -0.9289
 8011SOL     OW35491   3.211   1.683   8.253  0.2540  0.2412  0.4209
 8011SOL    HW135492   3.150   1.619   8.216  0.1022  0.7459 -0.2001
 8011SOL    HW235493   3.167   1.766   8.235  1.7768  1.0809  0.5425
 8012SOL     OW35494   4.194   3.827   8.492 -0.1368 -0.2491  0.8842
 8012SOL    HW135495   4.242   3.850   8.412 -3.6204 -1.5876 -1.5794
 8012SOL    HW235496   4.102   3.836   8.468 -0.3370 -0.7098  1.4717
 8013SOL     OW35497   2.016   2.407  15.267  0.1234  0.3993  0.3298
 8013SOL    HW135498   2.112   2.403  15.265  0.1210 -0.7206  2.5888
 8013SOL    HW235499   1.994   2.401  15.360 -4.8280  1.5452 -0.7917
 8014SOL     OW35500   0.556   0.751  12.293  0.4239 -0.3907  0.8450
 8014SOL    HW135501   0.638   0.802  12.293  0.3921 -0.3469  0.1897
 8014SOL    HW235502   0.550   0.703  12.376  1.8405  1.2437  1.8883
 8015SOL     OW35503   4.016   1.104   3.347 -0.5501  0.2257  0.3293
 8015SOL    HW135504   3.956   1.030   3.358  1.3682 -1.2371  0.8474
 8015SOL    HW235505   4.066   1.085   3.426 -1.7559  0.8297  1.2448
 8016SOL     OW35506   0.940   2.735   4.331  0.0869  0.8143  0.2493
 8016SOL    HW135507   0.980   2.648   4.325 -2.6742 -0.5733  1.7895
 8016SOL    HW235508   0.849   2.716   4.356 -0.2189 -1.1168 -2.3219
 8017SOL     OW35509   2.385   1.802  11.248  0.0391  0.3276  0.4255
 8017SOL    HW135510   2.343   1.888  11.252  1.7793  1.2148 -0.7450
 8017SOL    HW235511   2.448   1.819  11.178 -1.9724 -0.1570 -1.5064
 8018SOL     OW35512   2.032   4.312  10.481 -0.2697  0.4127 -0.0021
 8018SOL    HW135513   2.116   4.277  10.510  0.1146 -0.1724 -1.8104
 8018SOL    HW235514   1.978   4.232  10.487 -0.7577  0.7907  0.5446
 8019SOL     OW35515   1.323   0.176  12.033 -0.4674 -0.1834 -0.0678
 8019SOL    HW135516   1.316   0.192  12.127 -2.0633  0.0270 -0.2255
 8019SOL    HW235517   1.412   0.207  12.017 -1.3896  1.5126 -2.0350
 8020SOL     OW35518   3.183   0.146  10.304  0.0752  0.0986  0.7136
 8020SOL    HW135519   3.121   0.081  10.272 -0.4802 -0.0203  2.0158
 8020SOL    HW235520   3.238   0.156  10.226  0.9647 -1.4047  1.1496
 8021SOL     OW35521   3.078   0.225   4.636  0.2399 -0.1999  0.6559
 8021SOL    HW135522   3.132   0.239   4.714  0.2536 -0.6606  0.7286
 8021SOL    HW235523   3.123   0.289   4.581  0.9301 -2.7973 -1.8389
 8022SOL     OW35524   1.453   2.781   4.304  0.1341  0.2616 -0.7435
 8022SOL    HW135525   1.484   2.706   4.356 -0.8496 -0.5384 -1.3137
 8022SOL    HW235526   1.476   2.844   4.373 -2.6031 -1.1257  1.4564
 8023SOL     OW35527   1.877   0.857  14.248  0.3571  0.7904 -0.4691
 8023SOL    HW135528   1.923   0.784  14.288  1.5745  1.1296 -1.2255
 8023SOL    HW235529   1.861   0.913  14.324 -0.0295  0.0554 -0.0104
 8024SOL     OW35530   0.230   0.729   4.880 -0.0201 -0.9109  0.1452
 8024SOL    HW135531   0.295   0.661   4.862  0.1461 -0.8168  0.3867
 8024SOL    HW235532   0.147   0.682   4.873 -0.0419 -0.6707 -1.2637
 8025SOL     OW35533   2.797   2.636   0.720 -0.0694 -0.6944 -0.0848
 8025SOL    HW135534   2.820   2.727   0.739 -0.2198 -0.1754 -2.3318
 8025SOL    HW235535   2.882   2.593   0.728 -0.1313 -0.3692  2.3286
 8026SOL     OW35536   1.336   4.427   5.192 -0.0080  0.1826 -0.0220
 8026SOL    HW135537   1.339   4.413   5.097  2.8238 -2.9403  0.5360
 8026SOL    HW235538   1.407   4.371   5.222 -1.9441 -1.9573  0.5151
 8027SOL     OW35539   2.297   0.215   7.280 -0.5651  0.0185 -0.2030
 8027SOL    HW135540   2.254   0.275   7.340 -1.4769 -0.4307 -0.4194
 8027SOL    HW235541   2.236   0.142   7.280  0.7563 -1.0990 -1.8950
 8028SOL     OW35542   1.476   1.161   5.981  0.5056  0.4192  0.2095
 8028SOL    HW135543   1.520   1.127   6.059  0.8543 -1.3848 -0.7710
 8028SOL    HW235544   1.419   1.230   6.015 -0.2595 -2.1937  4.2517
 8029SOL     OW35545   3.078   1.917   8.590  0.0033  0.1074 -0.7925
 8029SOL    HW135546   3.151   1.956   8.542 -1.0564  2.0308 -0.8294
 8029SOL    HW235547   3.096   1.824   8.575  1.8865  0.2409  0.5855
 8030SOL     OW35548   0.550   0.335   6.406  0.5734 -0.1055  0.3125
 8030SOL    HW135549   0.598   0.402   6.454 -1.6351  0.7781  1.3121
 8030SOL    HW235550   0.479   0.319   6.469  0.6841 -0.3446  0.3792
 8031SOL     OW35551   3.769   3.788   2.302 -1.0472 -0.1025  0.1582
 8031SOL    HW135552   3.861   3.769   2.284 -1.2519 -0.6026 -0.3823
 8031SOL    HW235553   3.781   3.814   2.393  0.4323  1.0280 -0.3579
 8032SOL     OW35554   4.493   1.230   0.429  0.4124 -0.4354  0.0063
 8032SOL    HW135555   4.472   1.314   0.470 -2.3287 -0.1382 -2.0570
 8032SOL    HW235556   4.494   1.241   0.334 -1.5783  0.0216  0.0513
 8033SOL     OW35557   2.895   2.697   4.153 -0.4051 -0.2002 -0.6323
 8033SOL    HW135558   2.884   2.602   4.159 -1.0719 -0.0127  0.8209
 8033SOL    HW235559   2.982   2.708   4.114 -0.1904 -2.4249 -0.7934
 8034SOL     OW35560   3.047   4.240  16.101  0.0924 -0.2150  0.0284
 8034SOL    HW135561   3.104   4.173  16.139 -0.8553 -1.7527 -1.2879
 8034SOL    HW235562   3.097   4.320  16.120 -0.7281  0.3022  0.0059
 8035SOL     OW35563   1.366   3.841   9.732 -0.1018  0.2471  0.5498
 8035SOL    HW135564   1.410   3.846   9.646  1.4400 -0.9267  1.2656
 8035SOL    HW235565   1.400   3.756   9.762  0.3573  1.5979  3.8239
 8036SOL     OW35566   3.734   1.680  11.443 -0.6592  0.2182 -0.2165
 8036SOL    HW135567   3.819   1.652  11.475 -1.7224 -1.1823  1.3928
 8036SOL    HW235568   3.677   1.622  11.494 -0.0907 -1.1127 -1.1231
 8037SOL     OW35569   0.811   2.975   5.120 -0.3342  0.5092 -0.0254
 8037SOL    HW135570   0.751   2.929   5.178 -1.5261  2.9199  0.6444
 8037SOL    HW235571   0.810   3.057   5.168 -2.4775  1.0571 -1.0481
 8038SOL     OW35572   3.650   0.660   1.183 -0.2208  0.5105 -0.2896
 8038SOL    HW135573   3.568   0.681   1.228  0.6597  2.1293  0.5752
 8038SOL    HW235574   3.657   0.567   1.163 -1.6660  0.2750  0.2618
 8039SOL     OW35575   2.213   1.120  16.250  0.3894 -0.0761 -0.0974
 8039SOL    HW135576   2.215   1.102  16.344  0.5334 -0.0347 -0.0931
 8039SOL    HW235577   2.144   1.065  16.214  0.6797 -1.2353  1.1116
 8040SOL     OW35578   2.820   2.875  10.567 -0.0439  0.1907  0.3476
 8040SOL    HW135579   2.729   2.874  10.596  0.9209 -0.9786  3.2810
 8040SOL    HW235580   2.852   2.802  10.620  2.5820  0.8014 -0.3677
 8041SOL     OW35581   4.209   3.244   4.402  0.1314  0.2418 -0.2473
 8041SOL    HW135582   4.268   3.184   4.355  1.5386  0.7085  0.9296
 8041SOL    HW235583   4.249   3.327   4.379 -1.1892  0.9495 -0.0096
 8042SOL     OW35584   4.666   1.681  15.828  0.2508  0.8016  0.4834
 8042SOL    HW135585   4.701   1.632  15.902 -0.7928  1.3855  1.3584
 8042SOL    HW235586   4.631   1.759  15.871  0.9524  1.6123 -0.4217
 8043SOL     OW35587   1.170   4.073   4.221  0.0771 -0.4280 -0.0371
 8043SOL    HW135588   1.245   4.018   4.196  0.4602  0.8966 -1.8127
 8043SOL    HW235589   1.189   4.110   4.307  0.5005  0.6201 -0.5831
 8044SOL     OW35590   0.926   1.344   7.440 -0.4927 -0.4869  0.5582
 8044SOL    HW135591   0.948   1.435   7.461 -1.1993 -0.4398  1.1155
 8044SOL    HW235592   0.878   1.318   7.518 -0.8149 -0.3353  0.4128
 8045SOL     OW35593   1.772   4.273   2.984  0.7354 -0.3614  0.1936
 8045SOL    HW135594   1.710   4.246   3.052 -0.4499 -1.4380 -1.3236
 8045SOL    HW235595   1.752   4.366   2.977  1.6975 -0.1536  0.1537
 8046SOL     OW35596   4.254   0.099   6.215  0.0700 -0.0860 -0.5374
 8046SOL    HW135597   4.306   0.130   6.141 -1.1462  1.7720 -0.6033
 8046SOL    HW235598   4.266   0.004   6.211  0.1116 -0.1683  1.3765
 8047SOL     OW35599   3.248   0.296   8.341 -0.5247 -0.6888  0.0209
 8047SOL    HW135600   3.241   0.356   8.267  1.0050 -1.7178 -0.9348
 8047SOL    HW235601   3.158   0.296   8.375 -0.1564  2.6738  0.9807
 8048SOL     OW35602   1.268   3.962  14.748 -0.6463  1.3382 -0.4074
 8048SOL    HW135603   1.271   3.898  14.677 -0.4511 -0.7136  1.4427
 8048SOL    HW235604   1.318   3.918  14.817  2.1479  3.3942 -1.1575
 8049SOL     OW35605   2.910   3.213   5.452  0.0998 -0.5357 -0.3346
 8049SOL    HW135606   2.980   3.204   5.516  0.2953 -1.0892 -0.6197
 8049SOL    HW235607   2.959   3.201   5.371 -0.9629  2.5213 -1.4073
 8050SOL     OW35608   1.068   3.114  16.014 -0.2755 -0.1574 -0.2310
 8050SOL    HW135609   1.164   3.114  16.011 -0.2431 -0.5664  0.9902
 8050SOL    HW235610   1.051   3.110  16.108  0.9553 -0.1208 -0.0032
 8051SOL     OW35611   3.825   2.836  12.725 -0.1783 -0.0175 -0.6444
 8051SOL    HW135612   3.910   2.807  12.692  1.6773  1.7012  2.5839
 8051SOL    HW235613   3.841   2.928  12.748 -0.4596 -0.4722  1.3818
 8052SOL     OW35614   1.794   1.199   6.506 -1.0089 -0.2735  0.0429
 8052SOL    HW135615   1.710   1.166   6.475 -1.5493  2.0066 -0.8988
 8052SOL    HW235616   1.825   1.127   6.562  0.6883  0.8599  0.5673
 8053SOL     OW35617   1.828   2.911   7.709  0.1739 -0.4666  0.3869
 8053SOL    HW135618   1.785   2.911   7.794  0.3567  1.6114  0.4825
 8053SOL    HW235619   1.760   2.905   7.641 -1.3018 -0.0575  1.8052
 8054SOL     OW35620   0.657   4.351  13.332  0.1113 -0.2362 -0.2502
 8054SOL    HW135621   0.697   4.270  13.365  0.5736  1.1532  2.6031
 8054SOL    HW235622   0.635   4.406  13.407  3.1708 -0.6647  0.9326
 8055SOL     OW35623   0.276   0.096   7.545  0.4410 -0.3014  0.3100
 8055SOL    HW135624   0.348   0.038   7.570  0.2143  0.3936  2.5009
 8055SOL    HW235625   0.199   0.045   7.572  0.8774 -1.2722 -0.2552
 8056SOL     OW35626   2.316   0.731   6.611  0.0895 -0.6062  0.0059
 8056SOL    HW135627   2.332   0.717   6.518  0.6890  0.1368 -0.0023
 8056SOL    HW235628   2.403   0.756   6.642  0.0541 -0.9861  0.4047
 8057SOL     OW35629   3.810   0.225  12.124  0.2881 -0.1577  0.3857
 8057SOL    HW135630   3.841   0.221  12.214 -0.1275 -1.3783  0.4735
 8057SOL    HW235631   3.878   0.279  12.083 -0.7628  0.3681 -0.6641
 8058SOL     OW35632   1.262   2.734   5.120 -0.1382 -0.4737 -0.8727
 8058SOL    HW135633   1.204   2.755   5.193 -0.6835 -1.8568 -0.9106
 8058SOL    HW235634   1.274   2.819   5.078 -2.8218  0.7229  0.7857
 8059SOL     OW35635   3.820   0.484   7.321  0.0423  0.0207 -0.5151
 8059SOL    HW135636   3.776   0.401   7.338 -0.4456 -0.2601 -3.1074
 8059SOL    HW235637   3.778   0.547   7.380  1.9359  0.0190  0.8313
 8060SOL     OW35638   2.198   3.938   0.151 -0.7964  0.0760 -0.1630
 8060SOL    HW135639   2.244   3.945   0.067  0.0808  4.0062  0.6720
 8060SOL    HW235640   2.107   3.943   0.121 -0.3752  1.2464 -1.2267
 8061SOL     OW35641   2.802   2.241   0.711  0.0164 -0.0746  0.1528
 8061SOL    HW135642   2.826   2.235   0.804  1.0028  2.4285  0.0699
 8061SOL    HW235643   2.736   2.309   0.719  1.2655  0.9594  1.7443
 8062SOL     OW35644   0.337   3.150   4.810 -0.8460 -0.2889 -0.1060
 8062SOL    HW135645   0.420   3.120   4.848 -0.5459 -1.9908 -2.1100
 8062SOL    HW235646   0.377   3.172   4.726  1.2657  0.1330  1.0063
 8063SOL     OW35647   0.122   0.998   7.368 -0.2829  0.3809 -0.2471
 8063SOL    HW135648   0.141   1.030   7.456  0.1912  0.4740 -0.3832
 8063SOL    HW235649   0.210   1.008   7.333 -0.3033 -1.9369 -0.9580
 8064SOL     OW35650   3.495   2.668   1.795 -0.0258  0.1329  0.3625
 8064SOL    HW135651   3.484   2.683   1.701  2.5287 -0.4683 -0.0293
 8064SOL    HW235652   3.530   2.579   1.790 -0.0966  0.0256  1.8167
 8065SOL     OW35653   2.169   2.522   3.213  0.7582  0.1277  0.3731
 8065SOL    HW135654   2.146   2.487   3.126  0.1851  0.1745  0.5061
 8065SOL    HW235655   2.176   2.615   3.193  3.2750 -0.3839 -1.1622
 8066SOL     OW35656   3.613   3.500   7.762  0.5849 -0.0325  0.0322
 8066SOL    HW135657   3.601   3.548   7.680  0.0917  0.5276  0.4305
 8066SOL    HW235658   3.601   3.414   7.722 -0.8092  0.2155 -0.0748
 8067SOL     OW35659   1.438   3.681   6.513  0.0087 -0.3074 -0.4982
 8067SOL    HW135660   1.473   3.766   6.487 -0.4114 -0.3586 -1.2241
 8067SOL    HW235661   1.518   3.628   6.508  0.3142  0.3742 -2.9362
 8068SOL     OW35662   1.173   1.331   8.755  0.5921 -0.1942  0.3973
 8068SOL    HW135663   1.103   1.380   8.798  0.1416 -1.2763  0.8864
 8068SOL    HW235664   1.252   1.366   8.797  1.0805 -2.6799  1.5361
 8069SOL     OW35665   2.232   1.197   5.081 -0.3731  0.2407 -0.2607
 8069SOL    HW135666   2.141   1.173   5.094 -0.5039  2.2259  2.5373
 8069SOL    HW235667   2.271   1.181   5.167  1.8739  4.2326 -0.5248
 8070SOL     OW35668   1.050   4.127   2.441  0.1346 -0.2119  0.4821
 8070SOL    HW135669   1.039   4.061   2.509 -3.2703 -1.0206 -0.8901
 8070SOL    HW235670   1.116   4.092   2.381 -1.6265  1.1432 -2.2387
 8071SOL     OW35671   3.870   1.480  14.341 -0.0020 -0.6301 -0.3178
 8071SOL    HW135672   3.935   1.506  14.276  0.1043 -0.4190 -0.1249
 8071SOL    HW235673   3.915   1.412  14.393 -1.2077 -0.8810  0.4002
 8072SOL     OW35674   4.700   2.138  17.190  0.5466  0.4133 -0.1897
 8072SOL    HW135675   4.703   2.223  17.234  3.5238  0.9206 -1.4307
 8072SOL    HW235676   0.064   2.105  17.199  0.6439  0.2797 -1.7748
 8073SOL     OW35677   1.708   1.084   2.782 -0.1428  0.3085 -0.5680
 8073SOL    HW135678   1.799   1.087   2.753 -0.2066 -0.2725 -0.8467
 8073SOL    HW235679   1.661   1.153   2.735 -1.0740 -1.2259 -1.9037
 8074SOL     OW35680   1.897   4.661   2.253  0.3259  0.6976 -0.5146
 8074SOL    HW135681   1.949   4.705   2.185  0.6427  0.4396 -0.4400
 8074SOL    HW235682   1.827   4.724   2.271 -0.2489 -0.3389  0.8966
 8075SOL     OW35683   0.807   4.472  14.962 -0.4949  0.0823 -0.3443
 8075SOL    HW135684   0.723   4.462  15.006 -0.4603 -2.7618 -0.9272
 8075SOL    HW235685   0.816   4.390  14.914  0.0946  1.1268 -2.0257
 8076SOL     OW35686   0.045   0.403  13.146  0.1796 -0.1610  0.8173
 8076SOL    HW135687   0.122   0.373  13.193  0.1006  0.3141  1.2585
 8076SOL    HW235688   0.014   0.482  13.192 -0.0066  1.2670 -1.7617
 8077SOL     OW35689   3.267   1.792   5.826  0.2203 -0.2118 -0.3530
 8077SOL    HW135690   3.197   1.780   5.761  1.7432  0.3271 -2.0920
 8077SOL    HW235691   3.216   1.776   5.906  0.1899  1.4862 -0.0466
 8078SOL     OW35692   1.054   4.556   5.561 -0.1733 -0.9407 -0.1080
 8078SOL    HW135693   1.103   4.637   5.550 -1.6323 -0.2192 -1.4127
 8078SOL    HW235694   1.116   4.490   5.590 -0.0309 -1.3965 -1.4361
 8079SOL     OW35695   4.442   0.300   2.603  0.1601  0.1670 -0.2898
 8079SOL    HW135696   4.416   0.313   2.694 -1.2456  3.0366 -1.1092
 8079SOL    HW235697   4.364   0.263   2.561  0.9301 -0.5292 -1.1097
 8080SOL     OW35698   1.428   2.128  12.351 -0.2348 -0.5919 -0.6890
 8080SOL    HW135699   1.498   2.140  12.286  1.0881 -1.4891  0.5557
 8080SOL    HW235700   1.475   2.115  12.433  0.3865  1.5883 -0.6909
 8081SOL     OW35701   2.554   4.260  11.217 -0.8462  0.7027 -0.4090
 8081SOL    HW135702   2.633   4.264  11.272 -1.3466 -0.4035  0.3939
 8081SOL    HW235703   2.486   4.253  11.284 -0.8144  0.5715 -0.3916
 8082SOL     OW35704   0.540   2.160   6.586  0.1143 -0.2059  0.2673
 8082SOL    HW135705   0.600   2.213   6.639 -1.8585  2.4452 -0.1246
 8082SOL    HW235706   0.554   2.072   6.621  4.3658  0.7710  1.0341
 8083SOL     OW35707   1.920   1.783  17.096  0.3946 -0.2725  0.0115
 8083SOL    HW135708   2.006   1.759  17.129  0.4272  1.8162  1.4350
 8083SOL    HW235709   1.870   1.702  17.093  2.6645 -1.6866  0.3945
 8084SOL     OW35710   2.656   4.699   4.229  0.4062  0.1734 -0.2713
 8084SOL    HW135711   2.679   4.683   4.137  2.6161 -1.1611  0.5319
 8084SOL    HW235712   2.734   4.659   4.269  0.5631  3.1468  2.3701
 8085SOL     OW35713   1.772   3.375  12.848  0.1342 -0.2111 -0.5605
 8085SOL    HW135714   1.847   3.356  12.904  0.7250 -0.6778 -1.5026
 8085SOL    HW235715   1.738   3.451  12.895 -0.3301  0.0055 -1.2515
 8086SOL     OW35716   0.937   0.199  10.683 -0.1042 -0.3298 -0.2703
 8086SOL    HW135717   0.886   0.253  10.744 -0.5911  0.6976 -1.5976
 8086SOL    HW235718   0.977   0.133  10.739  3.4613  2.1224  0.0319
 8087SOL     OW35719   1.102   3.724   2.373 -0.2126 -0.4272  0.2658
 8087SOL    HW135720   1.144   3.797   2.418  2.3679 -2.1994  0.7559
 8087SOL    HW235721   1.167   3.657   2.393 -1.2988 -1.4587  0.3691
 8088SOL     OW35722   2.183   1.903  15.343 -0.2648 -0.1513 -0.0226
 8088SOL    HW135723   2.235   1.836  15.299 -2.6710 -0.1058 -3.0027
 8088SOL    HW235724   2.249   1.972  15.345  1.1099 -1.4750 -0.4436
 8089SOL     OW35725   0.279   3.318   3.471 -0.0953 -1.0229  0.0915
 8089SOL    HW135726   0.266   3.397   3.418  0.2031 -0.6684  0.5499
 8089SOL    HW235727   0.278   3.249   3.405  1.4158 -2.1392  1.2665
 8090SOL     OW35728   4.181   2.587   5.272 -0.2284  0.1308  0.7139
 8090SOL    HW135729   4.153   2.640   5.346 -0.2320  1.9119 -0.5595
 8090SOL    HW235730   4.150   2.638   5.198  1.6419  1.1025  0.5865
 8091SOL     OW35731   2.239   3.156   8.332 -0.0302  0.0090 -0.7916
 8091SOL    HW135732   2.150   3.155   8.367  0.6317  3.1277  1.0299
 8091SOL    HW235733   2.283   3.119   8.409  0.7347  1.8840 -0.3186
 8092SOL     OW35734   2.578   3.008   6.069  0.2065  0.2311 -0.5977
 8092SOL    HW135735   2.557   2.923   6.107 -0.1469  0.4541 -0.3007
 8092SOL    HW235736   2.561   2.997   5.975 -0.3712  0.0238 -0.4635
 8093SOL     OW35737   0.024   0.906   8.761 -0.1569 -0.6229  0.8341
 8093SOL    HW135738   0.017   0.980   8.822 -0.8687 -0.5923  0.7149
 8093SOL    HW235739   0.118   0.895   8.751  0.1646 -0.7800  4.1344
 8094SOL     OW35740   0.493   0.587  13.770  0.5245 -0.0519  0.2117
 8094SOL    HW135741   0.407   0.624  13.786  0.9137  0.7121  0.5544
 8094SOL    HW235742   0.463   0.510  13.722  0.5742  0.7203 -1.0422
 8095SOL     OW35743   1.850   2.701   8.123 -1.0101  0.4353  0.9211
 8095SOL    HW135744   1.873   2.790   8.150  0.5973  1.1644 -2.8813
 8095SOL    HW235745   1.762   2.709   8.086 -0.4295 -2.5935 -1.1322
 8096SOL     OW35746   2.708   2.703   8.883  0.7043  0.2598 -0.5113
 8096SOL    HW135747   2.715   2.689   8.788  0.7646  0.7032 -0.5728
 8096SOL    HW235748   2.708   2.618   8.927 -0.6036 -0.5899 -2.1447
 8097SOL     OW35749   3.259   0.281   0.716  0.1146  0.2920  0.6520
 8097SOL    HW135750   3.169   0.274   0.683 -0.0522 -0.7259  1.3206
 8097SOL    HW235751   3.289   0.192   0.732 -2.0158 -0.4578  0.5352
 8098SOL     OW35752   1.460   3.310   9.805  0.2084  0.3492 -0.0736
 8098SOL    HW135753   1.500   3.287   9.889 -2.0032 -2.1811  0.2784
 8098SOL    HW235754   1.379   3.260   9.810 -0.3262  1.1456 -0.9807
 8099SOL     OW35755   4.449   3.887  11.880 -0.2098 -0.2503  0.2021
 8099SOL    HW135756   4.396   3.814  11.848 -0.1456  0.2294 -0.9723
 8099SOL    HW235757   4.450   3.876  11.975  0.0840  0.6442  0.2979
 8100SOL     OW35758   2.398   1.533   3.475  0.3090  0.1703  0.3003
 8100SOL    HW135759   2.487   1.569   3.470  0.5320 -0.5713 -1.0635
 8100SOL    HW235760   2.408   1.465   3.541 -0.9740  0.2803  0.6066
 8101SOL     OW35761   3.110   0.880   3.540 -0.3027 -0.7707  0.3847
 8101SOL    HW135762   3.106   0.804   3.598 -0.4385 -1.6542 -0.7864
 8101SOL    HW235763   3.167   0.844   3.472 -1.0953  0.7480 -1.0927
 8102SOL     OW35764   3.296   4.046   4.588  0.1718  0.5978 -0.2871
 8102SOL    HW135765   3.322   4.009   4.672 -2.8222 -1.8875 -0.4480
 8102SOL    HW235766   3.281   4.140   4.595  1.3596  0.7659 -0.0439
 8103SOL     OW35767   2.278   0.944   7.876 -0.5684  0.7668  0.2538
 8103SOL    HW135768   2.314   0.925   7.962  2.4117 -1.6765 -1.5315
 8103SOL    HW235769   2.343   0.997   7.830 -0.1327  0.6408  0.7346
 8104SOL     OW35770   2.380   1.834  15.719 -0.2175  0.2086 -0.5013
 8104SOL    HW135771   2.391   1.863  15.628 -0.6102 -0.6802 -0.8284
 8104SOL    HW235772   2.448   1.766  15.716  1.1368  1.5731 -1.0058
 8105SOL     OW35773   3.762   4.016   0.439 -0.2941  0.2982 -0.4599
 8105SOL    HW135774   3.703   3.945   0.415  0.1783 -0.7773  1.5735
 8105SOL    HW235775   3.809   3.995   0.520 -1.5046 -1.3966 -0.1923
 8106SOL     OW35776   0.894   0.930   7.801 -0.2597  0.0345  0.0128
 8106SOL    HW135777   0.899   0.845   7.845 -0.5089  0.5192  0.9949
 8106SOL    HW235778   0.871   0.897   7.715 -0.7613 -2.3422  1.0437
 8107SOL     OW35779   3.768   2.803   5.658  0.5100  0.4285  0.4828
 8107SOL    HW135780   3.815   2.886   5.644 -1.4743  1.5550  0.5286
 8107SOL    HW235781   3.692   2.835   5.706 -1.2299 -2.3604 -0.4414
 8108SOL     OW35782   3.560   1.685   6.251  0.0431  0.4007 -0.4948
 8108SOL    HW135783   3.553   1.613   6.189  0.4063 -0.3901  0.3762
 8108SOL    HW235784   3.478   1.734   6.255  0.2394  0.4254  3.8770
 8109SOL     OW35785   1.013   1.346   8.151 -0.1910  0.7185 -0.0839
 8109SOL    HW135786   0.993   1.307   8.066  1.7751  1.2247 -0.7706
 8109SOL    HW235787   0.926   1.360   8.189 -1.1134  0.1897 -1.9996
 8110SOL     OW35788   1.981   3.597   0.676  0.6072 -0.3334  0.0562
 8110SOL    HW135789   1.942   3.513   0.700  0.0730  0.1483  0.8851
 8110SOL    HW235790   1.957   3.648   0.754  0.6189  1.6917 -1.2573
 8111SOL     OW35791   2.198   0.738  17.208 -0.0194  0.1518 -0.0660
 8111SOL    HW135792   2.245   0.656  17.199 -0.4481 -0.0614 -0.3756
 8111SOL    HW235793   2.121   0.720  17.263 -1.5650  0.7671 -1.9967
 8112SOL     OW35794   0.076   1.226   8.642 -0.1624 -0.5401 -0.2931
 8112SOL    HW135795   0.016   1.287   8.684 -1.8182 -2.4861  0.1493
 8112SOL    HW235796   0.122   1.182   8.714 -0.5616 -0.1793  0.1801
 8113SOL     OW35797   4.246   0.215   4.494 -0.4264  0.1565  0.2776
 8113SOL    HW135798   4.320   0.157   4.476 -0.2858  0.6416 -0.7101
 8113SOL    HW235799   4.171   0.155   4.488  0.1023 -0.3735 -0.9573
 8114SOL     OW35800   0.984   0.334  13.603 -0.3050  0.3576 -0.1453
 8114SOL    HW135801   0.913   0.337  13.668 -1.4394 -1.1874 -1.3211
 8114SOL    HW235802   1.028   0.251  13.622  1.5625  0.9447 -1.8866
 8115SOL     OW35803   2.273   3.448  10.014 -0.1011 -0.1449  0.1516
 8115SOL    HW135804   2.302   3.360   9.991 -0.0890 -0.2512  0.5758
 8115SOL    HW235805   2.276   3.445  10.110 -1.0420 -2.9528  0.0953
 8116SOL     OW35806   0.584   1.935   3.171 -0.9007 -0.6455 -0.1030
 8116SOL    HW135807   0.577   2.017   3.219  3.3723 -0.1781 -0.2732
 8116SOL    HW235808   0.679   1.920   3.170 -0.9640 -1.0910  0.9081
 8117SOL     OW35809   0.544   3.377   0.241 -0.0550  0.7544 -0.1887
 8117SOL    HW135810   0.526   3.463   0.204  0.1873 -0.6928 -3.7265
 8117SOL    HW235811   0.543   3.389   0.335 -0.7275 -3.7578  0.3987
 8118SOL     OW35812   1.965   2.153   3.129 -0.1168  0.6619  0.1315
 8118SOL    HW135813   2.003   2.068   3.105  0.9680  1.7288 -1.9127
 8118SOL    HW235814   1.961   2.148   3.225 -2.8306 -0.3140 -0.0461
 8119SOL     OW35815   3.720   2.217  13.061  0.4123 -0.5153 -0.0789
 8119SOL    HW135816   3.736   2.276  13.135 -1.9559  0.2432 -0.1696
 8119SOL    HW235817   3.670   2.272  13.002  1.2359 -0.5740 -0.8288
 8120SOL     OW35818   2.583   2.118  13.954 -0.1973 -0.2354 -0.5304
 8120SOL    HW135819   2.586   2.032  13.912  0.7735  0.8882 -2.7598
 8120SOL    HW235820   2.606   2.105  14.046 -0.5752  2.0502 -0.1142
 8121SOL     OW35821   0.998   1.245  10.907 -0.2700 -0.2401  0.1039
 8121SOL    HW135822   1.000   1.333  10.869  0.7394 -0.2893  0.0492
 8121SOL    HW235823   1.037   1.193  10.837  0.3713 -1.3257  1.2792
 8122SOL     OW35824   2.109   4.434   7.334 -0.1323  0.0181  0.3171
 8122SOL    HW135825   2.048   4.456   7.404 -3.6137 -1.1818 -2.3586
 8122SOL    HW235826   2.123   4.343   7.362 -0.3395  0.5964  2.2855
 8123SOL     OW35827   1.264   1.150   1.934  0.4669 -0.5879  0.0568
 8123SOL    HW135828   1.257   1.244   1.922 -1.5012 -0.8712 -0.9254
 8123SOL    HW235829   1.213   1.135   2.014  0.4488 -3.5925 -0.5288
 8124SOL     OW35830   1.103   1.040   6.333 -0.0537 -0.2767  0.1868
 8124SOL    HW135831   1.083   0.950   6.357  0.4558 -0.8037 -1.3584
 8124SOL    HW235832   1.031   1.065   6.275 -1.7027 -0.2697  2.2298
 8125SOL     OW35833   1.132   4.361   6.800 -0.0003 -0.0298 -0.1616
 8125SOL    HW135834   1.221   4.326   6.799  0.4464  1.0409  1.6328
 8125SOL    HW235835   1.085   4.306   6.738 -1.7511  0.9036  0.3274
 8126SOL     OW35836   3.740   2.942  11.025  0.5845  0.2060 -0.6586
 8126SOL    HW135837   3.783   2.939  11.110 -0.1455 -1.1397 -0.3326
 8126SOL    HW235838   3.731   3.033  10.996 -5.0313  0.0850  0.7266
 8127SOL     OW35839   0.959   4.003   6.291 -0.3305 -0.1598 -0.8892
 8127SOL    HW135840   0.949   4.096   6.274 -1.3926 -0.0171  0.5537
 8127SOL    HW235841   1.049   3.987   6.260 -0.6583 -3.4906 -0.1705
 8128SOL     OW35842   3.973   4.010   5.250  0.2193 -0.3797 -0.1419
 8128SOL    HW135843   3.978   4.102   5.222  1.3448 -0.6068 -0.6514
 8128SOL    HW235844   3.891   4.019   5.300 -0.2774  0.8027 -1.1766
 8129SOL     OW35845   1.437   0.907  15.377  0.0018 -0.2222  0.1491
 8129SOL    HW135846   1.405   0.887  15.290 -2.3238 -0.5579  1.0779
 8129SOL    HW235847   1.453   0.822  15.416 -0.4367 -0.1290  0.5381
 8130SOL     OW35848   2.695   0.547  12.421 -0.1497 -0.5903  0.4445
 8130SOL    HW135849   2.739   0.552  12.337  0.7748  2.5334  1.1188
 8130SOL    HW235850   2.675   0.640  12.433  1.8671 -0.4187  2.4949
 8131SOL     OW35851   1.029   4.117   4.617 -0.0634  0.0151  0.0176
 8131SOL    HW135852   0.952   4.067   4.588 -0.7127 -0.1556  2.0103
 8131SOL    HW235853   1.063   4.138   4.530  1.1726 -1.5744  0.1127
 8132SOL     OW35854   3.259   4.229   6.601  0.6892  0.1049  0.1795
 8132SOL    HW135855   3.325   4.252   6.536  0.5049  0.4734  0.1267
 8132SOL    HW235856   3.227   4.150   6.557 -2.3650  1.5313 -0.1331
 8133SOL     OW35857   1.135   2.996  10.134 -0.2680 -0.7602  0.0229
 8133SOL    HW135858   1.120   3.044  10.053 -0.0619 -1.2294 -0.2978
 8133SOL    HW235859   1.067   3.031  10.192  0.6288  1.6903 -0.4048
 8134SOL     OW35860   4.601   0.145   2.421  0.6477  0.1426  0.1129
 8134SOL    HW135861   4.563   0.175   2.338  2.9088  1.7134 -0.3642
 8134SOL    HW235862   4.560   0.213   2.474 -0.0418  1.2565 -1.8489
 8135SOL     OW35863   1.999   0.590   6.965  0.0406 -0.5437  0.0671
 8135SOL    HW135864   2.015   0.564   7.056 -3.5351  2.5727  1.6037
 8135SOL    HW235865   2.039   0.677   6.959 -3.0823  1.0074  1.8925
 8136SOL     OW35866   0.341   3.165   8.364  0.0120 -0.5476  0.4786
 8136SOL    HW135867   0.320   3.234   8.427 -1.9803  0.8220 -1.6908
 8136SOL    HW235868   0.304   3.093   8.415  0.5847  0.1538  1.9050
 8137SOL     OW35869   2.587   1.272   5.331 -0.2495 -0.5670 -0.2328
 8137SOL    HW135870   2.596   1.276   5.236  2.0779 -0.9620 -0.0141
 8137SOL    HW235871   2.556   1.182   5.345 -1.8293 -0.1483 -0.9669
 8138SOL     OW35872   3.984   4.503   4.360  0.5522  0.0544 -0.0752
 8138SOL    HW135873   4.076   4.525   4.346 -0.0695  2.5980 -0.2014
 8138SOL    HW235874   3.969   4.425   4.307  0.1598 -0.0516  0.1867
 8139SOL     OW35875   2.594   3.362   2.463  0.0355 -0.8227  0.0168
 8139SOL    HW135876   2.602   3.282   2.411  0.9501 -0.2002 -0.8121
 8139SOL    HW235877   2.558   3.315   2.538  2.0972 -2.4856 -0.0393
 8140SOL     OW35878   0.136   2.925  12.482  0.2985 -0.1771 -0.0721
 8140SOL    HW135879   0.132   3.018  12.504  0.5874 -0.4723  1.2000
 8140SOL    HW235880   0.052   2.908  12.440  0.3853 -2.7857  0.8671
 8141SOL     OW35881   4.395   4.562   3.247 -0.2212  0.0331 -0.2128
 8141SOL    HW135882   4.488   4.581   3.262  0.2385 -1.2480 -1.5652
 8141SOL    HW235883   4.361   4.650   3.228  0.0257 -0.3306 -2.3099
 8142SOL     OW35884   0.174   2.843   4.786 -0.5435 -0.2877 -0.0935
 8142SOL    HW135885   0.214   2.788   4.718 -0.8052  0.1348 -0.5842
 8142SOL    HW235886   0.104   2.884   4.735 -0.0347  0.1200 -0.4675
 8143SOL     OW35887   3.359   0.130   5.459 -0.2237  0.4569  0.6223
 8143SOL    HW135888   3.397   0.179   5.386 -2.0640  0.8000 -0.0919
 8143SOL    HW235889   3.391   0.041   5.446 -2.3883 -0.3449  0.8060
 8144SOL     OW35890   1.109   4.323   8.370 -0.1882  0.3257 -0.1266
 8144SOL    HW135891   1.062   4.371   8.302 -0.6083 -0.2195 -0.2294
 8144SOL    HW235892   1.192   4.297   8.331 -0.6023 -1.7460  0.3774
 8145SOL     OW35893   4.039   1.341   2.626  0.6240 -0.3680  0.1697
 8145SOL    HW135894   4.068   1.384   2.545  2.0585 -0.8525  0.4285
 8145SOL    HW235895   4.019   1.251   2.600 -0.3933 -0.3287  0.8438
 8146SOL     OW35896   1.975   3.877   5.952  0.4469 -0.7150 -0.2354
 8146SOL    HW135897   1.895   3.836   5.918  0.5604 -2.2317  1.2851
 8146SOL    HW235898   2.027   3.900   5.875  1.3686 -2.0074 -0.0041
 8147SOL     OW35899   3.051   1.936   3.287 -0.0113 -0.0047 -0.0343
 8147SOL    HW135900   3.027   1.966   3.375 -1.2848  0.9174 -0.7113
 8147SOL    HW235901   3.145   1.954   3.280  0.3228 -1.4102  0.6746
 8148SOL     OW35902   0.524   3.887  14.386  0.4534  0.0794 -0.1470
 8148SOL    HW135903   0.504   3.896  14.479 -3.2574 -1.1600 -0.8183
 8148SOL    HW235904   0.586   3.816  14.399  0.3907  0.1153  0.3434
 8149SOL     OW35905   3.215   1.314   2.400 -0.4501 -0.0859  0.3169
 8149SOL    HW135906   3.177   1.226   2.396 -1.1401  0.1966  0.5951
 8149SOL    HW235907   3.182   1.351   2.482 -2.0204  1.1615 -0.8717
 8150SOL     OW35908   4.374   2.508   5.471  0.5581 -0.0976  0.3393
 8150SOL    HW135909   4.302   2.515   5.534  1.1284 -1.6999  1.1771
 8150SOL    HW235910   4.445   2.479   5.529  1.7669 -1.0103 -1.5958
 8151SOL     OW35911   0.756   4.428  11.485  1.1330  0.3117  0.0177
 8151SOL    HW135912   0.821   4.364  11.515  0.5077  0.5332  1.8349
 8151SOL    HW235913   0.748   4.473  11.569 -0.2969 -0.2478  0.1748
 8152SOL     OW35914   3.930   2.204  16.655 -0.2289 -0.2293 -0.3998
 8152SOL    HW135915   3.834   2.199  16.653 -0.2221 -1.7450  2.9216
 8152SOL    HW235916   3.956   2.182  16.744 -2.4741 -2.7384 -0.3409
 8153SOL     OW35917   3.618   1.721   2.617 -0.1008 -0.0094  0.5755
 8153SOL    HW135918   3.622   1.681   2.703 -1.0624 -1.2184  0.0640
 8153SOL    HW235919   3.531   1.694   2.588 -0.0766  1.9155 -1.2911
 8154SOL     OW35920   4.591   3.876   7.201 -0.7741 -0.5580  0.3831
 8154SOL    HW135921   4.521   3.836   7.150  1.6140 -0.6961 -2.7416
 8154SOL    HW235922   4.553   3.857   7.287  0.7399 -1.0401  0.9578
 8155SOL     OW35923   4.300   2.494   3.783 -0.6479 -0.0003  0.1597
 8155SOL    HW135924   4.250   2.564   3.825  0.1694  0.2750  0.6870
 8155SOL    HW235925   4.342   2.541   3.711 -1.2956 -1.7628 -1.3680
 8156SOL     OW35926   3.087   4.112   0.006 -0.0671  0.8232  0.3556
 8156SOL    HW135927   3.107   4.021  17.687 -2.9731  0.2519  0.2033
 8156SOL    HW235928   3.015   4.140  17.654  0.4085  1.7949  0.2201
 8157SOL     OW35929   1.071   2.260  15.601  0.4182  0.4383 -0.2100
 8157SOL    HW135930   1.005   2.263  15.670  0.7309  0.7869  0.0714
 8157SOL    HW235931   1.009   2.253  15.528  0.4679  0.5606 -0.2632
 8158SOL     OW35932   2.891   1.042   9.029  0.2988  0.2720  0.6104
 8158SOL    HW135933   2.986   1.041   9.019  0.4774 -2.0507  2.5765
 8158SOL    HW235934   2.880   1.111   9.095  2.6392 -0.2818  1.5843
 8159SOL     OW35935   0.012   3.061  17.451 -0.0370  0.2855 -0.0558
 8159SOL    HW135936   4.693   3.131  17.404  0.7927  1.3375  0.7314
 8159SOL    HW235937   0.078   3.051  17.382  0.8097  0.7325  0.6887
 8160SOL     OW35938   1.232   1.643   7.656  0.2805  0.7389 -0.0191
 8160SOL    HW135939   1.263   1.677   7.740  2.2868 -0.7869 -0.1286
 8160SOL    HW235940   1.255   1.703   7.585 -0.5703 -1.0732 -1.8660
 8161SOL     OW35941   2.666   2.883   9.790  0.2217  0.3468  0.3850
 8161SOL    HW135942   2.609   2.891   9.713  0.6646  0.7976  0.0990
 8161SOL    HW235943   2.718   2.808   9.762 -0.1029  0.0811  0.5010
 8162SOL     OW35944   3.101   1.995   6.147 -0.4438  0.3375  0.4857
 8162SOL    HW135945   3.113   1.917   6.093  1.2100 -0.0101  1.3756
 8162SOL    HW235946   3.028   1.968   6.202 -0.0079  0.5049  1.1406
 8163SOL     OW35947   3.696   1.453   9.252 -0.0602  0.5629 -0.1397
 8163SOL    HW135948   3.634   1.380   9.254  1.1148 -0.4186  0.8828
 8163SOL    HW235949   3.656   1.508   9.320 -0.2994 -0.8730  0.8759
 8164SOL     OW35950   2.358   0.810   5.490 -0.6264 -0.3528  0.0381
 8164SOL    HW135951   2.417   0.764   5.550  0.0445  0.8332  0.2980
 8164SOL    HW235952   2.428   0.870   5.463 -0.5629 -1.0100 -1.2587
 8165SOL     OW35953   2.125   3.357   4.888  0.1328 -0.1812 -0.4770
 8165SOL    HW135954   2.192   3.412   4.847 -0.2217 -0.6515 -1.6828
 8165SOL    HW235955   2.048   3.403   4.854 -0.1902 -0.5753 -0.2796
 8166SOL     OW35956   4.099   0.244  10.288 -0.2776 -0.3458 -0.5449
 8166SOL    HW135957   4.186   0.283  10.283 -1.7764  2.6600 -3.0908
 8166SOL    HW235958   4.108   0.211  10.378 -1.3745  0.7982 -0.0157
 8167SOL     OW35959   0.703   1.715   2.080  0.4812  0.1979 -0.0447
 8167SOL    HW135960   0.650   1.724   2.000 -0.8958 -0.9215  0.7469
 8167SOL    HW235961   0.745   1.801   2.075  0.5305  0.2441  1.1497
 8168SOL     OW35962   0.482   4.491   0.512 -0.1873 -0.5348 -0.0603
 8168SOL    HW135963   0.457   4.529   0.596  3.0170 -1.4377  1.2790
 8168SOL    HW235964   0.539   4.415   0.524 -2.4699 -2.1492  0.4250
 8169SOL     OW35965   0.050   4.268   1.531  0.1539  0.1132  0.1107
 8169SOL    HW135966   0.088   4.355   1.519 -2.1097  0.9088 -1.3011
 8169SOL    HW235967   0.031   4.238   1.442 -0.4043 -0.5580  0.4573
 8170SOL     OW35968   0.079   1.399  13.511  0.2318  0.5545  0.9851
 8170SOL    HW135969   0.074   1.324  13.569 -0.4857  0.7815  1.2211
 8170SOL    HW235970   0.140   1.372  13.442 -0.9540  0.4337 -0.0208
 8171SOL     OW35971   0.415   2.799   8.436  0.5618  0.1056  0.1783
 8171SOL    HW135972   0.445   2.752   8.514 -0.5023 -0.9348 -0.0243
 8171SOL    HW235973   0.492   2.804   8.379  1.7694 -1.9180  1.6206
 8172SOL     OW35974   2.859   4.452   8.276  0.2153 -0.2242 -0.2166
 8172SOL    HW135975   2.808   4.532   8.293  2.1768  0.6273  1.6941
 8172SOL    HW235976   2.830   4.441   8.186  1.6611 -0.3032 -0.6694
 8173SOL     OW35977   0.575   2.574   1.174 -0.1764 -0.3100 -0.8839
 8173SOL    HW135978   0.651   2.519   1.191 -0.6623 -0.6599  0.1692
 8173SOL    HW235979   0.588   2.606   1.085 -0.7247 -0.4278 -1.0071
 8174SOL     OW35980   2.065   3.198   5.085  0.8545 -0.0496 -0.7681
 8174SOL    HW135981   1.969   3.190   5.085  0.8917 -0.5421 -1.7941
 8174SOL    HW235982   2.079   3.253   5.008 -0.1639  1.0146 -0.1856
 8175SOL     OW35983   0.817   3.150   7.859  0.0950  0.1548  0.0187
 8175SOL    HW135984   0.747   3.115   7.914  1.8644 -1.3805  1.2972
 8175SOL    HW235985   0.872   3.186   7.929 -0.9819 -0.2386  1.0594
 8176SOL     OW35986   4.039   4.338   0.377 -0.3065  0.3000  0.2029
 8176SOL    HW135987   4.110   4.402   0.373  1.1109 -1.2268  0.8994
 8176SOL    HW235988   3.975   4.374   0.315  1.0246  0.1576 -1.2614
 8177SOL     OW35989   1.293   4.206   8.142  0.4840  0.0263 -0.3760
 8177SOL    HW135990   1.226   4.204   8.074  1.3435 -1.4973 -1.1681
 8177SOL    HW235991   1.261   4.137   8.200  2.5868 -1.0322 -0.4793
 8178SOL     OW35992   0.818   4.451   9.625 -0.2777 -0.6671  0.0214
 8178SOL    HW135993   0.845   4.379   9.682 -2.5709 -0.4308  1.4210
 8178SOL    HW235994   0.817   4.530   9.678  0.4473 -0.3134 -0.5026
 8179SOL     OW35995   2.893   2.240   6.348  0.6928  0.0569 -0.4914
 8179SOL    HW135996   2.944   2.296   6.407  1.5404 -0.7342 -0.4815
 8179SOL    HW235997   2.918   2.278   6.263 -0.5970 -3.0084 -2.2334
 8180SOL     OW35998   3.751   0.779   6.440 -0.5456  0.0688  0.1724
 8180SOL    HW135999   3.837   0.738   6.452  0.2454  1.1409 -1.7285
 8180SOL    HW236000   3.722   0.732   6.362  0.6133  1.0174 -0.8319
 8181SOL     OW36001   3.691   0.473  16.565  0.1357 -0.3564  0.0717
 8181SOL    HW136002   3.763   0.457  16.626  0.4082  1.1169  0.1308
 8181SOL    HW236003   3.739   0.503  16.488 -1.4963 -1.7768 -1.5193
 8182SOL     OW36004   2.559   1.996  14.208 -0.0550  0.0531 -0.0121
 8182SOL    HW136005   2.499   2.000  14.282  1.1500  2.0466  0.8380
 8182SOL    HW236006   2.555   1.901  14.194  1.3778 -0.2096  1.3828
 8183SOL     OW36007   3.414   2.444   4.893 -0.4997  0.1567  0.6018
 8183SOL    HW136008   3.374   2.487   4.969  0.5116  1.8162  0.1856
 8183SOL    HW236009   3.498   2.420   4.935  0.2244 -0.8535 -1.4233
 8184SOL     OW36010   4.700   0.508   9.540  0.1958 -0.3813 -0.4605
 8184SOL    HW136011   4.668   0.524   9.629  2.2954 -0.3023  0.2677
 8184SOL    HW236012   0.020   0.592   9.531  0.8080 -0.8928 -1.9270
 8185SOL     OW36013   2.492   1.448  14.981  0.3594  0.4380  0.3488
 8185SOL    HW136014   2.436   1.503  14.926  0.9754 -0.4509 -1.1676
 8185SOL    HW236015   2.521   1.387  14.913 -1.9729  0.3713 -0.5710
 8186SOL     OW36016   4.315   2.200   0.637  0.2443  0.0178 -0.0549
 8186SOL    HW136017   4.408   2.179   0.641  0.2442 -0.0066 -0.1737
 8186SOL    HW236018   4.311   2.218   0.543 -2.7129  0.9262  0.2362
 8187SOL     OW36019   0.891   2.566   8.781  0.3003  0.2361 -0.1414
 8187SOL    HW136020   0.944   2.624   8.726  1.0875  1.7668  2.2399
 8187SOL    HW236021   0.958   2.553   8.848 -0.0046 -0.9738 -0.0706
 8188SOL     OW36022   2.545   2.652   5.370 -0.2029 -0.4320 -0.5040
 8188SOL    HW136023   2.453   2.667   5.349 -0.1079  0.3075 -0.3873
 8188SOL    HW236024   2.578   2.737   5.340 -0.4768 -0.2968 -0.4260
 8189SOL     OW36025   2.252   1.263   8.109  0.0156  0.2391  0.4635
 8189SOL    HW136026   2.335   1.275   8.156 -1.1828  0.2908  2.5395
 8189SOL    HW236027   2.221   1.186   8.156 -0.7407 -0.6134 -1.4255
 8190SOL     OW36028   3.217   4.570  17.465 -0.2253 -0.7847 -0.3597
 8190SOL    HW136029   3.209   4.655  17.507 -0.5762 -0.4990 -0.9960
 8190SOL    HW236030   3.175   4.592  17.382 -0.4043 -3.7138 -1.0249
 8191SOL     OW36031   2.531   4.268  14.179  0.2205 -0.5027  0.2675
 8191SOL    HW136032   2.595   4.278  14.250 -0.6867  1.4303  0.8031
 8191SOL    HW236033   2.539   4.173  14.170 -0.8668 -0.4671 -1.1706
 8192SOL     OW36034   0.894   3.731  12.688  0.5009  0.0413 -0.6529
 8192SOL    HW136035   0.956   3.794  12.722  1.1976  1.2156 -4.1257
 8192SOL    HW236036   0.942   3.704  12.609  1.0409 -0.1548 -0.2496
 8193SOL     OW36037   3.590   3.478  11.273 -0.0480 -0.9083  0.3624
 8193SOL    HW136038   3.616   3.556  11.322  3.3629 -2.9437  1.8216
 8193SOL    HW236039   3.621   3.413  11.336 -0.5903 -1.8565 -0.3579
 8194SOL     OW36040   4.187   4.592   3.940  0.6326 -0.9636 -0.1111
 8194SOL    HW136041   4.127   4.646   3.991  3.3222  1.2998  0.6632
 8194SOL    HW236042   4.156   4.628   3.857  1.2063 -0.5277 -0.1378
 8195SOL     OW36043   0.411   0.518  11.231 -0.4350 -0.0950  0.2885
 8195SOL    HW136044   0.365   0.436  11.249  0.0311  0.2544  3.0775
 8195SOL    HW236045   0.334   0.561  11.194  0.2817 -0.5936 -1.7713
 8196SOL     OW36046   3.053   0.796  17.058  0.2189 -0.0275 -0.3925
 8196SOL    HW136047   3.139   0.792  17.015 -0.2392 -1.2658 -1.2048
 8196SOL    HW236048   3.006   0.764  16.981  0.7722  1.6828 -1.4516
 8197SOL     OW36049   3.625   0.089  10.194  0.1236  0.1651  0.6101
 8197SOL    HW136050   3.683   0.159  10.225 -0.2907 -0.2322  2.2785
 8197SOL    HW236051   3.649   0.098  10.101  0.1419 -2.5304  0.3629
 8198SOL     OW36052   3.032   3.463   0.004  0.1386  0.1227  0.1760
 8198SOL    HW136053   2.999   3.539  17.661 -0.1589 -0.7287 -0.9993
 8198SOL    HW236054   2.988   3.480   0.088  2.4432  2.2993  0.9096
 8199SOL     OW36055   3.400   3.415  11.097  0.1346 -0.6703  0.4223
 8199SOL    HW136056   3.478   3.443  11.144  0.6357 -0.9241 -0.2575
 8199SOL    HW236057   3.366   3.356  11.164 -0.3101 -0.9053 -0.0061
 8200SOL     OW36058   3.274   3.992   5.910  0.4579  0.5202  0.5446
 8200SOL    HW136059   3.241   3.908   5.939 -1.7150  0.4026 -2.2915
 8200SOL    HW236060   3.295   4.020   5.999 -2.3126  0.2646  1.2665
 8201SOL     OW36061   3.466   3.785  10.722 -0.7434  0.6916  0.0401
 8201SOL    HW136062   3.429   3.872  10.736 -0.7715  0.6256  0.3931
 8201SOL    HW236063   3.475   3.761  10.815 -0.2507  0.5632 -0.0413
 8202SOL     OW36064   4.023   0.623   5.032  0.2694 -0.3050 -0.1629
 8202SOL    HW136065   4.073   0.549   5.000  0.7690 -0.2399  0.4751
 8202SOL    HW236066   3.964   0.583   5.096 -1.2631  0.5138 -1.0386
 8203SOL     OW36067   2.657   0.864  13.440  0.4405  0.7486 -0.7474
 8203SOL    HW136068   2.689   0.897  13.356 -2.0355  3.3578 -0.6325
 8203SOL    HW236069   2.569   0.837  13.414 -0.1108  2.2920 -0.4422
 8204SOL     OW36070   4.175   1.728   8.197  0.1501 -0.2963  0.0792
 8204SOL    HW136071   4.252   1.677   8.171  0.2265  0.9212 -2.0909
 8204SOL    HW236072   4.208   1.817   8.183 -0.9239  0.1079  0.1870
 8205SOL     OW36073   3.094   2.655   8.937  0.6203  0.2831  0.0184
 8205SOL    HW136074   3.029   2.723   8.917  1.0457  0.9790  1.0530
 8205SOL    HW236075   3.050   2.577   8.902 -0.7416  1.4417 -0.8757
 8206SOL     OW36076   0.092   2.115   2.862  0.1778  0.0778 -0.0773
 8206SOL    HW136077   0.118   2.095   2.773  0.2111 -0.3456  0.0304
 8206SOL    HW236078   0.175   2.136   2.906  0.3744 -1.4731  0.2698
 8207SOL     OW36079   1.305   4.700   5.260  0.2506  0.0328 -0.1032
 8207SOL    HW136080   1.311   4.609   5.232  0.7571  0.1809 -0.4594
 8207SOL    HW236081   1.297   4.689   5.355  0.3058  2.4018  0.1668
 8208SOL     OW36082   1.567   2.797   5.531  0.0133  0.4420  0.3979
 8208SOL    HW136083   1.500   2.840   5.477  0.3657 -1.0051 -1.2054
 8208SOL    HW236084   1.596   2.877   5.575  0.7578 -1.6590  3.7103
 8209SOL     OW36085   3.472   3.795   3.429 -0.1822 -0.3246 -0.3255
 8209SOL    HW136086   3.452   3.877   3.473 -1.1320 -0.0018 -1.3628
 8209SOL    HW236087   3.390   3.769   3.386 -2.0563  1.1848  2.3584
 8210SOL     OW36088   1.200   3.418   0.167 -0.0889  0.5390 -0.5646
 8210SOL    HW136089   1.204   3.381   0.079  2.2738  0.7462 -0.5567
 8210SOL    HW236090   1.239   3.345   0.216 -0.0178 -0.2247 -1.7496
 8211SOL     OW36091   1.707   4.116   6.704  0.2046 -0.1361 -0.5384
 8211SOL    HW136092   1.667   4.076   6.782  1.5549  0.1810  0.3152
 8211SOL    HW236093   1.798   4.125   6.733 -0.1633 -0.4168  0.6998
 8212SOL     OW36094   1.021   2.844   2.048  0.0564 -0.5771 -0.4637
 8212SOL    HW136095   0.968   2.922   2.066  1.9949  0.5507  0.2600
 8212SOL    HW236096   1.107   2.880   2.026 -0.1961 -0.0861 -0.6542
 8213SOL     OW36097   0.647   0.722   8.794 -0.4466 -0.0982  0.0213
 8213SOL    HW136098   0.719   0.724   8.857  0.0699  1.4628 -0.6391
 8213SOL    HW236099   0.666   0.689   8.706  0.8976 -2.3705  1.1540
 8214SOL     OW36100   2.360   1.716   3.079  0.1725 -0.3685 -0.3378
 8214SOL    HW136101   2.411   1.637   3.094  0.8707 -0.1714 -1.6620
 8214SOL    HW236102   2.404   1.788   3.125  1.0085 -0.4062 -1.0694
 8215SOL     OW36103   1.693   0.637  11.537  0.3229  0.3504  0.2567
 8215SOL    HW136104   1.650   0.551  11.536 -1.8716  1.4476  0.0609
 8215SOL    HW236105   1.729   0.628  11.626 -3.7348  0.0725  1.8970
 8216SOL     OW36106   1.626   2.441   6.754  0.2761 -0.0077  0.0056
 8216SOL    HW136107   1.585   2.390   6.685  1.9727 -1.0905 -0.2248
 8216SOL    HW236108   1.713   2.399   6.754  0.5731  0.5894  1.0997
 8217SOL     OW36109   2.043   1.196  17.523  0.4602  0.1683 -0.2190
 8217SOL    HW136110   2.113   1.150  17.569  0.7465 -0.2374 -1.0525
 8217SOL    HW236111   1.969   1.151  17.563  2.2932 -1.4640  1.3673
 8218SOL     OW36112   1.275   0.389  17.086 -0.5537 -0.2429 -0.0418
 8218SOL    HW136113   1.318   0.417  17.006 -2.1624  3.2038  0.3178
 8218SOL    HW236114   1.183   0.376  17.063 -0.3543 -0.7616 -0.5380
 8219SOL     OW36115   2.336   2.303   3.987  0.0322  0.3844  0.2831
 8219SOL    HW136116   2.335   2.284   4.081 -1.4868  2.0654  0.6032
 8219SOL    HW236117   2.429   2.293   3.966 -0.3479 -1.2451 -0.5906
 8220SOL     OW36118   4.477   1.331  15.950 -0.3638 -0.5806 -0.1465
 8220SOL    HW136119   4.481   1.328  15.854 -1.2323  2.4217 -0.2874
 8220SOL    HW236120   4.458   1.424  15.964  1.3528 -0.2395 -0.0204
 8221SOL     OW36121   2.734   3.113  17.253  0.1864  0.2176  0.5509
 8221SOL    HW136122   2.812   3.167  17.238  0.7009 -0.4755  0.7186
 8221SOL    HW236123   2.674   3.186  17.236  1.3371  1.3425  1.2270
 8222SOL     OW36124   0.947   2.185  13.431 -0.3132  0.0742 -0.4437
 8222SOL    HW136125   1.004   2.254  13.466 -1.5350  1.1301 -0.5524
 8222SOL    HW236126   0.934   2.220  13.343  0.0354 -0.0853 -0.5606
 8223SOL     OW36127   3.439   2.917   6.536 -0.2094 -0.2998  0.1650
 8223SOL    HW136128   3.522   2.896   6.580 -0.7943 -0.8748  0.9847
 8223SOL    HW236129   3.396   2.981   6.593 -3.6658 -2.4435 -0.0642
 8224SOL     OW36130   3.829   3.870   4.093 -0.7932 -0.2657 -0.2657
 8224SOL    HW136131   3.808   3.778   4.082  2.4138 -1.1297  0.7066
 8224SOL    HW236132   3.771   3.895   4.164 -1.9902 -2.2835 -0.5465
 8225SOL     OW36133   1.738   0.143   3.359 -0.3177  0.2863  0.1033
 8225SOL    HW136134   1.786   0.062   3.345  0.4463  1.0693 -1.7653
 8225SOL    HW236135   1.741   0.144   3.454 -0.7536 -3.1817  0.1546
 8226SOL     OW36136   4.167   0.144   5.099 -0.0944  0.0404  0.4077
 8226SOL    HW136137   4.153   0.153   5.193  1.1625 -0.5981  0.6588
 8226SOL    HW236138   4.152   0.050   5.089 -1.3458  0.1045  1.7190
 8227SOL     OW36139   1.864   3.843   5.233 -0.2170  0.0923  0.0584
 8227SOL    HW136140   1.919   3.798   5.298 -0.6297 -1.2176 -0.4981
 8227SOL    HW236141   1.854   3.928   5.276 -2.6320 -0.2049  0.0933
 8228SOL     OW36142   3.500   3.651   6.140 -0.2451  0.2604 -0.4658
 8228SOL    HW136143   3.436   3.687   6.201  0.9650  1.8968 -0.1600
 8228SOL    HW236144   3.485   3.681   6.050 -1.6825  0.9482  0.0095
 8229SOL     OW36145   3.583   1.905   3.164 -0.0608 -0.3231  0.2015
 8229SOL    HW136146   3.638   1.930   3.239 -0.2416 -3.0851  1.2570
 8229SOL    HW236147   3.493   1.892   3.193 -0.6235  0.9410 -1.0014
 8230SOL     OW36148   2.902   4.468   0.931 -0.0537  1.4592 -0.2272
 8230SOL    HW136149   2.818   4.423   0.933  0.8992 -0.2356  1.8606
 8230SOL    HW236150   2.968   4.406   0.965 -0.2303  1.1595 -0.4281
 8231SOL     OW36151   3.212   1.492  13.409  0.2932  0.0584 -0.1257
 8231SOL    HW136152   3.247   1.444  13.485 -0.5721 -0.2094  0.0967
 8231SOL    HW236153   3.211   1.426  13.341  1.4966 -2.3830  2.2107
 8232SOL     OW36154   0.068   1.597  10.163 -0.3967 -0.2692  0.1694
 8232SOL    HW136155   0.097   1.543  10.236 -1.7078 -1.5046 -0.2179
 8232SOL    HW236156   0.150   1.601  10.114  0.3854  0.5626  1.5665
 8233SOL     OW36157   1.088   4.274   5.976  0.2514 -0.1489  0.2880
 8233SOL    HW136158   1.008   4.249   6.022  1.1048 -0.7325  1.4520
 8233SOL    HW236159   1.126   4.323   6.048  1.9091 -0.3679 -0.4440
 8234SOL     OW36160   2.927   4.209   9.296  0.3465 -0.8829  0.2170
 8234SOL    HW136161   2.861   4.161   9.346  0.2504 -0.4866  0.4662
 8234SOL    HW236162   2.938   4.155   9.218 -0.8073 -1.8034  0.6981
 8235SOL     OW36163   1.861   2.777   4.357 -0.7311  0.0387  0.0332
 8235SOL    HW136164   1.804   2.846   4.392 -1.3148 -0.9027  0.9431
 8235SOL    HW236165   1.947   2.817   4.346 -1.2881  1.4292  0.8048
 8236SOL     OW36166   0.498   0.449  14.674 -0.2588 -0.0739  0.4909
 8236SOL    HW136167   0.539   0.370  14.708  2.1476  0.8753 -0.1889
 8236SOL    HW236168   0.548   0.470  14.594 -2.1066  0.3384 -0.5524
 8237SOL     OW36169   2.088   1.189   7.365  0.4314  0.2766  0.8275
 8237SOL    HW136170   2.174   1.206   7.327  0.3500 -0.8771  0.1185
 8237SOL    HW236171   2.099   1.245   7.441 -0.0881  2.1193 -0.4605
 8238SOL     OW36172   3.837   3.432   5.915 -0.0915 -0.4603 -0.1059
 8238SOL    HW136173   3.807   3.453   6.004 -1.7538 -1.5676 -0.3968
 8238SOL    HW236174   3.930   3.414   5.922  0.0834  0.5821  0.2121
 8239SOL     OW36175   3.085   1.804   4.437 -0.1399 -0.0674  0.5631
 8239SOL    HW136176   3.005   1.791   4.488 -1.0547  1.3367 -0.5066
 8239SOL    HW236177   3.109   1.894   4.455  1.6997 -0.4056 -0.2072
 8240SOL     OW36178   1.937   3.374  15.107 -0.3297 -0.1308 -0.3186
 8240SOL    HW136179   1.951   3.428  15.029  2.9934  0.0352  0.3874
 8240SOL    HW236180   2.020   3.392  15.152 -0.7624 -2.2665  1.3759
 8241SOL     OW36181   1.893   2.955   6.720  0.0506  0.3627 -0.0933
 8241SOL    HW136182   1.882   3.047   6.696  1.7879  0.9899  1.5055
 8241SOL    HW236183   1.859   2.963   6.809  0.4352 -1.5984  0.2111
 8242SOL     OW36184   4.060   0.203   7.735 -0.2408 -0.3468  0.4906
 8242SOL    HW136185   4.144   0.159   7.748  0.1938  0.7860  1.5802
 8242SOL    HW236186   4.090   0.293   7.724  0.4783 -0.7119 -0.5178
 8243SOL     OW36187   1.422   3.034   0.649  0.3306 -0.0215 -0.2952
 8243SOL    HW136188   1.485   3.052   0.580  1.2899  0.3094  0.6565
 8243SOL    HW236189   1.481   3.018   0.723 -0.6789 -0.1039  0.5102
 8244SOL     OW36190   1.433   3.108   6.384  0.0112  0.2377 -0.5382
 8244SOL    HW136191   1.430   3.178   6.450  1.0837  1.7394 -2.0954
 8244SOL    HW236192   1.497   3.146   6.324  0.0619  1.7062  0.4441
 8245SOL     OW36193   3.922   4.644   3.125  0.3591 -0.5417 -0.6982
 8245SOL    HW136194   3.845   4.685   3.164  0.4123 -1.7160  0.6397
 8245SOL    HW236195   3.914   4.681   3.037  0.3658  1.1915  0.0345
 8246SOL     OW36196   3.003   4.175   5.300  0.6167  0.0353 -0.5177
 8246SOL    HW136197   2.930   4.219   5.258 -0.4895  0.4131  1.8115
 8246SOL    HW236198   3.064   4.168   5.227  2.0300  1.9778  0.4798
 8247SOL     OW36199   0.104   1.932   3.051  0.1242 -0.3989  0.0834
 8247SOL    HW136200   0.050   1.864   3.011 -2.1789 -0.0226  2.5657
 8247SOL    HW236201   0.108   1.997   2.981 -2.0616  0.1650  0.4957
 8248SOL     OW36202   0.300   0.417  10.353 -0.3674  1.1767  0.5177
 8248SOL    HW136203   0.261   0.445  10.271 -1.8564 -2.1328  0.1262
 8248SOL    HW236204   0.227   0.420  10.415  0.6166  0.8411  1.7023
 8249SOL     OW36205   3.736   4.452   5.613 -0.2232 -0.0878  0.8074
 8249SOL    HW136206   3.750   4.358   5.622 -0.4114 -0.1707  0.2196
 8249SOL    HW236207   3.658   4.454   5.558  1.4124  0.3858 -1.4794
 8250SOL     OW36208   1.022   1.174  15.644 -0.0685 -0.8282  0.0360
 8250SOL    HW136209   1.026   1.091  15.691  0.7496  0.0696  1.5606
 8250SOL    HW236210   1.042   1.144  15.555  0.5340  1.2876 -0.5495
 8251SOL     OW36211   0.346   2.521   7.306 -0.2635  0.2079 -0.1499
 8251SOL    HW136212   0.386   2.440   7.338 -0.4509  0.3132  0.3595
 8251SOL    HW236213   0.279   2.487   7.247  1.7090 -1.5614 -1.3549
 8252SOL     OW36214   3.695   3.454  15.393  0.3942  0.2218 -0.3124
 8252SOL    HW136215   3.600   3.453  15.408  0.2620  2.8610 -0.9797
 8252SOL    HW236216   3.731   3.366  15.381 -2.2419 -0.8703 -0.2085
 8253SOL     OW36217   2.257   3.696   5.359 -0.0334 -0.6296  0.0587
 8253SOL    HW136218   2.315   3.622   5.378 -0.3128 -0.6523  0.7890
 8253SOL    HW236219   2.241   3.681   5.265 -0.9515 -1.3749  0.3351
 8254SOL     OW36220   2.016   1.115   4.193 -0.0775  0.1548  0.4274
 8254SOL    HW136221   2.039   1.103   4.101 -1.0185  0.2029  0.1811
 8254SOL    HW236222   1.976   1.202   4.192  0.8761  0.5563 -3.3512
 8255SOL     OW36223   0.851   4.073   8.960 -0.2047  0.4378  0.5202
 8255SOL    HW136224   0.895   4.157   8.945  0.4822 -0.2082 -1.1405
 8255SOL    HW236225   0.764   4.112   8.969  0.0883  1.0521  0.7220
 8256SOL     OW36226   1.853   0.602   5.936  0.4950 -0.0028  0.1026
 8256SOL    HW136227   1.864   0.552   5.855  0.1223  3.0467 -1.8395
 8256SOL    HW236228   1.760   0.625   5.933  0.6049  0.4764  0.3013
 8257SOL     OW36229   3.834   0.915   8.272 -0.4501 -0.4055 -0.0295
 8257SOL    HW136230   3.827   0.929   8.367  1.6963 -0.1549  0.1059
 8257SOL    HW236231   3.851   1.004   8.240  0.2757 -0.8634 -0.9079
 8258SOL     OW36232   1.973   2.228   2.291  0.3483 -0.0353  0.4669
 8258SOL    HW136233   2.022   2.288   2.347 -0.1483  0.0344  0.8223
 8258SOL    HW236234   2.031   2.221   2.215  0.8374  0.5055  0.7983
 8259SOL     OW36235   0.333   2.745  14.439  0.1122 -0.2743 -0.0309
 8259SOL    HW136236   0.348   2.819  14.498  2.1913 -0.6867 -0.0286
 8259SOL    HW236237   0.273   2.692  14.491  0.0686 -0.3054 -0.1122
 8260SOL     OW36238   0.702   0.072  15.829 -0.3338 -0.8032  0.2957
 8260SOL    HW136239   0.607   0.081  15.824 -0.3154 -0.6001  0.3233
 8260SOL    HW236240   0.736   0.151  15.788  0.3974 -0.0427  2.3417
 8261SOL     OW36241   2.257   3.444   3.333 -0.1440  0.0881  0.3227
 8261SOL    HW136242   2.167   3.454   3.363 -0.7620 -1.6656 -0.9500
 8261SOL    HW236243   2.268   3.349   3.338  0.8063  0.1968  0.3625
 8262SOL     OW36244   1.256   3.170  15.398  0.3172  0.1617  0.4932
 8262SOL    HW136245   1.210   3.171  15.482  0.2751 -0.8272  0.4804
 8262SOL    HW236246   1.347   3.157  15.427  1.0886  2.9108 -0.6220
 8263SOL     OW36247   2.825   1.805   5.087  0.2164  0.2546  0.8768
 8263SOL    HW136248   2.745   1.828   5.041  2.5342  1.8323 -2.3041
 8263SOL    HW236249   2.862   1.883   5.128 -0.0340 -0.1767  1.9465
 8264SOL     OW36250   2.092   1.787   6.473 -0.5095  0.0835  0.2839
 8264SOL    HW136251   2.057   1.849   6.410 -1.6136  0.0272  0.8410
 8264SOL    HW236252   2.042   1.800   6.554 -2.4940  1.4152 -1.1693
 8265SOL     OW36253   3.237   2.266   1.731 -0.7879 -0.2444 -0.0456
 8265SOL    HW136254   3.326   2.251   1.764 -0.1102 -0.2772 -1.9338
 8265SOL    HW236255   3.213   2.340   1.787  1.5385 -0.6904  1.5557
 8266SOL     OW36256   4.093   0.311   8.592  0.3622 -0.6293  0.2453
 8266SOL    HW136257   4.086   0.275   8.680  2.9040  1.6224  1.3328
 8266SOL    HW236258   4.023   0.264   8.545 -0.0111  2.1809 -2.0174
 8267SOL     OW36259   1.847   3.508  15.407 -1.1601 -0.4838 -0.0192
 8267SOL    HW136260   1.929   3.459  15.404 -0.7162  0.2803 -0.2658
 8267SOL    HW236261   1.843   3.557  15.489 -0.9146  0.2353 -0.4444
 8268SOL     OW36262   2.191   3.483   7.916 -0.0875  0.2953  0.2438
 8268SOL    HW136263   2.218   3.571   7.942  2.9961 -0.2011 -1.2903
 8268SOL    HW236264   2.163   3.442   7.998 -0.2799  1.3625  0.7093
 8269SOL     OW36265   4.179   4.352  10.752  0.2480  0.1976 -0.2518
 8269SOL    HW136266   4.186   4.281  10.688  4.0833 -0.7295  1.1502
 8269SOL    HW236267   4.086   4.370  10.762 -0.1420 -2.7565  1.4462
 8270SOL     OW36268   3.852   0.594  14.263 -0.2355  0.2951 -0.0270
 8270SOL    HW136269   3.803   0.558  14.190 -0.1476 -0.7878  0.4469
 8270SOL    HW236270   3.919   0.528  14.281 -1.8385 -1.6892 -1.4448
 8271SOL     OW36271   3.090   3.798   8.836 -0.6361  0.5408 -0.7722
 8271SOL    HW136272   3.089   3.812   8.741  0.6113 -1.3437 -1.0605
 8271SOL    HW236273   3.084   3.703   8.843  0.7058  0.5602  0.7207
 8272SOL     OW36274   2.006   4.476  12.967  0.0303  0.4052 -0.3955
 8272SOL    HW136275   1.978   4.400  12.915 -1.8239  0.5269  0.4475
 8272SOL    HW236276   1.971   4.545  12.911 -1.5548 -0.9590 -1.0975
 8273SOL     OW36277   4.418   0.305  17.589 -0.2012  0.0021 -0.0284
 8273SOL    HW136278   4.366   0.300  17.669 -0.5699  2.8849 -0.0667
 8273SOL    HW236279   4.475   0.229  17.599 -0.0194  0.0558 -0.6585
 8274SOL     OW36280   4.314   2.953   3.357  0.3459 -0.0719  0.0736
 8274SOL    HW136281   4.301   2.859   3.350  1.4898 -0.2589  0.4257
 8274SOL    HW236282   4.407   2.954   3.382  1.3179  1.4726 -3.5875
 8275SOL     OW36283   3.467   0.792   3.034 -0.0987 -0.2227  0.1837
 8275SOL    HW136284   3.418   0.851   3.091  0.1264  3.3079 -3.2682
 8275SOL    HW236285   3.555   0.831   3.030 -0.4991  0.6296 -0.4087
 8276SOL     OW36286   3.493   1.402  10.933  0.1290  0.2396 -0.2902
 8276SOL    HW136287   3.523   1.469  10.872  1.5139  1.2022  1.4377
 8276SOL    HW236288   3.443   1.346  10.874  0.3746  0.1784 -0.4428
 8277SOL     OW36289   3.641   0.689   7.974 -0.0132  0.2734  0.3191
 8277SOL    HW136290   3.608   0.725   7.892 -1.1414 -2.1497 -0.2937
 8277SOL    HW236291   3.693   0.761   8.009  1.5562 -0.8132  0.2578
 8278SOL     OW36292   3.129   3.455   5.523 -0.7033 -0.2636  0.1264
 8278SOL    HW136293   3.069   3.464   5.449 -2.2130  0.3611  1.4249
 8278SOL    HW236294   3.203   3.449   5.464 -0.7300 -0.0670  0.0760
 8279SOL     OW36295   2.674   3.952  17.646  0.0467 -0.1534  0.5601
 8279SOL    HW136296   2.619   3.970   0.019 -1.0058  3.3981 -0.9984
 8279SOL    HW236297   2.671   3.858  17.632  0.4429 -0.3826  1.9611
 8280SOL     OW36298   4.432   0.700   2.451  0.4453  0.0658  0.0986
 8280SOL    HW136299   4.459   0.748   2.372 -0.5555 -2.1058 -1.5730
 8280SOL    HW236300   4.342   0.668   2.439  0.1533  1.3599 -1.2029
 8281SOL     OW36301   0.225   0.476  13.674  0.2085 -0.8772  0.5593
 8281SOL    HW136302   0.165   0.477  13.600 -0.4984 -0.2115  1.1375
 8281SOL    HW236303   0.217   0.565  13.708  0.0832 -0.9316  0.6705
 8282SOL     OW36304   0.796   3.559   0.465  0.4018  0.1826  0.8994
 8282SOL    HW136305   0.825   3.630   0.409 -3.2610 -0.5721 -1.9534
 8282SOL    HW236306   0.875   3.505   0.457 -0.3880 -0.8592  0.1758
 8283SOL     OW36307   1.876   1.581   8.051 -0.0071  0.0701  0.2358
 8283SOL    HW136308   1.912   1.537   7.973  1.0786  2.5597 -0.6512
 8283SOL    HW236309   1.963   1.576   8.090 -1.6594 -0.4688  3.7947
 8284SOL     OW36310   4.537   3.927   3.849 -0.1513 -0.0866 -0.0864
 8284SOL    HW136311   4.473   3.998   3.849 -0.0798 -0.0337 -2.3782
 8284SOL    HW236312   4.512   3.873   3.774 -1.4585  1.6820 -0.9156
 8285SOL     OW36313   2.271   3.064  16.400  0.2774 -0.1657 -0.1296
 8285SOL    HW136314   2.292   3.141  16.453  2.5071 -0.7516 -0.1860
 8285SOL    HW236315   2.355   3.047  16.357  0.0832 -3.0972  0.6684
 8286SOL     OW36316   2.180   2.051   8.784 -0.4827 -0.1770  0.3758
 8286SOL    HW136317   2.243   2.058   8.857 -0.7255  1.8491  0.3888
 8286SOL    HW236318   2.198   1.962   8.753 -1.5000  0.2339 -1.3617
 8287SOL     OW36319   0.735   3.439   7.142 -0.5878 -0.8854  0.1719
 8287SOL    HW136320   0.777   3.415   7.225 -0.2863  2.2694  0.9548
 8287SOL    HW236321   0.806   3.492   7.106 -1.0931 -0.1149  0.3037
 8288SOL     OW36322   1.070   0.553  15.429 -0.3140 -0.2722 -0.0374
 8288SOL    HW136323   0.989   0.513  15.460  0.9429 -1.0242  2.2223
 8288SOL    HW236324   1.035   0.582  15.345  1.3429  2.1744  0.1140
 8289SOL     OW36325   2.043   1.125  14.107 -0.2399  0.0104 -0.2640
 8289SOL    HW136326   1.949   1.106  14.116 -0.4797  1.1648 -0.3761
 8289SOL    HW236327   2.056   1.070  14.030  2.0673  0.0555  0.1001
 8290SOL     OW36328   0.306   0.872   8.704  0.7389 -0.2263  0.0227
 8290SOL    HW136329   0.311   0.850   8.612  1.5432 -1.1736  0.2946
 8290SOL    HW236330   0.391   0.915   8.714 -0.6752  2.6229 -0.0728
 8291SOL     OW36331   4.400   3.813   3.605 -0.2421 -0.2444  0.3474
 8291SOL    HW136332   4.347   3.743   3.567 -1.0824 -0.1763  1.3621
 8291SOL    HW236333   4.329   3.873   3.628  0.0556  0.9600 -1.9637
 8292SOL     OW36334   1.555   3.156  12.804  0.1513 -0.0580 -0.1905
 8292SOL    HW136335   1.587   3.245  12.823  0.2110  0.3737 -2.3187
 8292SOL    HW236336   1.613   3.100  12.855 -0.4817  2.2175  3.0632
 8293SOL     OW36337   0.461   1.397   2.013 -0.2265 -0.0485  0.6311
 8293SOL    HW136338   0.508   1.419   1.933 -1.1771  1.7476  0.5725
 8293SOL    HW236339   0.382   1.357   1.976 -0.1635  0.8768 -0.5026
 8294SOL     OW36340   3.246   2.038   7.451  0.1332  0.3449  0.4204
 8294SOL    HW136341   3.304   1.985   7.397  0.2600  0.5230  0.3818
 8294SOL    HW236342   3.304   2.108   7.481 -0.7647 -0.1549  3.3441
 8295SOL     OW36343   2.440   3.036  12.949 -0.1769  0.0157 -0.4543
 8295SOL    HW136344   2.396   2.954  12.927 -1.0323  0.0748  1.0170
 8295SOL    HW236345   2.479   3.016  13.034  0.1581  1.5211 -0.2602
 8296SOL     OW36346   3.117   2.633   7.843 -0.2265  0.0583  0.8461
 8296SOL    HW136347   3.140   2.547   7.878 -1.9633 -0.5704  0.4295
 8296SOL    HW236348   3.172   2.701   7.883  0.0790  1.8811 -2.6555
 8297SOL     OW36349   2.442   2.911   7.155  0.4120  0.1776  0.4575
 8297SOL    HW136350   2.464   3.003   7.140 -1.9842  0.5845 -0.5238
 8297SOL    HW236351   2.375   2.888   7.090  0.7471  1.4382 -0.3280
 8298SOL     OW36352   3.140   3.521   7.528 -1.0087 -0.3561  0.2277
 8298SOL    HW136353   3.178   3.444   7.485  0.3077  1.5503 -2.0177
 8298SOL    HW236354   3.175   3.505   7.615  1.6203  0.4911 -0.6723
 8299SOL     OW36355   3.270   0.609   9.027  0.3395  0.4208 -0.7031
 8299SOL    HW136356   3.198   0.662   9.061  1.1192  0.3871  1.0007
 8299SOL    HW236357   3.298   0.587   9.116  0.5134 -2.7603 -1.5486
 8300SOL     OW36358   2.132   1.224   2.973  0.3703 -0.4112 -0.0249
 8300SOL    HW136359   2.121   1.139   3.016 -0.2770  0.1440  0.9096
 8300SOL    HW236360   2.218   1.216   2.932 -0.4470  0.7638 -1.9657
 8301SOL     OW36361   2.343   4.124   8.929  0.2928  0.2848  0.0978
 8301SOL    HW136362   2.329   4.052   8.867 -1.3030  0.6793  0.0015
 8301SOL    HW236363   2.250   4.139   8.942 -0.0007 -0.0959 -1.5280
 8302SOL     OW36364   1.976   1.710   6.167  0.1778  0.4979 -0.2710
 8302SOL    HW136365   2.033   1.643   6.131  0.0261  0.5418 -0.5968
 8302SOL    HW236366   2.007   1.790   6.125  0.0240 -0.1345 -1.5868
 8303SOL     OW36367   4.165   1.994  11.905  0.6010  0.1409  0.5542
 8303SOL    HW136368   4.133   1.904  11.902 -0.0701  0.3724  0.8206
 8303SOL    HW236369   4.204   1.996  11.818  0.4176  1.4301  0.4933
 8304SOL     OW36370   0.599   2.585  16.833  0.2327 -0.2244  0.0806
 8304SOL    HW136371   0.529   2.567  16.895 -1.1743  1.2731 -1.0486
 8304SOL    HW236372   0.640   2.500  16.817 -1.7700 -1.4059  1.2933
 8305SOL     OW36373   3.453   2.902   4.615 -0.3611 -0.4001  0.0573
 8305SOL    HW136374   3.376   2.863   4.574 -0.4857 -0.8306  0.6892
 8305SOL    HW236375   3.500   2.832   4.662 -0.3575 -0.1767  0.3824
 8306SOL     OW36376   2.649   0.514   4.576  0.4483 -0.0633 -0.3263
 8306SOL    HW136377   2.685   0.467   4.652 -0.6067 -1.4722 -0.7056
 8306SOL    HW236378   2.637   0.440   4.516  2.2089 -0.5549 -0.0830
 8307SOL     OW36379   3.154   2.992   2.409 -1.0513  0.0805 -0.0958
 8307SOL    HW136380   3.160   2.896   2.409  0.0303  0.1725  4.0643
 8307SOL    HW236381   3.196   3.007   2.324  0.5555 -0.2490  0.6352
 8308SOL     OW36382   0.583   3.764   8.873 -0.5973 -0.5984  0.6750
 8308SOL    HW136383   0.488   3.752   8.873 -0.7829  0.8702  0.4071
 8308SOL    HW236384   0.606   3.742   8.782  0.4057  0.7367  0.5982
 8309SOL     OW36385   0.725   3.134  13.695 -0.5460 -0.2345  0.5151
 8309SOL    HW136386   0.663   3.126  13.622 -0.1743 -0.8595  0.2696
 8309SOL    HW236387   0.745   3.044  13.719  4.2355  0.2946 -1.5387
 8310SOL     OW36388   4.721   3.304   4.221 -0.3941  0.0514 -0.2540
 8310SOL    HW136389   4.686   3.259   4.144 -1.6036  0.6567 -0.0570
 8310SOL    HW236390   0.088   3.297   4.198 -0.2851  0.4733  0.0416
 8311SOL     OW36391   2.820   3.706   9.989  0.1663  0.3380 -0.8933
 8311SOL    HW136392   2.909   3.681   9.968  0.2947 -0.6634  0.8720
 8311SOL    HW236393   2.796   3.625  10.033 -1.2839 -0.2265 -2.6882
 8312SOL     OW36394   4.060   0.448  10.068  0.3072  0.4552  0.0834
 8312SOL    HW136395   4.150   0.443  10.036 -0.0010 -0.2029 -0.6605
 8312SOL    HW236396   4.057   0.523  10.128  1.2407 -1.0300  1.9747
 8313SOL     OW36397   2.584   4.006   2.951 -0.0920  0.2305  0.2567
 8313SOL    HW136398   2.628   3.937   3.001 -1.0835 -0.6941 -0.1258
 8313SOL    HW236399   2.544   3.957   2.879  0.4295  0.2487 -0.0489
 8314SOL     OW36400   4.325   3.068   2.336  0.1769 -0.3210 -0.0450
 8314SOL    HW136401   4.286   3.060   2.423 -1.1124 -1.5426 -0.7315
 8314SOL    HW236402   4.291   3.145   2.290  2.3500  1.7917  1.8784
 8315SOL     OW36403   1.475   2.869   8.678  0.2122 -0.5988  0.0742
 8315SOL    HW136404   1.426   2.926   8.737 -1.9319 -1.4965 -0.8165
 8315SOL    HW236405   1.399   2.819   8.647 -1.8152  2.3651  0.2372
 8316SOL     OW36406   1.153   3.485  12.349 -0.4379  0.6437  0.4229
 8316SOL    HW136407   1.161   3.478  12.444 -0.0484 -3.2106  0.1167
 8316SOL    HW236408   1.143   3.392  12.326  2.0650  1.1109 -2.4747
 8317SOL     OW36409   0.563   4.164  17.448  0.3774  0.4031  0.1899
 8317SOL    HW136410   0.567   4.162  17.352  1.8861  0.5147  0.2495
 8317SOL    HW236411   0.608   4.246  17.468  1.8864 -0.4757  0.4011
 8318SOL     OW36412   0.395   2.271   3.495  0.3745  0.7156  0.4742
 8318SOL    HW136413   0.490   2.272   3.482  0.5257 -1.1170  1.5733
 8318SOL    HW236414   0.372   2.320   3.415  1.8083 -0.4537 -0.6691
 8319SOL     OW36415   1.250   4.565   2.625  0.0716  0.1697  0.4300
 8319SOL    HW136416   1.182   4.512   2.667 -0.0894  0.6494  0.7804
 8319SOL    HW236417   1.193   4.627   2.579  0.0095 -1.6594 -1.9586
 8320SOL     OW36418   1.328   0.755  13.982 -0.0590  0.0244 -0.0058
 8320SOL    HW136419   1.371   0.829  13.939  1.3586 -1.1029 -0.4896
 8320SOL    HW236420   1.244   0.796  14.006  0.1913  1.0456 -0.8701
 8321SOL     OW36421   2.748   3.213   7.376 -0.2471 -0.0883 -0.7579
 8321SOL    HW136422   2.686   3.142   7.355  1.1130 -1.7155  0.7609
 8321SOL    HW236423   2.695   3.276   7.424  0.8155  1.5338 -1.7195
 8322SOL     OW36424   4.275   1.255  11.931 -0.2405  0.4602  0.2457
 8322SOL    HW136425   4.280   1.319  11.861  1.0351  0.3574  0.2564
 8322SOL    HW236426   4.365   1.226  11.939 -0.8510 -1.4138  0.3207
 8323SOL     OW36427   3.891   0.694   3.169 -0.8262  0.6072 -0.3903
 8323SOL    HW136428   3.986   0.711   3.169 -0.1897 -2.8553  1.2558
 8323SOL    HW236429   3.888   0.613   3.117  0.1926  0.3339 -0.0440
 8324SOL     OW36430   1.869   0.085   6.356 -0.6471 -0.1731 -0.1829
 8324SOL    HW136431   1.813   0.162   6.350 -0.8330 -0.0475  3.2090
 8324SOL    HW236432   1.796   0.027   6.375 -0.6323 -0.1692 -0.1140
 8325SOL     OW36433   4.254   1.692  11.043  0.1568 -0.2001 -0.4740
 8325SOL    HW136434   4.232   1.713  10.952  0.0398  0.1339 -0.3678
 8325SOL    HW236435   4.349   1.687  11.054  0.1909  1.8095  0.2431
 8326SOL     OW36436   2.234   4.059   2.708  0.0610  0.0151 -0.4107
 8326SOL    HW136437   2.210   4.104   2.789 -2.2773  0.8909 -1.6007
 8326SOL    HW236438   2.275   4.140   2.677 -2.8641  1.9459  0.7321
 8327SOL     OW36439   4.482   0.757   9.983  0.0500 -0.3290  0.3133
 8327SOL    HW136440   4.415   0.824   9.990  0.0819 -0.2339 -0.2921
 8327SOL    HW236441   4.552   0.817   9.958  1.5562 -1.4148  1.9796
 8328SOL     OW36442   4.273   0.301   4.223  0.0684  0.1487 -0.1726
 8328SOL    HW136443   4.355   0.326   4.264  1.1574 -0.0607 -2.2383
 8328SOL    HW236444   4.217   0.325   4.298 -1.4867 -0.5364 -1.1073
 8329SOL     OW36445   3.034   0.367   4.365 -0.4435  0.0090  0.6658
 8329SOL    HW136446   3.023   0.416   4.447 -0.4298 -2.3883  2.0932
 8329SOL    HW236447   2.947   0.337   4.341  0.6522 -0.3731 -2.9068
 8330SOL     OW36448   3.444   3.373  15.924  1.0011 -0.1885  0.2146
 8330SOL    HW136449   3.520   3.345  15.974  1.3801  1.9082  0.8325
 8330SOL    HW236450   3.416   3.449  15.975  1.5129 -0.6470  1.1650
 8331SOL     OW36451   0.960   4.427   8.576  0.4059 -0.4221 -0.2902
 8331SOL    HW136452   1.000   4.396   8.657  0.0080 -2.4871 -0.8895
 8331SOL    HW236453   1.005   4.381   8.505  2.3773  0.5261  0.3699
 8332SOL     OW36454   1.807   0.611   6.724  0.0848  0.3352  0.4208
 8332SOL    HW136455   1.816   0.593   6.630  0.4160  0.8588  0.3532
 8332SOL    HW236456   1.897   0.638   6.739  0.1442  0.3898 -0.0243
 8333SOL     OW36457   2.812   2.665  11.965  0.8682 -0.2746 -0.0387
 8333SOL    HW136458   2.865   2.613  12.025 -0.9918 -1.9248  0.1714
 8333SOL    HW236459   2.884   2.710  11.920  1.3864 -1.2517 -0.1999
 8334SOL     OW36460   1.137   3.380   4.460 -0.0884 -0.2049 -0.5158
 8334SOL    HW136461   1.163   3.399   4.550  0.5859  1.0426 -0.9745
 8334SOL    HW236462   1.136   3.472   4.436  2.0915  0.3312  1.4196
 8335SOL     OW36463   4.337   1.122   1.289  0.0817 -0.7659 -0.0704
 8335SOL    HW136464   4.334   1.033   1.323  2.2161 -1.0374 -0.6044
 8335SOL    HW236465   4.327   1.172   1.370  2.5989 -2.4140  1.2540
 8336SOL     OW36466   1.884   2.020  11.986  0.5947  0.4481 -0.0769
 8336SOL    HW136467   1.963   1.971  12.009  0.2535 -0.7525 -1.4313
 8336SOL    HW236468   1.865   1.980  11.901 -2.2593  0.5964  0.4859
 8337SOL     OW36469   2.576   2.320   3.574 -0.0556 -0.3250 -0.1724
 8337SOL    HW136470   2.510   2.383   3.546  0.7260 -0.5751 -2.5510
 8337SOL    HW236471   2.515   2.258   3.615 -0.4450  0.2447  0.1014
 8338SOL     OW36472   3.426   0.907  15.199 -0.4372 -0.7327  0.5563
 8338SOL    HW136473   3.475   0.955  15.266 -0.5995 -0.3560  0.4063
 8338SOL    HW236474   3.497   0.880  15.140 -1.7887  0.0897 -1.4632
 8339SOL     OW36475   3.443   0.927   9.542  0.6090  0.0550 -0.3398
 8339SOL    HW136476   3.499   0.897   9.471  0.4148  0.5992 -0.7222
 8339SOL    HW236477   3.362   0.875   9.540  1.0322 -0.5802 -0.9252
 8340SOL     OW36478   2.467   3.019  11.795 -0.2500 -0.4308  0.0338
 8340SOL    HW136479   2.462   2.953  11.726 -2.0269  1.4181 -1.5781
 8340SOL    HW236480   2.484   3.092  11.736  1.2187 -0.7609  0.0312
 8341SOL     OW36481   2.258   0.635   2.924  0.3482 -0.1189 -0.0315
 8341SOL    HW136482   2.245   0.640   2.829  0.6513  1.1903  0.0079
 8341SOL    HW236483   2.318   0.708   2.939 -1.4331  0.9499  1.9576
 8342SOL     OW36484   1.422   1.360   3.316 -0.0715 -0.2109  0.0302
 8342SOL    HW136485   1.382   1.369   3.229 -1.4358  1.4990  0.8284
 8342SOL    HW236486   1.512   1.378   3.290 -0.7396 -0.7677 -2.6492
 8343SOL     OW36487   4.669   2.161  10.240 -0.1962 -0.0657 -0.0425
 8343SOL    HW136488   4.691   2.253  10.225  1.5079 -0.3167  0.9511
 8343SOL    HW236489   0.021   2.113  10.212 -1.7505 -0.2368 -4.1418
 8344SOL     OW36490   3.033   1.228   6.609 -0.0902  0.2554  0.3355
 8344SOL    HW136491   3.041   1.317   6.575  0.5628 -0.5145 -1.5305
 8344SOL    HW236492   2.941   1.227   6.634 -0.7610  0.2587 -2.1474
 8345SOL     OW36493   3.448   2.941  13.447  0.3372  0.1859 -0.6819
 8345SOL    HW136494   3.484   2.996  13.516 -0.4565  0.2842 -0.3462
 8345SOL    HW236495   3.521   2.887  13.417  0.0887 -0.3681 -0.3047
 8346SOL     OW36496   2.793   4.505   3.696 -0.5259  0.1020  0.3460
 8346SOL    HW136497   2.703   4.481   3.672 -1.5601  1.7688  2.5542
 8346SOL    HW236498   2.812   4.447   3.770 -0.6105 -0.5374 -0.1386
 8347SOL     OW36499   2.660   1.779   3.753 -0.1623 -0.4478  0.0188
 8347SOL    HW136500   2.667   1.790   3.658 -0.8616  1.6734  0.2136
 8347SOL    HW236501   2.620   1.692   3.756 -1.7708  0.2953 -0.1012
 8348SOL     OW36502   1.265   3.061   7.883 -0.3336  0.1476  0.1929
 8348SOL    HW136503   1.248   3.085   7.792 -3.5490 -0.9033  0.5137
 8348SOL    HW236504   1.342   3.114   7.903 -1.1209  2.3053 -2.4894
 8349SOL     OW36505   1.939   1.957   6.313  0.0932 -0.1305 -0.2706
 8349SOL    HW136506   1.930   1.875   6.265 -2.1561 -0.3912  0.5785
 8349SOL    HW236507   1.892   2.014   6.252  0.2688 -0.8450 -1.0553
 8350SOL     OW36508   1.711   1.420   8.208 -0.2020  0.1020  0.6516
 8350SOL    HW136509   1.699   1.477   8.283  1.4778  0.9508  0.2689
 8350SOL    HW236510   1.778   1.474   8.165 -1.1337 -0.3183 -1.3338
 8351SOL     OW36511   2.585   1.666   7.258 -0.4012 -0.1596  0.3580
 8351SOL    HW136512   2.555   1.683   7.169  1.3736  1.9351  0.1485
 8351SOL    HW236513   2.677   1.643   7.244 -0.4920 -0.8104  0.8554
 8352SOL     OW36514   0.357   2.719   1.830 -0.1278 -0.2063 -0.2656
 8352SOL    HW136515   0.407   2.801   1.831 -1.3932  0.5747 -1.6575
 8352SOL    HW236516   0.269   2.747   1.854 -0.0554  0.0623 -0.3103
 8353SOL     OW36517   1.812   2.686   3.237  0.2079 -0.2259  0.2369
 8353SOL    HW136518   1.827   2.641   3.153  0.0079  1.4931 -0.7168
 8353SOL    HW236519   1.773   2.614   3.287 -0.8393  1.2841  1.6068
 8354SOL     OW36520   0.820   4.625  11.181  0.1008 -0.0748  0.0884
 8354SOL    HW136521   0.741   4.635  11.235 -0.8399 -3.1297 -0.6979
 8354SOL    HW236522   0.785   4.664  11.100 -1.1057  1.8680  1.5409
 8355SOL     OW36523   3.823   4.117   3.706  0.1711 -0.3076  0.4936
 8355SOL    HW136524   3.805   4.100   3.798 -1.5896 -0.4169  0.1335
 8355SOL    HW236525   3.744   4.083   3.664 -0.9334  1.0007  1.5483
 8356SOL     OW36526   0.579   2.136  11.689 -0.7196 -0.7481  0.7141
 8356SOL    HW136527   0.511   2.193  11.654  0.0150 -0.2978  0.0003
 8356SOL    HW236528   0.584   2.070  11.620 -0.4292 -1.1263  1.0915
 8357SOL     OW36529   3.767   2.488   6.009 -0.4860  0.3600  0.1297
 8357SOL    HW136530   3.851   2.533   6.003 -0.8185  0.9490 -0.0716
 8357SOL    HW236531   3.745   2.529   6.093  1.4964 -1.4454  1.5405
 8358SOL     OW36532   1.067   3.978   3.979 -0.1424  0.0940  0.0665
 8358SOL    HW136533   1.089   4.039   4.049 -0.0015 -0.4903  0.5276
 8358SOL    HW236534   1.069   3.891   4.017 -2.9189 -0.0964 -0.2026
 8359SOL     OW36535   3.617   4.093  17.280  0.2148  0.2105 -0.1743
 8359SOL    HW136536   3.550   4.139  17.330  0.7647  0.7353  0.0815
 8359SOL    HW236537   3.675   4.088  17.356 -2.3685  0.1622  1.7984
 8360SOL     OW36538   1.581   4.338  13.566 -0.1726 -0.2588 -0.2508
 8360SOL    HW136539   1.608   4.430  13.562 -3.9519  0.7427 -2.6484
 8360SOL    HW236540   1.547   4.317  13.479  0.9037 -1.0317 -0.4901
 8361SOL     OW36541   2.736   3.745   3.756 -0.4977  0.3346  0.3597
 8361SOL    HW136542   2.652   3.702   3.772 -0.1606 -0.4272  0.0964
 8361SOL    HW236543   2.748   3.771   3.847  0.1703 -1.6842  0.8526
 8362SOL     OW36544   1.271   4.467  17.396 -0.3523  0.6336 -0.0879
 8362SOL    HW136545   1.359   4.498  17.415  0.8623 -2.9044  0.0592
 8362SOL    HW236546   1.266   4.499  17.306 -1.3887  0.0751 -0.2370
 8363SOL     OW36547   2.991   3.206   7.132 -0.7016 -0.2253 -0.5271
 8363SOL    HW136548   2.902   3.210   7.097 -0.3171  2.0332 -1.2175
 8363SOL    HW236549   2.988   3.274   7.199 -2.2718 -0.5141 -0.2923
 8364SOL     OW36550   1.275   3.916   0.101 -0.1653  1.0764 -0.3587
 8364SOL    HW136551   1.283   3.821   0.097  0.3472  1.1558 -1.0314
 8364SOL    HW236552   1.205   3.931   0.165  1.6750  1.3209  1.5838
 8365SOL     OW36553   2.513   1.208   9.312  0.1543 -0.2307  0.3661
 8365SOL    HW136554   2.510   1.304   9.309 -2.1717 -0.4138 -2.6795
 8365SOL    HW236555   2.486   1.190   9.222  2.3652  4.0591 -1.1400
 8366SOL     OW36556   3.173   3.995  15.160 -0.1333  0.5459  0.2813
 8366SOL    HW136557   3.205   4.006  15.070  1.9984  0.3647  1.0161
 8366SOL    HW236558   3.082   3.974  15.141  0.5397 -0.7084 -1.6690
 8367SOL     OW36559   2.048   1.850   7.511  0.2311  0.1665 -0.3321
 8367SOL    HW136560   2.011   1.778   7.460 -2.5317  1.4215 -0.1131
 8367SOL    HW236561   1.977   1.915   7.507  0.8778  0.8659 -0.5192
 8368SOL     OW36562   1.031   2.134   0.860 -0.5199 -0.2166 -0.1266
 8368SOL    HW136563   1.116   2.107   0.824 -0.5392 -2.7390  1.7526
 8368SOL    HW236564   1.067   2.174   0.939 -1.2566  0.8411 -0.3364
 8369SOL     OW36565   4.011   1.265   0.262 -0.0371  0.7044 -0.1593
 8369SOL    HW136566   3.981   1.235   0.347  0.2609  0.6113 -0.0874
 8369SOL    HW236567   4.093   1.310   0.282 -0.4653  1.3476  0.1349
 8370SOL     OW36568   3.588   2.580   7.906  0.0830 -0.1802  0.3748
 8370SOL    HW136569   3.616   2.663   7.943  1.2666 -0.2229 -0.4264
 8370SOL    HW236570   3.650   2.523   7.951 -1.2309 -1.9385 -0.0458
 8371SOL     OW36571   1.326   2.111   1.637 -0.4374  0.1437  0.2402
 8371SOL    HW136572   1.379   2.147   1.708 -1.5421 -1.0695  1.6828
 8371SOL    HW236573   1.330   2.182   1.572  0.9592 -1.5582 -1.5282
 8372SOL     OW36574   1.364   1.494   9.701 -0.0674 -0.4227 -0.5861
 8372SOL    HW136575   1.378   1.449   9.617 -1.8652 -0.3143 -0.9351
 8372SOL    HW236576   1.455   1.502   9.730 -0.1128 -1.7524 -0.1116
 8373SOL     OW36577   4.562   2.454   3.878  0.1214  0.0153  0.2884
 8373SOL    HW136578   4.591   2.494   3.796  0.7754  1.8306  1.4041
 8373SOL    HW236579   4.467   2.441   3.869  0.3372  0.1940 -2.3937
 8374SOL     OW36580   3.041   0.002   5.443  0.3663  0.1135  0.3893
 8374SOL    HW136581   3.002   0.017   5.530 -1.2399  0.1865 -0.3353
 8374SOL    HW236582   3.102   0.074   5.435 -0.2807  0.6961  0.6431
 8375SOL     OW36583   4.115   2.622   2.591  0.0921  0.5079  0.0520
 8375SOL    HW136584   4.113   2.543   2.536 -0.2801  1.2767 -1.0295
 8375SOL    HW236585   4.063   2.599   2.668 -1.1861 -1.1184 -1.2892
 8376SOL     OW36586   1.201   3.617  11.718 -0.2559  0.5441  0.0595
 8376SOL    HW136587   1.294   3.605  11.737 -0.4072 -0.6070  0.1170
 8376SOL    HW236588   1.175   3.548  11.779  1.4862 -0.6614 -0.5625
 8377SOL     OW36589   1.375   2.184   8.295 -0.2399 -0.5711 -0.6179
 8377SOL    HW136590   1.287   2.188   8.257 -0.0481 -2.6956 -1.2853
 8377SOL    HW236591   1.351   2.197   8.387 -0.2286 -4.0334 -0.1380
 8378SOL     OW36592   0.200   3.419  12.529  0.3166  0.0097  0.7598
 8378SOL    HW136593   0.232   3.492  12.581  1.6719 -0.5119  0.6542
 8378SOL    HW236594   0.210   3.450  12.439  0.0329  0.5579  0.9193
 8379SOL     OW36595   3.598   4.430   3.763  0.0750  0.2910  0.3853
 8379SOL    HW136596   3.553   4.352   3.732 -1.1788  0.8788  0.7074
 8379SOL    HW236597   3.571   4.429   3.855 -2.6372  0.1414 -0.3956
 8380SOL     OW36598   3.240   0.690  16.273 -0.1664 -0.0549 -0.4439
 8380SOL    HW136599   3.244   0.747  16.196  0.5243 -0.0594 -0.4144
 8380SOL    HW236600   3.215   0.754  16.340  2.7941  1.8097 -1.0708
 8381SOL     OW36601   3.066   2.761   4.608 -0.3171 -0.4336  0.0864
 8381SOL    HW136602   2.978   2.784   4.638 -0.2014  0.6036 -0.3504
 8381SOL    HW236603   3.106   2.752   4.695  1.0867 -2.9791 -0.8251
 8382SOL     OW36604   0.543   2.549  11.419  0.3928 -0.3042  0.4175
 8382SOL    HW136605   0.595   2.470  11.405  2.4303  1.2986 -1.1614
 8382SOL    HW236606   0.605   2.615  11.388  0.6535  1.2904  4.2764
 8383SOL     OW36607   0.116   3.679   2.480 -0.3111  0.0260 -0.3451
 8383SOL    HW136608   0.032   3.689   2.526 -0.7049 -0.2925 -0.9993
 8383SOL    HW236609   0.177   3.690   2.553 -1.2365 -0.5560  0.5041
 8384SOL     OW36610   0.673   3.447   4.356 -0.0366  0.0410  0.3202
 8384SOL    HW136611   0.594   3.499   4.373  0.5044  1.5051 -1.6622
 8384SOL    HW236612   0.655   3.358   4.386 -0.5707 -0.5100 -1.6598
 8385SOL     OW36613   3.656   2.323   8.744 -0.1636  0.0743 -1.1041
 8385SOL    HW136614   3.657   2.325   8.840  2.7587 -1.2624 -1.1014
 8385SOL    HW236615   3.616   2.408   8.724  0.7705  1.0757  1.2722
 8386SOL     OW36616   2.710   0.799   8.001  0.5352 -0.1601  0.3792
 8386SOL    HW136617   2.626   0.785   8.044 -1.0863  0.2939 -2.6392
 8386SOL    HW236618   2.683   0.799   7.910 -1.7242  0.9254  1.0619
 8387SOL     OW36619   3.212   1.520   9.041  0.4464 -0.8374  0.3597
 8387SOL    HW136620   3.253   1.605   9.055 -0.4106 -0.1950 -1.0673
 8387SOL    HW236621   3.159   1.514   9.121 -2.7777 -0.8884 -1.8010
 8388SOL     OW36622   0.786   0.426   3.188 -0.1115 -0.4154 -0.2349
 8388SOL    HW136623   0.855   0.472   3.141 -1.6707  2.5471  0.3929
 8388SOL    HW236624   0.727   0.392   3.120  1.7127  0.3979 -2.2188
 8389SOL     OW36625   0.221   0.515   3.429  0.0545 -0.1704 -0.1446
 8389SOL    HW136626   0.165   0.444   3.399  0.0360 -1.0083  1.8635
 8389SOL    HW236627   0.169   0.566   3.490  1.6200  1.3970 -0.1246
 8390SOL     OW36628   3.898   2.730   6.658 -0.2518  0.0773 -0.3275
 8390SOL    HW136629   3.849   2.672   6.600 -0.8265  1.8798 -1.6499
 8390SOL    HW236630   3.935   2.667   6.719 -0.1255  0.9110  0.4598
 8391SOL     OW36631   3.514   2.336   5.374 -0.6890  0.0956  0.2245
 8391SOL    HW136632   3.440   2.284   5.406  1.2337 -1.2860  2.3292
 8391SOL    HW236633   3.485   2.418   5.414  0.0508 -0.2597  1.4780
 8392SOL     OW36634   0.620   1.162   5.027 -0.0478  0.2536 -0.3304
 8392SOL    HW136635   0.600   1.089   5.087 -2.7552  0.8514 -0.5006
 8392SOL    HW236636   0.598   1.128   4.941 -2.0443  0.7301 -0.0217
 8393SOL     OW36637   4.322   2.233   1.906  0.0509 -0.1911  0.2796
 8393SOL    HW136638   4.391   2.211   1.969 -0.7242 -1.3431  0.7273
 8393SOL    HW236639   4.372   2.227   1.824  2.0180  1.9643  1.3478
 8394SOL     OW36640   1.939   4.576  10.420 -0.0407  0.2754  0.2730
 8394SOL    HW136641   1.994   4.505  10.387 -0.6034  0.4511 -1.0501
 8394SOL    HW236642   1.912   4.529  10.499  1.5291 -2.2573 -0.7059
 8395SOL     OW36643   1.356   4.663   5.545  0.1810  0.5180  0.0641
 8395SOL    HW136644   1.373   4.580   5.590 -2.4658 -0.2109 -0.2980
 8395SOL    HW236645   1.443   4.703   5.547  0.3852 -0.0549  3.4906
 8396SOL     OW36646   1.604   3.502   2.269 -0.1624 -0.1241 -0.2409
 8396SOL    HW136647   1.657   3.516   2.348 -1.7468 -0.8711  0.9587
 8396SOL    HW236648   1.629   3.413   2.245 -1.0875 -0.4861  0.1418
 8397SOL     OW36649   0.658   4.075   4.704 -0.3275 -0.2957 -0.3017
 8397SOL    HW136650   0.582   4.017   4.699 -0.5959 -0.1237  1.7235
 8397SOL    HW236651   0.682   4.062   4.796 -1.1408 -1.0991 -0.2022
 8398SOL     OW36652   2.919   3.999   1.970 -0.3489  0.2958  0.2621
 8398SOL    HW136653   2.941   3.911   2.001 -1.0886 -0.0749 -0.2473
 8398SOL    HW236654   2.852   3.979   1.904 -1.2576  2.3792  0.5347
 8399SOL     OW36655   1.945   1.394   8.648  0.2111 -0.5427  0.2841
 8399SOL    HW136656   1.996   1.356   8.720 -0.2255 -1.8670 -0.1158
 8399SOL    HW236657   1.921   1.309   8.612 -1.3125  0.5437 -1.2320
 8400SOL     OW36658   0.633   1.747   1.120 -0.3316 -0.5182 -0.1377
 8400SOL    HW136659   0.711   1.707   1.158 -1.1868 -1.1086  1.0160
 8400SOL    HW236660   0.585   1.773   1.199 -0.8160 -1.1221 -0.2302
 8401SOL     OW36661   3.384   2.673  17.185  0.7817 -0.6313 -0.2418
 8401SOL    HW136662   3.433   2.730  17.124  0.8450 -0.7777 -0.3286
 8401SOL    HW236663   3.297   2.712  17.182  0.8454 -0.7846 -4.3607
 8402SOL     OW36664   0.746   1.326  16.148 -0.2256  0.4036  0.2794
 8402SOL    HW136665   0.822   1.283  16.108 -1.7713 -0.9000 -1.2695
 8402SOL    HW236666   0.687   1.336  16.073  1.1576 -2.5743 -1.1948
 8403SOL     OW36667   0.670   3.976   5.258 -0.1646  0.3380 -0.3360
 8403SOL    HW136668   0.626   3.994   5.341  0.6727 -3.1828  0.8768
 8403SOL    HW236669   0.606   3.913   5.225  1.3807 -1.0896 -0.6422
 8404SOL     OW36670   3.850   3.383   3.372  0.0630  0.5073 -0.0600
 8404SOL    HW136671   3.845   3.317   3.303  0.5661 -2.1142  2.3998
 8404SOL    HW236672   3.800   3.457   3.340  0.1125  0.6154  0.1170
 8405SOL     OW36673   2.261   0.376   3.678 -0.4072 -0.3767 -0.3996
 8405SOL    HW136674   2.324   0.315   3.717 -0.8012 -0.5755 -0.0720
 8405SOL    HW236675   2.189   0.323   3.645 -0.4073  1.3124 -3.0837
 8406SOL     OW36676   1.402   4.522   3.019  0.0070 -0.5474  0.0854
 8406SOL    HW136677   1.370   4.602   2.978 -2.0822 -1.6386 -0.4473
 8406SOL    HW236678   1.321   4.472   3.004 -0.4994  0.3793 -0.2639
 8407SOL     OW36679   3.400   0.269   9.809  0.7265 -0.3008 -0.6705
 8407SOL    HW136680   3.347   0.195   9.779  1.1407 -0.0841 -1.9401
 8407SOL    HW236681   3.347   0.337   9.767  0.8023 -0.6562 -1.3252
 8408SOL     OW36682   3.161   3.607  15.385  0.2521 -0.2854 -0.0035
 8408SOL    HW136683   3.221   3.582  15.455  0.3991  0.5921  0.1858
 8408SOL    HW236684   3.100   3.664  15.431  0.2575  1.2325 -1.8573
 8409SOL     OW36685   3.169   2.299   6.563  0.6366  0.1576  0.2055
 8409SOL    HW136686   3.125   2.359   6.503  0.4915 -0.6046 -0.4530
 8409SOL    HW236687   3.242   2.259   6.515 -0.1453 -0.7931 -0.1762
 8410SOL     OW36688   1.060   4.235   7.325 -0.0531 -0.0447 -0.5077
 8410SOL    HW136689   1.057   4.208   7.417 -1.5625 -1.3813 -0.9387
 8410SOL    HW236690   0.968   4.232   7.297 -0.8976  1.0936  2.1208
 8411SOL     OW36691   0.654   0.729   5.862 -0.2219 -0.3265 -0.1903
 8411SOL    HW136692   0.644   0.771   5.777  0.9026  1.8369  0.7447
 8411SOL    HW236693   0.673   0.806   5.916 -0.1552 -0.2072 -0.3850
 8412SOL     OW36694   3.346   1.804  17.455  0.0695  0.2190  0.0218
 8412SOL    HW136695   3.301   1.800  17.370 -1.3717  0.1110  0.7828
 8412SOL    HW236696   3.409   1.872  17.433  0.9173 -1.0939 -1.6136
 8413SOL     OW36697   1.139   2.326   6.039 -0.2639 -0.2606 -0.3758
 8413SOL    HW136698   1.132   2.306   6.133 -1.3041  0.5445 -0.2801
 8413SOL    HW236699   1.221   2.374   6.051  1.1409 -2.5032 -0.9859
 8414SOL     OW36700   3.600   3.054   4.449  0.5787 -0.1420 -0.6778
 8414SOL    HW136701   3.645   2.974   4.419  0.6742 -0.0899 -0.6720
 8414SOL    HW236702   3.539   3.024   4.517 -2.0131  2.9589 -1.6477
 8415SOL     OW36703   2.516   3.874  16.075  0.0177 -0.1582 -0.0964
 8415SOL    HW136704   2.542   3.802  16.017 -1.8768  1.0533 -2.4690
 8415SOL    HW236705   2.426   3.894  16.048 -0.6201 -0.4255  1.8145
 8416SOL     OW36706   3.240   1.343   1.370  0.7278 -0.2367 -0.5305
 8416SOL    HW136707   3.247   1.428   1.325 -0.2041 -0.6936 -1.5464
 8416SOL    HW236708   3.298   1.285   1.321 -0.7685  0.2988 -2.9489
 8417SOL     OW36709   2.171   4.567   6.702  0.1136  0.6187 -0.2290
 8417SOL    HW136710   2.265   4.577   6.715 -0.0508  2.0007 -0.0743
 8417SOL    HW236711   2.138   4.640   6.755 -4.0186  0.5629 -2.7002
 8418SOL     OW36712   1.591   1.431   5.826  0.4659  0.2900 -0.3280
 8418SOL    HW136713   1.580   1.481   5.906  0.2372 -1.5292  0.7736
 8418SOL    HW236714   1.627   1.349   5.859 -0.6695 -0.3720 -0.7210
 8419SOL     OW36715   0.360   2.101   3.014  0.0563 -0.0057  0.4393
 8419SOL    HW136716   0.375   2.013   3.048 -0.9831  0.4693  2.1833
 8419SOL    HW236717   0.439   2.118   2.963  0.3417 -0.6600  0.6665
 8420SOL     OW36718   2.578   2.002   5.363  0.0777  0.4787 -0.4808
 8420SOL    HW136719   2.559   2.095   5.374 -1.2864  0.2012 -0.4668
 8420SOL    HW236720   2.621   1.986   5.447  0.6976  2.0274 -0.5083
 8421SOL     OW36721   3.823   1.482   8.038  0.3467  0.3394 -0.1700
 8421SOL    HW136722   3.803   1.572   8.064  2.4671  0.5786  0.6503
 8421SOL    HW236723   3.744   1.437   8.068  0.2719  1.6071  1.5188
 8422SOL     OW36724   4.539   0.690   7.313  0.3461  0.1391 -0.4671
 8422SOL    HW136725   4.523   0.761   7.376  1.2516 -1.3511  1.4344
 8422SOL    HW236726   4.634   0.697   7.309  0.2813  1.8291  0.9425
 8423SOL     OW36727   3.142   0.793   7.924 -0.2806  0.3468  0.5073
 8423SOL    HW136728   3.111   0.868   7.872 -1.2577  0.3289  1.0552
 8423SOL    HW236729   3.067   0.733   7.921 -0.3976  0.5689 -1.0948
 8424SOL     OW36730   3.423   2.983   9.007  0.6368 -0.1562  0.4086
 8424SOL    HW136731   3.499   2.994   8.949  0.0430 -0.1197 -0.3738
 8424SOL    HW236732   3.405   2.891   8.990 -0.7517 -0.1740  1.9931
 8425SOL     OW36733   2.039   0.869   6.950  0.1218  0.3179  0.3941
 8425SOL    HW136734   1.997   0.951   6.924 -0.5161 -1.1272 -3.1457
 8425SOL    HW236735   2.000   0.881   7.037 -3.1482 -0.1526 -0.9970
 8426SOL     OW36736   1.475   4.424   4.563 -0.3724 -0.5545  0.1130
 8426SOL    HW136737   1.427   4.364   4.619 -1.8270  0.7578  0.2626
 8426SOL    HW236738   1.561   4.436   4.605  0.4717 -2.5324 -1.0540
 8427SOL     OW36739   4.670   4.503  13.784 -0.1068  0.0702 -0.1007
 8427SOL    HW136740   4.589   4.454  13.800  1.7807 -3.1740 -0.5551
 8427SOL    HW236741   4.642   4.591  13.760 -0.9907 -0.2714 -0.3480
 8428SOL     OW36742   1.634   4.235  14.053 -1.1103 -0.1606 -0.5891
 8428SOL    HW136743   1.628   4.140  14.065  0.3172 -0.5429 -3.0426
 8428SOL    HW236744   1.616   4.247  13.960 -0.0468  2.4844 -0.4433
 8429SOL     OW36745   2.931   2.919  13.212  0.2628 -0.3833  0.0900
 8429SOL    HW136746   2.930   3.015  13.219 -2.4240 -0.5801  2.7158
 8429SOL    HW236747   3.022   2.907  13.185  0.0796 -0.7651 -0.3490
 8430SOL     OW36748   0.030   4.377   9.061 -0.0544  0.1344  0.2391
 8430SOL    HW136749   4.667   4.410   9.075  0.0774  0.1248  1.1112
 8430SOL    HW236750   0.078   4.453   9.031  1.1585 -0.6285  0.2379
 8431SOL     OW36751   4.184   0.096  10.036  0.3144  0.2292  0.3014
 8431SOL    HW136752   4.097   0.060  10.023  0.4676 -0.0846  0.1411
 8431SOL    HW236753   4.175   0.146  10.117 -0.1195  0.6966 -0.0379
 8432SOL     OW36754   4.577   0.492   6.784 -0.7674  0.2372  0.1680
 8432SOL    HW136755   4.554   0.472   6.875 -0.5530  0.6052  0.3054
 8432SOL    HW236756   4.597   0.585   6.796 -1.6742  0.2654  1.4975
 8433SOL     OW36757   2.186   1.045   0.017 -0.3436  1.2535  0.2481
 8433SOL    HW136758   2.170   1.081   0.104 -3.7035 -0.6520  0.4207
 8433SOL    HW236759   2.252   0.987   0.054 -2.3731 -1.4503 -0.3857
 8434SOL     OW36760   3.614   0.157   5.581  0.0773 -0.5251 -0.1493
 8434SOL    HW136761   3.524   0.140   5.553 -0.1184  0.7693 -0.3139
 8434SOL    HW236762   3.610   0.168   5.676  1.0381 -0.7194 -0.0867
 8435SOL     OW36763   0.949   4.077   3.346  0.1061 -0.0566  0.1048
 8435SOL    HW136764   1.023   4.074   3.406  0.5806  1.7262 -0.3815
 8435SOL    HW236765   0.936   4.171   3.335  0.4655  0.2667  2.5152
 8436SOL     OW36766   3.624   1.260  17.560  0.0713 -0.2408 -0.2488
 8436SOL    HW136767   3.654   1.328  17.500 -0.4780  2.6001  2.6955
 8436SOL    HW236768   3.688   1.259  17.631  0.0805  0.4510 -0.2506
 8437SOL     OW36769   3.637   0.360  10.358 -0.4196  0.1445  0.0876
 8437SOL    HW136770   3.578   0.380  10.286 -0.6397 -1.6301 -0.2328
 8437SOL    HW236771   3.708   0.319  10.309  0.2897  1.3980  0.0850
 8438SOL     OW36772   3.901   2.406   9.463  0.4672  0.0409  0.3497
 8438SOL    HW136773   3.891   2.337   9.528  1.7505  0.9669  1.5576
 8438SOL    HW236774   3.812   2.403   9.428  0.6333 -0.9269  0.0167
 8439SOL     OW36775   4.582   0.569   9.190 -0.0571  0.1818 -0.5381
 8439SOL    HW136776   4.516   0.565   9.121 -2.5000  1.8799  1.6794
 8439SOL    HW236777   4.607   0.661   9.176  0.6337 -0.3247 -2.6438
 8440SOL     OW36778   4.142   2.292   3.889 -0.0161  0.2114 -0.3730
 8440SOL    HW136779   4.189   2.211   3.910 -0.1586  0.0249 -0.7688
 8440SOL    HW236780   4.215   2.350   3.868 -0.3505 -0.7550 -4.2170
 8441SOL     OW36781   2.350   0.071   3.196  0.3125  0.0446 -0.2422
 8441SOL    HW136782   2.385   0.123   3.269 -1.4397  2.2114 -0.9432
 8441SOL    HW236783   2.311   0.145   3.149  1.7117 -0.9523 -2.9662
 8442SOL     OW36784   0.080   2.972  13.153  0.0590 -0.4240  0.1313
 8442SOL    HW136785   0.059   2.924  13.233 -0.5664 -0.1587  0.1264
 8442SOL    HW236786   0.046   3.058  13.178 -0.4164 -0.3723 -0.6953
 8443SOL     OW36787   3.690   0.078   7.598  0.4437 -0.4897 -0.0188
 8443SOL    HW136788   3.625   0.007   7.596  0.3541 -0.4143  0.1459
 8443SOL    HW236789   3.771   0.030   7.584  1.0434  0.2665  0.8653
 8444SOL     OW36790   3.846   4.417   0.200  0.6557  0.0727 -0.3496
 8444SOL    HW136791   3.887   4.435   0.115  2.7391 -1.7456  0.2600
 8444SOL    HW236792   3.811   4.501   0.230  0.4812 -0.3043  0.4986
 8445SOL     OW36793   3.417   3.251   7.202  0.4478  0.1709 -0.1894
 8445SOL    HW136794   3.349   3.306   7.163 -0.1085 -1.3799 -1.4315
 8445SOL    HW236795   3.383   3.244   7.291 -1.4325  1.0517 -0.8404
 8446SOL     OW36796   0.232   2.605   8.959  0.3556  0.3452  0.0938
 8446SOL    HW136797   0.138   2.618   8.948  0.1336 -0.5362  0.9870
 8446SOL    HW236798   0.240   2.576   9.049  1.0342  0.4641  0.0745
 8447SOL     OW36799   2.961   1.718   6.940 -0.7161 -0.1564  0.3847
 8447SOL    HW136800   2.903   1.753   6.872  0.2543 -0.3292 -0.5214
 8447SOL    HW236801   3.017   1.795   6.949  1.2766 -1.6224  0.5010
 8448SOL     OW36802   0.997   3.807   8.105  0.1097  0.5718  0.1181
 8448SOL    HW136803   1.002   3.802   8.200  0.9574 -0.3882  0.0209
 8448SOL    HW236804   1.052   3.730   8.089 -0.3728 -0.0035  1.2653
 8449SOL     OW36805   4.388   1.561   3.235  0.0681  0.9921 -0.3210
 8449SOL    HW136806   4.337   1.489   3.270  0.5073  0.2699 -1.1548
 8449SOL    HW236807   4.332   1.589   3.162 -0.2276  1.4915  0.0943
 8450SOL     OW36808   2.697   0.465   5.334  0.2933 -0.0805  0.1051
 8450SOL    HW136809   2.619   0.445   5.282  0.5727  1.4120 -0.9012
 8450SOL    HW236810   2.704   0.386   5.387  1.6945 -0.5931 -0.8253
 8451SOL     OW36811   0.153   0.043   2.342  0.7542 -0.3114 -0.3698
 8451SOL    HW136812   0.079   0.070   2.396 -0.3193 -1.7802 -1.1243
 8451SOL    HW236813   0.116   4.689   2.305 -2.3264  1.3050 -0.7260
 8452SOL     OW36814   3.124   3.169  16.969 -0.0121 -0.0366 -0.4430
 8452SOL    HW136815   3.041   3.216  16.967  1.0675  1.8592 -0.4798
 8452SOL    HW236816   3.168   3.208  17.045  1.5541 -1.1936 -0.7330
 8453SOL     OW36817   1.613   2.509   1.922 -0.1890 -0.0708 -0.3929
 8453SOL    HW136818   1.692   2.503   1.868  0.2480 -1.1877  0.3607
 8453SOL    HW236819   1.641   2.458   1.998 -1.5191  0.7660  0.6470
 8454SOL     OW36820   0.165   3.637   6.958 -0.0743  0.4537  0.3380
 8454SOL    HW136821   0.136   3.676   7.041 -0.0686 -1.1783  1.1018
 8454SOL    HW236822   0.203   3.714   6.916  1.2428 -0.7299 -0.6295
 8455SOL     OW36823   2.124   4.268   5.078 -0.1585  0.6392  0.0516
 8455SOL    HW136824   2.145   4.227   5.162  1.6762  2.5212  0.5086
 8455SOL    HW236825   2.213   4.289   5.051 -0.0957  0.7779  0.3648
 8456SOL     OW36826   2.962   0.017   6.290 -0.2582 -0.0554 -0.2588
 8456SOL    HW136827   3.018   4.708   6.221 -1.1212  0.9994 -1.4815
 8456SOL    HW236828   2.964   0.113   6.294  0.5722 -0.0773 -0.0981
 8457SOL     OW36829   0.831   2.871  13.577 -0.3430 -0.1283 -0.4358
 8457SOL    HW136830   0.833   2.837  13.487 -1.1308  2.5088 -1.4562
 8457SOL    HW236831   0.762   2.817  13.615 -1.3527  0.4879 -1.3907
 8458SOL     OW36832   4.224   3.285   3.638 -0.6367  0.4516  0.3678
 8458SOL    HW136833   4.245   3.365   3.591 -0.3395 -0.4526 -1.0666
 8458SOL    HW236834   4.164   3.244   3.575 -1.6308  0.4237  1.3534
 8459SOL     OW36835   0.675   3.873  11.080  0.1674  0.0486 -0.3224
 8459SOL    HW136836   0.695   3.796  11.027 -0.8025 -0.8354  0.6042
 8459SOL    HW236837   0.680   3.945  11.016  2.2650  0.9654  0.8855
 8460SOL     OW36838   2.651   0.762   7.747 -0.4483  0.2013  0.3373
 8460SOL    HW136839   2.568   0.756   7.700  1.6202  1.5789 -3.5072
 8460SOL    HW236840   2.705   0.826   7.700  1.5658 -0.8220  1.2934
 8461SOL     OW36841   4.407   1.898   5.784  0.2022 -0.0125  0.4123
 8461SOL    HW136842   4.342   1.923   5.849 -1.4486 -3.7845  0.2054
 8461SOL    HW236843   4.465   1.842   5.835 -1.6282 -1.0427  1.3656
 8462SOL     OW36844   0.183   2.062  10.135 -0.5097  0.3788 -0.4107
 8462SOL    HW136845   0.259   2.110  10.168  1.7803 -1.8262 -2.4666
 8462SOL    HW236846   0.201   1.980  10.180  2.2394  1.0093 -0.3297
 8463SOL     OW36847   0.681   4.118   2.480  0.1271 -0.3448  0.6767
 8463SOL    HW136848   0.644   4.109   2.392  4.1814 -0.4875 -1.0107
 8463SOL    HW236849   0.612   4.172   2.519  0.6762 -1.2378  2.8706
 8464SOL     OW36850   3.770   0.184   0.099  0.4513  0.0397 -0.5863
 8464SOL    HW136851   3.708   0.200   0.169 -0.4953  0.2846 -1.4843
 8464SOL    HW236852   3.705   0.190   0.029  1.4377  2.1539 -1.3292
 8465SOL     OW36853   4.227   4.651   4.759 -0.0071 -0.3042 -0.0725
 8465SOL    HW136854   4.253   4.559   4.758 -0.9765 -0.5763 -0.3098
 8465SOL    HW236855   4.166   4.660   4.832  0.8003  2.5416  0.2708
 8466SOL     OW36856   4.559   0.082  13.951 -0.7317 -0.1215 -0.4424
 8466SOL    HW136857   4.653   0.098  13.941 -0.5355 -0.0015  1.5991
 8466SOL    HW236858   4.528   0.111  13.865  0.8951  0.9476 -0.6692
 8467SOL     OW36859   3.224   0.024   4.037 -0.1717  0.1917 -0.1385
 8467SOL    HW136860   3.314   4.720   4.020 -0.5066  0.9044 -3.2632
 8467SOL    HW236861   3.210   4.693   4.113 -0.9386 -0.3625 -0.6946
 8468SOL     OW36862   2.568   0.473   3.516 -0.1383  0.2528  0.0311
 8468SOL    HW136863   2.621   0.552   3.509  0.4612 -0.0614  1.0579
 8468SOL    HW236864   2.605   0.443   3.599 -1.3268 -2.9162 -0.5710
 8469SOL     OW36865   1.278   0.339   4.387  0.4584  0.1537 -0.1222
 8469SOL    HW136866   1.340   0.336   4.314 -0.3533  0.8544 -0.8271
 8469SOL    HW236867   1.313   0.413   4.438  2.6756  0.0962 -1.5441
 8470SOL     OW36868   4.433   0.579  12.195 -0.3852  0.6475 -0.2167
 8470SOL    HW136869   4.386   0.661  12.208  1.2319  1.9908 -2.9126
 8470SOL    HW236870   4.492   0.580  12.270 -2.7082 -0.4611  1.6144
 8471SOL     OW36871   3.988   1.111   6.741  0.1952 -0.2183  0.4430
 8471SOL    HW136872   3.912   1.112   6.682 -0.4662  0.8486  1.3125
 8471SOL    HW236873   3.958   1.188   6.790  0.9626  0.1092  0.3893
 8472SOL     OW36874   0.866   3.671   3.080 -0.4782 -0.0242  0.0097
 8472SOL    HW136875   0.830   3.752   3.043 -5.1217 -0.8907  2.6402
 8472SOL    HW236876   0.892   3.704   3.166 -0.4089  0.6841 -0.2833
 8473SOL     OW36877   1.603   4.152   5.451  0.3345 -0.8180  0.3625
 8473SOL    HW136878   1.619   4.205   5.529  2.3675 -0.5769 -0.1897
 8473SOL    HW236879   1.515   4.118   5.463  0.4645 -1.2309  0.1572
 8474SOL     OW36880   4.140   2.854   3.663 -0.1671  0.7386  0.0183
 8474SOL    HW136881   4.204   2.841   3.593 -0.2235  0.9674 -0.0758
 8474SOL    HW236882   4.111   2.764   3.672  0.8223  0.5049  0.8893
 8475SOL     OW36883   2.287   4.109   7.058  0.7761 -0.1911  0.5665
 8475SOL    HW136884   2.314   4.114   7.150 -2.0116  0.5462  1.3346
 8475SOL    HW236885   2.228   4.183   7.063  4.3969  2.8185 -1.1497
 8476SOL     OW36886   1.062   1.500   3.727  0.3452  0.0340  0.6550
 8476SOL    HW136887   1.121   1.444   3.676  2.4193  2.6522  0.2072
 8476SOL    HW236888   1.102   1.587   3.721 -2.0102  1.1756  1.8542
 8477SOL     OW36889   0.730   0.385  12.942  0.0859 -0.3749  0.3123
 8477SOL    HW136890   0.730   0.481  12.949  0.6017 -0.5313  2.4590
 8477SOL    HW236891   0.790   0.372  13.015 -0.0368  1.7702  0.8053
 8478SOL     OW36892   0.960   2.906   3.767 -0.4529 -0.0504 -0.1232
 8478SOL    HW136893   0.869   2.883   3.750  0.6240 -2.8446 -2.1485
 8478SOL    HW236894   0.952   2.998   3.792  2.0545  0.5224 -1.3928
 8479SOL     OW36895   4.266   3.979   5.803  0.8339 -0.6178  0.2547
 8479SOL    HW136896   4.206   3.909   5.776  2.2279 -1.3610 -0.9057
 8479SOL    HW236897   4.355   3.948   5.793  1.2683  0.2764  1.2659
 8480SOL     OW36898   0.910   1.398  10.588  0.0987  0.0414  0.1658
 8480SOL    HW136899   0.989   1.420  10.637 -0.1662 -0.9681  1.0599
 8480SOL    HW236900   0.843   1.446  10.637 -0.4242 -0.6631  0.1389
 8481SOL     OW36901   0.885   1.412   6.399  0.1493 -0.2393  0.1123
 8481SOL    HW136902   0.851   1.368   6.321 -1.1759 -1.4336  1.3648
 8481SOL    HW236903   0.965   1.454   6.367 -1.1087 -0.2087 -2.8953
 8482SOL     OW36904   1.005   0.639   7.840 -0.0209 -0.1108 -0.4943
 8482SOL    HW136905   1.000   0.594   7.756  2.0967  1.4261 -1.4371
 8482SOL    HW236906   0.921   0.606   7.874 -0.2144  1.7331  0.8049
 8483SOL     OW36907   1.009   4.149   5.586 -0.0555  0.2396 -0.0596
 8483SOL    HW136908   1.031   4.060   5.560 -2.0349 -0.6210  1.2601
 8483SOL    HW236909   1.050   4.200   5.516  0.4137  0.5238  0.4255
 8484SOL     OW36910   3.900   0.817  11.445  0.2463  0.0255  0.0820
 8484SOL    HW136911   3.892   0.796  11.351 -0.5221  0.9428 -0.0565
 8484SOL    HW236912   3.824   0.873  11.460 -0.0528 -0.0910 -0.9572
 8485SOL     OW36913   2.400   3.995   5.631  0.2155 -0.1130 -0.2445
 8485SOL    HW136914   2.495   4.004   5.621  0.3820 -1.2349  0.3841
 8485SOL    HW236915   2.397   4.019   5.723 -2.0422  2.0477 -0.8748
 8486SOL     OW36916   2.213   3.377   6.192  0.1155 -0.1120  0.4944
 8486SOL    HW136917   2.224   3.439   6.120 -0.8920  0.4438  0.8089
 8486SOL    HW236918   2.282   3.314   6.171 -0.5299 -0.2990 -1.0289
 8487SOL     OW36919   1.210   3.230  15.121 -0.5728 -0.5201 -0.1125
 8487SOL    HW136920   1.202   3.214  15.215 -0.7236 -0.6075 -0.1385
 8487SOL    HW236921   1.119   3.251  15.101  0.1044  1.9236 -0.6290
 8488SOL     OW36922   2.688   3.552  15.063 -0.5880  0.5362  0.1908
 8488SOL    HW136923   2.698   3.459  15.042 -0.0384  0.9904 -1.5093
 8488SOL    HW236924   2.593   3.568  15.055 -0.3349  1.6203 -0.6440
 8489SOL     OW36925   4.494   4.412  15.341 -0.5527  0.5364  0.1657
 8489SOL    HW136926   4.433   4.477  15.377  0.9451  2.4808 -0.7491
 8489SOL    HW236927   4.508   4.375  15.428  0.3097  0.2884 -0.0731
 8490SOL     OW36928   0.239   3.824   7.696  0.4078  0.0420  0.3684
 8490SOL    HW136929   0.197   3.803   7.780 -2.3083 -1.5236 -1.3692
 8490SOL    HW236930   0.168   3.865   7.647  0.7973  1.5416  1.0540
 8491SOL     OW36931   1.062   4.659  11.553 -0.0354  0.1972  0.1486
 8491SOL    HW136932   1.059   4.714  11.631 -0.9534 -0.1295  0.3446
 8491SOL    HW236933   1.020   4.718  11.490 -2.3109 -0.9978  0.5454
 8492SOL     OW36934   0.955   1.799   4.449  0.6731 -0.4176 -0.3844
 8492SOL    HW136935   1.043   1.815   4.416  0.2264  2.2050 -0.2719
 8492SOL    HW236936   0.906   1.769   4.373  1.3072 -1.6699 -0.2941
 8493SOL     OW36937   3.761   1.545  11.201  0.6345 -0.3625  0.5181
 8493SOL    HW136938   3.752   1.603  11.277 -3.7885 -0.3522 -0.0357
 8493SOL    HW236939   3.824   1.598  11.151  0.0909 -0.7248 -0.5428
 8494SOL     OW36940   1.855   2.496   6.507  0.0656 -0.4007 -0.2090
 8494SOL    HW136941   1.844   2.412   6.552 -0.8720  0.9836  2.1175
 8494SOL    HW236942   1.817   2.556   6.570  1.2568 -1.0842  1.1588
 8495SOL     OW36943   1.515   3.521   2.670 -0.2065  0.4343 -0.4466
 8495SOL    HW136944   1.579   3.542   2.738  0.7201  0.5578 -1.3461
 8495SOL    HW236945   1.456   3.466   2.721 -0.7584  0.0974 -1.4522
 8496SOL     OW36946   4.374   2.596   4.247 -0.4145 -0.2560  0.1934
 8496SOL    HW136947   4.462   2.577   4.278  0.6208  1.5959 -1.6034
 8496SOL    HW236948   4.326   2.580   4.329 -1.0123 -0.0484 -0.1146
 8497SOL     OW36949   3.881   3.952  14.337 -0.0338  0.2937  0.6668
 8497SOL    HW136950   3.813   3.885  14.333  0.6667 -0.3630 -0.1551
 8497SOL    HW236951   3.907   3.945  14.429 -0.1007 -0.9382  0.5900
 8498SOL     OW36952   3.382   1.237   6.913 -0.1026 -0.4428 -0.0418
 8498SOL    HW136953   3.365   1.175   6.842 -0.6565 -0.3527  0.0110
 8498SOL    HW236954   3.330   1.201   6.985 -0.8550 -0.5055 -0.6040
 8499SOL     OW36955   4.070   0.954   3.086  0.7450  0.3771 -0.5854
 8499SOL    HW136956   4.057   1.002   3.005  1.0505  1.7702  0.1975
 8499SOL    HW236957   4.039   1.018   3.150  1.1513 -0.7909  0.7882
 8500SOL     OW36958   1.897   1.910  10.831 -0.3273 -0.4118  0.3342
 8500SOL    HW136959   1.922   1.830  10.878  1.4532 -0.1673 -0.1792
 8500SOL    HW236960   1.976   1.961  10.850  0.0326 -0.1580 -1.8297
 8501SOL     OW36961   3.786   2.243  17.649 -0.9393  0.2515 -0.4074
 8501SOL    HW136962   3.795   2.181   0.018  0.7753  0.0412 -0.7939
 8501SOL    HW236963   3.728   2.310  17.685  1.0982  0.5643  2.3185
 8502SOL     OW36964   3.008   0.878   4.121 -0.5512  0.2736 -0.3847
 8502SOL    HW136965   2.969   0.953   4.167 -0.9291 -0.6035  0.7139
 8502SOL    HW236966   2.929   0.844   4.079 -0.4742  0.5480 -0.7546
 8503SOL     OW36967   1.944   1.908   2.885  0.4111  0.9604  0.2447
 8503SOL    HW136968   1.988   1.949   2.810 -2.4772 -0.4063 -2.1809
 8503SOL    HW236969   2.020   1.897   2.942 -0.8676 -0.3724  1.6920
 8504SOL     OW36970   0.455   3.680   3.682  0.3754  0.0298 -0.1895
 8504SOL    HW136971   0.494   3.624   3.749  1.5844 -0.3894 -1.2622
 8504SOL    HW236972   0.364   3.649   3.690  0.7898 -1.0244  0.3869
 8505SOL     OW36973   1.742   0.182   2.332 -0.2168 -0.5002 -0.5683
 8505SOL    HW136974   1.709   0.205   2.245  1.0720  0.7938 -0.7104
 8505SOL    HW236975   1.775   0.268   2.357  0.6846 -1.1798  0.5684
 8506SOL     OW36976   4.122   1.159   9.676 -0.2444  0.4208 -0.2874
 8506SOL    HW136977   4.143   1.136   9.766  0.4073  0.5958 -0.3899
 8506SOL    HW236978   4.027   1.159   9.676 -0.2370  0.3709  1.0394
 8507SOL     OW36979   3.691   3.530   2.754 -1.0175 -0.0135  0.6679
 8507SOL    HW136980   3.625   3.597   2.770  0.1906  1.2683  0.2770
 8507SOL    HW236981   3.760   3.591   2.781 -0.6566 -0.4899  0.8366
 8508SOL     OW36982   4.381   4.182   4.928  0.1649  0.0457  0.5012
 8508SOL    HW136983   4.440   4.238   4.979 -0.5744  1.0252  0.2665
 8508SOL    HW236984   4.425   4.097   4.927  1.8962  0.9688 -1.0764
 8509SOL     OW36985   4.341   4.379   8.124 -1.2009  0.1489 -0.5073
 8509SOL    HW136986   4.421   4.425   8.147 -2.0453  2.0457 -1.3982
 8509SOL    HW236987   4.377   4.301   8.081  1.7709  0.6659  1.0657
 8510SOL     OW36988   4.041   4.584   6.302  0.0577 -0.3238 -0.0860
 8510SOL    HW136989   4.019   4.567   6.393 -0.0736  2.3753  0.3871
 8510SOL    HW236990   4.136   4.586   6.316 -0.1881  0.8793  1.3316
 8511SOL     OW36991   2.539   1.257  10.467 -0.1347  0.5387  0.4218
 8511SOL    HW136992   2.491   1.177  10.445 -1.3648  1.7621 -1.4167
 8511SOL    HW236993   2.470   1.313  10.503  0.0070  0.5123  0.7324
 8512SOL     OW36994   2.724   0.469   1.826  0.5261 -0.0337  0.0772
 8512SOL    HW136995   2.638   0.475   1.869  0.3040 -0.6799 -0.2805
 8512SOL    HW236996   2.715   0.518   1.745  0.3352 -1.5269 -0.8019
 8513SOL     OW36997   0.961   1.258  15.966  0.2515  0.0697 -0.4851
 8513SOL    HW136998   0.990   1.174  16.001  0.1250 -0.0579 -0.6857
 8513SOL    HW236999   0.980   1.239  15.874 -0.7981 -0.2856 -0.6335
 8514SOL     OW37000   2.360   2.797   4.367  0.0188  0.3642 -0.1132
 8514SOL    HW137001   2.329   2.707   4.368 -1.5365  0.8920 -1.3103
 8514SOL    HW237002   2.437   2.784   4.310  0.8226  1.3969  0.7247
 8515SOL     OW37003   4.169   2.048   8.522  0.3655 -0.4124 -0.3218
 8515SOL    HW137004   4.194   2.119   8.581  0.2171  1.8895 -3.0828
 8515SOL    HW237005   4.109   1.992   8.571 -0.5037 -0.4682 -1.4526
 8516SOL     OW37006   0.460   4.495   8.084 -0.2320 -0.7858 -0.3602
 8516SOL    HW137007   0.392   4.559   8.064  1.3615  0.8209 -0.6412
 8516SOL    HW237008   0.496   4.521   8.169  2.2216  0.0082 -1.6095
 8517SOL     OW37009   3.837   2.586   9.668  0.4591  0.7819 -0.2904
 8517SOL    HW137010   3.855   2.517   9.604  0.8964  0.1591  0.4967
 8517SOL    HW237011   3.826   2.664   9.613 -4.0165 -1.2635 -2.3341
 8518SOL     OW37012   2.924   2.676   7.632  0.2001 -0.0038  0.8070
 8518SOL    HW137013   2.995   2.654   7.693 -2.1943 -2.4419  2.7053
 8518SOL    HW237014   2.968   2.750   7.591  1.3147 -1.8394 -1.3151
 8519SOL     OW37015   3.746   2.953   6.335  0.0304 -0.2655  0.3683
 8519SOL    HW137016   3.715   2.862   6.330 -1.5578  0.3733 -1.3932
 8519SOL    HW237017   3.687   3.005   6.281  1.1500  0.6679  0.0444
 8520SOL     OW37018   0.844   0.491   8.852 -0.6422  0.0328  0.0945
 8520SOL    HW137019   0.834   0.569   8.906 -1.1033  0.3295 -0.4123
 8520SOL    HW237020   0.794   0.431   8.907 -1.7816  0.8164 -0.0896
 8521SOL     OW37021   3.036   1.505   6.261 -0.3615  0.0722  0.6251
 8521SOL    HW137022   3.059   1.501   6.354 -0.2477 -3.2099  0.4300
 8521SOL    HW237023   2.945   1.532   6.267  0.1657  1.6580  1.5704
 8522SOL     OW37024   0.206   1.116   8.878 -0.4909 -0.5000  0.1583
 8522SOL    HW137025   0.290   1.105   8.922 -1.0907  2.2126  1.9703
 8522SOL    HW237026   0.145   1.104   8.950 -2.1494  2.3543 -0.7558
 8523SOL     OW37027   3.867   4.465  16.632  0.3604 -0.1205  0.0699
 8523SOL    HW137028   3.954   4.429  16.650 -0.7997 -2.0780  1.7216
 8523SOL    HW237029   3.813   4.417  16.695  0.0304 -0.6429 -0.6152
 8524SOL     OW37030   0.372   0.722   8.115  0.6127 -0.0661  0.3470
 8524SOL    HW137031   0.301   0.665   8.085  0.5587 -0.1820  0.6961
 8524SOL    HW237032   0.425   0.712   8.036  2.4588  2.5897  1.2494
 8525SOL     OW37033   1.239   1.932   7.921  0.0197  0.4884  0.3030
 8525SOL    HW137034   1.277   1.881   7.993 -2.1248 -1.8918 -0.2460
 8525SOL    HW237035   1.311   1.991   7.899  1.2997 -1.4300 -0.6513
 8526SOL     OW37036   4.409   2.245   4.382 -0.2509 -0.1665 -0.4329
 8526SOL    HW137037   4.403   2.151   4.364  2.3941 -0.4141  0.0154
 8526SOL    HW237038   4.361   2.276   4.305  0.6989  1.3759 -0.3952
 8527SOL     OW37039   3.873   4.142   7.550 -0.0708 -0.1085  0.2585
 8527SOL    HW137040   3.955   4.146   7.501 -1.0914 -0.9964 -1.5779
 8527SOL    HW237041   3.851   4.049   7.559 -0.1967 -0.2009 -0.8902
 8528SOL     OW37042   0.155   1.971   3.313 -0.8244 -0.3868 -0.0428
 8528SOL    HW137043   0.118   1.940   3.231 -1.8897 -1.2604  0.7633
 8528SOL    HW237044   0.117   2.059   3.315  1.0531  0.4260 -0.5265
 8529SOL     OW37045   0.421   0.145  17.626 -0.4963 -0.2560  0.0821
 8529SOL    HW137046   0.446   0.056  17.650 -0.9488 -0.5891 -0.6744
 8529SOL    HW237047   0.462   0.204  17.689  0.8507  0.0083 -1.0377
 8530SOL     OW37048   1.737   2.469   4.819  0.0078  0.2553 -0.3606
 8530SOL    HW137049   1.706   2.399   4.876 -1.4131  3.0039  2.2331
 8530SOL    HW237050   1.813   2.423   4.782 -0.9212 -1.1671 -0.4970
 8531SOL     OW37051   4.374   0.731  14.580 -0.0174 -0.8069  1.0102
 8531SOL    HW137052   4.287   0.758  14.552 -0.4483 -2.9291  0.3402
 8531SOL    HW237053   4.411   0.715  14.494 -1.1570  1.6278  0.0727
 8532SOL     OW37054   2.243   0.809   4.169 -0.4816  0.0215  0.2974
 8532SOL    HW137055   2.297   0.844   4.240 -2.6974  2.6365  0.6721
 8532SOL    HW237056   2.157   0.848   4.184 -0.9362 -1.2783  1.1177
 8533SOL     OW37057   4.363   1.284   7.634  0.2619  0.1592 -0.4617
 8533SOL    HW137058   4.418   1.356   7.605  0.6325 -0.2431 -0.7567
 8533SOL    HW237059   4.361   1.231   7.554  1.7466 -1.2654  0.4488
 8534SOL     OW37060   0.457   3.319  15.969  0.1437  0.0303 -0.1862
 8534SOL    HW137061   0.505   3.391  15.927 -0.9064  0.0860 -1.2852
 8534SOL    HW237062   0.437   3.261  15.896 -2.6399  0.0680  0.5448
 8535SOL     OW37063   1.762   1.478   9.107 -0.8900  0.1818  0.0920
 8535SOL    HW137064   1.733   1.495   9.018 -3.3233 -1.0255  0.6254
 8535SOL    HW237065   1.821   1.550   9.127 -0.6892  0.0176  0.0945
 8536SOL     OW37066   3.863   2.587   7.369  0.3990 -0.5702  0.2585
 8536SOL    HW137067   3.928   2.607   7.436  1.7716 -1.0099 -0.9438
 8536SOL    HW237068   3.897   2.512   7.320 -1.3359 -2.2175  1.6292
 8537SOL     OW37069   4.079   3.005   8.531  0.1069  0.2640  0.5655
 8537SOL    HW137070   4.148   3.053   8.485 -0.4927  0.5545 -0.0302
 8537SOL    HW237071   4.118   3.014   8.619  1.0245 -2.6590  0.4575
 8538SOL     OW37072   2.987   0.246  11.016 -0.1256 -0.8323 -0.0411
 8538SOL    HW137073   2.987   0.332  10.976 -2.0110 -0.8216 -0.0328
 8538SOL    HW237074   2.909   0.253  11.071 -0.0574  1.4012 -0.2273
 8539SOL     OW37075   3.705   0.345   5.913 -0.5752  0.5016  0.4455
 8539SOL    HW137076   3.619   0.372   5.881 -0.5607 -0.8145 -0.7180
 8539SOL    HW237077   3.691   0.362   6.007 -2.1578 -1.3224  0.5460
 8540SOL     OW37078   3.255   2.762   3.337 -0.4741  0.3209 -0.0214
 8540SOL    HW137079   3.162   2.779   3.324 -0.3204  1.2603  0.1447
 8540SOL    HW237080   3.262   2.729   3.427  1.2448  0.4609 -0.1039
 8541SOL     OW37081   0.755   1.001  10.733  0.1652  0.7885  0.4861
 8541SOL    HW137082   0.675   0.951  10.717  0.5411  0.5031 -0.5011
 8541SOL    HW237083   0.758   1.058  10.656  0.6378 -1.4962 -1.1709
 8542SOL     OW37084   1.719   4.504  17.118  0.4911  0.0355  0.1309
 8542SOL    HW137085   1.679   4.567  17.058 -1.9420 -0.3626  1.3414
 8542SOL    HW237086   1.803   4.492  17.074  0.4025 -0.8526  0.2178
 8543SOL     OW37087   4.346   1.816   3.383  0.5274  0.4271 -0.0783
 8543SOL    HW137088   4.371   1.842   3.295  0.1787 -0.6072 -0.4807
 8543SOL    HW237089   4.340   1.721   3.369 -3.0465  0.6719 -0.3059
 8544SOL     OW37090   0.367   2.749   3.469  0.2696  0.5573  0.1047
 8544SOL    HW137091   0.275   2.764   3.448  0.2577  0.3945  0.0425
 8544SOL    HW237092   0.399   2.759   3.380  0.6888 -0.8414  0.0869
 8545SOL     OW37093   3.221   3.340   7.037  0.7427  0.2335  0.0335
 8545SOL    HW137094   3.212   3.389   6.955 -0.7202  2.0315  1.2783
 8545SOL    HW237095   3.136   3.297   7.035  0.4984  0.5862  2.8101
 8546SOL     OW37096   2.604   3.961   6.143  0.1706  0.2077 -0.5488
 8546SOL    HW137097   2.676   3.909   6.179 -1.3274 -0.4541  1.4863
 8546SOL    HW237098   2.664   4.021   6.097 -0.0587  0.3332 -0.6833
 8547SOL     OW37099   0.801   3.768   1.371  0.2931  0.4952 -0.1908
 8547SOL    HW137100   0.794   3.702   1.441 -1.3462  1.6357  0.7355
 8547SOL    HW237101   0.883   3.808   1.397  1.0236 -0.7247 -0.5965
 8548SOL     OW37102   0.646   2.516   5.174  0.0027  0.2812 -0.2906
 8548SOL    HW137103   0.740   2.499   5.180  0.1144  0.9399 -0.1549
 8548SOL    HW237104   0.601   2.441   5.212  1.6123  0.9847  2.9363
 8549SOL     OW37105   1.708   2.113   5.534 -0.3996 -0.4891  0.0421
 8549SOL    HW137106   1.667   2.190   5.572  0.4150 -1.2936  2.5887
 8549SOL    HW237107   1.683   2.132   5.444 -1.1471  1.5936  0.6976
 8550SOL     OW37108   4.467   1.873   7.614 -0.1921  0.3970  0.3113
 8550SOL    HW137109   4.397   1.850   7.554 -0.1239 -0.6979  0.6470
 8550SOL    HW237110   4.424   1.878   7.700 -2.4545  0.2499 -0.8122
 8551SOL     OW37111   1.013   3.302   8.759 -0.0930 -0.0515  0.2935
 8551SOL    HW137112   1.048   3.267   8.841 -0.6074 -1.2147  0.0196
 8551SOL    HW237113   0.918   3.310   8.769 -0.4039 -3.5828 -0.0561
 8552SOL     OW37114   1.968   2.007   0.182 -0.2149  0.0868 -0.0972
 8552SOL    HW137115   2.024   2.072   0.140  0.1603  1.2600  2.1742
 8552SOL    HW237116   1.952   1.950   0.107  0.2305 -0.9231  0.5911
 8553SOL     OW37117   3.334   1.914   3.337  0.2825 -0.5932  0.8261
 8553SOL    HW137118   3.363   1.954   3.419  0.1384  1.8570 -0.3136
 8553SOL    HW237119   3.312   1.822   3.354 -0.8653 -0.7267 -1.4116
 8554SOL     OW37120   2.130   0.660   2.418 -0.1830  0.3272 -0.3575
 8554SOL    HW137121   2.187   0.723   2.374  2.7464 -1.6572  0.5818
 8554SOL    HW237122   2.134   0.593   2.351 -1.4265 -0.7896  0.6917
 8555SOL     OW37123   4.541   4.057   1.208  0.2331 -0.3535  0.1463
 8555SOL    HW137124   4.629   4.039   1.173  0.7883  1.6279  0.5361
 8555SOL    HW237125   4.556   4.152   1.210 -0.4208 -0.2271 -1.1930
 8556SOL     OW37126   3.221   1.431   6.754 -0.7018  0.5639  0.3771
 8556SOL    HW137127   3.257   1.345   6.776  0.6998  0.8018 -0.9874
 8556SOL    HW237128   3.245   1.488   6.827  1.0013  1.0006 -0.5196
 8557SOL     OW37129   3.879   2.857   2.184  0.4473  0.3704 -0.9844
 8557SOL    HW137130   3.810   2.865   2.118 -1.6121  1.3088  1.2960
 8557SOL    HW237131   3.955   2.884   2.134  0.4667  0.9332 -0.6470
 8558SOL     OW37132   2.545   4.693   6.303  0.6405 -0.0058  0.1352
 8558SOL    HW137133   2.457   4.675   6.338 -0.7585  2.0788 -2.3489
 8558SOL    HW237134   2.560   4.599   6.289  2.0407  0.5143 -1.7364
 8559SOL     OW37135   2.652   2.376  11.239  0.1817 -0.1518 -0.3358
 8559SOL    HW137136   2.733   2.384  11.288 -1.0369 -0.9690  1.8233
 8559SOL    HW237137   2.591   2.429  11.291  0.4493 -0.4239  0.2547
 8560SOL     OW37138   4.396   1.033   2.318 -0.0001 -0.8440  0.1739
 8560SOL    HW137139   4.307   1.013   2.289  0.0924 -0.4080 -0.3995
 8560SOL    HW237140   4.444   0.967   2.269  0.2662  0.4586 -1.3046
 8561SOL     OW37141   2.624   2.698   4.310  0.0919 -0.5862 -0.4277
 8561SOL    HW137142   2.703   2.749   4.331 -1.7738  2.6833 -1.3253
 8561SOL    HW237143   2.633   2.635   4.382 -1.4687 -0.4824 -0.1467
 8562SOL     OW37144   0.278   2.141   4.187  0.0169 -0.5714  0.1746
 8562SOL    HW137145   0.215   2.078   4.150  0.3045 -1.2430  0.8317
 8562SOL    HW237146   0.357   2.128   4.135 -0.5739 -2.9808 -0.1647
 8563SOL     OW37147   3.933   1.659   4.346  0.4977 -0.0546 -0.3632
 8563SOL    HW137148   3.914   1.566   4.363 -0.1575  0.0104 -0.7410
 8563SOL    HW237149   3.858   1.708   4.379  1.0109  0.4533  0.0453
 8564SOL     OW37150   1.138   3.940  10.439  0.3462  0.5923  0.3464
 8564SOL    HW137151   1.187   3.942  10.357 -0.7921  1.3641 -0.3245
 8564SOL    HW237152   1.147   4.029  10.471 -0.6235  1.1131 -0.8222
 8565SOL     OW37153   0.808   1.733   6.388 -0.6159 -0.0145 -0.1038
 8565SOL    HW137154   0.886   1.751   6.335 -0.1527 -0.6920  0.3520
 8565SOL    HW237155   0.767   1.820   6.382  0.4490  0.4604 -0.6046
 8566SOL     OW37156   1.527   1.014   0.165 -0.1477  0.5278  0.1403
 8566SOL    HW137157   1.545   1.062   0.085 -1.2709  1.2750  0.3320
 8566SOL    HW237158   1.612   0.976   0.188 -0.2223  0.4907  0.3551
 8567SOL     OW37159   3.526   1.490  16.543  0.1594 -0.3000 -0.1076
 8567SOL    HW137160   3.564   1.512  16.457  0.7710  2.1895  0.7769
 8567SOL    HW237161   3.439   1.530  16.536  0.8047  0.9646 -0.9102
 8568SOL     OW37162   4.623   1.585   4.131 -0.4406  0.6262  0.9878
 8568SOL    HW137163   4.559   1.526   4.090  0.3188  0.5313 -0.0449
 8568SOL    HW237164   4.605   1.663   4.079  0.1120  0.6836  0.8923
 8569SOL     OW37165   0.191   4.528   5.147 -0.6336 -0.4625 -0.3864
 8569SOL    HW137166   0.286   4.530   5.161 -0.6788 -1.6815  0.0679
 8569SOL    HW237167   0.171   4.560   5.235  1.7001  0.3924 -0.1448
 8570SOL     OW37168   2.401   0.154   5.205 -0.1731  0.6719  0.7312
 8570SOL    HW137169   2.351   0.101   5.269  1.6404 -1.7872  0.1135
 8570SOL    HW237170   2.392   0.237   5.252  0.9870  1.3165 -0.2156
 8571SOL     OW37171   3.344   0.403   0.934  0.0831  0.8719  0.2613
 8571SOL    HW137172   3.309   0.369   0.852  0.0452  0.7959  0.3088
 8571SOL    HW237173   3.370   0.319   0.973  0.4430  1.3276  1.0128
 8572SOL     OW37174   0.421   3.614   5.002 -0.3217 -0.0206  0.5427
 8572SOL    HW137175   0.380   3.528   4.998  1.1280 -0.6559 -1.0548
 8572SOL    HW237176   0.401   3.649   5.088  0.5008  0.5164  0.5225
 8573SOL     OW37177   3.439   1.931   3.609  0.8738 -0.4725  0.2742
 8573SOL    HW137178   3.443   1.919   3.704 -0.4853  0.4504  0.4496
 8573SOL    HW237179   3.382   2.007   3.598  1.5823 -0.3846 -2.5864
 8574SOL     OW37180   1.096   3.975  11.445 -0.1375  0.0996 -0.8317
 8574SOL    HW137181   1.164   3.998  11.382  1.4885 -1.6984  0.2863
 8574SOL    HW237182   1.012   3.970  11.398 -1.7732  0.4756  2.0391
 8575SOL     OW37183   4.462   2.079   6.252 -0.6472 -0.2690  0.0563
 8575SOL    HW137184   4.442   2.131   6.175  1.5180 -2.0550 -1.7042
 8575SOL    HW237185   4.551   2.106   6.271 -0.6379  0.1592 -0.6128
 8576SOL     OW37186   3.180   1.766   5.051  0.4354 -0.4088  0.0637
 8576SOL    HW137187   3.249   1.702   5.070 -0.1378 -2.0579 -3.4268
 8576SOL    HW237188   3.126   1.758   5.129 -1.3149 -0.7410 -1.1948
 8577SOL     OW37189   2.145   1.926   3.103  0.6100  0.7447  0.0584
 8577SOL    HW137190   2.207   1.875   3.052  0.2354 -0.3168  0.6697
 8577SOL    HW237191   2.179   1.918   3.193  0.9762  1.1558 -0.0393
 8578SOL     OW37192   1.650   1.923   7.810  0.0558 -0.3485  0.1469
 8578SOL    HW137193   1.704   1.897   7.885  1.0169  1.7276  0.1625
 8578SOL    HW237194   1.592   1.995   7.836 -1.6011 -1.4255 -0.5901
 8579SOL     OW37195   3.459   2.873  11.279  0.5647  0.3204 -0.0297
 8579SOL    HW137196   3.537   2.826  11.308 -1.4295 -2.3281  0.9863
 8579SOL    HW237197   3.395   2.805  11.259  2.8681 -1.4131 -1.6887
 8580SOL     OW37198   0.606   2.003   5.614 -0.4180  0.6344  0.0036
 8580SOL    HW137199   0.542   2.035   5.550  0.1771  3.4725  0.8628
 8580SOL    HW237200   0.608   2.067   5.685 -0.8979 -1.0102  1.5228
 8581SOL     OW37201   3.801   0.697  14.498  0.1016  0.2298 -0.3452
 8581SOL    HW137202   3.812   0.657  14.412 -1.3092 -2.3029  0.6499
 8581SOL    HW237203   3.718   0.741  14.479 -0.2574 -1.0764 -1.7748
 8582SOL     OW37204   3.283   0.477   9.603  0.7560  0.0078  0.7532
 8582SOL    HW137205   3.208   0.439   9.650  0.5894  0.9762  1.2778
 8582SOL    HW237206   3.285   0.415   9.530  2.6458  1.0546 -0.0614
 8583SOL     OW37207   2.128   3.311  11.933 -0.2277  0.1269 -0.5860
 8583SOL    HW137208   2.203   3.254  11.925 -0.2494  0.3400 -2.1898
 8583SOL    HW237209   2.051   3.254  11.940 -1.2569  1.2632 -2.4807
 8584SOL     OW37210   1.211   2.405  11.498  0.1798 -0.9673  0.4952
 8584SOL    HW137211   1.126   2.375  11.532  1.4045 -2.2737  2.4128
 8584SOL    HW237212   1.236   2.324  11.454 -1.7947 -1.0396 -0.5027
 8585SOL     OW37213   1.870   4.542   1.021 -0.4019  0.2199  0.1629
 8585SOL    HW137214   1.883   4.483   1.095 -1.9799 -1.2297 -0.7208
 8585SOL    HW237215   1.900   4.627   1.053 -2.3078  1.7620 -2.1093
 8586SOL     OW37216   0.502   2.104  12.740 -0.2151 -0.3726 -0.1350
 8586SOL    HW137217   0.508   2.086  12.646  1.7353  2.2606 -0.5121
 8586SOL    HW237218   0.462   2.023  12.772  1.3315 -0.7599  0.7908
 8587SOL     OW37219   4.006   2.979   5.425 -0.1726 -0.0118  0.3239
 8587SOL    HW137220   3.939   2.988   5.494 -1.3828 -2.8682 -0.4479
 8587SOL    HW237221   4.001   3.063   5.381  1.5022  0.1292  0.4224
 8588SOL     OW37222   2.382   1.534   4.400  0.2602 -0.2961 -0.3754
 8588SOL    HW137223   2.377   1.474   4.474  1.6009 -0.8786 -0.7640
 8588SOL    HW237224   2.398   1.619   4.442 -1.2434 -0.1067 -0.1896
 8589SOL     OW37225   3.428   2.251  11.340 -0.3118 -0.1079 -0.2286
 8589SOL    HW137226   3.377   2.272  11.261 -0.1104  1.8853  0.1674
 8589SOL    HW237227   3.498   2.316  11.345 -0.7681  0.4731 -1.2323
 8590SOL     OW37228   0.373   1.367   1.516  0.3404 -0.4716 -0.0261
 8590SOL    HW137229   0.352   1.343   1.426  0.0282 -1.0667  0.2100
 8590SOL    HW237230   0.315   1.443   1.521  2.0089  0.8846 -1.2166
 8591SOL     OW37231   3.177   4.109  17.370  0.8085  0.4287 -0.1631
 8591SOL    HW137232   3.120   4.185  17.376  1.0512  0.7839 -2.5264
 8591SOL    HW237233   3.126   4.053  17.429  0.6393  1.4926  0.6930
 8592SOL     OW37234   0.751   1.436  15.747  0.2326  0.5726 -0.1946
 8592SOL    HW137235   0.748   1.407  15.838  0.5478 -0.4290 -0.5022
 8592SOL    HW237236   0.681   1.378  15.716 -0.0487  1.3282 -0.9698
 8593SOL     OW37237   0.868   3.425  17.021  1.1548 -0.1329 -0.2469
 8593SOL    HW137238   0.795   3.400  16.964  0.9335  0.6974 -0.3389
 8593SOL    HW237239   0.860   3.354  17.084 -0.4325 -0.0728 -0.3882
 8594SOL     OW37240   3.247   0.362   1.699 -0.1682 -0.1188 -0.6394
 8594SOL    HW137241   3.201   0.302   1.758 -1.3720 -0.5412 -2.0284
 8594SOL    HW237242   3.175   0.409   1.658 -0.8997 -1.7289 -1.2048
 8595SOL     OW37243   3.316   2.471   6.111 -0.4483 -0.3705  0.1832
 8595SOL    HW137244   3.378   2.533   6.072 -0.3470 -0.7882 -0.3215
 8595SOL    HW237245   3.240   2.516   6.075 -1.3123 -1.0233  1.2221
 8596SOL     OW37246   1.797   1.079  12.398  0.1866 -0.2790  0.1370
 8596SOL    HW137247   1.759   1.134  12.467 -0.5614 -0.6729  0.0362
 8596SOL    HW237248   1.861   1.145  12.370  0.2156  0.0902  1.0416
 8597SOL     OW37249   2.814   3.411   7.906 -0.6626 -0.2184 -0.3823
 8597SOL    HW137250   2.746   3.343   7.906 -2.1897  1.3097 -1.4553
 8597SOL    HW237251   2.769   3.477   7.853 -2.0495 -0.3520  0.6273
 8598SOL     OW37252   1.319   2.512  15.623 -0.1534 -0.0354  0.2403
 8598SOL    HW137253   1.271   2.550  15.696 -1.5612  1.0554 -1.2360
 8598SOL    HW237254   1.278   2.430  15.598  1.2782 -0.4645 -0.6870
 8599SOL     OW37255   4.507   3.158   1.755  0.0292 -0.1793 -0.0816
 8599SOL    HW137256   4.493   3.111   1.837  0.1974 -0.6501 -0.3261
 8599SOL    HW237257   4.483   3.246   1.786  1.6367  0.1013  0.3402
 8600SOL     OW37258   3.915   4.171   6.698 -0.3092 -0.0965 -0.3495
 8600SOL    HW137259   3.919   4.075   6.703 -0.2026 -0.2592 -3.2769
 8600SOL    HW237260   3.932   4.187   6.790 -0.4486 -1.3762 -0.0967
 8601SOL     OW37261   2.248   0.336   2.155  0.4851  0.1077  0.1308
 8601SOL    HW137262   2.316   0.273   2.130  0.7051  0.0785  0.8036
 8601SOL    HW237263   2.249   0.320   2.249  0.4973  0.2226  0.1504
 8602SOL     OW37264   3.238   3.843  17.691  0.0244  0.4814 -0.2374
 8602SOL    HW137265   3.310   3.904  17.677  0.2501  0.6773  1.7668
 8602SOL    HW237266   3.269   3.761  17.653 -1.2451  0.2688 -0.8362
 8603SOL     OW37267   2.038   4.433   2.249 -0.1586  0.0403  0.1526
 8603SOL    HW137268   2.082   4.439   2.165 -2.2105 -1.4359 -1.0288
 8603SOL    HW237269   1.994   4.518   2.260  0.8915  0.6133 -0.0618
 8604SOL     OW37270   2.793   0.896   4.808 -0.2679  0.1214  0.8213
 8604SOL    HW137271   2.723   0.881   4.871  2.2440 -2.8532  2.9387
 8604SOL    HW237272   2.834   0.809   4.808 -2.6119 -0.9969 -2.6926
 8605SOL     OW37273   0.504   2.202   4.649 -0.5002  0.3948  0.2354
 8605SOL    HW137274   0.523   2.112   4.675  1.6443  0.1968 -2.0279
 8605SOL    HW237275   0.433   2.183   4.587  0.8730 -0.6977 -0.9852
 8606SOL     OW37276   4.563   0.187   6.780  0.7211  0.6245  0.1453
 8606SOL    HW137277   4.557   0.282   6.789  0.6798  0.7475 -1.2407
 8606SOL    HW237278   4.479   0.169   6.739  0.1003  0.4671  1.4809
 8607SOL     OW37279   0.088   1.471   2.218  0.1983 -0.1040 -0.3813
 8607SOL    HW137280   0.071   1.401   2.282 -1.2951  1.0687  0.4845
 8607SOL    HW237281   0.120   1.539   2.277 -1.1076 -0.2359  0.4909
 8608SOL     OW37282   3.323   3.844   3.178 -0.1292 -0.2986 -0.0406
 8608SOL    HW137283   3.373   3.763   3.189 -2.0853 -1.5789 -0.5006
 8608SOL    HW237284   3.385   3.902   3.134  0.9664 -0.3565  1.4200
 8609SOL     OW37285   4.127   1.853   6.941 -0.0852 -0.2702  0.4095
 8609SOL    HW137286   4.111   1.900   6.859  0.6698  0.2683  0.5717
 8609SOL    HW237287   4.055   1.790   6.933 -1.3674  1.0218  1.8432
 8610SOL     OW37288   1.241   3.175   1.218  0.4349  0.4093  0.0758
 8610SOL    HW137289   1.243   3.269   1.232  1.4776  0.2568  0.9387
 8610SOL    HW237290   1.240   3.145   1.309 -0.4077  1.3628  0.3888
 8611SOL     OW37291   2.181   1.893  14.841 -0.9695 -0.0309 -0.2045
 8611SOL    HW137292   2.225   1.812  14.865 -2.6582 -0.9863 -0.2964
 8611SOL    HW237293   2.251   1.957  14.834 -0.5374 -0.5578 -0.6974
 8612SOL     OW37294   2.508   3.122  14.779  0.5002 -0.0387 -0.2463
 8612SOL    HW137295   2.520   3.064  14.854 -1.5736  1.0382  0.9248
 8612SOL    HW237296   2.415   3.147  14.784 -0.2013 -2.9019  0.7678
 8613SOL     OW37297   1.753   1.436  10.949  0.0032  0.0717 -0.0515
 8613SOL    HW137298   1.763   1.353  10.902 -1.4080 -0.2153  0.1680
 8613SOL    HW237299   1.758   1.415  11.042  0.0413  0.0762 -0.0526
 8614SOL     OW37300   0.631   0.342   4.085 -0.0731  0.1285 -0.0441
 8614SOL    HW137301   0.687   0.274   4.123  1.1468 -0.1046 -2.2649
 8614SOL    HW237302   0.561   0.350   4.149 -0.9589 -0.4174 -0.9406
 8615SOL     OW37303   0.499   3.066   0.147 -0.3694  0.1474 -0.2302
 8615SOL    HW137304   0.553   3.122   0.203  0.5179  0.8659 -1.7902
 8615SOL    HW237305   0.476   3.118   0.070 -2.2747  0.0591  0.3014
 8616SOL     OW37306   1.668   3.966  14.054  0.0418 -0.2821 -0.6074
 8616SOL    HW137307   1.690   3.927  13.969  2.2735 -1.5781  0.5627
 8616SOL    HW237308   1.601   3.907  14.088 -0.2950  0.4237 -0.0621
 8617SOL     OW37309   4.222   1.054   3.967  0.6308 -0.4668 -0.1685
 8617SOL    HW137310   4.147   1.063   3.908  0.7675 -1.1428 -0.4511
 8617SOL    HW237311   4.220   1.138   4.012 -0.4581  0.0830 -1.2468
 8618SOL     OW37312   0.555   2.868  15.015  0.5874 -0.5004 -0.2770
 8618SOL    HW137313   0.603   2.867  15.098 -1.7927 -0.7081  1.0739
 8618SOL    HW237314   0.512   2.783  15.011 -0.2947 -0.0544 -0.1594
 8619SOL     OW37315   3.832   3.289   5.028  0.0254  0.6265  0.0285
 8619SOL    HW137316   3.905   3.292   5.089 -0.1626  1.1221  0.2348
 8619SOL    HW237317   3.873   3.254   4.949 -1.4191  0.5766 -0.7018
 8620SOL     OW37318   0.665   2.408  16.268 -0.0700  0.5582 -0.2960
 8620SOL    HW137319   0.683   2.383  16.359  0.6399  0.4960 -0.4579
 8620SOL    HW237320   0.590   2.349  16.258 -0.7546  0.9317  2.5978
 8621SOL     OW37321   0.091   3.995   1.046 -0.2309  0.0197  0.3060
 8621SOL    HW137322   0.157   3.927   1.054  2.5973  2.6285 -0.6288
 8621SOL    HW237323   0.077   3.998   0.951 -0.2419  0.9812  0.3387
 8622SOL     OW37324   4.027   3.532   5.665  0.0039 -0.9823  0.4152
 8622SOL    HW137325   4.003   3.612   5.619  0.0581 -1.0838  0.2098
 8622SOL    HW237326   4.104   3.561   5.714 -0.0349  1.5301 -1.0071
 8623SOL     OW37327   1.658   1.076  14.841 -0.1242 -0.2752 -0.4413
 8623SOL    HW137328   1.736   1.041  14.884 -0.8750 -1.6128 -0.1961
 8623SOL    HW237329   1.638   1.008  14.777 -0.5937  0.8323 -1.4914
 8624SOL     OW37330   3.841   0.582   0.259 -0.0422 -0.3729  0.1236
 8624SOL    HW137331   3.878   0.495   0.242  1.0421  0.2931 -0.9753
 8624SOL    HW237332   3.748   0.564   0.245  0.0566  1.3428 -2.9058
 8625SOL     OW37333   0.198   0.709   2.257 -0.0146 -0.3073  0.0484
 8625SOL    HW137334   0.244   0.648   2.200  2.2733  2.4021 -1.0010
 8625SOL    HW237335   0.252   0.699   2.336  1.2749 -2.4032 -1.0901
 8626SOL     OW37336   2.041   1.313  13.431 -0.2120 -0.0658 -0.3018
 8626SOL    HW137337   2.087   1.391  13.463 -0.5980  0.2033 -0.3938
 8626SOL    HW237338   1.956   1.342  13.395  0.3602  1.9101 -0.0929
 8627SOL     OW37339   3.443   3.530   5.112 -0.5109 -0.0134  0.1509
 8627SOL    HW137340   3.426   3.602   5.172  1.3940  2.2854 -2.0860
 8627SOL    HW237341   3.355   3.519   5.075 -0.7595 -0.2752  0.8210
 8628SOL     OW37342   2.715   2.936   3.636 -0.5156 -0.5231 -0.3626
 8628SOL    HW137343   2.771   2.868   3.673 -0.1792 -0.4897 -0.8142
 8628SOL    HW237344   2.631   2.898   3.662 -0.4468 -2.5228 -3.0405
 8629SOL     OW37345   2.031   3.956   9.437  0.3852 -0.2899  0.0435
 8629SOL    HW137346   2.122   3.950   9.465  0.2772  0.1358  0.4851
 8629SOL    HW237347   1.996   3.971   9.525  1.2679 -0.3803  0.4102
 8630SOL     OW37348   2.163   4.496  16.217 -0.1420  0.4833 -0.2031
 8630SOL    HW137349   2.100   4.514  16.147  1.2420 -0.5646 -1.7126
 8630SOL    HW237350   2.241   4.479  16.165 -0.1782 -0.4406  0.0338
 8631SOL     OW37351   3.691   3.619  15.628 -0.6084  0.0990 -0.6373
 8631SOL    HW137352   3.719   3.567  15.704 -0.7916  0.6739 -0.1847
 8631SOL    HW237353   3.685   3.549  15.563  0.8905  1.4638 -2.2314
 8632SOL     OW37354   0.633   0.283   9.050  0.0582  0.3051  0.2308
 8632SOL    HW137355   0.632   0.343   9.125 -1.3231  0.1459  0.3367
 8632SOL    HW237356   0.716   0.239   9.069 -0.1546  0.1556  0.8006
 8633SOL     OW37357   1.604   4.028   3.208  0.0244 -0.3993 -0.0248
 8633SOL    HW137358   1.604   3.954   3.269 -1.1342 -0.3383  0.0446
 8633SOL    HW237359   1.602   3.985   3.123 -0.6640 -0.5437  0.0683
 8634SOL     OW37360   3.174   2.230  14.037  0.4079 -0.5423  0.2909
 8634SOL    HW137361   3.091   2.183  14.033 -0.3510  0.6805  1.7756
 8634SOL    HW237362   3.240   2.160  14.042  0.2956 -0.5388  1.9654
 8635SOL     OW37363   3.659   0.395   2.046  0.4262 -0.4996  0.3665
 8635SOL    HW137364   3.643   0.482   2.083 -0.3855 -1.4213  2.1840
 8635SOL    HW237365   3.628   0.415   1.958  0.4338 -2.0897  0.0064
 8636SOL     OW37366   3.360   2.215   6.766  0.0443  0.1479 -0.0303
 8636SOL    HW137367   3.433   2.169   6.726  0.0735  0.8093 -0.7130
 8636SOL    HW237368   3.285   2.199   6.708  3.5170 -0.2545 -4.3682
 8637SOL     OW37369   3.400   2.264   2.348  0.1716 -0.3691  0.1099
 8637SOL    HW137370   3.349   2.260   2.268 -0.0139 -1.5444  0.2926
 8637SOL    HW237371   3.454   2.339   2.321  1.0454 -0.7732  0.7147
 8638SOL     OW37372   2.764   3.031   5.103  0.6737  0.2454 -0.2430
 8638SOL    HW137373   2.736   3.054   5.014  0.1265  2.5219  0.5151
 8638SOL    HW237374   2.721   3.093   5.161  0.3914 -1.9073  1.8273
 8639SOL     OW37375   0.238   2.557  11.194  0.1428 -0.1698  0.3263
 8639SOL    HW137376   0.231   2.576  11.100 -1.6427  1.7528  0.8552
 8639SOL    HW237377   0.206   2.636  11.236 -0.4834 -0.7033  0.8409
 8640SOL     OW37378   3.256   0.991   8.415 -0.4617 -0.2816  0.3323
 8640SOL    HW137379   3.331   1.007   8.472 -1.0737  0.3949  0.9563
 8640SOL    HW237380   3.287   1.018   8.329 -0.0606 -0.6315  0.3661
 8641SOL     OW37381   0.671   2.437  11.679  0.0971 -0.5101  0.3940
 8641SOL    HW137382   0.694   2.465  11.591 -0.7893 -0.9987  0.0087
 8641SOL    HW237383   0.687   2.343  11.684 -1.1166 -0.8355 -1.8988
 8642SOL     OW37384   3.837   0.558  16.292  0.1251  0.5650 -0.3342
 8642SOL    HW137385   3.928   0.532  16.304  0.1966  0.5360 -0.9724
 8642SOL    HW237386   3.821   0.544  16.199 -0.1141 -0.9563 -0.0604
 8643SOL     OW37387   1.239   0.288   4.903 -0.7930  0.4936  0.4508
 8643SOL    HW137388   1.202   0.298   4.815  0.8367  0.5868 -0.2407
 8643SOL    HW237389   1.158   0.282   4.953 -0.8363 -0.5534  0.2499
 8644SOL     OW37390   1.752   3.664  15.628  0.5633  0.4088 -0.0369
 8644SOL    HW137391   1.823   3.690  15.686 -1.6462 -0.2509  2.9512
 8644SOL    HW237392   1.745   3.738  15.567  2.6272  2.0659  1.7505
 8645SOL     OW37393   4.496   3.432   5.320  1.0621  0.6719 -0.2025
 8645SOL    HW137394   4.553   3.491   5.369  2.7943 -1.5365  0.3839
 8645SOL    HW237395   4.487   3.464   5.230 -3.2059 -1.6826 -0.5865
 8646SOL     OW37396   4.542   0.008  13.618  0.0230  0.2646 -0.0381
 8646SOL    HW137397   4.596   0.059  13.558  2.2675 -2.3268 -0.2185
 8646SOL    HW237398   4.487   0.081  13.647  1.3820  1.1060  0.4420
 8647SOL     OW37399   0.679   0.207  14.188  0.1583  0.2267 -0.0608
 8647SOL    HW137400   0.772   0.183  14.180 -0.2804 -1.1065 -1.1902
 8647SOL    HW237401   0.643   0.216  14.100  0.9814 -0.0414 -0.4302
 8648SOL     OW37402   4.285   2.332  17.634  0.2797 -0.0545 -0.0414
 8648SOL    HW137403   4.345   2.307  17.563 -0.0620 -1.6537  0.2478
 8648SOL    HW237404   4.204   2.304  17.592 -0.6678 -1.5416  2.8379
 8649SOL     OW37405   3.569   0.478  11.930 -0.0763 -0.2262  0.0364
 8649SOL    HW137406   3.549   0.572  11.923  1.5679  0.2889  2.0021
 8649SOL    HW237407   3.664   0.484  11.923 -0.3541  0.7058 -3.1201
 8650SOL     OW37408   3.530   1.973  17.367 -0.0070  0.0200 -0.3143
 8650SOL    HW137409   3.565   1.965  17.278  0.0778  2.9545 -0.5464
 8650SOL    HW237410   3.474   2.050  17.354  0.3960  0.6510  1.6394
 8651SOL     OW37411   2.711   1.281   8.894  0.3634 -0.1836  0.2437
 8651SOL    HW137412   2.791   1.272   8.947 -0.3355 -0.2700  1.2708
 8651SOL    HW237413   2.744   1.278   8.804  0.3695 -0.3305  0.2511
 8652SOL     OW37414   2.167   4.255   6.125  0.4863 -0.2013  0.0848
 8652SOL    HW137415   2.091   4.266   6.069 -0.7524  1.6465  2.1211
 8652SOL    HW237416   2.161   4.317   6.198 -2.2210 -1.2962  0.8013
 8653SOL     OW37417   4.690   1.750   6.294 -0.1613 -0.2465 -0.0814
 8653SOL    HW137418   0.051   1.755   6.254 -0.8706 -2.4028 -1.8943
 8653SOL    HW237419   4.687   1.658   6.318 -1.2253 -0.6064 -1.5961
 8654SOL     OW37420   1.435   4.420   5.645 -0.4113  0.0482 -0.2987
 8654SOL    HW137421   1.524   4.385   5.641 -0.3220  0.0263  1.7764
 8654SOL    HW237422   1.385   4.358   5.698 -0.8311 -0.1802 -0.9644
 8655SOL     OW37423   3.414   3.092   9.986  0.1328  0.3190 -0.3930
 8655SOL    HW137424   3.385   3.112   9.897 -1.9521 -1.9902 -0.2292
 8655SOL    HW237425   3.328   3.092  10.028  0.2315  0.8187 -0.1874
 8656SOL     OW37426   1.699   3.061   9.013  0.0421 -0.1975 -0.2003
 8656SOL    HW137427   1.657   3.074   9.098  0.0246 -0.3224 -0.1893
 8656SOL    HW237428   1.657   2.981   8.979 -1.1711  0.0478  0.7327
 8657SOL     OW37429   3.648   2.943   9.977 -0.1024 -0.1213  0.0939
 8657SOL    HW137430   3.595   2.902   9.908 -1.1841 -0.2556  1.0064
 8657SOL    HW237431   3.584   3.010   9.997  0.8255  0.5374  0.8245
 8658SOL     OW37432   3.203   0.717   1.546  0.1522  0.5526  0.3297
 8658SOL    HW137433   3.148   0.643   1.518  1.7491 -0.5391  0.1037
 8658SOL    HW237434   3.196   0.707   1.641 -0.9159  0.4932  0.2520
 8659SOL     OW37435   3.603   2.591  16.707 -0.1544  0.1224  0.0839
 8659SOL    HW137436   3.580   2.682  16.726  0.8092  0.1160  1.3369
 8659SOL    HW237437   3.631   2.601  16.617 -0.6048 -1.8233 -0.2722
 8660SOL     OW37438   3.803   4.317   3.016  0.2397  0.5471 -0.4408
 8660SOL    HW137439   3.770   4.234   3.051  1.6739  0.8304  1.6032
 8660SOL    HW237440   3.893   4.318   3.048  0.0199  0.9118  0.1571
 8661SOL     OW37441   0.893   2.663   5.434 -0.1922 -0.0242 -0.2857
 8661SOL    HW137442   0.811   2.711   5.420 -0.6643 -0.6621  0.3239
 8661SOL    HW237443   0.856   2.580   5.461  1.1661 -0.2607  0.8655
 8662SOL     OW37444   2.414   1.162  13.927 -0.5911 -0.0137  0.0910
 8662SOL    HW137445   2.462   1.180  13.847  0.2411  3.8938  1.5130
 8662SOL    HW237446   2.406   1.245  13.974 -0.2575  0.2171 -0.2627
 8663SOL     OW37447   3.725   3.522  16.321  0.3024  0.1635 -0.5320
 8663SOL    HW137448   3.762   3.442  16.358 -0.0576 -0.6944 -1.9879
 8663SOL    HW237449   3.791   3.586  16.347 -1.1966  1.3426  0.3366
 8664SOL     OW37450   1.033   2.681   0.076 -0.1567 -0.1043 -0.1396
 8664SOL    HW137451   1.114   2.641   0.045  0.4538  1.0234 -0.0006
 8664SOL    HW237452   0.977   2.607   0.052 -0.9929  0.4424  0.0991
 8665SOL     OW37453   4.525   0.284   4.305 -0.3790 -0.0094 -0.0532
 8665SOL    HW137454   4.538   0.194   4.278 -0.7988  0.3616 -1.4779
 8665SOL    HW237455   4.609   0.319   4.336 -2.0185  2.4875  1.6757
 8666SOL     OW37456   1.585   1.949   6.290  0.0191 -0.2157 -0.9187
 8666SOL    HW137457   1.623   1.868   6.256  0.0191 -0.4860 -0.2626
 8666SOL    HW237458   1.636   2.013   6.240  1.2630 -1.3631 -1.1081
 8667SOL     OW37459   0.519   1.361   4.787  0.3459 -0.0244  0.4726
 8667SOL    HW137460   0.512   1.265   4.789  0.7965 -0.0030  2.7031
 8667SOL    HW237461   0.532   1.376   4.881 -0.7252  0.6765  0.5078
 8668SOL     OW37462   1.854   3.375   0.727  0.2872 -0.4279 -0.5255
 8668SOL    HW137463   1.770   3.339   0.756  0.7753 -3.0633 -2.3353
 8668SOL    HW237464   1.860   3.324   0.646  0.9070 -3.1624  1.2129
 8669SOL     OW37465   0.070   2.192  14.129  0.4439  0.0695 -0.3053
 8669SOL    HW137466   4.724   2.241  14.089  0.9997  1.3366  0.2456
 8669SOL    HW237467   0.027   2.112  14.159  1.3253 -0.5886 -0.7809
 8670SOL     OW37468   4.065   1.715   8.893  0.3799  0.6838 -0.0410
 8670SOL    HW137469   4.159   1.709   8.913  0.6828  3.0395 -0.6608
 8670SOL    HW237470   4.044   1.713   8.986  0.1376  0.2078 -0.1095
 8671SOL     OW37471   3.914   2.468   8.458 -0.3185  0.0968 -0.3739
 8671SOL    HW137472   3.941   2.508   8.541 -2.1666  1.8436 -0.6447
 8671SOL    HW237473   3.963   2.527   8.401 -1.4268  0.2070 -1.2010
 8672SOL     OW37474   4.165   1.944   0.184  0.2759 -0.7772  0.2635
 8672SOL    HW137475   4.206   1.985   0.260 -1.5811 -0.6004  1.1757
 8672SOL    HW237476   4.222   1.867   0.178 -0.2478 -1.1903  0.6623
 8673SOL     OW37477   1.935   0.331   8.075 -0.5525 -0.4985 -0.3269
 8673SOL    HW137478   1.963   0.394   8.009 -0.2875 -0.8794 -0.5787
 8673SOL    HW237479   1.972   0.369   8.154  0.4940 -2.1553 -0.0361
 8674SOL     OW37480   3.707   2.761   7.200  0.2843 -0.1221  0.0816
 8674SOL    HW137481   3.673   2.681   7.158 -1.1277  0.0248  0.9349
 8674SOL    HW237482   3.794   2.724   7.215  1.3395  2.4218  0.2754
 8675SOL     OW37483   1.760   4.698  12.894 -0.1547  0.3507 -0.7515
 8675SOL    HW137484   1.675   4.691  12.938  1.2062 -0.5617  1.7299
 8675SOL    HW237485   1.769   4.615  12.847 -0.8795 -0.4698  0.5677
 8676SOL     OW37486   2.809   1.015  16.543  0.0802  0.6108  0.7547
 8676SOL    HW137487   2.755   1.093  16.532 -0.3056  0.1771 -0.4464
 8676SOL    HW237488   2.890   1.037  16.497 -1.0059 -0.6700 -1.7678
 8677SOL     OW37489   2.132   3.918   1.619  0.1246  0.3756 -0.3226
 8677SOL    HW137490   2.178   3.835   1.606  0.6717  0.3863  1.5412
 8677SOL    HW237491   2.195   3.966   1.674  1.2058  0.1546 -1.3526
 8678SOL     OW37492   4.627   0.179   6.208  0.3454 -0.3985  0.5137
 8678SOL    HW137493   4.574   0.181   6.287  0.7087 -1.3555  0.7777
 8678SOL    HW237494   4.713   0.166   6.249 -0.0164  1.9089  2.0215
 8679SOL     OW37495   1.121   3.982   0.753  0.3779 -0.5184  0.3142
 8679SOL    HW137496   1.131   3.935   0.670  1.7952  0.4096 -0.0407
 8679SOL    HW237497   1.179   4.057   0.738  0.6903 -0.8211  0.0356
 8680SOL     OW37498   1.359   2.873   2.418 -0.8963  0.2206 -0.3822
 8680SOL    HW137499   1.412   2.864   2.497  0.3681 -2.4209 -1.5309
 8680SOL    HW237500   1.408   2.941   2.372 -0.0975 -0.7085 -0.8953
 8681SOL     OW37501   0.994   1.592   7.523  0.3236  0.4949  0.3687
 8681SOL    HW137502   0.931   1.659   7.547 -1.1968 -1.0699  0.7435
 8681SOL    HW237503   1.074   1.616   7.571  0.4693  1.5073 -0.3649
 8682SOL     OW37504   0.118   3.954   9.136  0.3307 -0.1291  0.2170
 8682SOL    HW137505   0.098   4.008   9.060  1.2399  0.5765  0.4736
 8682SOL    HW237506   0.198   3.996   9.168 -0.2108  2.2414 -1.5320
 8683SOL     OW37507   4.223   1.123   7.176 -0.1778 -0.5308 -0.1435
 8683SOL    HW137508   4.278   1.165   7.110  0.9023 -0.9406  0.4819
 8683SOL    HW237509   4.184   1.045   7.137 -0.6325 -0.6895  0.6195
 8684SOL     OW37510   0.791   1.316   4.368 -0.5249 -0.6022  0.3113
 8684SOL    HW137511   0.830   1.345   4.450  0.7864  2.7185 -1.4539
 8684SOL    HW237512   0.716   1.372   4.346  0.5199 -0.1733 -2.2071
 8685SOL     OW37513   2.498   3.417   5.648 -0.2027 -0.1599 -0.6119
 8685SOL    HW137514   2.515   3.510   5.665 -1.2760 -0.1381  0.2822
 8685SOL    HW237515   2.590   3.391   5.641 -0.1038  0.1936 -0.6539
 8686SOL     OW37516   2.256   1.970   7.969 -0.2738  0.4236 -0.2447
 8686SOL    HW137517   2.268   1.918   7.889  0.0993 -0.4320  0.3663
 8686SOL    HW237518   2.216   2.052   7.939  0.9309  1.2591  0.4546
 8687SOL     OW37519   2.833   3.862   5.115 -0.0465  0.0218  0.2791
 8687SOL    HW137520   2.760   3.800   5.105 -0.9566  1.1624 -0.2380
 8687SOL    HW237521   2.784   3.942   5.135 -0.4993 -0.8962  2.8530
 8688SOL     OW37522   0.802   4.594   9.171 -0.2965  0.3814 -0.2294
 8688SOL    HW137523   0.751   4.516   9.147  1.3543  0.1268 -2.8122
 8688SOL    HW237524   0.843   4.577   9.256  0.3529  3.4743  0.0788
 8689SOL     OW37525   0.663   0.058  10.954 -0.6246  0.6056 -0.1146
 8689SOL    HW137526   0.630   0.103  11.032 -0.4808 -0.5389  0.6035
 8689SOL    HW237527   0.722   0.126  10.922 -0.9164  1.6624  1.5969
 8690SOL     OW37528   3.509   1.286   5.359  0.6977  0.3418  0.3495
 8690SOL    HW137529   3.459   1.265   5.281  2.0655 -1.2395 -0.1095
 8690SOL    HW237530   3.550   1.371   5.344  0.2762  0.0625 -2.4370
 8691SOL     OW37531   1.236   4.146   3.844  0.5021  0.2305  0.0078
 8691SOL    HW137532   1.202   4.085   3.778 -0.4659  0.0893  0.6403
 8691SOL    HW237533   1.320   4.161   3.801 -0.2199  4.0407 -0.0332
 8692SOL     OW37534   1.891   3.250   1.946 -0.0919 -0.1457  0.2485
 8692SOL    HW137535   1.908   3.317   1.879  0.1883 -2.0403 -1.5880
 8692SOL    HW237536   1.933   3.172   1.910 -0.6646  0.4170 -1.6277
 8693SOL     OW37537   2.857   2.245   3.875  0.0304  0.3055 -0.2036
 8693SOL    HW137538   2.913   2.196   3.814  1.1294 -0.0347  1.0514
 8693SOL    HW237539   2.772   2.203   3.862  0.1458  0.0501 -0.1430
 8694SOL     OW37540   1.508   3.316   9.119 -0.8260  0.0505  0.2928
 8694SOL    HW137541   1.500   3.404   9.084  2.2743  0.1459 -0.1931
 8694SOL    HW237542   1.420   3.304   9.155 -0.7699 -1.7248 -0.1527
 8695SOL     OW37543   4.589   3.509  17.280  0.3011  0.2304  0.4281
 8695SOL    HW137544   4.631   3.594  17.262 -0.0235  0.3247  0.1097
 8695SOL    HW237545   4.558   3.510  17.370 -0.8613 -4.3951  0.0615
 8696SOL     OW37546   1.575   0.625   6.230  0.0913 -0.0494 -0.2088
 8696SOL    HW137547   1.491   0.592   6.260 -0.4095  0.0141 -1.5332
 8696SOL    HW237548   1.569   0.619   6.135  2.1393 -0.7712 -0.2869
 8697SOL     OW37549   4.646   3.448  16.272 -0.1733  0.2929  0.4605
 8697SOL    HW137550   0.015   3.450  16.258 -0.1712 -0.8474  0.3587
 8697SOL    HW237551   4.617   3.494  16.193 -1.5061 -2.0929 -0.4180
 8698SOL     OW37552   4.216   0.540   6.068 -0.0652 -0.2210  0.0058
 8698SOL    HW137553   4.230   0.507   6.157  0.3266  0.3657  0.1583
 8698SOL    HW237554   4.282   0.609   6.057 -1.3176  0.6593 -1.8496
 8699SOL     OW37555   1.507   0.764   2.443  0.4976  0.3066  0.1908
 8699SOL    HW137556   1.570   0.722   2.385 -0.1604 -1.4841  0.7742
 8699SOL    HW237557   1.430   0.760   2.386  1.8531  1.7066 -1.7157
 8700SOL     OW37558   1.239   1.400   1.603  0.5125 -0.0805 -0.3896
 8700SOL    HW137559   1.197   1.393   1.689 -0.9483 -1.4618 -1.2336
 8700SOL    HW237560   1.333   1.401   1.626 -0.4790  0.6675  3.6909
 8701SOL     OW37561   3.921   4.325  17.463 -0.0778  0.4965 -0.7574
 8701SOL    HW137562   3.935   4.416  17.489  1.1201 -0.0217  0.3826
 8701SOL    HW237563   3.945   4.277  17.542 -0.6751  0.4645 -0.5937
 8702SOL     OW37564   3.515   2.051  12.760 -0.5894  0.1572  0.9395
 8702SOL    HW137565   3.429   2.009  12.766 -0.8816  0.8626  1.5663
 8702SOL    HW237566   3.565   1.987  12.810  0.8214 -0.8703 -1.7619
 8703SOL     OW37567   1.684   4.530   2.998  0.4142 -0.0273 -0.2859
 8703SOL    HW137568   1.716   4.619   3.013 -1.0247  0.5329 -0.5105
 8703SOL    HW237569   1.591   4.535   3.021  0.1208  0.8012 -1.6620
 8704SOL     OW37570   0.942   0.963   7.093 -0.1740 -0.8929  0.1531
 8704SOL    HW137571   0.980   1.014   7.164 -1.4361 -1.5802  1.3048
 8704SOL    HW237572   0.870   0.914   7.133 -0.3995 -0.5434  0.1818
 8705SOL     OW37573   2.782   3.603   8.722 -0.0413  0.8367  0.4243
 8705SOL    HW137574   2.810   3.522   8.680 -0.7841  1.0775 -0.5199
 8705SOL    HW237575   2.824   3.594   8.808 -1.2057 -2.2533  0.6665
 8706SOL     OW37576   4.074   2.257  11.864 -0.2352  0.2695 -0.0933
 8706SOL    HW137577   3.979   2.255  11.862 -0.1417 -1.5051 -3.0843
 8706SOL    HW237578   4.093   2.185  11.925  0.9072 -0.1619 -0.9499
 8707SOL     OW37579   1.928   0.828  12.409  0.3305  0.5446 -0.4560
 8707SOL    HW137580   1.854   0.768  12.416  2.1948 -1.7846 -0.8443
 8707SOL    HW237581   1.875   0.908  12.407 -1.3048 -0.5840 -2.7215
 8708SOL     OW37582   2.743   0.330  10.623 -0.0734 -0.3963  0.5165
 8708SOL    HW137583   2.661   0.348  10.578 -1.0675 -3.0527  1.2573
 8708SOL    HW237584   2.712   0.296  10.707 -1.5707  0.1748  0.1916
 8709SOL     OW37585   2.361   0.638   8.969  0.1148  0.4245 -0.1704
 8709SOL    HW137586   2.388   0.728   8.986  2.5141 -0.3819  0.3003
 8709SOL    HW237587   2.445   0.596   8.949 -0.9663 -1.1914 -1.3587
 8710SOL     OW37588   3.330   1.155   9.577 -0.2679 -0.1044 -0.5608
 8710SOL    HW137589   3.356   1.065   9.557 -3.0416 -1.0369 -0.0263
 8710SOL    HW237590   3.375   1.179   9.657 -1.7441  1.2567 -0.1414
 8711SOL     OW37591   0.365   4.394   0.251  0.4641  0.9232 -0.3084
 8711SOL    HW137592   0.401   4.413   0.337  1.2887  3.5825 -1.2292
 8711SOL    HW237593   0.419   4.316   0.242  0.5547  0.8639  0.7357
 8712SOL     OW37594   4.303   1.552   6.248 -0.1486 -0.5470  0.2841
 8712SOL    HW137595   4.358   1.627   6.270  1.1426 -1.1790 -0.7578
 8712SOL    HW237596   4.348   1.482   6.296  1.0503 -0.7035 -1.0761
 8713SOL     OW37597   1.410   4.212  11.708  0.1710 -0.0993 -0.2203
 8713SOL    HW137598   1.428   4.227  11.801  1.1785  4.0592 -1.0879
 8713SOL    HW237599   1.442   4.296  11.674  1.1247 -0.9689 -1.4403
 8714SOL     OW37600   1.828   1.422  17.483  0.1226  0.2602  0.1735
 8714SOL    HW137601   1.742   1.431  17.522  0.8594 -1.4613  2.2127
 8714SOL    HW237602   1.882   1.372  17.545 -1.3798 -0.7280  0.6655
 8715SOL     OW37603   0.194   4.393   7.524 -0.6276 -0.0016 -0.1784
 8715SOL    HW137604   0.126   4.378   7.459  1.0329 -1.4850 -1.5784
 8715SOL    HW237605   0.268   4.425   7.471 -0.4744 -0.7243 -0.4145
 8716SOL     OW37606   0.874   1.707   5.394 -0.5528  0.1429 -0.9826
 8716SOL    HW137607   0.874   1.775   5.462 -0.2185 -0.1614 -0.6746
 8716SOL    HW237608   0.968   1.710   5.374 -0.1512  0.4031  0.9095
 8717SOL     OW37609   2.543   2.804   5.094 -0.0880 -0.3247  0.3249
 8717SOL    HW137610   2.547   2.708   5.094 -0.9069 -0.3672  2.2218
 8717SOL    HW237611   2.534   2.805   4.999 -3.3845  1.4900  0.6893
 8718SOL     OW37612   3.869   0.467   7.863 -0.4338  0.2218 -0.3832
 8718SOL    HW137613   3.926   0.518   7.806  0.6797  0.4741  0.9407
 8718SOL    HW237614   3.791   0.518   7.885  0.3830  1.2726  0.1011
 8719SOL     OW37615   0.988   4.443   1.610 -0.3478 -0.7901 -0.7819
 8719SOL    HW137616   0.940   4.406   1.684  0.6068  1.3259  0.8915
 8719SOL    HW237617   0.939   4.523   1.593 -0.3866 -0.4902  0.7780
 8720SOL     OW37618   2.321   1.732  13.555 -0.8208  0.6076 -0.1679
 8720SOL    HW137619   2.313   1.738  13.650  2.6325  0.1112  0.1499
 8720SOL    HW237620   2.353   1.819  13.533  1.8451 -0.6105 -1.1966
 8721SOL     OW37621   3.978   0.661   6.539 -0.2865  0.3703 -0.0286
 8721SOL    HW137622   3.957   0.698   6.624 -0.3861  1.2128 -0.4216
 8721SOL    HW237623   3.937   0.575   6.540  1.1381 -0.2674  2.5418
 8722SOL     OW37624   1.379   3.701   9.487 -0.3047 -0.2590  0.3772
 8722SOL    HW137625   1.339   3.681   9.402 -0.5393  0.4735  0.3165
 8722SOL    HW237626   1.310   3.666   9.543  0.4671  0.2347  1.6105
 8723SOL     OW37627   4.568   2.349  14.068  0.0127  0.2892 -0.1376
 8723SOL    HW137628   4.492   2.334  14.125 -0.5243 -1.8315 -1.4065
 8723SOL    HW237629   4.529   2.343  13.981  0.7562  0.2028 -0.4650
 8724SOL     OW37630   0.438   1.059   2.327 -0.1485 -0.2922 -0.1935
 8724SOL    HW137631   0.481   1.057   2.241 -0.6041  2.4887 -0.4930
 8724SOL    HW237632   0.484   0.997   2.383 -2.0396 -1.4042  0.1117
 8725SOL     OW37633   0.528   0.245   6.809 -0.4662 -0.3491  0.5353
 8725SOL    HW137634   0.586   0.235   6.884 -0.7271  0.6899  0.8731
 8725SOL    HW237635   0.497   0.335   6.819 -0.0673 -0.1465 -0.0278
 8726SOL     OW37636   3.760   4.458   4.005 -0.0688  1.0165 -0.0112
 8726SOL    HW137637   3.846   4.420   3.991 -1.6483 -2.4145 -0.4576
 8726SOL    HW237638   3.767   4.533   3.947  1.5430 -0.5251 -1.7905
 8727SOL     OW37639   1.157   4.267  15.012 -0.2057 -0.6334 -0.4020
 8727SOL    HW137640   1.125   4.217  14.936  1.2340 -1.6861 -0.3009
 8727SOL    HW237641   1.094   4.246  15.080  1.2409  1.8035  1.6644
 8728SOL     OW37642   2.703   1.513  13.098 -0.3922 -0.1197 -0.3194
 8728SOL    HW137643   2.687   1.451  13.170  2.0191  0.1251  0.4192
 8728SOL    HW237644   2.755   1.581  13.141 -0.3839  0.2100 -0.8579
 8729SOL     OW37645   3.230   3.013   3.960 -0.9585 -0.1699  0.5246
 8729SOL    HW137646   3.141   3.047   3.967 -1.5540 -0.9812 -3.0482
 8729SOL    HW237647   3.265   3.078   3.898  1.5323 -1.3083  0.7313
 8730SOL     OW37648   2.142   4.430  11.071 -0.2323 -0.6169  0.0654
 8730SOL    HW137649   2.230   4.407  11.044 -0.4206 -1.2359 -0.0200
 8730SOL    HW237650   2.100   4.344  11.070  0.4007 -0.9123 -0.6365
 8731SOL     OW37651   0.725   3.749  15.926 -0.0698 -0.5483 -0.2016
 8731SOL    HW137652   0.679   3.828  15.897  0.7052 -0.0151  0.0319
 8731SOL    HW237653   0.794   3.782  15.982  0.0373 -1.2355  0.0739
 8732SOL     OW37654   0.407   4.555   7.390 -0.1628  1.0809 -0.6569
 8732SOL    HW137655   0.421   4.572   7.483 -0.3937 -1.5084 -0.1260
 8732SOL    HW237656   0.479   4.604   7.350  2.4149 -1.6045  0.6012
 8733SOL     OW37657   2.148   2.901   5.338  0.1702  0.7658 -0.3656
 8733SOL    HW137658   2.052   2.902   5.336  0.1528 -1.5987 -0.3139
 8733SOL    HW237659   2.174   2.921   5.248  0.5690 -0.5640 -0.5422
 8734SOL     OW37660   0.422   1.156   6.143  0.6619  0.1457  0.1747
 8734SOL    HW137661   0.430   1.227   6.080 -0.7064  1.0369  1.0029
 8734SOL    HW237662   0.359   1.105   6.092 -0.3700  1.6632 -0.0689
 8735SOL     OW37663   3.854   3.125  16.602  0.2862 -0.5235  0.6254
 8735SOL    HW137664   3.775   3.076  16.626 -2.1826  2.7838 -0.8691
 8735SOL    HW237665   3.925   3.062  16.592  1.5841  0.9558  0.5674
 8736SOL     OW37666   0.630   3.862   0.728 -0.1384  0.1177 -0.3567
 8736SOL    HW137667   0.715   3.824   0.704  0.1323  1.1550 -1.0459
 8736SOL    HW237668   0.655   3.887   0.817 -2.4305  1.6385 -0.1396
 8737SOL     OW37669   2.792   2.503  13.946  0.0878  0.3415  0.0213
 8737SOL    HW137670   2.863   2.566  13.931  0.2601  0.1108 -0.1393
 8737SOL    HW237671   2.808   2.429  13.887 -1.9637  0.4105 -0.6110
 8738SOL     OW37672   2.292   2.584   9.543  0.2567 -0.8208  0.0413
 8738SOL    HW137673   2.199   2.598   9.522  0.2957  1.6054  1.5459
 8738SOL    HW237674   2.305   2.608   9.634  0.7325  0.2501 -0.2997
 8739SOL     OW37675   1.640   0.717   7.440  0.3008  0.5732 -0.0817
 8739SOL    HW137676   1.557   0.764   7.447  1.9246  3.2605  1.2433
 8739SOL    HW237677   1.679   0.730   7.354  3.5828  0.9092  1.4559
 8740SOL     OW37678   0.354   1.105   1.595 -0.6367  0.1092  0.5446
 8740SOL    HW137679   0.377   1.196   1.576 -0.6366 -0.1726 -0.8116
 8740SOL    HW237680   0.261   1.117   1.576 -1.1900 -0.6518  2.7479
 8741SOL     OW37681   4.486   2.516   9.124 -0.1416 -0.3253 -0.2039
 8741SOL    HW137682   4.471   2.559   9.209  1.9472 -1.6973  0.8518
 8741SOL    HW237683   4.558   2.454   9.137  0.7725  1.0350  1.2829
 8742SOL     OW37684   1.723   0.244   6.771  0.3902 -0.7163 -0.3781
 8742SOL    HW137685   1.754   0.278   6.856 -0.1724  2.4906 -1.4499
 8742SOL    HW237686   1.751   0.153   6.776  1.2580 -0.4262  0.1032
 8743SOL     OW37687   2.466   2.040   4.817 -0.3571 -0.1727  0.0170
 8743SOL    HW137688   2.509   2.126   4.818 -2.5749  0.9186  2.0310
 8743SOL    HW237689   2.373   2.052   4.801 -0.2849  2.1570  1.2677
 8744SOL     OW37690   0.759   3.329   5.616  0.1479  0.1545 -0.7616
 8744SOL    HW137691   0.761   3.424   5.630  0.9535  0.0560 -0.2503
 8744SOL    HW237692   0.664   3.317   5.618  0.0193  1.2603 -0.4241
 8745SOL     OW37693   2.274   0.320   3.010  0.5177  0.1033  0.5658
 8745SOL    HW137694   2.296   0.409   3.035 -0.5287  1.2901 -2.6993
 8745SOL    HW237695   2.367   0.296   2.999  1.2126  3.0787  0.0640
 8746SOL     OW37696   3.497   4.558  10.836  0.1668 -0.6629 -0.1226
 8746SOL    HW137697   3.580   4.582  10.795  0.7236  0.5838  1.7178
 8746SOL    HW237698   3.468   4.476  10.797 -1.7472 -0.3015  0.5558
 8747SOL     OW37699   2.878   2.501  13.479  0.3345 -0.5662 -0.2315
 8747SOL    HW137700   2.900   2.435  13.413  1.3895  1.1131 -1.5715
 8747SOL    HW237701   2.939   2.574  13.478  0.6299 -0.8418 -2.1348
 8748SOL     OW37702   2.634   3.487  13.320 -0.0141  0.0024  0.5798
 8748SOL    HW137703   2.541   3.476  13.339 -0.0349 -0.3483  0.2696
 8748SOL    HW237704   2.675   3.516  13.401  0.0264 -1.9924  1.2464
 8749SOL     OW37705   0.434   2.965  16.256  0.3196 -0.3783  0.2729
 8749SOL    HW137706   0.484   3.047  16.258 -0.1859 -0.1046  2.0149
 8749SOL    HW237707   0.432   2.942  16.349  1.2481 -0.4461  0.2742
 8750SOL     OW37708   0.967   4.289   8.833 -0.0935  0.2572  0.1126
 8750SOL    HW137709   1.053   4.300   8.874 -0.0288 -1.7898  0.4902
 8750SOL    HW237710   0.985   4.214   8.777 -0.9293 -0.0672  0.2758
 8751SOL     OW37711   1.419   0.200   9.927 -0.2561  0.2269 -0.1167
 8751SOL    HW137712   1.422   0.142   9.852 -0.9988 -1.5427  1.2168
 8751SOL    HW237713   1.498   0.170   9.972 -0.1127  1.0345  0.1796
 8752SOL     OW37714   1.709   2.728   2.285  0.4303  0.8893  0.0313
 8752SOL    HW137715   1.633   2.726   2.344  0.4212  0.7751  0.0153
 8752SOL    HW237716   1.727   2.821   2.277  0.5738  0.8006 -0.6414
 8753SOL     OW37717   1.054   2.133   4.938  0.0595 -0.8004  0.2853
 8753SOL    HW137718   1.013   2.126   4.851 -0.2631  0.4058  0.3387
 8753SOL    HW237719   1.011   2.061   4.984 -3.9517 -0.4413 -2.8496
 8754SOL     OW37720   4.643   0.702   8.002  0.3535  0.1289  0.4465
 8754SOL    HW137721   4.712   0.738   7.947  0.6630 -1.5418 -0.2523
 8754SOL    HW237722   4.613   0.774   8.058  2.6049  2.1354 -0.9227
 8755SOL     OW37723   3.455   3.925   7.557 -0.3419 -0.2721  0.1808
 8755SOL    HW137724   3.412   3.897   7.477 -0.5356 -1.6649  0.7860
 8755SOL    HW237725   3.453   4.020   7.545 -0.7974 -0.1734  1.0296
 8756SOL     OW37726   2.644   0.231   9.811 -0.7616 -0.4977  0.1638
 8756SOL    HW137727   2.681   0.143   9.820 -1.1027 -0.7286 -0.6941
 8756SOL    HW237728   2.689   0.285   9.876 -1.4121 -0.0069  0.2068
 8757SOL     OW37729   0.802   1.300  16.645 -0.5703  0.4043  0.4121
 8757SOL    HW137730   0.807   1.320  16.551 -0.6551  0.5309  0.4343
 8757SOL    HW237731   0.890   1.274  16.673 -0.6289 -0.1543  0.0758
 8758SOL     OW37732   3.340   3.994  14.909  0.0598  0.1075 -0.4708
 8758SOL    HW137733   3.385   3.959  14.832 -1.1047  0.6340 -1.3964
 8758SOL    HW237734   3.404   4.056  14.943  0.5653 -0.8756  0.3766
 8759SOL     OW37735   1.240   2.803  13.438 -0.2081 -0.0008  0.0125
 8759SOL    HW137736   1.329   2.833  13.454  0.0756 -0.6048 -0.4429
 8759SOL    HW237737   1.218   2.761  13.521  0.8541  0.0376  0.3042
 8760SOL     OW37738   3.137   1.048   8.656  0.0572  0.2902  0.2038
 8760SOL    HW137739   3.156   1.014   8.568  1.3363  0.2746  0.4771
 8760SOL    HW237740   3.120   0.964   8.699 -0.4567  0.2235 -0.1313
 8761SOL     OW37741   1.140   1.538   6.867  0.1157 -0.0330 -0.0204
 8761SOL    HW137742   1.089   1.520   6.945  0.8808  0.7617  0.6650
 8761SOL    HW237743   1.075   1.560   6.800  1.8343 -2.4320 -2.4487
 8762SOL     OW37744   0.042   1.902   5.005  0.3364  0.2473  0.3370
 8762SOL    HW137745   0.046   1.926   5.097  0.4952 -1.5168  0.7953
 8762SOL    HW237746   0.135   1.886   4.990  0.1826  0.8173 -1.2841
 8763SOL     OW37747   0.028   0.133  14.817 -0.1477  0.1438  0.0871
 8763SOL    HW137748   4.702   0.057  14.841  2.1594 -0.6659  2.4711
 8763SOL    HW237749   0.065   0.111  14.731  1.1887 -1.7317  1.1548
 8764SOL     OW37750   1.471   2.424  12.904  0.0997  0.4119 -0.6606
 8764SOL    HW137751   1.513   2.359  12.960  2.9352  2.9103  0.1087
 8764SOL    HW237752   1.466   2.381  12.818 -0.9600  1.6397 -1.2155
 8765SOL     OW37753   2.218   2.040   4.743  0.0645  1.0851  0.5334
 8765SOL    HW137754   2.218   2.089   4.660  3.1534  0.3487  0.0877
 8765SOL    HW237755   2.131   2.063   4.775  0.1214  0.2496  1.2788
 8766SOL     OW37756   3.867   3.098  12.747  0.0429  0.8594 -0.0871
 8766SOL    HW137757   3.905   3.131  12.666  0.2503 -2.5073 -1.3496
 8766SOL    HW237758   3.907   3.165  12.802 -2.1213  1.1998  1.0850
 8767SOL     OW37759   1.434   0.338   2.266 -0.6980  0.3080  0.6293
 8767SOL    HW137760   1.464   0.429   2.266  1.0018 -0.2543  2.5470
 8767SOL    HW237761   1.444   0.308   2.175 -0.3258 -1.1198  1.1540
 8768SOL     OW37762   3.234   1.650  10.952  0.6471  0.1094  0.0857
 8768SOL    HW137763   3.268   1.611  10.872  3.9650  1.3927  0.8429
 8768SOL    HW237764   3.305   1.624  11.011  0.2555 -0.6959  0.1953
 8769SOL     OW37765   1.029   4.459   2.719  0.1114 -0.1499  0.1627
 8769SOL    HW137766   0.958   4.519   2.741  1.0517  0.3882  1.7220
 8769SOL    HW237767   0.978   4.389   2.679  0.0261 -0.4755  0.8332
 8770SOL     OW37768   0.836   1.654   1.271 -0.0939  0.8020 -0.3863
 8770SOL    HW137769   0.773   1.601   1.320 -1.3202  2.7209  0.0892
 8770SOL    HW237770   0.916   1.640   1.321  0.0113 -0.4162 -0.8830
 8771SOL     OW37771   0.036   3.579  10.927  0.4829 -0.5397  0.2058
 8771SOL    HW137772   0.020   3.660  10.976 -0.3812  0.7591 -2.2085
 8771SOL    HW237773   0.091   3.520  10.978 -0.9748 -0.6800  1.6350
 8772SOL     OW37774   1.859   3.650   8.827 -0.1730 -0.5894  0.1367
 8772SOL    HW137775   1.805   3.716   8.870 -0.4558  0.0396 -1.1544
 8772SOL    HW237776   1.859   3.589   8.901  1.0545 -0.3445  0.3391
 8773SOL     OW37777   0.742   4.036   4.995  0.4016 -0.2906  0.3294
 8773SOL    HW137778   0.814   3.975   4.983  0.3598 -0.3883  0.5781
 8773SOL    HW237779   0.698   3.995   5.069 -1.1781  0.7616 -0.0261
 8774SOL     OW37780   3.546   2.485   6.587  0.1812 -0.4711  0.4304
 8774SOL    HW137781   3.482   2.525   6.647  1.5212  0.9190  0.9494
 8774SOL    HW237782   3.483   2.449   6.525 -0.4113  0.0587  0.7223
 8775SOL     OW37783   1.273   4.228   5.793  0.1235  0.3709  0.2754
 8775SOL    HW137784   1.355   4.217   5.841  0.2753 -2.1503 -0.5924
 8775SOL    HW237785   1.207   4.246   5.861  0.4774  1.2793  0.3791
 8776SOL     OW37786   1.646   2.942  16.873 -0.1391  0.0271  0.2340
 8776SOL    HW137787   1.701   2.878  16.828  0.4805  0.8451 -0.1756
 8776SOL    HW237788   1.656   2.908  16.961  1.0147  2.5171  1.0542
 8777SOL     OW37789   2.316   3.075   0.205  0.0168 -0.2397 -0.3053
 8777SOL    HW137790   2.253   3.128   0.157 -1.4239 -1.5723  0.1220
 8777SOL    HW237791   2.395   3.110   0.164  2.0457 -1.3214  2.6530
 8778SOL     OW37792   0.655   4.333   3.042  0.3009  0.7030 -0.5170
 8778SOL    HW137793   0.627   4.341   3.133  1.9925  1.6944 -0.0743
 8778SOL    HW237794   0.705   4.252   3.053  0.0293  0.6394  0.2484
 8779SOL     OW37795   1.908   0.890   3.559  0.1262 -0.1070  0.2226
 8779SOL    HW137796   1.955   0.845   3.628  1.4467  1.6216  0.4492
 8779SOL    HW237797   1.932   0.981   3.578  0.3690 -0.1720  0.2183
 8780SOL     OW37798   0.831   3.425   2.701 -0.5462  0.2104 -0.3500
 8780SOL    HW137799   0.839   3.384   2.787 -4.2063 -0.9140 -0.5633
 8780SOL    HW237800   0.765   3.493   2.711  0.5435  1.3986 -1.2852
 8781SOL     OW37801   2.556   1.726  14.292 -0.4797 -0.4772  0.2141
 8781SOL    HW137802   2.608   1.658  14.334 -1.2998 -2.0053 -1.2271
 8781SOL    HW237803   2.472   1.695  14.327  0.1899  0.0984  2.2973
 8782SOL     OW37804   2.440   1.238  15.443  0.5609  0.4131 -0.3251
 8782SOL    HW137805   2.368   1.300  15.442  1.8946  1.9685 -1.0029
 8782SOL    HW237806   2.504   1.281  15.385  0.7938 -0.2094 -0.5398
 8783SOL     OW37807   1.260   0.185  13.938 -0.6663  0.1384  0.4908
 8783SOL    HW137808   1.184   0.155  13.889  0.5893 -0.6139 -0.9791
 8783SOL    HW237809   1.335   0.139  13.900 -0.2278 -0.1340  1.6811
 8784SOL     OW37810   0.896   4.709   3.088 -0.3865 -0.1653 -0.0680
 8784SOL    HW137811   0.836   4.652   3.039 -0.6262  1.8006 -2.0341
 8784SOL    HW237812   0.859   4.694   3.175 -1.0660 -1.5791 -0.5955
 8785SOL     OW37813   0.317   1.448  10.985 -0.4644 -0.4220  0.0640
 8785SOL    HW137814   0.231   1.409  11.004 -0.5380 -1.1584 -1.7960
 8785SOL    HW237815   0.357   1.434  11.071  0.8751  1.5797 -0.2275
 8786SOL     OW37816   3.244   0.686  10.862 -0.5958  0.0827 -0.1674
 8786SOL    HW137817   3.190   0.611  10.837  0.2371 -0.1862 -1.1344
 8786SOL    HW237818   3.241   0.678  10.958  1.0707 -2.6090 -0.3492
 8787SOL     OW37819   3.480   1.322  11.593  0.3058 -0.0083 -0.0825
 8787SOL    HW137820   3.537   1.276  11.531 -3.5460 -2.0655 -2.1242
 8787SOL    HW237821   3.436   1.383  11.534  1.7291 -0.3433 -1.4897
 8788SOL     OW37822   3.012   4.716   4.506  0.5351  0.1303 -0.0888
 8788SOL    HW137823   3.030   0.072   4.552 -0.7086  0.5624 -0.3678
 8788SOL    HW237824   3.083   4.663   4.542  0.2869 -0.1370  0.0094
 8789SOL     OW37825   2.275   2.894   4.840  0.1693 -0.0939  0.0472
 8789SOL    HW137826   2.260   2.909   4.933  2.0058  1.5334  0.0889
 8789SOL    HW237827   2.235   2.974   4.805  0.0834  1.0975  2.8855
 8790SOL     OW37828   1.779   0.182  17.367  0.4745  0.3084 -0.0239
 8790SOL    HW137829   1.811   0.196  17.456 -1.3082  0.3330  0.5978
 8790SOL    HW237830   1.837   0.112  17.337 -0.6419 -1.3999  1.8323
 8791SOL     OW37831   2.168   1.299   1.057 -0.2609  0.0010 -0.4657
 8791SOL    HW137832   2.207   1.267   0.976 -1.3001 -1.7868 -0.2446
 8791SOL    HW237833   2.090   1.342   1.020 -1.1034 -0.5988  0.6193
 8792SOL     OW37834   1.926   4.237   9.841 -0.4376  0.1920 -0.1026
 8792SOL    HW137835   1.979   4.233   9.921  0.5423  2.0028 -0.6401
 8792SOL    HW237836   1.863   4.302   9.872  0.0710  1.4738 -1.7276
 8793SOL     OW37837   3.343   3.681   7.012  0.1365 -0.1938  0.0986
 8793SOL    HW137838   3.366   3.764   7.053  2.4292  0.5608 -2.7944
 8793SOL    HW237839   3.398   3.615   7.054 -0.6410 -0.5843  0.5124
 8794SOL     OW37840   1.540   0.835   6.811 -0.5796  0.8378  0.1947
 8794SOL    HW137841   1.450   0.863   6.828 -0.1412  2.1087  0.4398
 8794SOL    HW237842   1.571   0.925   6.820 -2.2972  1.5948 -1.4429
 8795SOL     OW37843   0.758   0.087   8.141  0.7736 -0.0148  0.2964
 8795SOL    HW137844   0.756   0.004   8.190  2.0641 -0.3660 -0.2432
 8795SOL    HW237845   0.801   0.062   8.059  2.0150  0.0699  0.9210
 8796SOL     OW37846   0.544   1.471   1.770 -0.1504  0.3673  0.1268
 8796SOL    HW137847   0.556   1.564   1.749 -3.6248  1.1996  1.8270
 8796SOL    HW237848   0.539   1.448   1.677 -2.0542 -0.6647  0.4797
 8797SOL     OW37849   0.831   3.016  12.173  0.4567  0.0236  0.5936
 8797SOL    HW137850   0.758   3.074  12.154 -0.6465 -1.1708  1.2145
 8797SOL    HW237851   0.853   2.981  12.087 -0.8096 -0.1065  0.3328
 8798SOL     OW37852   1.098   0.147   5.227 -0.2059 -0.1126  0.3569
 8798SOL    HW137853   1.175   0.092   5.212 -0.8315 -0.5315 -1.3532
 8798SOL    HW237854   1.133   0.204   5.295 -0.3688  0.0586  0.2943
 8799SOL     OW37855   2.700   1.931   8.644 -0.7075  0.0239 -0.3569
 8799SOL    HW137856   2.796   1.937   8.646 -0.6268 -1.7733  1.5616
 8799SOL    HW237857   2.688   1.988   8.720  1.8987 -0.1670  0.2181
 8800SOL     OW37858   2.193   0.645  10.317 -1.0755  0.3541  0.3537
 8800SOL    HW137859   2.280   0.681  10.299 -0.1000 -1.5292  1.2109
 8800SOL    HW237860   2.139   0.712  10.277 -2.8567 -0.6535  1.1003
 8801SOL     OW37861   1.454   2.821   4.837  0.0667  0.1039  0.1277
 8801SOL    HW137862   1.432   2.733   4.868 -1.7594  0.0419 -1.3483
 8801SOL    HW237863   1.372   2.843   4.792  0.5468 -0.2114 -0.8971
 8802SOL     OW37864   3.355   1.056   4.706  0.2853 -0.1653 -0.0049
 8802SOL    HW137865   3.358   0.969   4.665 -0.9266  0.0727 -0.6057
 8802SOL    HW237866   3.326   1.022   4.790  0.3136  0.9090  0.4355
 8803SOL     OW37867   3.711   1.055  10.071  0.0244  0.3384 -0.3140
 8803SOL    HW137868   3.657   0.984  10.107  0.1131  0.5506  0.2321
 8803SOL    HW237869   3.765   1.007  10.008  1.7671 -0.5910  1.8858
 8804SOL     OW37870   1.011   2.514  11.143 -0.0172 -0.0246  0.0113
 8804SOL    HW137871   1.014   2.419  11.148  1.4972  0.0144 -0.2420
 8804SOL    HW237872   0.938   2.524  11.081  1.1743  0.4235 -1.3430
 8805SOL     OW37873   1.010   1.040   7.362  0.3744 -0.1943  0.1150
 8805SOL    HW137874   0.915   1.054   7.364  0.0381 -2.5167  1.2393
 8805SOL    HW237875   1.038   1.046   7.453  2.5871 -0.6646 -0.5254
 8806SOL     OW37876   1.975   0.703  12.163 -0.4904  0.4141  0.0915
 8806SOL    HW137877   1.954   0.759  12.238 -1.9102 -1.5909  1.2102
 8806SOL    HW237878   2.061   0.670  12.189 -0.6886  0.1287  0.3885
 8807SOL     OW37879   0.193   2.638  12.547  0.0387  0.0748 -0.3301
 8807SOL    HW137880   0.099   2.635  12.563  0.2352  2.9007  1.1985
 8807SOL    HW237881   0.205   2.713  12.489 -0.2847  0.2662 -0.1443
 8808SOL     OW37882   2.549   2.895   5.810  0.1464 -0.3081 -0.7819
 8808SOL    HW137883   2.560   2.823   5.748  0.1321 -2.4172  1.6822
 8808SOL    HW237884   2.541   2.968   5.749  0.9338 -0.2903 -0.8568
 8809SOL     OW37885   4.537   4.470  17.668  0.3235  0.3913 -0.1810
 8809SOL    HW137886   4.554   4.523   0.042 -1.1657 -0.0151  0.4403
 8809SOL    HW237887   4.580   4.386  17.687 -2.3273 -0.8157  0.6354
 8810SOL     OW37888   1.947   2.760   1.786 -0.2992 -0.1424  0.5040
 8810SOL    HW137889   2.036   2.725   1.794 -1.0229 -1.7925  1.5367
 8810SOL    HW237890   1.898   2.677   1.788 -3.1153  1.5170  0.7683
 8811SOL     OW37891   2.673   0.054   5.271 -0.5176 -0.0877 -0.2239
 8811SOL    HW137892   2.610   0.107   5.223  0.7027  2.7996  1.3665
 8811SOL    HW237893   2.608   0.020   5.332  0.6501  0.7718  1.5021
 8812SOL     OW37894   3.225   3.655  16.279  0.1083 -0.3821 -0.0964
 8812SOL    HW137895   3.230   3.568  16.240  1.3156  0.2638 -1.3795
 8812SOL    HW237896   3.308   3.661  16.326 -0.4011 -2.5776  1.0562
 8813SOL     OW37897   0.348   3.281  11.032 -0.5936 -0.6055  0.0212
 8813SOL    HW137898   0.362   3.373  11.055 -0.1393 -0.5829 -0.3528
 8813SOL    HW237899   0.255   3.275  11.053 -0.7047 -0.8155 -0.5252
 8814SOL     OW37900   0.670   3.011  15.710 -0.7540  0.3323 -0.4604
 8814SOL    HW137901   0.758   3.020  15.674 -1.0460 -0.4125 -1.3671
 8814SOL    HW237902   0.670   3.068  15.786 -0.9420 -2.5962  1.7205
 8815SOL     OW37903   3.448   4.672   0.200  0.2843 -0.6287  0.2629
 8815SOL    HW137904   3.409   4.677   0.287 -1.5473  0.5524 -0.6114
 8815SOL    HW237905   3.448   4.579   0.179  0.8551 -0.7039  0.6094
 8816SOL     OW37906   3.474   1.199   6.021 -0.0862 -0.4452  0.2566
 8816SOL    HW137907   3.398   1.156   6.061 -0.4078 -0.0289  0.0988
 8816SOL    HW237908   3.547   1.168   6.075 -0.0779  0.2959  0.6739
 8817SOL     OW37909   3.731   0.195  15.026  0.4354 -0.6228  0.8496
 8817SOL    HW137910   3.696   0.180  15.114  0.6481  1.1856  1.2348
 8817SOL    HW237911   3.814   0.237  15.046  1.1362 -2.5093  1.9521
 8818SOL     OW37912   2.233   3.677   6.562 -0.1884 -0.3237 -0.2390
 8818SOL    HW137913   2.289   3.677   6.639  0.6500 -0.3889 -0.8411
 8818SOL    HW237914   2.215   3.768   6.539  0.5025 -0.1533 -0.0925
 8819SOL     OW37915   3.460   0.338   7.786  0.5588 -0.2251 -0.4556
 8819SOL    HW137916   3.552   0.332   7.763  1.1192 -1.6078  2.2014
 8819SOL    HW237917   3.429   0.402   7.721 -2.3657 -1.9113 -0.7161
 8820SOL     OW37918   0.332   1.621  13.491  0.1953  0.1529 -0.2854
 8820SOL    HW137919   0.284   1.656  13.566 -0.1668 -2.6277  0.7798
 8820SOL    HW237920   0.421   1.646  13.516  0.3384  1.3925 -2.0615
 8821SOL     OW37921   0.822   3.804   3.842 -0.2477 -0.2677 -0.0021
 8821SOL    HW137922   0.743   3.836   3.799  0.2974 -0.3952 -1.0977
 8821SOL    HW237923   0.876   3.792   3.764  0.5119 -0.1115  0.5081
 8822SOL     OW37924   4.261   2.158   2.591  0.4758 -0.0365  0.2263
 8822SOL    HW137925   4.312   2.231   2.557  0.0041  0.9713  1.6554
 8822SOL    HW237926   4.217   2.127   2.512  0.2999 -0.0255  0.3180
 8823SOL     OW37927   2.452   0.619   9.413 -0.1300 -0.5771 -0.1843
 8823SOL    HW137928   2.373   0.624   9.360  0.1626  1.3145 -0.4549
 8823SOL    HW237929   2.493   0.702   9.389 -0.9060 -0.1161  0.0980
 8824SOL     OW37930   4.615   4.212   5.566 -0.6844  0.0088  0.1497
 8824SOL    HW137931   4.670   4.249   5.496 -2.8224  0.3654 -1.3257
 8824SOL    HW237932   4.637   4.268   5.641  2.0415 -0.5616 -0.2067
 8825SOL     OW37933   2.667   4.064   8.471  0.2585  0.3414  0.1856
 8825SOL    HW137934   2.711   4.027   8.394 -0.2904 -1.3321  0.7016
 8825SOL    HW237935   2.681   3.998   8.538 -0.1219 -2.1800 -2.2324
 8826SOL     OW37936   3.910   2.061   0.146  0.3132  0.0109  0.2954
 8826SOL    HW137937   3.887   1.986   0.200 -2.7319 -0.2017 -1.3226
 8826SOL    HW237938   3.996   2.076   0.185  0.1658  1.2940  0.1209
 8827SOL     OW37939   4.073   2.610   6.420 -0.5319 -0.2931  0.1698
 8827SOL    HW137940   4.096   2.648   6.335 -0.1272 -1.7778 -0.4007
 8827SOL    HW237941   3.979   2.624   6.421 -0.5531 -0.1927 -1.9151
 8828SOL     OW37942   3.034   3.512   5.267 -0.0852  0.1222 -0.3336
 8828SOL    HW137943   3.073   3.523   5.180 -1.5904 -0.8487 -1.1249
 8828SOL    HW237944   3.024   3.605   5.289 -1.2278 -0.2942  0.8629
 8829SOL     OW37945   1.236   1.036  12.836 -0.1369 -0.3022 -0.0236
 8829SOL    HW137946   1.195   1.005  12.755 -1.0085  0.2923  0.1908
 8829SOL    HW237947   1.164   1.024  12.898  0.0079 -0.3681  0.1309
 8830SOL     OW37948   3.996   2.008   4.812  0.0896 -0.7311 -0.4721
 8830SOL    HW137949   3.926   2.052   4.764  2.0411  1.0315 -1.6816
 8830SOL    HW237950   3.956   1.985   4.896 -0.6735 -0.9870 -0.9101
 8831SOL     OW37951   4.141   0.930   1.151  0.1796 -0.3882  0.7125
 8831SOL    HW137952   4.226   0.902   1.117  0.0690  0.8130 -0.5539
 8831SOL    HW237953   4.171   0.971   1.233 -1.3978 -1.5690  1.8769
 8832SOL     OW37954   1.315   0.157   6.251 -0.4273  0.7007 -0.3083
 8832SOL    HW137955   1.289   0.227   6.312 -0.7364 -0.0241  0.3958
 8832SOL    HW237956   1.259   0.086   6.284 -0.5742  0.7657 -0.4179
 8833SOL     OW37957   3.611   0.521  14.161 -0.1393  0.3982 -0.4090
 8833SOL    HW137958   3.530   0.506  14.113 -2.1528  1.9215  2.5820
 8833SOL    HW237959   3.642   0.589  14.100  1.2437 -0.1937 -0.3606
 8834SOL     OW37960   3.758   2.580   6.448 -0.0369 -0.1402  0.1763
 8834SOL    HW137961   3.747   2.595   6.354 -1.4048  0.8167  0.4829
 8834SOL    HW237962   3.685   2.523   6.472  0.2806 -1.2413 -1.4984
 8835SOL     OW37963   1.546   0.969   4.714  0.0544  0.3774 -0.6912
 8835SOL    HW137964   1.499   1.045   4.749  1.9818  0.5216  1.5578
 8835SOL    HW237965   1.564   0.927   4.798  1.1723  2.5523  0.1831
 8836SOL     OW37966   4.338   1.124   0.155 -0.1035 -0.4834 -0.3136
 8836SOL    HW137967   4.401   1.082   0.096  2.1436 -0.2456  1.9552
 8836SOL    HW237968   4.284   1.049   0.178 -0.4605 -0.2357 -0.3396
 8837SOL     OW37969   2.701   0.619   0.605 -0.3225 -0.3287 -0.5900
 8837SOL    HW137970   2.608   0.625   0.627 -0.2189  1.5693 -0.6136
 8837SOL    HW237971   2.725   0.709   0.629 -0.2304 -0.8706  1.3672
 8838SOL     OW37972   0.781   2.389   2.964  0.1893 -0.0739 -0.0297
 8838SOL    HW137973   0.720   2.319   2.940  0.8288 -0.6916  0.1710
 8838SOL    HW237974   0.837   2.345   3.027 -1.6904  0.6487  2.1847
 8839SOL     OW37975   1.742   1.942  15.336 -0.4010 -0.4030 -0.5952
 8839SOL    HW137976   1.689   1.958  15.258 -0.9742 -0.3069 -0.1858
 8839SOL    HW237977   1.791   1.862  15.319 -0.4143 -0.3244 -0.9954
 8840SOL     OW37978   1.946   1.511   1.249  0.6041  0.4063 -0.6864
 8840SOL    HW137979   2.029   1.485   1.288  0.3126 -1.3884 -1.2877
 8840SOL    HW237980   1.894   1.549   1.320  0.1053 -2.4111  0.4225
 8841SOL     OW37981   2.817   1.733   3.211  0.1474 -0.3910 -0.0438
 8841SOL    HW137982   2.812   1.746   3.117 -1.5012 -0.0952  0.0834
 8841SOL    HW237983   2.880   1.798   3.240  0.0182 -0.6907  0.9235
 8842SOL     OW37984   4.550   4.088   6.869 -0.1006  0.1851 -0.0928
 8842SOL    HW137985   4.470   4.051   6.907 -0.0815 -1.7670 -1.9526
 8842SOL    HW237986   4.516   4.142   6.797  0.3810  2.8414  1.6475
 8843SOL     OW37987   0.661   0.129  10.635  0.2620 -0.2053 -0.2203
 8843SOL    HW137988   0.645   0.099  10.546  0.6585  0.5577 -0.5501
 8843SOL    HW237989   0.753   0.156  10.625  0.6929 -1.8530 -0.7283
 8844SOL     OW37990   2.159   3.901   0.968  0.4356  0.0733 -0.0636
 8844SOL    HW137991   2.165   3.979   0.913  1.3974  0.6285  0.8287
 8844SOL    HW237992   2.146   3.944   1.053  0.1248 -0.9655  0.4182
 8845SOL     OW37993   1.032   3.026   8.901  0.5381 -0.0057  0.1606
 8845SOL    HW137994   0.948   3.037   8.944  0.5532  3.8945 -0.7211
 8845SOL    HW237995   1.080   3.091   8.953  1.7459  0.3691 -1.3890
 8846SOL     OW37996   2.764   2.503   3.819 -0.4315 -0.0293 -0.1673
 8846SOL    HW137997   2.803   2.416   3.826 -2.2496 -0.7740  0.4607
 8846SOL    HW237998   2.703   2.511   3.891 -0.3206 -3.4362  0.2995
 8847SOL     OW37999   0.613   0.236  14.432 -0.2209  0.4456  0.0853
 8847SOL    HW138000   0.660   0.166  14.477 -1.2526  0.4899  1.2327
 8847SOL    HW238001   0.641   0.217  14.342 -1.3357  1.1021 -0.3908
 8848SOL     OW38002   1.730   4.076   0.433  0.8218 -0.4231 -0.0743
 8848SOL    HW138003   1.776   4.058   0.515  0.4741 -0.5586  0.0893
 8848SOL    HW238004   1.679   4.156   0.445  1.9965  0.2489  0.5130
 8849SOL     OW38005   2.013   3.930   3.909  0.0278  0.4150  0.1195
 8849SOL    HW138006   2.013   4.016   3.866 -0.8122  1.4409  2.1721
 8849SOL    HW238007   2.055   3.962   3.989  2.4740 -0.9145 -0.6454
 8850SOL     OW38008   4.142   3.853   9.728  0.5951  0.1279  0.4818
 8850SOL    HW138009   4.058   3.836   9.686  0.2411  0.6959  0.9564
 8850SOL    HW238010   4.132   3.947   9.738 -1.6297 -0.0249 -0.2906
 8851SOL     OW38011   2.877   0.621   4.471  0.2633 -0.0969  0.2263
 8851SOL    HW138012   2.865   0.605   4.377 -0.0529 -1.2090  0.4654
 8851SOL    HW238013   2.790   0.599   4.505  0.4279 -0.0863  0.6533
 8852SOL     OW38014   1.649   3.216  12.452  0.9071 -0.1493 -0.1141
 8852SOL    HW138015   1.704   3.150  12.410  0.7577 -0.2821 -0.0998
 8852SOL    HW238016   1.657   3.288  12.389  1.6981 -0.7813 -0.7405
 8853SOL     OW38017   2.555   1.941  13.557 -0.4171  0.2815  0.5439
 8853SOL    HW138018   2.564   2.036  13.556  2.1410  0.0524  0.3605
 8853SOL    HW238019   2.628   1.922  13.497  0.8103  2.1709  1.4409
 8854SOL     OW38020   2.848   4.229  17.627 -0.3198 -0.3784  0.5132
 8854SOL    HW138021   2.877   4.173  17.554 -0.0462 -0.2377  0.5121
 8854SOL    HW238022   2.753   4.217  17.631 -0.5755  1.4773 -0.0147
 8855SOL     OW38023   3.566   0.414  12.693  0.2041 -0.0045  0.4120
 8855SOL    HW138024   3.576   0.344  12.629  1.6525 -0.0642  0.7159
 8855SOL    HW238025   3.470   0.421  12.699  0.1123 -0.1886 -0.9043
 8856SOL     OW38026   3.093   3.781   8.540 -0.2763 -0.1158 -0.7745
 8856SOL    HW138027   3.056   3.700   8.504 -0.0404 -0.6802  0.2572
 8856SOL    HW238028   3.174   3.791   8.489 -0.3031 -0.6858 -0.9352
 8857SOL     OW38029   1.837   4.372   5.258  0.2513  0.7346 -0.6895
 8857SOL    HW138030   1.785   4.422   5.321  2.0296  1.8563 -0.1186
 8857SOL    HW238031   1.915   4.370   5.313 -0.6386 -0.2588  0.5347
 8858SOL     OW38032   0.633   3.202   6.495 -0.5675 -0.4248  0.1482
 8858SOL    HW138033   0.648   3.174   6.405 -0.4526 -1.5177  0.5098
 8858SOL    HW238034   0.553   3.154   6.518 -0.3319 -0.5927  0.6070
 8859SOL     OW38035   2.478   3.623  14.095  0.1997 -0.2227  0.3266
 8859SOL    HW138036   2.530   3.542  14.103  2.9769  1.3596 -1.7912
 8859SOL    HW238037   2.519   3.682  14.159  0.4687  0.1627 -0.2076
 8860SOL     OW38038   0.619   4.272   7.538 -0.0896 -0.1130 -0.5876
 8860SOL    HW138039   0.582   4.195   7.580  0.7178 -0.6530 -0.8666
 8860SOL    HW238040   0.607   4.339   7.606  1.9862 -1.0773  0.7330
 8861SOL     OW38041   3.541   0.415   2.536  0.6117 -0.1134 -0.4999
 8861SOL    HW138042   3.614   0.356   2.559  2.0591  0.1303 -4.4665
 8861SOL    HW238043   3.588   0.498   2.550  0.8611 -0.2614 -0.4458
 8862SOL     OW38044   3.206   0.139   6.634 -0.3521 -0.6663  0.5499
 8862SOL    HW138045   3.273   0.074   6.612  0.4434  1.2341 -2.6775
 8862SOL    HW238046   3.213   0.185   6.550 -0.9305 -2.0679 -0.2633
 8863SOL     OW38047   0.928   3.621   8.580 -0.2305 -0.0345  0.4759
 8863SOL    HW138048   0.884   3.537   8.591  1.1109 -0.8834 -0.5968
 8863SOL    HW238049   0.969   3.631   8.666 -0.0885  1.8627  0.1835
 8864SOL     OW38050   4.008   2.400   4.097  0.5112  0.1087  0.2789
 8864SOL    HW138051   3.926   2.422   4.052  0.6278 -0.3084 -0.1315
 8864SOL    HW238052   4.061   2.368   4.025 -3.1524 -1.6007 -1.6605
 8865SOL     OW38053   0.413   3.031   1.121  0.1980 -0.0332  0.0984
 8865SOL    HW138054   0.363   3.108   1.093  2.4108  0.2938 -2.8994
 8865SOL    HW238055   0.408   3.040   1.216 -3.1649  0.6710 -0.1376
 8866SOL     OW38056   3.579   2.410  10.574 -0.1160  0.3234  0.4575
 8866SOL    HW138057   3.531   2.486  10.606 -0.9171  0.0446 -0.0740
 8866SOL    HW238058   3.543   2.341  10.629 -1.5118 -0.7169 -1.7721
 8867SOL     OW38059   1.114   0.785  15.574 -0.3733 -0.2727 -0.8046
 8867SOL    HW138060   1.031   0.827  15.597 -1.4629 -1.5876 -2.2665
 8867SOL    HW238061   1.072   0.713  15.526 -4.0728  1.8986 -0.8278
 8868SOL     OW38062   2.177   4.335   6.428 -0.1027  0.0595  0.4352
 8868SOL    HW138063   2.100   4.278   6.422  0.8263 -1.1606  0.1744
 8868SOL    HW238064   2.128   4.417   6.425  1.6495  1.1215  0.8457
 8869SOL     OW38065   4.084   4.327  12.510  0.1947 -0.6796  0.2002
 8869SOL    HW138066   4.134   4.343  12.590 -0.7387 -1.7022  0.9847
 8869SOL    HW238067   4.116   4.239  12.488 -1.3019 -0.6742 -2.0510
 8870SOL     OW38068   3.930   1.242  17.273 -0.2119 -0.2922  0.2763
 8870SOL    HW138069   3.883   1.323  17.292 -0.1213  0.0401 -0.9473
 8870SOL    HW238070   3.865   1.205  17.213  0.5724 -0.2450 -0.6095
 8871SOL     OW38071   0.082   1.006  13.147  0.2667 -0.1931 -0.1282
 8871SOL    HW138072   0.161   0.970  13.107  0.2871  1.9522 -1.9978
 8871SOL    HW238073   0.120   1.054  13.221  1.7243 -1.2965 -0.1654
 8872SOL     OW38074   4.034   1.951   5.562 -0.5787 -0.2762  0.3589
 8872SOL    HW138075   3.946   1.976   5.534  0.2902  2.7303  0.3753
 8872SOL    HW238076   4.032   1.855   5.567  0.2161 -0.4292 -2.1923
 8873SOL     OW38077   3.437   2.753   6.319  0.2368 -0.1090 -0.0696
 8873SOL    HW138078   3.428   2.812   6.395 -0.1125 -1.1196  0.6845
 8873SOL    HW238079   3.349   2.715   6.320  1.4536 -2.9305  0.3870
 8874SOL     OW38080   3.754   2.923   3.556  0.4754 -0.9166  0.1817
 8874SOL    HW138081   3.831   2.964   3.596 -0.3230 -0.0219  0.8153
 8874SOL    HW238082   3.790   2.914   3.468 -0.1169 -2.2073  0.0788
 8875SOL     OW38083   3.986   1.622  17.072 -0.3054 -0.7741 -0.2796
 8875SOL    HW138084   3.944   1.618  16.986 -0.3983 -0.3411 -0.2522
 8875SOL    HW238085   4.029   1.536  17.071  1.7500  0.2649 -0.4901
 8876SOL     OW38086   1.786   2.187   9.301  0.0332  0.4133 -0.3352
 8876SOL    HW138087   1.743   2.155   9.381  1.4482  2.4583  1.2597
 8876SOL    HW238088   1.832   2.266   9.331  0.0210  0.9046 -1.6233
 8877SOL     OW38089   0.277   3.204  10.581 -0.2810  0.3106 -0.4492
 8877SOL    HW138090   0.184   3.181  10.583  0.0772 -0.9718  1.2038
 8877SOL    HW238091   0.296   3.166  10.667 -1.0405  0.3159 -0.2791
 8878SOL     OW38092   0.150   0.695   9.020  0.3625 -0.4855 -0.4310
 8878SOL    HW138093   0.126   0.783   8.989 -3.2159 -1.1826  0.4233
 8878SOL    HW238094   0.241   0.699   8.991  1.2931  0.9112  2.7876
 8879SOL     OW38095   0.698   0.349   7.230 -0.0790 -0.5447  0.0905
 8879SOL    HW138096   0.777   0.395   7.257  0.0453 -0.8328  0.2157
 8879SOL    HW238097   0.742   0.288   7.170 -0.7022  0.0203 -0.9473
 8880SOL     OW38098   2.463   1.692  12.972  0.1636 -0.3824 -0.0181
 8880SOL    HW138099   2.450   1.767  13.030  0.5297  0.0380 -0.4849
 8880SOL    HW238100   2.542   1.660  13.015  0.7959  0.8318 -0.3010
 8881SOL     OW38101   2.914   0.974   8.089  0.4859 -0.0164 -0.4924
 8881SOL    HW138102   2.865   0.919   8.028 -2.0645 -0.1074  1.6149
 8881SOL    HW238103   2.849   0.974   8.160  0.0371 -1.6461 -0.9009
 8882SOL     OW38104   2.058   0.350  11.421 -0.2385  0.1709 -0.5432
 8882SOL    HW138105   2.105   0.267  11.415  0.1960  0.4138 -0.4735
 8882SOL    HW238106   2.124   0.412  11.392 -0.2709  0.5499  0.1970
 8883SOL     OW38107   2.338   2.052   6.730  0.1650  0.2192 -0.1652
 8883SOL    HW138108   2.292   2.096   6.801  1.1112 -0.9711  1.2048
 8883SOL    HW238109   2.430   2.079   6.737  0.0093  0.6121  0.3242
 8884SOL     OW38110   2.166   1.028   8.207  0.1421  0.0742  0.5819
 8884SOL    HW138111   2.083   0.981   8.201 -0.2519  0.7969  0.4477
 8884SOL    HW238112   2.187   1.018   8.300 -0.2420  0.5237  0.7159
 8885SOL     OW38113   2.147   0.001   8.635  0.3962  0.3517  0.6080
 8885SOL    HW138114   2.068   0.047   8.607  0.6783  1.2142  1.1937
 8885SOL    HW238115   2.193   0.073   8.680  0.1512  0.2303  1.0569
 8886SOL     OW38116   3.896   0.172  12.365 -0.1413 -0.2389 -0.1302
 8886SOL    HW138117   3.927   0.234  12.430  0.5735 -1.2593  0.4941
 8886SOL    HW238118   3.954   0.097  12.370 -1.1384 -1.0573 -0.7152
 8887SOL     OW38119   2.723   3.928   8.228 -0.9616  0.6962  0.1412
 8887SOL    HW138120   2.656   3.898   8.166  1.2519 -0.3618 -1.7219
 8887SOL    HW238121   2.748   3.845   8.266 -1.2084  0.7402  0.3979
 8888SOL     OW38122   0.949   0.710   1.881 -0.1203  0.1241  0.1724
 8888SOL    HW138123   0.856   0.695   1.861  0.7734 -2.0143 -2.2824
 8888SOL    HW238124   0.975   0.727   1.791 -0.6060 -1.1078 -0.2100
 8889SOL     OW38125   0.873   0.142   9.072  0.3573  0.5096 -0.0312
 8889SOL    HW138126   0.855   0.054   9.104 -3.1659  1.7315  1.3569
 8889SOL    HW238127   0.913   0.122   8.988 -1.2799 -1.1637 -0.4084
 8890SOL     OW38128   2.854   2.679   6.314 -0.4341 -0.1898  0.3723
 8890SOL    HW138129   2.912   2.747   6.347  0.8065 -0.1634 -1.8389
 8890SOL    HW238130   2.828   2.723   6.233  0.2586  1.3048  0.9759
 8891SOL     OW38131   1.630   1.640   2.350  0.2804  0.6083  0.0128
 8891SOL    HW138132   1.639   1.706   2.418 -1.1533  2.0767 -1.2333
 8891SOL    HW238133   1.722   1.635   2.322  0.0788 -4.1268  0.1316
 8892SOL     OW38134   0.490   0.855   3.797  0.5671  0.2575 -0.3605
 8892SOL    HW138135   0.412   0.873   3.850 -0.6063 -1.1520 -1.6061
 8892SOL    HW238136   0.479   0.761   3.786 -1.8532  0.5573 -0.6141
 8893SOL     OW38137   0.940   3.265   1.223 -0.4098 -0.0263  0.4409
 8893SOL    HW138138   0.928   3.173   1.245  1.6292 -0.1742  0.9884
 8893SOL    HW238139   0.990   3.261   1.142  0.8849 -1.9221  1.3332
 8894SOL     OW38140   1.333   3.941   6.694  1.0561 -0.1642  0.7126
 8894SOL    HW138141   1.242   3.911   6.697  1.5643 -1.6230  1.4168
 8894SOL    HW238142   1.340   3.926   6.788 -1.6322  0.6131  1.0513
 8895SOL     OW38143   1.893   4.681  17.262  0.2697 -0.1915 -0.3523
 8895SOL    HW138144   1.977   4.636  17.263  1.0722  1.3193 -0.2727
 8895SOL    HW238145   1.827   4.614  17.240  0.6354  0.3577 -3.0721
 8896SOL     OW38146   2.813   2.410  14.238  0.1597 -0.9615 -0.2491
 8896SOL    HW138147   2.803   2.426  14.144  2.3272  1.7952 -0.0111
 8896SOL    HW238148   2.737   2.354  14.249 -2.7764  3.4235  1.7610
 8897SOL     OW38149   1.106   1.577   3.124  0.3808  0.1176  0.2884
 8897SOL    HW138150   1.176   1.516   3.100  0.2048  0.6375 -1.5973
 8897SOL    HW238151   1.043   1.551   3.057  0.7057 -2.5310  1.0072
 8898SOL     OW38152   3.245   3.011   2.851 -0.4169  0.1196 -0.3723
 8898SOL    HW138153   3.311   2.942   2.861 -0.1997  0.5404  1.2126
 8898SOL    HW238154   3.192   2.979   2.925  0.1136 -2.0173 -0.9131
 8899SOL     OW38155   3.437   3.702   2.535 -0.0116  0.2168 -0.4194
 8899SOL    HW138156   3.496   3.749   2.594 -0.5932  1.6110 -0.9511
 8899SOL    HW238157   3.401   3.779   2.490  1.9439  1.9396  0.9606
 8900SOL     OW38158   0.798   4.064   2.123  0.3024 -0.1696  0.1184
 8900SOL    HW138159   0.873   4.006   2.110 -0.4345 -1.2676  0.8457
 8900SOL    HW238160   0.769   4.086   2.034 -0.0586 -1.2419 -0.0244
 8901SOL     OW38161   1.763   3.986  14.311  0.4810  0.0698 -0.2605
 8901SOL    HW138162   1.728   3.898  14.294 -1.5673  0.7351  0.5510
 8901SOL    HW238163   1.758   4.021  14.222 -0.6890  1.1643  0.2364
 8902SOL     OW38164   2.425   1.582  10.723 -0.1882  0.5122 -0.1133
 8902SOL    HW138165   2.411   1.674  10.700 -1.4339  0.7579  1.6027
 8902SOL    HW238166   2.405   1.536  10.641 -1.1843  2.7864 -1.1346
 8903SOL     OW38167   1.554   4.522  14.095 -0.0170 -0.7319 -0.5277
 8903SOL    HW138168   1.626   4.537  14.034 -0.5102  1.9001 -0.4355
 8903SOL    HW238169   1.596   4.513  14.180  2.1923  0.2325 -1.5355
 8904SOL     OW38170   4.349   1.883   4.065  0.2845 -0.2462 -0.5320
 8904SOL    HW138171   4.410   1.903   4.136 -0.1271  0.9598 -0.5225
 8904SOL    HW238172   4.269   1.848   4.104  0.8631  0.0642  0.9374
 8905SOL     OW38173   2.715   3.995   2.568  0.1660 -0.1487 -0.3935
 8905SOL    HW138174   2.714   3.900   2.573  0.8639 -0.1282  0.0784
 8905SOL    HW238175   2.622   4.014   2.554  0.6364  1.3876 -1.4293
 8906SOL     OW38176   0.056   1.423   5.739  0.6753 -0.5995  0.1552
 8906SOL    HW138177   0.013   1.366   5.676 -1.8347  0.7619  0.6226
 8906SOL    HW238178   0.013   1.508   5.734  0.7964 -0.5237  0.3827
 8907SOL     OW38179   3.855   0.319   9.668  0.7555 -0.2261  0.0891
 8907SOL    HW138180   3.807   0.238   9.685  1.1894 -0.2439  1.1937
 8907SOL    HW238181   3.946   0.310   9.698  0.6917  0.6547  0.5593
 8908SOL     OW38182   3.635   1.892  17.111 -0.1237  0.3263  0.0747
 8908SOL    HW138183   3.596   1.905  17.025 -3.3488 -1.8121  1.2276
 8908SOL    HW238184   3.728   1.914  17.101  0.3455 -0.9071  1.6781
 8909SOL     OW38185   0.667   1.607   6.005 -0.0601  0.0748 -0.3236
 8909SOL    HW138186   0.750   1.620   6.052  0.0579  0.9260 -0.7583
 8909SOL    HW238187   0.652   1.699   5.985  0.1379  0.1881  0.0575
 8910SOL     OW38188   0.785   0.542   4.334  0.2316 -0.9656  0.2040
 8910SOL    HW138189   0.858   0.485   4.308  0.2667 -0.2787 -1.2061
 8910SOL    HW238190   0.820   0.585   4.412  1.1270  0.1643 -0.8181
 8911SOL     OW38191   1.877   1.894   8.980 -0.1449 -0.5856  0.2425
 8911SOL    HW138192   1.954   1.946   8.999 -0.7604  0.1004  0.8837
 8911SOL    HW238193   1.824   1.974   8.976  1.4035  0.4550  0.5788
 8912SOL     OW38194   1.656   2.904   3.271  0.2060  0.0610 -0.5598
 8912SOL    HW138195   1.725   2.837   3.265 -0.1951 -0.4063  0.0890
 8912SOL    HW238196   1.684   2.968   3.206 -0.2646  0.9514  0.1236
 8913SOL     OW38197   3.699   1.390   7.345 -0.0156  0.2604  0.0299
 8913SOL    HW138198   3.767   1.354   7.401 -1.5853 -2.9291 -0.1117
 8913SOL    HW238199   3.731   1.465   7.293 -1.4813  2.4854  2.3467
 8914SOL     OW38200   3.699   3.730   5.795  0.3362  0.1921 -0.0362
 8914SOL    HW138201   3.699   3.662   5.728 -0.1118 -0.0525  0.2122
 8914SOL    HW238202   3.661   3.677   5.865  1.5725 -3.2452 -1.9265
 8915SOL     OW38203   1.597   3.457  14.508  0.1909 -0.1608  0.0420
 8915SOL    HW138204   1.532   3.440  14.441 -0.2645  1.2768  0.1003
 8915SOL    HW238205   1.542   3.490  14.579  0.6691  0.4927  0.1153
 8916SOL     OW38206   0.455   1.206   7.535 -0.1352  0.0677 -0.2555
 8916SOL    HW138207   0.363   1.187   7.555  0.3889 -0.7217  1.3911
 8916SOL    HW238208   0.492   1.211   7.623  0.3004 -1.5392 -0.3443
 8917SOL     OW38209   3.664   4.682   8.227 -0.0101 -0.0473  0.3689
 8917SOL    HW138210   3.733   0.022   8.228 -0.3905  0.3304  1.9290
 8917SOL    HW238211   3.601   0.014   8.271  0.1078  1.6216 -1.6628
 8918SOL     OW38212   2.288   3.768   0.350 -0.3046 -0.8286 -0.8251
 8918SOL    HW138213   2.196   3.746   0.366 -0.4607  0.4045 -0.0542
 8918SOL    HW238214   2.276   3.844   0.294  1.2656  1.1996  1.5693
 8919SOL     OW38215   4.312   1.038  12.721  0.6697  0.6899  0.3355
 8919SOL    HW138216   4.266   1.028  12.638 -2.1195 -2.1177  2.2236
 8919SOL    HW238217   4.293   0.958  12.770  0.8458 -0.4598 -1.4978
 8920SOL     OW38218   2.957   1.617   4.269  0.4355  0.6036 -0.0008
 8920SOL    HW138219   3.051   1.630   4.277  0.7261 -0.4372 -1.9756
 8920SOL    HW238220   2.931   1.650   4.356  2.9900  2.9858 -0.1758
 8921SOL     OW38221   3.968   2.345   9.082  0.6233  0.1769 -0.4057
 8921SOL    HW138222   4.063   2.344   9.092  0.4912 -1.1552  0.6442
 8921SOL    HW238223   3.949   2.429   9.041  1.0165  1.0030  1.1245
 8922SOL     OW38224   4.498   3.571  17.019 -0.4280 -0.2136  0.4727
 8922SOL    HW138225   4.571   3.523  17.058  0.3894  0.8548  0.2587
 8922SOL    HW238226   4.429   3.552  17.083  0.9832  1.2987  2.4697
 8923SOL     OW38227   0.968   0.714   4.922 -0.4240 -0.6654  0.3110
 8923SOL    HW138228   0.964   0.725   4.827  0.1526 -3.0631  0.0184
 8923SOL    HW238229   1.058   0.699   4.951  0.7168 -0.6305 -3.1391
 8924SOL     OW38230   1.987   1.599   0.049 -0.2936 -0.3965 -0.3823
 8924SOL    HW138231   1.939   1.665   0.098  1.1695  0.6404 -0.3270
 8924SOL    HW238232   1.935   1.521   0.066 -0.7906 -0.4495 -2.1588
 8925SOL     OW38233   0.078   0.395  14.882 -0.0681  0.1760 -0.5806
 8925SOL    HW138234   0.063   0.301  14.876  0.3317  0.0778 -0.0119
 8925SOL    HW238235   0.099   0.406  14.789  0.4022 -1.7721 -0.6971
 8926SOL     OW38236   1.965   1.606   2.370 -0.1527 -0.4178 -0.3541
 8926SOL    HW138237   1.970   1.511   2.359  2.0107 -0.2002 -1.3272
 8926SOL    HW238238   1.922   1.624   2.286  1.6589  1.1492 -0.9479
 8927SOL     OW38239   1.373   1.787   7.085  0.0415 -0.3419 -0.3271
 8927SOL    HW138240   1.430   1.829   7.149  0.0058 -0.0565 -0.4849
 8927SOL    HW238241   1.328   1.856   7.036  0.1529 -1.1517 -1.5777
 8928SOL     OW38242   2.799   1.669   2.242  0.8347 -0.0402 -0.2356
 8928SOL    HW138243   2.794   1.660   2.337  0.9196  1.2794 -0.0941
 8928SOL    HW238244   2.819   1.763   2.235 -1.4796  0.5349  0.8429
 8929SOL     OW38245   1.972   2.670   4.605 -0.1488 -0.0567 -0.2818
 8929SOL    HW138246   1.946   2.578   4.597  0.2496 -0.1580 -0.4201
 8929SOL    HW238247   1.938   2.690   4.518 -0.2572  1.2401  0.0586
 8930SOL     OW38248   1.948   1.241  11.133  0.4198  0.0114 -0.5389
 8930SOL    HW138249   2.018   1.182  11.159 -1.4138 -1.0909  1.9888
 8930SOL    HW238250   1.996   1.309  11.086  0.1553  0.0297 -0.7801
 8931SOL     OW38251   4.121   3.816  16.508  0.1435 -0.1320 -0.4024
 8931SOL    HW138252   4.123   3.872  16.586  3.2516 -1.7132  0.7017
 8931SOL    HW238253   4.202   3.847  16.468 -1.0060  1.4625 -1.4863
 8932SOL     OW38254   0.153   1.419   7.070  0.2036  0.3739 -0.3267
 8932SOL    HW138255   0.122   1.358   7.002 -0.4314  1.6318 -1.1776
 8932SOL    HW238256   0.163   1.367   7.150  1.7404  0.5025 -0.4371
 8933SOL     OW38257   3.398   2.584   2.464  0.2676 -0.0342 -0.2328
 8933SOL    HW138258   3.473   2.537   2.427 -2.5755 -2.5951 -2.6287
 8933SOL    HW238259   3.448   2.644   2.520 -0.3221 -0.3738  0.6496
 8934SOL     OW38260   4.254   2.359   1.513  0.0148  0.7989 -0.2124
 8934SOL    HW138261   4.334   2.411   1.508 -1.1616  2.5514 -0.8582
 8934SOL    HW238262   4.286   2.278   1.553 -0.4482  0.6872 -0.0708
 8935SOL     OW38263   1.026   3.684   2.659 -0.0743 -0.1339  0.7685
 8935SOL    HW138264   1.094   3.630   2.619 -0.4863  0.1717 -0.3574
 8935SOL    HW238265   0.969   3.614   2.691 -1.1941  0.1670 -0.5750
 8936SOL     OW38266   2.531   1.735   5.270  0.2651 -0.1357  0.2515
 8936SOL    HW138267   2.448   1.758   5.227  0.0520  0.4202  0.9501
 8936SOL    HW238268   2.565   1.824   5.279 -1.3187  0.7111 -2.1801
 8937SOL     OW38269   3.879   1.218   7.944 -0.0466 -0.1933 -0.3187
 8937SOL    HW138270   3.841   1.303   7.966  0.4960  0.2293 -1.0128
 8937SOL    HW238271   3.970   1.245   7.933  0.2640 -1.1906 -0.1266
 8938SOL     OW38272   3.918   2.773   0.809 -0.5779 -0.3180 -0.1557
 8938SOL    HW138273   3.985   2.721   0.853  0.3312 -0.0774 -1.2628
 8938SOL    HW238274   3.965   2.855   0.795 -0.4097 -0.5390 -0.8759
 8939SOL     OW38275   3.862   2.418  13.248 -0.0165  0.0781 -0.0213
 8939SOL    HW138276   3.842   2.446  13.337  1.4576 -0.4599  0.4705
 8939SOL    HW238277   3.926   2.483  13.218  0.3646 -0.3762 -0.1878
 8940SOL     OW38278   3.725   4.385  11.817  0.1196 -0.4371  0.4529
 8940SOL    HW138279   3.751   4.293  11.815  0.4166 -0.3664  0.9095
 8940SOL    HW238280   3.788   4.425  11.757  1.7505  0.0956  2.5008
 8941SOL     OW38281   0.974   1.441   4.560  1.0624 -0.1303 -0.0572
 8941SOL    HW138282   1.012   1.360   4.595  0.9929 -0.6895 -1.2782
 8941SOL    HW238283   0.887   1.441   4.599  0.9545 -0.6309 -0.3017
 8942SOL     OW38284   0.876   1.052   0.585  0.0783  0.0811  0.1801
 8942SOL    HW138285   0.971   1.059   0.595 -0.0941  1.2812  0.9803
 8942SOL    HW238286   0.860   1.116   0.516 -1.5880 -0.0717  0.4185
 8943SOL     OW38287   2.986   3.546   5.957  0.4318  0.7106  0.6957
 8943SOL    HW138288   2.897   3.522   5.983  0.7013 -0.0455  0.9162
 8943SOL    HW238289   2.964   3.561   5.865 -0.1150 -2.6772  0.2931
 8944SOL     OW38290   1.367   0.892   6.000  0.1074  0.2211  0.0095
 8944SOL    HW138291   1.393   0.981   5.977 -0.5785  0.3241 -0.3609
 8944SOL    HW238292   1.282   0.885   5.957 -0.1871  0.0636  0.6103
 8945SOL     OW38293   2.639   0.801   6.417 -0.1797 -0.1277 -0.0783
 8945SOL    HW138294   2.570   0.843   6.367 -0.7027  1.6238  2.0604
 8945SOL    HW238295   2.689   0.880   6.438 -2.1345  1.8920 -3.0687
 8946SOL     OW38296   1.324   3.821   4.184  0.2530 -0.2996 -0.4619
 8946SOL    HW138297   1.253   3.772   4.142 -0.4329  1.3504 -1.2422
 8946SOL    HW238298   1.396   3.777   4.139 -0.1504  0.3977 -1.8243
 8947SOL     OW38299   1.658   0.441   7.504  0.7272  0.3973 -0.5650
 8947SOL    HW138300   1.701   0.446   7.590  0.5362 -1.7530 -0.3349
 8947SOL    HW238301   1.642   0.531   7.476  0.6135  1.2974  2.3858
 8948SOL     OW38302   3.011   2.116   4.091 -0.3084 -0.3014  0.1642
 8948SOL    HW138303   3.043   2.115   4.001 -0.1841  2.6657  0.2046
 8948SOL    HW238304   2.949   2.043   4.093 -2.9166  1.9011  0.0249
 8949SOL     OW38305   1.454   0.132   0.411  1.0893 -0.1258  0.1997
 8949SOL    HW138306   1.434   0.177   0.493 -1.4439  0.8315 -0.9429
 8949SOL    HW238307   1.539   0.174   0.395 -0.8597  3.4634 -0.7518
 8950SOL     OW38308   3.040   0.051   2.768  0.1733  0.3301  0.8810
 8950SOL    HW138309   3.077   0.028   2.683  1.8549 -0.9420  1.9388
 8950SOL    HW238310   3.074   0.139   2.783 -0.0643  0.7710 -1.2557
 8951SOL     OW38311   4.064   0.814  17.527 -0.3474  0.6370  0.0930
 8951SOL    HW138312   3.972   0.831  17.505  0.5221  3.1728 -1.5634
 8951SOL    HW238313   4.092   0.750  17.461 -1.3506  1.7435 -1.4233
 8952SOL     OW38314   0.784   0.752   6.667  0.1153 -0.2851 -0.5658
 8952SOL    HW138315   0.804   0.840   6.699  1.0752 -1.1926  1.3308
 8952SOL    HW238316   0.801   0.701   6.747  0.7478 -1.0833 -1.2085
 8953SOL     OW38317   1.846   2.409   7.700  0.2925 -0.1591  0.1324
 8953SOL    HW138318   1.761   2.443   7.671  2.0117  1.2734 -3.1891
 8953SOL    HW238319   1.867   2.456   7.780 -0.9131  0.0627  0.3151
 8954SOL     OW38320   2.999   0.351   0.640  0.5904  0.6265 -0.6053
 8954SOL    HW138321   2.929   0.360   0.574 -1.8687 -0.6437  1.8274
 8954SOL    HW238322   3.048   0.431   0.622 -0.5186  1.5335  0.4269
 8955SOL     OW38323   2.165   1.823   8.637  0.0111  0.1592  0.5290
 8955SOL    HW138324   2.231   1.863   8.581 -3.0598 -0.7027 -3.7231
 8955SOL    HW238325   2.114   1.770   8.576 -0.5980  1.2273  0.1178
 8956SOL     OW38326   3.370   2.403   6.368 -0.0399  0.1243 -0.0644
 8956SOL    HW138327   3.454   2.356   6.369  0.6565  1.3337 -1.0593
 8956SOL    HW238328   3.363   2.430   6.276  0.9227  1.7529  0.3373
 8957SOL     OW38329   4.320   2.854   6.562  0.5501 -0.2414  0.2501
 8957SOL    HW138330   4.279   2.774   6.596 -0.2324  0.1185  0.1697
 8957SOL    HW238331   4.242   2.901   6.533  0.4968  0.0169  0.8119
 8958SOL     OW38332   4.510   2.490   1.503  0.2767  0.1476 -0.1434
 8958SOL    HW138333   4.544   2.565   1.553 -1.9599  1.1155 -0.0364
 8958SOL    HW238334   4.566   2.484   1.426  0.3054 -0.9635 -0.0246
 8959SOL     OW38335   0.300   3.371   4.956 -0.2529 -0.2607 -0.0660
 8959SOL    HW138336   0.317   3.289   4.911  1.3889  2.1806 -3.9452
 8959SOL    HW238337   0.206   3.384   4.950 -0.0748  0.8357 -0.6470
 8960SOL     OW38338   0.233   2.330  14.335 -0.0413 -0.3445 -0.2389
 8960SOL    HW138339   0.199   2.275  14.265  3.7116 -2.2399 -0.5672
 8960SOL    HW238340   0.207   2.415  14.299  0.9029  0.0267 -0.0190
 8961SOL     OW38341   0.033   3.317  15.374 -0.5907  0.0880 -0.6921
 8961SOL    HW138342   0.099   3.305  15.306  2.3296  2.6038  1.6675
 8961SOL    HW238343   0.067   3.272  15.451 -2.6276  2.2699  1.5093
 8962SOL     OW38344   0.616   4.579  11.314  0.1127  0.1842  0.6218
 8962SOL    HW138345   0.540   4.522  11.305  0.0446  0.1285  1.5901
 8962SOL    HW238346   0.668   4.534  11.380  2.0525 -2.7710 -2.9177
 8963SOL     OW38347   3.934   0.705  16.631  0.0153  0.3847  0.2032
 8963SOL    HW138348   3.999   0.635  16.628  0.1694  0.4063  3.6218
 8963SOL    HW238349   3.942   0.732  16.722 -1.2676  0.0134  0.4238
 8964SOL     OW38350   4.136   0.003   0.333 -0.1100  0.5295  0.4411
 8964SOL    HW138351   4.094   0.016   0.418  0.3814  0.9854  0.6138
 8964SOL    HW238352   4.196   0.076   0.322  2.5927 -1.7846 -0.0297
 8965SOL     OW38353   4.595   4.437   6.324 -0.3052  0.5133  0.2249
 8965SOL    HW138354   4.584   4.499   6.397 -2.2277 -2.2901  2.2972
 8965SOL    HW238355   4.690   4.435   6.315 -0.1550 -1.1158  2.1446
 8966SOL     OW38356   2.473   2.351   6.807 -0.3283 -0.2083 -0.2158
 8966SOL    HW138357   2.459   2.357   6.902 -0.7515  0.0944 -0.2989
 8966SOL    HW238358   2.539   2.283   6.797 -0.4550 -0.3112 -0.3394
 8967SOL     OW38359   1.201   1.607  12.276  0.1465 -0.4417 -0.0429
 8967SOL    HW138360   1.179   1.544  12.208  0.8088 -2.0370  1.2150
 8967SOL    HW238361   1.284   1.573  12.310 -0.0595 -1.0997 -0.1911
 8968SOL     OW38362   3.691   4.366   4.477 -0.1670 -0.3656  0.3316
 8968SOL    HW138363   3.756   4.301   4.506 -1.3262 -1.4631  0.4693
 8968SOL    HW238364   3.693   4.356   4.382  1.4126 -2.3605  0.5660
 8969SOL     OW38365   3.758   4.317   8.343  0.3824 -0.0718 -0.0734
 8969SOL    HW138366   3.691   4.349   8.404  0.8845 -0.3201  0.6151
 8969SOL    HW238367   3.698   4.297   8.272  1.6857 -0.3136 -1.1094
 8970SOL     OW38368   1.685   3.376  11.998  0.1103  0.2742  0.6109
 8970SOL    HW138369   1.606   3.403  11.952 -0.0585 -0.1964  0.6261
 8970SOL    HW238370   1.691   3.452  12.057 -1.0700 -0.2603  1.4305
 8971SOL     OW38371   4.597   3.145   7.591  0.0723  0.8064  0.1615
 8971SOL    HW138372   4.636   3.108   7.512  0.6970 -1.0821  1.3527
 8971SOL    HW238373   4.592   3.081   7.662 -1.7839  0.5106 -0.2368
 8972SOL     OW38374   1.671   0.727   3.543 -0.1369  0.2092  0.0298
 8972SOL    HW138375   1.753   0.775   3.527  0.8025 -0.9095  1.5055
 8972SOL    HW238376   1.619   0.734   3.463  2.4774 -1.9245 -1.8608
 8973SOL     OW38377   2.716   0.350   8.731  0.3839  0.4787  0.1046
 8973SOL    HW138378   2.674   0.265   8.716 -0.7065  1.0495 -0.0270
 8973SOL    HW238379   2.810   0.334   8.724  0.4249  1.0817 -0.6991
 8974SOL     OW38380   0.989   3.267  11.180 -0.1402 -1.0033 -0.2522
 8974SOL    HW138381   1.020   3.197  11.237  1.3074  2.1294  2.7751
 8974SOL    HW238382   1.065   3.283  11.124 -0.0424 -4.1558 -1.0027
 8975SOL     OW38383   1.002   2.161   3.895 -0.1033 -0.3217 -0.3503
 8975SOL    HW138384   0.968   2.248   3.877  1.6523  0.1422 -1.4470
 8975SOL    HW238385   0.937   2.110   3.847  1.3967 -3.1872  0.6545
 8976SOL     OW38386   0.761   3.446   7.815  0.4437 -0.5420 -0.2801
 8976SOL    HW138387   0.762   3.350   7.816 -1.5887 -0.5682 -2.3534
 8976SOL    HW238388   0.696   3.459   7.884  0.2512 -0.4739 -0.4769
 8977SOL     OW38389   0.496   4.721   9.802 -0.3052  0.2962 -0.7189
 8977SOL    HW138390   0.453   0.080   9.798 -0.5634  0.2182  0.2987
 8977SOL    HW238391   0.428   4.665   9.764  0.3495 -2.4102  2.0227
 8978SOL     OW38392   0.528   4.626   5.210 -0.1577  0.2990  0.0355
 8978SOL    HW138393   0.485   4.711   5.194  2.5831  1.6491 -0.1324
 8978SOL    HW238394   0.507   4.592   5.297  1.0187 -0.0888  0.1670
 8979SOL     OW38395   3.258   3.517   2.706 -0.1436 -0.1297  0.0530
 8979SOL    HW138396   3.282   3.556   2.622  1.1294  0.1753  0.5500
 8979SOL    HW238397   3.255   3.601   2.753 -2.0037  0.1636 -0.5782
 8980SOL     OW38398   0.786   4.652   8.556  0.2357  0.1510 -0.1661
 8980SOL    HW138399   0.853   4.584   8.555  1.7141  1.6355 -2.4302
 8980SOL    HW238400   0.847   4.724   8.535  0.5906  0.0084  0.3929
 8981SOL     OW38401   2.213   2.899  17.690 -0.5222 -0.1594 -0.0655
 8981SOL    HW138402   2.216   2.843  17.612  0.6802  1.9542 -1.5235
 8981SOL    HW238403   2.303   2.888   0.017 -0.1116  2.9701 -0.2057
 8982SOL     OW38404   2.249   0.534   4.490 -0.1033 -0.1910  0.1538
 8982SOL    HW138405   2.307   0.611   4.490  1.7096 -1.5461  1.4491
 8982SOL    HW238406   2.197   0.554   4.568 -0.2179  0.7853 -0.1682
 8983SOL     OW38407   2.146   3.412  10.736  0.2212  0.2466  0.7076
 8983SOL    HW138408   2.170   3.326  10.770 -0.6575  0.1058  0.9690
 8983SOL    HW238409   2.064   3.394  10.690  0.4300  1.5296 -0.1617
 8984SOL     OW38410   4.078   4.134   8.160  0.1438  0.4408 -0.4694
 8984SOL    HW138411   4.027   4.069   8.208  0.6003 -0.8996 -1.8127
 8984SOL    HW238412   4.113   4.181   8.235 -1.0436 -2.2639  1.7743
 8985SOL     OW38413   0.070   2.957   8.193 -0.6753 -0.1134  0.0547
 8985SOL    HW138414   0.139   2.999   8.141  0.6755  0.0745  2.0086
 8985SOL    HW238415   0.008   2.963   8.120 -1.3105  0.1060  0.6253
 8986SOL     OW38416   3.627   4.462   3.199 -0.1416  0.3239  0.1466
 8986SOL    HW138417   3.678   4.409   3.138 -1.3808 -1.4730  0.6711
 8986SOL    HW238418   3.701   4.477   3.257  0.5358 -1.0911 -0.3564
 8987SOL     OW38419   0.833   0.421  15.451  0.4818 -0.3765  0.3131
 8987SOL    HW138420   0.784   0.419  15.369 -0.6984  0.5415  0.9822
 8987SOL    HW238421   0.783   0.487  15.499  0.3087 -0.4186  0.1931
 8988SOL     OW38422   0.491   0.685   7.873  0.1236  0.0461 -0.2218
 8988SOL    HW138423   0.496   0.635   7.791 -1.3096 -1.6529  0.7172
 8988SOL    HW238424   0.576   0.656   7.907  0.5888  1.4743 -0.1703
 8989SOL     OW38425   3.827   4.507   8.100 -0.5823  0.6676  0.5073
 8989SOL    HW138426   3.782   4.439   8.151  1.3788 -1.4661 -0.5999
 8989SOL    HW238427   3.810   4.582   8.157 -0.6251 -0.2563  1.7013
 8990SOL     OW38428   4.377   3.025   4.510  0.1080 -0.3552 -0.8566
 8990SOL    HW138429   4.393   3.106   4.558 -3.9016  0.5226 -0.9542
 8990SOL    HW238430   4.447   3.032   4.445 -0.2957  2.4731 -0.9839
 8991SOL     OW38431   2.516   4.571  16.461 -0.6102 -0.6862 -0.0526
 8991SOL    HW138432   2.458   4.593  16.535  2.2110  0.1238  1.9304
 8991SOL    HW238433   2.502   4.652  16.413 -0.8215  0.0207  1.1849
 8992SOL     OW38434   3.903   4.171  17.222  0.2292 -0.4486  0.8716
 8992SOL    HW138435   3.862   4.102  17.274  1.6730 -2.5457 -0.7686
 8992SOL    HW238436   3.910   4.238  17.290  0.6003 -1.3494  1.7045
 8993SOL     OW38437   4.655   3.724  17.514 -0.1795  0.4729 -0.3399
 8993SOL    HW138438   4.671   3.632  17.534  0.6895  0.2348 -2.0861
 8993SOL    HW238439   0.012   3.748  17.472 -0.5816 -0.5666 -1.7189
 8994SOL     OW38440   4.721   1.232  13.724 -0.4486  0.1575 -0.2896
 8994SOL    HW138441   0.001   1.263  13.815 -2.1593  1.7963 -0.7612
 8994SOL    HW238442   4.634   1.193  13.720  0.1714 -1.3839  1.1534
 8995SOL     OW38443   3.049   2.890   6.402 -0.1989  0.1876 -0.2475
 8995SOL    HW138444   3.121   2.953   6.399  0.3594 -0.4937 -1.2182
 8995SOL    HW238445   3.006   2.928   6.478  0.5758  0.2195  0.1787
 8996SOL     OW38446   2.394   4.381  12.205  0.5649 -0.0021 -0.1028
 8996SOL    HW138447   2.419   4.473  12.205  3.7709 -0.8676 -0.3448
 8996SOL    HW238448   2.325   4.386  12.271 -1.4377 -0.2693 -2.1374
 8997SOL     OW38449   4.349   3.663  13.119  0.0649 -0.1091 -0.0048
 8997SOL    HW138450   4.254   3.669  13.126  0.0989  0.4570 -0.0547
 8997SOL    HW238451   4.351   3.582  13.067  0.4122 -1.0336  1.4299
 8998SOL     OW38452   1.435   1.354   6.774 -0.3013  0.1214 -0.4962
 8998SOL    HW138453   1.446   1.442   6.809 -0.6777 -1.3757  3.3350
 8998SOL    HW238454   1.350   1.364   6.730  0.2386  1.4503 -1.2158
 8999SOL     OW38455   1.959   4.021   9.179 -0.4204 -0.0398  0.3494
 8999SOL    HW138456   1.866   4.010   9.196 -0.6795 -0.8958 -1.6681
 8999SOL    HW238457   1.994   3.999   9.266 -0.6711 -1.2868  0.1357
 9000SOL     OW38458   0.468   3.696   9.321  0.3478  0.2204  0.5416
 9000SOL    HW138459   0.488   3.675   9.413  0.5013  1.2064  0.7276
 9000SOL    HW238460   0.467   3.612   9.274 -2.1095  1.1864 -1.1283
 9001SOL     OW38461   0.007   1.682   5.340  0.3852  0.3565 -0.3766
 9001SOL    HW138462   4.687   1.719   5.415 -0.6396 -0.7306 -0.4427
 9001SOL    HW238463   0.041   1.768   5.315 -1.7739  1.3636  0.1473
 9002SOL     OW38464   1.444   0.126   4.392  0.1552  0.0545  0.1939
 9002SOL    HW138465   1.398   0.205   4.421 -0.3758 -0.3414  0.4289
 9002SOL    HW238466   1.523   0.168   4.358 -0.8170  2.8398  1.3889
 9003SOL     OW38467   2.002   3.426   8.398 -0.1402 -0.7010  0.3049
 9003SOL    HW138468   1.994   3.486   8.472  0.1879 -0.2579 -0.0200
 9003SOL    HW238469   1.912   3.420   8.364 -0.1231 -0.3448  0.1988
 9004SOL     OW38470   3.918   3.406   1.225  0.2066  0.5059  0.2400
 9004SOL    HW138471   3.876   3.322   1.242  0.3148 -0.1388 -2.6143
 9004SOL    HW238472   3.958   3.414   1.311 -0.3317 -0.2026  0.5543
 9005SOL     OW38473   3.798   3.814  10.596  0.6631 -0.2941 -0.1257
 9005SOL    HW138474   3.880   3.765  10.595  0.1236 -1.2147  0.1547
 9005SOL    HW238475   3.777   3.795  10.504 -0.0276 -0.2998  0.0301
 9006SOL     OW38476   2.513   1.769   7.011  0.4233 -0.7122  0.3697
 9006SOL    HW138477   2.424   1.791   7.038  0.6135 -1.3558  1.5351
 9006SOL    HW238478   2.486   1.712   6.938  0.3535  1.4953 -1.3213
 9007SOL     OW38479   1.151   0.775   2.961  0.2865 -0.6340 -0.2652
 9007SOL    HW138480   1.191   0.721   2.893  0.3755  0.0716 -0.7750
 9007SOL    HW238481   1.228   0.795   3.014 -0.1338 -0.0892  0.1364
 9008SOL     OW38482   1.183   3.928   7.781 -0.4055 -0.0443  1.1661
 9008SOL    HW138483   1.152   3.840   7.803  0.0483 -1.3087 -3.2506
 9008SOL    HW238484   1.116   3.978   7.828 -0.6897 -1.7998  2.6288
 9009SOL     OW38485   3.634   0.541   3.647  0.2214 -0.6128 -0.1760
 9009SOL    HW138486   3.594   0.469   3.598  1.7022 -0.9767 -0.8793
 9009SOL    HW238487   3.673   0.594   3.577  0.9140 -1.6420 -0.5821
 9010SOL     OW38488   1.655   1.371  12.341  0.2182 -0.0047 -0.2317
 9010SOL    HW138489   1.744   1.372  12.376  0.2420 -0.2294 -0.2910
 9010SOL    HW238490   1.659   1.300  12.277 -2.6888 -0.6501  0.3322
 9011SOL     OW38491   1.545   4.264   4.206 -0.1073 -0.1760 -0.7315
 9011SOL    HW138492   1.594   4.207   4.147  0.8287 -0.0597 -0.0772
 9011SOL    HW238493   1.466   4.280   4.155 -1.9812 -2.4228  1.4730
 9012SOL     OW38494   3.829   1.021   9.211 -0.1857 -0.4317 -0.7215
 9012SOL    HW138495   3.826   1.052   9.120 -3.2799 -0.1485 -0.5356
 9012SOL    HW238496   3.923   1.002   9.216  0.0410  0.3747 -2.0044
 9013SOL     OW38497   3.933   3.005   4.060  0.1672  0.3606  0.0499
 9013SOL    HW138498   3.844   2.999   4.095  0.6352 -0.3641  1.1304
 9013SOL    HW238499   3.978   3.055   4.128  1.6554 -2.3035  1.0171
 9014SOL     OW38500   3.845   4.143   4.550 -0.0485  0.6047 -0.0788
 9014SOL    HW138501   3.922   4.182   4.590 -0.8186  2.2891 -0.2678
 9014SOL    HW238502   3.785   4.134   4.624 -1.0819  2.2210 -0.7176
 9015SOL     OW38503   0.376   1.486   2.247  0.7615  0.1364 -0.1087
 9015SOL    HW138504   0.345   1.569   2.211 -2.6326 -0.4763  1.4333
 9015SOL    HW238505   0.385   1.433   2.167  0.9772  1.0415 -0.6871
 9016SOL     OW38506   0.997   1.661  12.830  0.1693 -0.0157 -0.1745
 9016SOL    HW138507   1.049   1.640  12.908  0.8364  1.2008 -0.2938
 9016SOL    HW238508   0.919   1.678  12.882  1.4916  1.1675  1.4076
 9017SOL     OW38509   0.038   2.586   3.653  0.2386 -0.2309 -0.3296
 9017SOL    HW138510   0.024   2.619   3.564  1.8304 -0.8940 -0.8253
 9017SOL    HW238511   0.096   2.510   3.644  0.9126  0.3440 -0.8942
 9018SOL     OW38512   0.939   4.584   5.830  0.4294 -0.3976 -0.4217
 9018SOL    HW138513   0.928   4.679   5.828  0.1651 -0.4873 -3.5087
 9018SOL    HW238514   0.970   4.581   5.740  0.7802  0.9984 -0.3471
 9019SOL     OW38515   0.479   1.766   8.548  1.1863  0.3683 -0.3191
 9019SOL    HW138516   0.383   1.759   8.554  1.1656  0.4696 -0.5536
 9019SOL    HW238517   0.498   1.700   8.615 -4.3709 -0.9007  0.0492
 9020SOL     OW38518   3.161   3.395   8.298  0.1735  0.2674 -0.1956
 9020SOL    HW138519   3.082   3.353   8.263 -0.1279  1.2432 -0.6895
 9020SOL    HW238520   3.148   3.487   8.273 -2.0401  0.1218  0.4878
 9021SOL     OW38521   0.922   0.745   6.081 -0.3932 -0.2230  0.4378
 9021SOL    HW138522   0.863   0.675   6.111 -1.4119  0.2109 -0.5683
 9021SOL    HW238523   1.010   0.715   6.105 -0.0852  0.3106 -0.0459
 9022SOL     OW38524   2.691   4.161   3.169  0.4551 -0.1897 -0.5405
 9022SOL    HW138525   2.607   4.180   3.212 -0.6869 -2.5376 -1.7421
 9022SOL    HW238526   2.665   4.090   3.110  1.0650 -1.0516  0.2313
 9023SOL     OW38527   0.662   3.731   0.100  0.1211  0.6126 -0.2704
 9023SOL    HW138528   0.706   3.646   0.089 -2.5209 -0.7572 -0.2857
 9023SOL    HW238529   0.571   3.702   0.109 -0.6806  2.8329 -1.3396
 9024SOL     OW38530   2.715   1.405  16.618 -0.0557  0.3504  0.3523
 9024SOL    HW138531   2.743   1.470  16.683 -0.7800 -0.3304  1.3582
 9024SOL    HW238532   2.786   1.419  16.556 -0.8880  1.3046 -0.3871
 9025SOL     OW38533   3.475   2.051   2.874  0.4595 -0.2124  0.5899
 9025SOL    HW138534   3.422   2.065   2.953 -0.5758 -1.3251  0.0835
 9025SOL    HW238535   3.476   2.144   2.850  0.0103 -0.6985 -1.3126
 9026SOL     OW38536   0.540   0.815   4.242  0.3982  0.1391  0.3272
 9026SOL    HW138537   0.522   0.734   4.194  0.6260  0.3882 -0.1773
 9026SOL    HW238538   0.460   0.806   4.294  2.0841  0.0460  2.8654
 9027SOL     OW38539   2.551   2.585   6.633  0.4080  0.6802 -0.1584
 9027SOL    HW138540   2.529   2.508   6.686  0.3698  0.9855  0.2718
 9027SOL    HW238541   2.630   2.608   6.683  1.1914 -1.8039 -0.2312
 9028SOL     OW38542   0.617   2.760  15.603  0.1898 -0.5633 -0.0009
 9028SOL    HW138543   0.702   2.731  15.637  0.2193 -1.3258 -0.7338
 9028SOL    HW238544   0.623   2.852  15.629  3.1539  0.0979 -3.0615
 9029SOL     OW38545   4.416   4.403  13.810 -0.2492  0.0871 -0.2359
 9029SOL    HW138546   4.369   4.320  13.812  1.4785 -0.9068 -0.9520
 9029SOL    HW238547   4.355   4.448  13.867  0.6900  0.8552  0.1663
 9030SOL     OW38548   3.219   2.852   7.932 -0.4571 -0.4875 -0.0401
 9030SOL    HW138549   3.179   2.920   7.986 -0.3001  1.6880 -2.6939
 9030SOL    HW238550   3.266   2.891   7.859 -2.4445  2.2807  0.1736
 9031SOL     OW38551   0.522   0.216  16.853 -0.5253  0.1056 -0.2234
 9031SOL    HW138552   0.518   0.307  16.822  1.9405  0.2170 -0.1959
 9031SOL    HW238553   0.434   0.199  16.886 -0.9885  1.8207 -0.5398
 9032SOL     OW38554   3.356   0.080  10.548 -0.3837  0.3946  0.3107
 9032SOL    HW138555   3.296   0.024  10.596 -1.2005  1.1872  0.2204
 9032SOL    HW238556   3.300   0.104  10.475  1.9772  1.8049 -1.0410
 9033SOL     OW38557   4.292   0.969   6.847 -0.0612 -0.8795  0.3570
 9033SOL    HW138558   4.384   0.960   6.875 -0.1354  0.1790  0.9314
 9033SOL    HW238559   4.240   0.976   6.927  0.4782  0.8768  0.5491
 9034SOL     OW38560   0.528   1.767  14.788 -0.1717  0.2666  0.0790
 9034SOL    HW138561   0.575   1.773  14.871 -0.4877  0.6534  0.2304
 9034SOL    HW238562   0.442   1.804  14.811 -0.7632 -0.8995 -0.2540
 9035SOL     OW38563   4.474   0.414   9.424  0.9350 -0.4314  0.8787
 9035SOL    HW138564   4.559   0.432   9.465  1.4810 -1.1706  0.0568
 9035SOL    HW238565   4.489   0.476   9.353 -0.0367 -3.4342 -1.8975
 9036SOL     OW38566   3.182   1.830  11.594  0.2200 -0.5804 -0.1412
 9036SOL    HW138567   3.195   1.914  11.549 -3.0797  0.9407  1.7391
 9036SOL    HW238568   3.217   1.769  11.529  1.7261  1.2559 -1.0838
 9037SOL     OW38569   0.809   3.126  13.363 -0.0062  0.1921  0.3474
 9037SOL    HW138570   0.842   3.122  13.452  0.5235  0.8346  0.1761
 9037SOL    HW238571   0.724   3.082  13.371  0.4524 -0.4461  1.6971
 9038SOL     OW38572   4.432   1.044  13.045 -0.1176 -0.0949 -0.1866
 9038SOL    HW138573   4.397   1.132  13.058  3.4553  1.2179  0.4005
 9038SOL    HW238574   4.356   0.996  13.011  0.2032  0.4116 -1.6077
 9039SOL     OW38575   1.749   2.056   6.837  0.2829  0.2029  0.1113
 9039SOL    HW138576   1.681   2.080   6.901  0.5445 -0.2810  0.5774
 9039SOL    HW238577   1.711   1.983   6.788 -1.4744  1.7959 -0.8847
 9040SOL     OW38578   3.946   2.577   8.708 -0.2942  0.2600  0.0417
 9040SOL    HW138579   3.914   2.664   8.681  0.6242  0.4617 -0.3791
 9040SOL    HW238580   3.934   2.578   8.803 -0.1356 -0.8160  0.0755
 9041SOL     OW38581   0.405   3.985   8.486  0.2469  0.0082  0.0762
 9041SOL    HW138582   0.347   4.051   8.525  0.1216 -1.5833  2.5943
 9041SOL    HW238583   0.477   3.981   8.550  1.4810 -2.0989 -1.4577
 9042SOL     OW38584   0.953   3.405   6.361 -0.3477  0.1746 -0.2106
 9042SOL    HW138585   0.950   3.328   6.305 -1.1205  0.5189 -0.6528
 9042SOL    HW238586   1.005   3.460   6.302  1.6602 -1.2483  0.2625
 9043SOL     OW38587   1.076   3.615  10.298  0.0427 -0.5091  0.1969
 9043SOL    HW138588   1.128   3.650  10.226 -0.3625  0.4182  0.3577
 9043SOL    HW238589   0.988   3.602  10.263 -0.6410  3.9640  0.2110
 9044SOL     OW38590   4.448   3.761   1.752  0.7032 -0.4134 -0.0449
 9044SOL    HW138591   4.498   3.834   1.787 -0.8829  2.1068 -3.0680
 9044SOL    HW238592   4.476   3.771   1.661 -1.3281 -1.4074 -0.7950
 9045SOL     OW38593   4.685   1.785   9.998  0.2210  0.5327 -0.0175
 9045SOL    HW138594   0.011   1.721  10.048 -2.6938 -0.5320  1.6262
 9045SOL    HW238595   4.600   1.791  10.041  0.0863  0.6832 -0.3066
 9046SOL     OW38596   3.777   0.298   2.639 -0.2579  0.1221  0.1166
 9046SOL    HW138597   3.856   0.242   2.639 -2.4061 -2.9322 -2.4199
 9046SOL    HW238598   3.818   0.384   2.636 -0.3527  0.1321 -0.8263
 9047SOL     OW38599   2.105   3.576   4.607  0.4191  0.1073 -0.0315
 9047SOL    HW138600   2.039   3.518   4.647 -0.4951  0.4275 -1.0509
 9047SOL    HW238601   2.167   3.566   4.679  0.3503  0.6928  0.1093
 9048SOL     OW38602   2.239   1.657   7.937 -0.0995  0.0320 -0.1039
 9048SOL    HW138603   2.328   1.672   7.970  0.2372 -1.9523 -0.0950
 9048SOL    HW238604   2.253   1.600   7.862  0.9477 -0.3557  0.3705
 9049SOL     OW38605   3.332   4.535   7.912 -0.2660 -0.1561 -0.1412
 9049SOL    HW138606   3.385   4.614   7.899  1.8934 -1.6585 -0.3586
 9049SOL    HW238607   3.255   4.557   7.860 -0.8455 -0.0889  0.7467
 9050SOL     OW38608   3.443   3.889   4.401  0.1911 -0.2542  0.5953
 9050SOL    HW138609   3.511   3.839   4.445  1.0696 -1.1597 -1.8094
 9050SOL    HW238610   3.420   3.952   4.470  0.7622  0.5936  0.0020
 9051SOL     OW38611   2.325   0.321   6.031 -0.1669  0.1426 -0.0692
 9051SOL    HW138612   2.244   0.298   5.986 -0.0934  0.3279 -0.2942
 9051SOL    HW238613   2.289   0.381   6.096  0.1823  0.1661  0.1020
 9052SOL     OW38614   4.470   0.163   1.931 -0.7073  0.2483 -0.2235
 9052SOL    HW138615   4.376   0.166   1.918 -0.9665 -2.2742  1.1404
 9052SOL    HW238616   4.498   0.134   1.844  0.5565  0.5286  0.0783
 9053SOL     OW38617   0.182   1.330   6.531 -0.3868 -0.0039  0.5424
 9053SOL    HW138618   0.101   1.344   6.579  0.2618  0.6252  1.4550
 9053SOL    HW238619   0.217   1.419   6.525  1.4316 -0.8146 -0.6994
 9054SOL     OW38620   0.591   1.520   7.781 -0.4999  0.1223 -0.0338
 9054SOL    HW138621   0.657   1.554   7.841 -0.6862 -0.1847  0.3490
 9054SOL    HW238622   0.588   1.428   7.810 -0.3333  0.2734  0.4726
 9055SOL     OW38623   4.241   1.557  11.390 -0.0598  0.1218 -0.1166
 9055SOL    HW138624   4.191   1.494  11.338 -0.0432 -0.2393  0.3048
 9055SOL    HW238625   4.239   1.633  11.333 -2.1044  0.4147  0.3476
 9056SOL     OW38626   2.550   3.358   7.869  0.2179  0.4604 -0.1251
 9056SOL    HW138627   2.494   3.297   7.918  1.6524 -0.8305 -0.1005
 9056SOL    HW238628   2.508   3.440   7.896  0.1648 -0.8225  3.7943
 9057SOL     OW38629   0.959   2.744   7.849  0.1934 -0.1641 -0.2938
 9057SOL    HW138630   0.891   2.693   7.804 -0.3147 -0.2775  0.6079
 9057SOL    HW238631   0.956   2.820   7.791  2.1328  0.5245  0.5154
 9058SOL     OW38632   1.424   3.201   3.762  0.4051  0.1515  0.2282
 9058SOL    HW138633   1.451   3.242   3.844  0.1109 -1.3338  1.0662
 9058SOL    HW238634   1.473   3.119   3.767  0.4269  0.1782  0.4365
 9059SOL     OW38635   0.931   3.962   1.090  0.3731 -0.1979 -0.6495
 9059SOL    HW138636   0.837   3.970   1.071  0.4694  0.9541 -0.6352
 9059SOL    HW238637   0.956   3.917   1.009  1.1675 -0.9176  0.0024
 9060SOL     OW38638   2.642   1.149   5.923  1.0535 -0.4230 -0.3038
 9060SOL    HW138639   2.610   1.060   5.936  1.9061 -0.1753  3.3523
 9060SOL    HW238640   2.628   1.181   5.834 -0.7218  0.2693  0.2246
 9061SOL     OW38641   2.995   3.131   7.452 -0.1180 -0.0209 -0.0291
 9061SOL    HW138642   2.910   3.162   7.423  0.4666  1.3478 -0.2792
 9061SOL    HW238643   2.967   3.081   7.529 -1.4687 -0.3572 -0.7527
 9062SOL     OW38644   4.560   3.892   8.103  0.4082 -0.1111  0.0448
 9062SOL    HW138645   4.634   3.862   8.156  1.1563  0.6183 -0.5892
 9062SOL    HW238646   4.583   3.851   8.019  0.6126 -1.4934  0.7752
 9063SOL     OW38647   2.862   3.690   3.316  0.0190  0.6267  0.4929
 9063SOL    HW138648   2.911   3.674   3.235  0.9637 -0.4856  1.2876
 9063SOL    HW238649   2.882   3.606   3.357  0.1874  1.0043  1.1722
 9064SOL     OW38650   0.203   1.132   5.725 -0.4409 -0.0402 -0.2421
 9064SOL    HW138651   0.123   1.103   5.680  0.5206  1.4217 -2.8930
 9064SOL    HW238652   0.189   1.094   5.812 -1.9577 -0.6665 -0.7516
 9065SOL     OW38653   3.775   2.445   3.974  0.4354  0.1331 -0.4030
 9065SOL    HW138654   3.741   2.498   4.046  0.2560  0.9631 -1.1111
 9065SOL    HW238655   3.702   2.435   3.912 -1.5873 -0.8144  2.0874
 9066SOL     OW38656   0.397   4.126   4.499 -0.7165  0.6059  0.3336
 9066SOL    HW138657   0.348   4.045   4.515 -1.0761  0.2953 -2.3576
 9066SOL    HW238658   0.408   4.151   4.591 -0.3729 -1.0701  0.7551
 9067SOL     OW38659   2.358   4.181   4.574  0.5039  0.3128 -0.5991
 9067SOL    HW138660   2.378   4.236   4.499  0.7064 -0.3986 -1.0650
 9067SOL    HW238661   2.279   4.220   4.613  1.2208 -1.5095  2.6784
 9068SOL     OW38662   1.181   3.565   0.972  0.2708 -0.2280 -0.0177
 9068SOL    HW138663   1.248   3.615   1.019 -0.4313  0.7185 -0.0342
 9068SOL    HW238664   1.175   3.491   1.033 -2.3220  0.4549  0.5652
 9069SOL     OW38665   0.003   2.866  16.932  0.2819 -0.1697  0.2170
 9069SOL    HW138666   4.696   2.866  16.842 -1.1218  1.9339  0.7134
 9069SOL    HW238667   4.644   2.878  16.976  0.2964  4.4564 -1.0119
 9070SOL     OW38668   2.610   2.240  10.986 -0.3293  0.3591 -0.2891
 9070SOL    HW138669   2.670   2.171  11.016 -0.7727 -0.1527 -0.5836
 9070SOL    HW238670   2.599   2.283  11.071 -2.7208 -0.9390  0.0453
 9071SOL     OW38671   1.769   4.217   2.708 -0.3483  0.2017 -0.1042
 9071SOL    HW138672   1.675   4.203   2.698 -0.4296 -0.6031  1.7983
 9071SOL    HW238673   1.760   4.213   2.803 -2.0230 -0.9405 -0.3260
 9072SOL     OW38674   0.583   3.767   2.311 -0.2446  0.3034 -0.8188
 9072SOL    HW138675   0.667   3.722   2.302 -0.4184 -0.2891  0.4286
 9072SOL    HW238676   0.558   3.781   2.220  0.6608 -0.9503 -1.2480
 9073SOL     OW38677   0.934   3.927  14.436  0.3836  0.0866  0.7150
 9073SOL    HW138678   0.958   3.849  14.486  0.6561  0.2046  0.7689
 9073SOL    HW238679   1.019   3.960  14.407  0.2976  1.8472  2.4665
 9074SOL     OW38680   4.416   0.948   5.940 -0.5624  0.3902  0.2880
 9074SOL    HW138681   4.379   0.939   5.853  1.2857 -0.6622 -0.3834
 9074SOL    HW238682   4.381   0.877   5.994 -1.6774 -0.6415 -1.7844
 9075SOL     OW38683   2.770   1.572   2.534 -0.3485 -0.3120 -0.6363
 9075SOL    HW138684   2.728   1.492   2.503 -0.2867 -0.6739  0.2055
 9075SOL    HW238685   2.837   1.539   2.594  0.1739 -0.4435 -1.2932
 9076SOL     OW38686   1.614   1.231  10.789 -0.0028  0.5294  0.2010
 9076SOL    HW138687   1.529   1.197  10.762  0.1635  0.3511 -0.0960
 9076SOL    HW238688   1.618   1.208  10.882  0.4797  1.3266  0.3820
 9077SOL     OW38689   3.187   4.428  12.269  0.5121 -0.1815  0.1359
 9077SOL    HW138690   3.175   4.351  12.213  3.1305 -0.9625  0.6777
 9077SOL    HW238691   3.268   4.465  12.236  0.6931 -1.1809 -0.5723
 9078SOL     OW38692   2.929   3.987   6.213  0.3643 -0.4604  0.1846
 9078SOL    HW138693   2.869   3.914   6.224  1.8804 -1.5624  1.1654
 9078SOL    HW238694   2.903   4.013   6.125  1.6423 -0.8008 -0.2850
 9079SOL     OW38695   1.947   4.551   7.010  0.3794 -0.0796 -0.1430
 9079SOL    HW138696   1.870   4.506   6.974  0.4899 -0.5710  0.2295
 9079SOL    HW238697   1.906   4.578   7.092 -0.6913  0.9433 -1.0259
 9080SOL     OW38698   4.499   2.974   3.580 -0.0641  0.1830  0.5267
 9080SOL    HW138699   4.563   3.012   3.641  3.2949 -1.4202 -1.9873
 9080SOL    HW238700   4.473   3.055   3.536  0.8850 -0.5104 -1.3093
 9081SOL     OW38701   4.288   3.391   8.663  0.0963  0.3628 -0.2405
 9081SOL    HW138702   4.353   3.439   8.716  0.0111  0.4955 -0.2566
 9081SOL    HW238703   4.218   3.395   8.728 -1.7407  1.0660 -2.3043
 9082SOL     OW38704   2.438   1.470   3.194 -0.5159  0.5437  0.0474
 9082SOL    HW138705   2.441   1.491   3.287  1.2075 -1.2565  0.3919
 9082SOL    HW238706   2.375   1.398   3.187 -1.5895  1.6605 -2.0128
 9083SOL     OW38707   0.868   4.347   3.253  0.0819  0.0036 -0.3114
 9083SOL    HW138708   0.862   4.441   3.239 -2.7386 -0.0304  0.5015
 9083SOL    HW238709   0.816   4.343   3.334 -0.4182  0.9406 -0.5917
 9084SOL     OW38710   2.467   3.537  10.465  1.0732  0.5329  0.2535
 9084SOL    HW138711   2.515   3.471  10.514 -1.9317 -0.8308  1.3365
 9084SOL    HW238712   2.529   3.604  10.436  2.0139 -1.2441 -1.8679
 9085SOL     OW38713   3.980   2.041   6.090  0.1724  0.5158 -0.5238
 9085SOL    HW138714   3.946   2.120   6.048 -0.0288  0.9003  0.3816
 9085SOL    HW238715   3.906   1.980   6.089  0.6793 -0.0981 -0.5844
 9086SOL     OW38716   0.747   0.282   1.896 -0.2162  0.2117  0.3927
 9086SOL    HW138717   0.697   0.204   1.873  1.4399 -0.1886 -1.8831
 9086SOL    HW238718   0.737   0.346   1.825 -0.4209 -0.9656 -0.6308
 9087SOL     OW38719   2.997   1.170   2.902  0.0146 -0.2980 -0.3282
 9087SOL    HW138720   2.960   1.155   2.815  1.8601  1.3066 -1.4025
 9087SOL    HW238721   2.929   1.139   2.961  0.5046 -1.1029 -0.1875
 9088SOL     OW38722   2.315   3.013   5.535  0.0387 -0.7302  0.2000
 9088SOL    HW138723   2.399   2.973   5.513  0.1587 -0.1632 -0.3447
 9088SOL    HW238724   2.267   2.987   5.457 -1.9410  0.4026  1.0342
 9089SOL     OW38725   4.722   3.643   3.608 -0.3018  0.3384  0.3099
 9089SOL    HW138726   4.679   3.609   3.529  0.0480 -2.4452  1.3403
 9089SOL    HW238727   4.695   3.735   3.605  0.0223  0.5052  2.8142
 9090SOL     OW38728   3.569   0.719   9.173 -0.0024 -0.1304  0.0075
 9090SOL    HW138729   3.513   0.647   9.202 -1.0569  0.4304 -0.6146
 9090SOL    HW238730   3.618   0.674   9.104  0.0265 -0.8725  0.5012
 9091SOL     OW38731   3.771   2.824   1.043 -0.3115  0.6030  0.4861
 9091SOL    HW138732   3.735   2.898   0.994 -0.3001 -1.2288 -2.2776
 9091SOL    HW238733   3.836   2.806   0.975 -1.5598  0.7152 -0.7491
 9092SOL     OW38734   2.318   3.730   3.407 -0.7984 -0.3000 -0.4688
 9092SOL    HW138735   2.251   3.704   3.343 -0.6498 -1.0001 -0.3469
 9092SOL    HW238736   2.383   3.773   3.351  1.2769  0.7486  2.7298
 9093SOL     OW38737   1.926   2.740   2.705 -0.1396 -0.2201 -0.4542
 9093SOL    HW138738   1.984   2.687   2.650  0.2493 -2.4100  2.0283
 9093SOL    HW238739   1.883   2.796   2.640 -0.5460  0.8670  0.7684
 9094SOL     OW38740   3.147   3.878   7.275  0.0823 -0.0270  0.4064
 9094SOL    HW138741   3.135   3.947   7.340 -1.4207  1.1168 -1.1225
 9094SOL    HW238742   3.097   3.909   7.200  0.6180 -0.3771 -0.0913
 9095SOL     OW38743   4.477   2.799   1.763 -0.2693 -0.2181 -0.0481
 9095SOL    HW138744   4.389   2.803   1.725 -0.3709  1.1445  0.3060
 9095SOL    HW238745   4.475   2.854   1.842  1.6780 -0.8870  0.4586
 9096SOL     OW38746   2.351   2.136   1.051 -0.0030  0.1667 -0.7148
 9096SOL    HW138747   2.392   2.171   0.972  0.7284  0.1664 -0.3275
 9096SOL    HW238748   2.300   2.213   1.073 -2.1205 -1.1951 -0.8380
 9097SOL     OW38749   1.826   3.240   2.904 -0.4406 -0.7760  0.1166
 9097SOL    HW138750   1.858   3.153   2.881 -1.3386 -0.7989 -1.0863
 9097SOL    HW238751   1.761   3.216   2.970 -0.3607  2.2938  1.3369
 9098SOL     OW38752   1.609   2.921   6.581  0.1939 -0.1707 -0.1268
 9098SOL    HW138753   1.601   3.013   6.555  1.1182  0.0162  0.2503
 9098SOL    HW238754   1.666   2.889   6.511  0.5454 -0.5307  0.3197
 9099SOL     OW38755   0.161   0.040   2.020  0.1657 -0.1805  0.6443
 9099SOL    HW138756   0.109   4.711   2.079  1.0743 -1.5017  0.2167
 9099SOL    HW238757   0.250   0.011   2.036  0.6482  1.3986  0.8714
 9100SOL     OW38758   1.352   2.066   7.279 -1.0699 -0.0415 -0.7519
 9100SOL    HW138759   1.332   2.136   7.341  0.2025 -0.8949  0.6099
 9100SOL    HW238760   1.266   2.034   7.253 -2.0445  1.5167  0.5130
 9101SOL     OW38761   3.060   2.157   6.737 -0.2033 -0.0126 -0.1332
 9101SOL    HW138762   3.071   2.227   6.801 -2.8043 -0.0554  0.3397
 9101SOL    HW238763   3.089   2.207   6.661  0.9109 -0.6389 -0.1365
 9102SOL     OW38764   3.286   0.160   7.645  0.0648  0.2077  0.1023
 9102SOL    HW138765   3.297   0.244   7.600  1.8082 -0.6591 -1.0894
 9102SOL    HW238766   3.366   0.164   7.697  0.2536  0.2701 -0.1937
 9103SOL     OW38767   1.439   0.874   6.473  0.0042 -0.1823 -0.3601
 9103SOL    HW138768   1.355   0.859   6.429 -0.3838  2.2369 -0.4336
 9103SOL    HW238769   1.452   0.788   6.513 -1.0984 -1.2605 -2.3463
 9104SOL     OW38770   1.387   3.450  17.668  0.4383  0.0725 -0.0438
 9104SOL    HW138771   1.364   3.498   0.045  2.0690 -1.3674  1.2793
 9104SOL    HW238772   1.468   3.406  17.694  0.3906 -0.0728 -0.1447
 9105SOL     OW38773   3.162   0.671   3.132  0.1201 -0.3338  0.1226
 9105SOL    HW138774   3.091   0.630   3.082  0.9113  0.9987 -2.0773
 9105SOL    HW238775   3.232   0.628   3.083  0.0342 -0.7470  0.3586
 9106SOL     OW38776   1.732   1.851   4.322 -0.0798  0.5640  0.0537
 9106SOL    HW138777   1.717   1.856   4.228  0.3999  0.2967 -0.0356
 9106SOL    HW238778   1.780   1.929   4.349  0.2568  0.6532 -0.8109
 9107SOL     OW38779   0.869   1.931   5.548 -0.3880  0.1991 -0.1684
 9107SOL    HW138780   0.777   1.958   5.540 -0.1382  1.3654  0.8330
 9107SOL    HW238781   0.909   2.015   5.526  0.8654 -0.2524  0.4111
 9108SOL     OW38782   2.064   2.434   7.526 -0.1038 -0.4410 -0.0142
 9108SOL    HW138783   2.079   2.394   7.612  1.9946 -0.1119 -0.2243
 9108SOL    HW238784   1.970   2.448   7.517  0.2419  2.7641  1.3450
 9109SOL     OW38785   3.143   0.138   2.205 -0.2324 -0.2799 -0.2161
 9109SOL    HW138786   3.076   0.070   2.201  0.5516 -1.0428 -0.3974
 9109SOL    HW238787   3.217   0.085   2.235  1.0787  2.5522  1.5313
 9110SOL     OW38788   4.598   1.320   5.089  0.2572 -0.0916 -0.0733
 9110SOL    HW138789   4.684   1.321   5.045  0.4262 -0.4914  0.2539
 9110SOL    HW238790   4.612   1.362   5.174  2.5927 -0.8078 -0.1027
 9111SOL     OW38791   2.417   1.381   0.152 -0.1867  0.4785  0.0202
 9111SOL    HW138792   2.353   1.335   0.098  0.7172 -1.1732  0.3791
 9111SOL    HW238793   2.362   1.376   0.230 -1.0756  3.4797 -0.4089
 9112SOL     OW38794   2.238   3.567   0.618  0.4735 -0.2877 -0.1451
 9112SOL    HW138795   2.271   3.606   0.699  1.4117 -0.1978 -0.5696
 9112SOL    HW238796   2.143   3.578   0.627  0.4776 -0.0150 -0.4352
 9113SOL     OW38797   1.760   1.424   3.516  1.0461 -0.7238 -0.7380
 9113SOL    HW138798   1.783   1.433   3.608  0.7798 -1.5642 -0.5937
 9113SOL    HW238799   1.710   1.504   3.500  2.0750  0.0751  0.0351
 9114SOL     OW38800   3.540   0.291   0.542  0.3370  0.2011 -0.2107
 9114SOL    HW138801   3.634   0.279   0.559  0.5793 -1.7740 -2.8681
 9114SOL    HW238802   3.529   0.371   0.593  1.5125 -0.1122  0.5423
 9115SOL     OW38803   1.272   1.314   2.484  0.8122 -0.3456 -0.2424
 9115SOL    HW138804   1.299   1.371   2.412  1.3171 -1.3150 -0.8360
 9115SOL    HW238805   1.227   1.247   2.432 -2.0905  1.7835 -0.4878
 9116SOL     OW38806   3.237   4.580   9.940 -0.5876 -0.2395  0.2113
 9116SOL    HW138807   3.205   4.490   9.949  0.6168 -0.4419  2.4699
 9116SOL    HW238808   3.272   4.576   9.851  0.2392 -1.4404  0.5855
 9117SOL     OW38809   4.334   4.602  12.142 -0.7086 -0.0942  0.1036
 9117SOL    HW138810   4.322   4.521  12.092  1.1704  0.0222 -0.5346
 9117SOL    HW238811   4.356   4.564  12.227 -0.7523  0.1405  0.2227
 9118SOL     OW38812   1.029   3.368  11.462 -0.2394  0.3728  0.1457
 9118SOL    HW138813   1.114   3.408  11.446  0.1652 -0.7775 -0.5876
 9118SOL    HW238814   1.008   3.343  11.372  2.0329 -4.3899  0.9247
 9119SOL     OW38815   1.209   1.654   2.399  0.2280 -0.6416 -0.1265
 9119SOL    HW138816   1.237   1.724   2.338 -0.3341  2.1793  2.8601
 9119SOL    HW238817   1.279   1.589   2.390  1.6842  1.0529 -1.1859
 9120SOL     OW38818   4.406   4.060   9.585  0.0708  0.0614 -0.3576
 9120SOL    HW138819   4.382   3.972   9.555 -0.3500  0.4130 -1.0506
 9120SOL    HW238820   4.480   4.034   9.639 -2.0684 -2.3060  1.4731
 9121SOL     OW38821   1.557   1.162  14.605  0.3753  0.1999  0.1551
 9121SOL    HW138822   1.559   1.257  14.607  0.7281  0.1648  2.2443
 9121SOL    HW238823   1.581   1.142  14.696 -1.6863  1.8644  1.0657
 9122SOL     OW38824   0.200   1.167   3.575 -0.3906  0.4591 -0.0853
 9122SOL    HW138825   0.106   1.153   3.568 -0.0575  0.1180 -4.0480
 9122SOL    HW238826   0.206   1.208   3.488 -1.2005  0.7048 -0.0244
 9123SOL     OW38827   0.421   3.834   5.202 -0.1091  0.1707 -0.1335
 9123SOL    HW138828   0.422   3.818   5.296 -1.2264 -2.7210 -0.6424
 9123SOL    HW238829   0.331   3.865   5.198 -0.4332 -1.0176 -1.7508
 9124SOL     OW38830   0.582   3.271  12.348  0.3324  0.0659 -0.4948
 9124SOL    HW138831   0.580   3.193  12.404  1.7433 -0.4555 -1.1727
 9124SOL    HW238832   0.603   3.228  12.265  1.8617 -1.2805  0.5690
 9125SOL     OW38833   4.513   1.640   4.680  0.3889 -0.2799  0.3051
 9125SOL    HW138834   4.427   1.605   4.705 -0.2300  0.7951 -0.3357
 9125SOL    HW238835   4.532   1.594   4.598  0.1131  1.2717 -0.6236
 9126SOL     OW38836   2.251   4.133   0.777 -0.3423 -0.5008  0.3301
 9126SOL    HW138837   2.323   4.155   0.719 -1.6669  2.0362 -0.3232
 9126SOL    HW238838   2.186   4.168   0.717 -0.2889 -0.2851  0.3989
 9127SOL     OW38839   4.193   3.881   2.679  0.4377 -1.0626  0.1896
 9127SOL    HW138840   4.262   3.895   2.615  1.7966 -0.3830  1.8194
 9127SOL    HW238841   4.237   3.903   2.761 -2.0966  2.3816  0.6418
 9128SOL     OW38842   3.007   3.713  10.933 -0.3472 -0.8353  0.5186
 9128SOL    HW138843   3.024   3.759  10.850  2.7537  1.6166  2.5172
 9128SOL    HW238844   3.095   3.678  10.951  0.3321 -0.6929 -2.5157
 9129SOL     OW38845   1.376   2.292   8.873 -0.2474 -0.1412  1.0558
 9129SOL    HW138846   1.437   2.220   8.888  0.8573  0.5149 -0.2959
 9129SOL    HW238847   1.303   2.267   8.930 -0.4377 -1.5055  0.1977
 9130SOL     OW38848   3.154   0.690   1.818 -0.0297 -0.1268  0.0647
 9130SOL    HW138849   3.130   0.761   1.877  2.0796 -0.1029  0.9168
 9130SOL    HW238850   3.098   0.621   1.853  1.7617 -0.8212  1.5557
 9131SOL     OW38851   0.345   2.159  14.052 -0.1900 -0.0951 -0.2170
 9131SOL    HW138852   0.252   2.172  14.070 -0.1517  1.6463 -1.3422
 9131SOL    HW238853   0.381   2.246  14.035  0.3280 -0.5684 -1.5768
 9132SOL     OW38854   2.463   1.489   6.857 -0.1108  0.0273 -0.5436
 9132SOL    HW138855   2.484   1.487   6.764  4.1060 -0.1340  0.4219
 9132SOL    HW238856   2.376   1.449   6.869  0.1979 -0.2626  0.7599
 9133SOL     OW38857   1.082   1.336  13.083 -0.2340  0.2533  0.0005
 9133SOL    HW138858   1.082   1.329  13.178 -1.6251  0.7754  0.0343
 9133SOL    HW238859   1.083   1.243  13.060 -1.9300  0.2644 -0.1215
 9134SOL     OW38860   0.424   4.132   9.874 -0.1662  0.0996  0.0359
 9134SOL    HW138861   0.467   4.215   9.851  1.3242  0.1884  3.0829
 9134SOL    HW238862   0.340   4.141   9.828 -0.3890  1.5968  0.7394
 9135SOL     OW38863   2.276   3.468   7.119 -0.2700 -0.2117 -0.1269
 9135SOL    HW138864   2.332   3.438   7.047 -1.8878 -0.2750 -1.3645
 9135SOL    HW238865   2.190   3.437   7.090  0.0536  0.3311 -1.6875
 9136SOL     OW38866   2.835   4.610   7.938  0.0579  0.3135 -0.7977
 9136SOL    HW138867   2.818   4.699   7.967 -0.4013  0.0971 -0.3977
 9136SOL    HW238868   2.754   4.565   7.960 -0.1910  1.7682  1.2916
 9137SOL     OW38869   3.668   3.543   4.974  0.5648 -0.2024 -0.2937
 9137SOL    HW138870   3.588   3.526   5.025  0.8101 -0.5518 -0.0306
 9137SOL    HW238871   3.718   3.465   4.996  1.2867  0.5758  0.7962
 9138SOL     OW38872   1.007   0.119  14.632 -0.1266  0.8721 -0.0699
 9138SOL    HW138873   0.949   0.173  14.685 -1.9554 -0.4296 -0.7577
 9138SOL    HW238874   1.077   0.185  14.627 -0.4999  1.3613  1.1930
 9139SOL     OW38875   3.113   2.629   2.144  0.2325 -0.2277  0.8906
 9139SOL    HW138876   3.201   2.591   2.151 -0.0770 -1.2396 -0.5559
 9139SOL    HW238877   3.093   2.649   2.235 -1.2952  1.6886  0.1316
 9140SOL     OW38878   3.375   3.601   7.925  0.2431 -0.0325  0.4810
 9140SOL    HW138879   3.300   3.572   7.872  1.9580  0.5114 -2.2482
 9140SOL    HW238880   3.450   3.565   7.878  0.0844  0.6264 -0.2877
 9141SOL     OW38881   3.123   0.050   3.443  0.2348 -0.2143 -0.5483
 9141SOL    HW138882   3.102   0.125   3.499 -1.1971 -0.6476 -0.4884
 9141SOL    HW238883   3.052   0.054   3.378 -0.4310 -2.0535  0.0368
 9142SOL     OW38884   1.767   2.062   8.204 -0.2757  0.2797 -0.6469
 9142SOL    HW138885   1.775   2.002   8.129 -0.3994 -0.1330 -0.3319
 9142SOL    HW238886   1.697   2.119   8.172 -0.0738  1.7650  1.6187
 9143SOL     OW38887   0.231   1.880   7.725 -0.2997  0.1367 -0.2752
 9143SOL    HW138888   0.265   1.794   7.702  1.1203 -0.0470  2.4234
 9143SOL    HW238889   0.158   1.884   7.665  0.2435 -1.7786 -1.0688
 9144SOL     OW38890   3.189   4.161   2.206  0.4024 -0.0119  0.5156
 9144SOL    HW138891   3.167   4.088   2.264 -1.0673  0.2403  0.2824
 9144SOL    HW238892   3.135   4.232   2.239  0.1857 -0.7583  1.7671
 9145SOL     OW38893   3.648   1.972   4.681 -0.3802 -0.2836 -0.5791
 9145SOL    HW138894   3.712   2.042   4.670  0.2075 -0.3224  2.6184
 9145SOL    HW238895   3.586   1.994   4.750  0.7943 -0.1545  0.4264
 9146SOL     OW38896   3.190   3.578   0.512 -0.2720 -0.0880 -0.1702
 9146SOL    HW138897   3.248   3.536   0.449 -0.0925 -0.4567  0.2338
 9146SOL    HW238898   3.114   3.522   0.494 -1.6077  1.0641  1.9742
 9147SOL     OW38899   0.596   2.715  10.755 -0.5061 -0.1767 -0.1055
 9147SOL    HW138900   0.528   2.778  10.730 -1.3403 -1.1847 -0.4182
 9147SOL    HW238901   0.544   2.635  10.765 -0.8993  0.0948  0.0441
 9148SOL     OW38902   4.059   3.684   9.922 -0.0209  0.0778 -0.3027
 9148SOL    HW138903   4.081   3.737   9.845 -0.1074 -0.3371 -0.6147
 9148SOL    HW238904   4.142   3.696   9.969  0.6418 -0.1989 -1.3855
 9149SOL     OW38905   1.726   1.860   2.521  0.2300  0.1678 -0.2439
 9149SOL    HW138906   1.803   1.900   2.481  1.1436 -1.4535 -0.0710
 9149SOL    HW238907   1.650   1.912   2.494  0.8411  0.0992 -2.0784
 9150SOL     OW38908   3.343   2.871   1.951 -0.3062  0.3008  0.2480
 9150SOL    HW138909   3.375   2.783   1.930 -1.7048 -0.3691  0.9644
 9150SOL    HW238910   3.299   2.851   2.034  0.4880 -2.3355  0.0557
 9151SOL     OW38911   3.649   1.550   6.881 -0.0035  0.1522  0.0054
 9151SOL    HW138912   3.588   1.621   6.905 -0.2009  0.2632 -0.8299
 9151SOL    HW238913   3.594   1.477   6.908  0.5851 -0.1309  0.4473
 9152SOL     OW38914   0.388   4.046   4.928 -0.2215  0.2765 -0.2642
 9152SOL    HW138915   0.426   4.101   4.997  0.7325  0.8299 -1.2263
 9152SOL    HW238916   0.410   3.958   4.959 -0.3270 -0.3491 -1.9998
 9153SOL     OW38917   2.913   1.250   1.941  0.3787  1.1926 -0.3345
 9153SOL    HW138918   2.901   1.182   2.007 -3.2677  2.9034  0.7747
 9153SOL    HW238919   2.878   1.323   1.993 -0.8141 -0.9744  1.9020
 9154SOL     OW38920   0.584   2.718   1.685 -0.2231 -0.2379  0.2250
 9154SOL    HW138921   0.564   2.712   1.591  2.7594  0.9605 -0.5005
 9154SOL    HW238922   0.499   2.710   1.727 -0.8184  1.2879 -0.6872
 9155SOL     OW38923   3.649   3.358  16.103  0.1753 -0.4067  0.3533
 9155SOL    HW138924   3.682   3.411  16.176 -0.6102  1.3788 -0.5614
 9155SOL    HW238925   3.613   3.283  16.150 -0.6338 -1.8273 -2.5577
 9156SOL     OW38926   3.561   3.360   4.671  0.6050 -0.3527  0.1677
 9156SOL    HW138927   3.574   3.360   4.576 -0.5770 -1.0906  0.0024
 9156SOL    HW238928   3.650   3.385   4.697  0.8330  1.1315 -1.9558
 9157SOL     OW38929   2.928   0.434   3.476 -0.0745  0.0626 -0.1702
 9157SOL    HW138930   2.896   0.453   3.388  0.2895 -0.6424 -0.4550
 9157SOL    HW238931   2.861   0.477   3.530  1.6447  0.8089  1.3728
 9158SOL     OW38932   3.838   3.280  11.358  0.3603  0.1644  0.1788
 9158SOL    HW138933   3.854   3.315  11.271 -0.3713 -1.8614 -0.7865
 9158SOL    HW238934   3.777   3.208  11.341  0.1051  0.3327  0.3807
 9159SOL     OW38935   2.403   4.435   8.783  0.0472 -0.2197 -0.0670
 9159SOL    HW138936   2.385   4.434   8.877 -0.8115  1.0067 -0.2216
 9159SOL    HW238937   2.425   4.342   8.774 -2.8834 -1.0741  1.5460
 9160SOL     OW38938   3.815   3.609  14.315  0.5170  0.2156  0.4514
 9160SOL    HW138939   3.801   3.578  14.405  0.1054  0.4472  0.4678
 9160SOL    HW238940   3.746   3.675  14.321 -0.9676 -1.2279 -0.6460
 9161SOL     OW38941   1.314   3.880   7.235 -0.6898 -0.4675  0.0703
 9161SOL    HW138942   1.324   3.917   7.323  0.8692 -1.3228  0.2594
 9161SOL    HW238943   1.229   3.842   7.215  0.0219 -0.8112 -2.3212
 9162SOL     OW38944   4.448   1.602   2.386  0.0562  0.0220  0.7839
 9162SOL    HW138945   4.417   1.628   2.472 -0.6932  2.5987 -0.2554
 9162SOL    HW238946   4.519   1.664   2.370 -0.2262  0.1418 -0.0264
 9163SOL     OW38947   1.361   4.173   8.567 -0.0971 -0.4523 -0.0265
 9163SOL    HW138948   1.354   4.230   8.644 -1.8608  1.4648 -1.6313
 9163SOL    HW238949   1.364   4.241   8.500 -0.2539 -1.8978 -1.4912
 9164SOL     OW38950   0.264   2.275  11.668  0.4398  0.6779  0.0604
 9164SOL    HW138951   0.220   2.198  11.704 -0.6246  0.8762 -0.8098
 9164SOL    HW238952   0.285   2.244  11.580 -0.9500  0.3790 -0.1583
 9165SOL     OW38953   2.760   0.731  12.834  0.2383  0.7869  0.8141
 9165SOL    HW138954   2.846   0.721  12.875 -0.1421  0.6265  1.5646
 9165SOL    HW238955   2.729   0.803  12.890  1.7830 -1.2671  4.2976
 9166SOL     OW38956   3.376   4.356   8.601  0.0892 -0.0427  0.3563
 9166SOL    HW138957   3.360   4.262   8.596 -1.1284  0.1575  0.3921
 9166SOL    HW238958   3.360   4.370   8.695  0.6090 -0.5388  0.5185
 9167SOL     OW38959   3.937   0.252   1.610  0.4832 -0.0572 -0.6984
 9167SOL    HW138960   4.005   0.208   1.661 -1.3662 -0.5897  1.2890
 9167SOL    HW238961   3.932   0.334   1.660  0.3581 -0.4865 -0.0036
 9168SOL     OW38962   1.258   3.051   8.662  0.3354  0.0817  0.4723
 9168SOL    HW138963   1.199   3.057   8.737 -0.4790  2.1518 -0.3406
 9168SOL    HW238964   1.212   3.107   8.600 -1.6852 -2.9467 -0.7947
 9169SOL     OW38965   0.390   0.790   5.411 -0.5147  0.1031  0.2100
 9169SOL    HW138966   0.425   0.744   5.335  1.9918  0.5101  1.1165
 9169SOL    HW238967   0.339   0.724   5.458 -2.6917  0.6776 -1.3532
 9170SOL     OW38968   2.847   1.102  11.486 -0.0710  0.2774 -0.2175
 9170SOL    HW138969   2.833   1.131  11.576 -0.3580  1.6196 -0.6978
 9170SOL    HW238970   2.757   1.072  11.468  1.0381 -2.7970 -0.7310
 9171SOL     OW38971   4.632   1.317   3.313  0.1827  0.2586 -0.0540
 9171SOL    HW138972   4.554   1.320   3.257  0.0834  0.6340  0.1042
 9171SOL    HW238973   4.622   1.403   3.354 -0.6893  0.3456 -0.4566
 9172SOL     OW38974   3.439   1.690   6.985 -0.0296 -0.3658  0.8195
 9172SOL    HW138975   3.353   1.686   7.027 -1.1075  3.5864 -0.9353
 9172SOL    HW238976   3.497   1.741   7.042  1.1602  0.6007 -1.2266
 9173SOL     OW38977   2.772   2.081   4.880  0.1426  0.0161 -0.3287
 9173SOL    HW138978   2.783   1.990   4.853 -0.4729 -0.6533  1.6595
 9173SOL    HW238979   2.709   2.074   4.952 -0.1660  1.1761 -0.4799
 9174SOL     OW38980   4.338   4.217  14.674  0.3302  0.3270 -0.1696
 9174SOL    HW138981   4.282   4.153  14.718  0.5887 -1.5379 -2.5516
 9174SOL    HW238982   4.366   4.168  14.597  0.3299  1.4675 -0.9017
 9175SOL     OW38983   1.708   4.337   5.646 -0.2585 -0.0259 -0.6605
 9175SOL    HW138984   1.708   4.400   5.718  1.7883 -1.7986  0.8802
 9175SOL    HW238985   1.759   4.262   5.677  0.1506  0.4254 -0.2459
 9176SOL     OW38986   0.401   2.674   2.463 -0.1225 -0.8304  0.2990
 9176SOL    HW138987   0.323   2.707   2.507 -0.8092  1.7588 -2.8102
 9176SOL    HW238988   0.464   2.740   2.492  1.6186 -2.1323 -0.5284
 9177SOL     OW38989   1.302   1.861   1.929 -0.2976  0.4552  0.3470
 9177SOL    HW138990   1.251   1.805   1.871  3.1239 -1.5703 -0.7241
 9177SOL    HW238991   1.241   1.929   1.957  0.9896  1.2242  1.2831
 9178SOL     OW38992   0.789   4.101   8.072  0.1920 -0.2499  0.2137
 9178SOL    HW138993   0.760   4.060   8.153 -0.0976  1.5964  1.0277
 9178SOL    HW238994   0.820   4.180   8.116  3.0441 -1.8538  1.1218
 9179SOL     OW38995   4.671   0.905   5.870 -0.0285  0.2197 -0.3976
 9179SOL    HW138996   4.692   0.832   5.929  0.2530 -0.4555 -1.3371
 9179SOL    HW238997   4.579   0.925   5.889  0.3545  0.9991  0.6253
 9180SOL     OW38998   1.659   3.775   3.390 -0.8845 -0.6692 -0.2699
 9180SOL    HW138999   1.577   3.729   3.404  0.1299 -2.2645  0.4919
 9180SOL    HW239000   1.723   3.710   3.360 -0.9459 -1.0183  0.3423
 9181SOL     OW39001   0.797   4.435   7.114 -0.7486  0.1249 -0.3079
 9181SOL    HW139002   0.726   4.442   7.051  0.4465  2.0119 -1.4668
 9181SOL    HW239003   0.816   4.341   7.115 -0.6951  0.1405  0.1682
 9182SOL     OW39004   3.065   1.965   5.492 -0.6875  0.1562 -0.5964
 9182SOL    HW139005   3.156   1.972   5.462 -0.0705 -1.0713  0.9945
 9182SOL    HW239006   3.050   2.059   5.503 -0.8922  0.2510 -1.7110
 9183SOL     OW39007   4.679   1.434   6.643  0.2649 -0.0624  0.1136
 9183SOL    HW139008   4.613   1.432   6.713  0.8607 -2.1633  0.6087
 9183SOL    HW239009   4.719   1.518   6.664  0.4920  0.2303 -1.4911
 9184SOL     OW39010   0.308   0.349  15.806 -0.2984  0.7516  0.3172
 9184SOL    HW139011   0.300   0.422  15.745 -1.4167  0.7490  0.4572
 9184SOL    HW239012   0.288   0.400  15.884  0.4392 -1.2275  1.7777
 9185SOL     OW39013   1.393   4.574   4.364 -0.5363  0.4058 -0.0372
 9185SOL    HW139014   1.420   4.517   4.435 -2.6844 -1.1403 -0.4681
 9185SOL    HW239015   1.428   4.660   4.390  0.7263  0.1460 -0.8527
 9186SOL     OW39016   1.634   1.218   4.216 -0.0160 -0.2513  0.0203
 9186SOL    HW139017   1.543   1.207   4.243  0.1605 -2.1729 -0.1573
 9186SOL    HW239018   1.647   1.124   4.203  2.0082  0.0625 -0.2722
 9187SOL     OW39019   2.401   0.765   4.442 -0.1847  0.5515 -0.3901
 9187SOL    HW139020   2.369   0.844   4.485  0.1057 -0.6980  2.1348
 9187SOL    HW239021   2.481   0.751   4.492  0.0916 -1.9602 -1.5283
 9188SOL     OW39022   1.283   1.309  17.207  0.3007 -0.6019 -0.2448
 9188SOL    HW139023   1.333   1.378  17.165  2.5034 -3.7084 -2.6808
 9188SOL    HW239024   1.248   1.258  17.134  1.3598 -2.3354  0.4751
 9189SOL     OW39025   4.391   4.578  15.105 -0.8169  0.2770 -0.3053
 9189SOL    HW139026   4.415   4.510  15.169  3.8993  0.4840 -1.8164
 9189SOL    HW239027   4.339   4.631  15.165  0.0225  1.6950 -0.8402
 9190SOL     OW39028   4.411   3.511   6.631  0.2476  0.4686  0.1141
 9190SOL    HW139029   4.410   3.447   6.559 -0.8477  0.5100  0.1004
 9190SOL    HW239030   4.498   3.496   6.669  0.4543 -1.2386 -1.0197
 9191SOL     OW39031   1.501   2.310   6.556  0.2617  0.0949 -0.5148
 9191SOL    HW139032   1.464   2.222   6.553 -0.7658  0.4105  2.4704
 9191SOL    HW239033   1.521   2.323   6.463  1.9299  1.2107  0.0062
 9192SOL     OW39034   3.786   3.723   8.292 -0.0413  0.0123 -0.2827
 9192SOL    HW139035   3.700   3.735   8.333  1.1150  2.4027  1.4567
 9192SOL    HW239036   3.818   3.637   8.320 -0.7992 -0.2942 -0.3770
 9193SOL     OW39037   2.402   2.355   9.403  0.2113  0.5614  0.3409
 9193SOL    HW139038   2.325   2.305   9.429  1.8194 -0.0853  3.7959
 9193SOL    HW239039   2.385   2.441   9.442 -1.1687  0.2156  0.4856
 9194SOL     OW39040   3.724   2.591   4.944  0.0487  0.1490 -0.1554
 9194SOL    HW139041   3.772   2.646   5.006  0.4216 -1.0630  0.6330
 9194SOL    HW239042   3.695   2.514   4.993  0.4982  0.4668  0.6097
 9195SOL     OW39043   1.984   2.805   9.841 -0.0137 -0.1675  0.3360
 9195SOL    HW139044   1.931   2.798   9.762  0.5126 -0.2054 -0.0109
 9195SOL    HW239045   1.931   2.757   9.905 -0.4771 -1.9861 -1.4157
 9196SOL     OW39046   0.019   0.364   7.804 -0.0571 -0.4209 -0.1522
 9196SOL    HW139047   0.019   0.269   7.814  0.9632 -0.5584 -1.3726
 9196SOL    HW239048   4.651   0.377   7.794 -0.1585 -1.7945 -1.0669
 9197SOL     OW39049   1.177   2.981   3.621  0.8382  0.0234  0.5789
 9197SOL    HW139050   1.230   2.970   3.700 -1.2854 -0.9681  1.8773
 9197SOL    HW239051   1.094   2.961   3.664  0.6318 -3.2285 -1.3529
 9198SOL     OW39052   3.872   0.219   2.030 -0.1207  0.1296  0.2733
 9198SOL    HW139053   3.822   0.296   2.055  0.3378  0.1214  1.2123
 9198SOL    HW239054   3.851   0.201   1.938  0.3906 -0.2740  0.2365
 9199SOL     OW39055   0.475   4.141   2.273  0.2899  0.4173  0.1091
 9199SOL    HW139056   0.416   4.096   2.334  1.5484  1.3760  2.0563
 9199SOL    HW239057   0.451   4.095   2.193 -1.2718  0.4309  0.5809
 9200SOL     OW39058   4.713   0.691   5.138  0.2689 -0.2272  0.1613
 9200SOL    HW139059   4.676   0.678   5.226  0.3111 -2.2543 -0.1092
 9200SOL    HW239060   4.629   0.661   5.103  1.6718 -3.8044 -0.0975
 9201SOL     OW39061   4.287   2.743   2.021 -0.3825 -0.2618 -0.1310
 9201SOL    HW139062   4.356   2.717   2.082 -0.3778  1.7817  0.7535
 9201SOL    HW239063   4.283   2.664   1.968  0.2103  1.0702 -2.1890
 9202SOL     OW39064   1.654   4.474   5.427  0.2781 -0.3616  0.1817
 9202SOL    HW139065   1.705   4.420   5.487 -0.3589 -1.0647  0.0913
 9202SOL    HW239066   1.652   4.552   5.483 -1.0897 -1.4931  1.7302
 9203SOL     OW39067   2.312   2.801  12.874 -0.3804 -0.0250 -0.0485
 9203SOL    HW139068   2.276   2.770  12.791 -2.1057 -0.6399  0.9362
 9203SOL    HW239069   2.400   2.766  12.858 -0.5774  2.0173 -5.4043
 9204SOL     OW39070   2.932   2.871   2.547  0.6205  0.1198 -0.2096
 9204SOL    HW139071   2.988   2.802   2.582  2.8231  1.7371 -0.5609
 9204SOL    HW239072   2.998   2.926   2.506  1.8135 -0.1801  1.3034
 9205SOL     OW39073   1.987   2.427   3.511  0.4300 -0.2079 -0.2920
 9205SOL    HW139074   2.027   2.363   3.453 -1.1366 -0.5495 -0.9926
 9205SOL    HW239075   1.985   2.390   3.599  1.4220 -0.3444 -0.3269
 9206SOL     OW39076   1.034   3.542  15.227  0.1596 -0.1712 -0.6769
 9206SOL    HW139077   1.024   3.480  15.299 -1.3641 -0.5057 -1.1809
 9206SOL    HW239078   1.126   3.566  15.241  0.5826 -2.7765  0.9557
 9207SOL     OW39079   1.976   2.335   8.130 -0.5687 -0.0913 -0.1728
 9207SOL    HW139080   1.894   2.364   8.169  0.4417  0.3850  1.6003
 9207SOL    HW239081   1.997   2.267   8.193  3.5255 -0.0779 -1.5262
 9208SOL     OW39082   4.622   3.535   1.584 -0.8703  0.0347 -0.2654
 9208SOL    HW139083   4.591   3.508   1.670 -1.2479  0.4865 -0.2616
 9208SOL    HW239084   4.581   3.466   1.532 -0.7773  0.3443 -0.7588
 9209SOL     OW39085   0.205   0.248   4.721 -0.1287  0.3866 -0.1501
 9209SOL    HW139086   0.110   0.258   4.724 -0.2544 -0.9641  0.4838
 9209SOL    HW239087   0.234   0.299   4.645  0.4962 -0.1483 -0.2745
 9210SOL     OW39088   1.378   3.418   1.291  0.0267  0.0855 -0.4518
 9210SOL    HW139089   1.429   3.424   1.371  1.0867 -1.7336 -1.0098
 9210SOL    HW239090   1.373   3.512   1.273 -2.2590 -0.3128 -1.9400
 9211SOL     OW39091   3.730   1.530   0.442  0.1721  0.8648  0.4161
 9211SOL    HW139092   3.709   1.448   0.486  1.1078  0.2184 -0.3388
 9211SOL    HW239093   3.732   1.510   0.349 -0.0604 -0.1667  0.6337
 9212SOL     OW39094   0.800   0.827  10.951 -0.8939  0.3352  0.2137
 9212SOL    HW139095   0.784   0.896  10.886  1.8504 -0.3396 -1.2099
 9212SOL    HW239096   0.806   0.888  11.025  0.7758 -1.2496  1.4035
 9213SOL     OW39097   1.289   0.441  15.295 -0.0437  0.3391  0.1550
 9213SOL    HW139098   1.232   0.366  15.313 -0.7898  0.7610 -0.4245
 9213SOL    HW239099   1.256   0.513  15.349  0.5280  1.3921 -0.8924
 9214SOL     OW39100   2.030   4.074  10.890 -0.2204  0.2460 -0.5911
 9214SOL    HW139101   2.018   4.157  10.846 -0.3791 -0.0538 -1.1083
 9214SOL    HW239102   2.044   4.107  10.979 -1.6470  1.2073 -0.7350
 9215SOL     OW39103   3.477   0.840   1.602 -0.0325  0.2210  0.4210
 9215SOL    HW139104   3.519   0.862   1.519  0.7147 -0.6240  0.5760
 9215SOL    HW239105   3.399   0.788   1.582 -0.4159  0.8202  0.3604
 9216SOL     OW39106   1.772   4.084   5.704  0.2593 -0.6887  0.1124
 9216SOL    HW139107   1.805   3.998   5.678 -0.6880 -0.7818 -0.7922
 9216SOL    HW239108   1.679   4.062   5.698  0.7306 -1.8023 -3.0168
 9217SOL     OW39109   0.806   1.093  11.074 -0.0685  0.0108 -0.3190
 9217SOL    HW139110   0.864   1.090  11.150 -1.7381  1.6614  1.0186
 9217SOL    HW239111   0.859   1.129  11.003  1.7338 -0.8564  0.5823
 9218SOL     OW39112   0.426   0.226   3.183  0.1748 -0.0295  0.5042
 9218SOL    HW139113   0.409   0.319   3.193  0.8706  0.1052  0.4513
 9218SOL    HW239114   0.350   0.189   3.228 -2.3671  1.1857 -2.7464
 9219SOL     OW39115   2.792   1.627   4.813  0.8016 -0.8193 -0.9296
 9219SOL    HW139116   2.724   1.689   4.787  0.9687 -0.4719 -0.5419
 9219SOL    HW239117   2.807   1.656   4.903  2.3770  0.2827 -1.5461
 9220SOL     OW39118   3.929   4.544   5.471  0.4027  0.5314  0.2655
 9220SOL    HW139119   3.881   4.625   5.455 -1.4301 -0.4304  0.9418
 9220SOL    HW239120   3.866   4.500   5.528  1.2298 -1.0079 -0.0072
 9221SOL     OW39121   0.901   1.448  16.411  0.7205  0.3337  0.7827
 9221SOL    HW139122   0.981   1.482  16.451 -0.2533  0.2822  2.8031
 9221SOL    HW239123   0.850   1.529  16.410 -0.1229 -0.2156  0.2963
 9222SOL     OW39124   1.160   3.521   5.514 -0.5802  0.4510 -0.4316
 9222SOL    HW139125   1.073   3.533   5.476 -0.7880  2.1069  0.5548
 9222SOL    HW239126   1.141   3.459   5.584  3.6512 -0.6982 -0.2954
 9223SOL     OW39127   2.785   2.440   8.342 -0.2955  0.4309  0.8962
 9223SOL    HW139128   2.705   2.444   8.289 -1.2534 -0.4440  2.2748
 9223SOL    HW239129   2.769   2.357   8.387  3.5045 -1.0560 -0.4755
 9224SOL     OW39130   3.315   0.881  14.935 -0.1358  0.3485 -0.0323
 9224SOL    HW139131   3.359   0.918  15.011 -1.3870 -0.7340  1.2199
 9224SOL    HW239132   3.366   0.801  14.919  0.4853  1.2778 -2.7297
 9225SOL     OW39133   4.682   0.457   6.546 -0.1513 -0.3316 -0.5097
 9225SOL    HW139134   4.712   0.368   6.561  0.2386 -0.6089 -3.0338
 9225SOL    HW239135   4.641   0.476   6.631  1.8742 -1.8716  0.8030
 9226SOL     OW39136   4.195   1.887  12.980 -0.0636  0.2254  0.2884
 9226SOL    HW139137   4.246   1.952  12.931 -1.1107 -0.6676 -1.9712
 9226SOL    HW239138   4.107   1.901  12.944  0.5942 -0.4581 -1.6119
 9227SOL     OW39139   2.944   2.264  15.983 -0.6859  0.6207 -0.5228
 9227SOL    HW139140   2.907   2.350  16.005 -1.1603  0.8571 -2.2221
 9227SOL    HW239141   3.030   2.266  16.024  0.3727  0.5419 -2.7797
 9228SOL     OW39142   2.839   1.621  13.463 -0.2042 -0.3194 -0.4523
 9228SOL    HW139143   2.760   1.570  13.444 -0.6069 -0.1505  0.7976
 9228SOL    HW239144   2.888   1.566  13.524 -0.8639  0.9655  1.2362
 9229SOL     OW39145   2.485   0.631   4.159  0.5320  0.4773 -0.4155
 9229SOL    HW139146   2.453   0.598   4.243 -0.5422  0.3805 -0.8668
 9229SOL    HW239147   2.408   0.680   4.131  0.0211 -0.0175  0.1376
 9230SOL     OW39148   1.165   1.871  14.501 -0.3127  0.6391  0.0244
 9230SOL    HW139149   1.081   1.830  14.479 -1.1095  2.8369 -1.0629
 9230SOL    HW239150   1.215   1.863  14.420 -0.7545 -0.1525 -0.1731
 9231SOL     OW39151   1.510   2.573  11.501  0.1073  0.2236 -0.2632
 9231SOL    HW139152   1.439   2.530  11.549  0.5366  1.1941  1.2427
 9231SOL    HW239153   1.508   2.660  11.543  0.8339 -0.3180  0.8973
 9232SOL     OW39154   2.134   1.528   2.034  0.0124 -0.0161  0.1614
 9232SOL    HW139155   2.173   1.584   2.102 -1.4130 -0.2724  1.1783
 9232SOL    HW239156   2.150   1.585   1.959  0.6481  2.0279  1.8545
 9233SOL     OW39157   1.444   1.103   3.544 -0.1090  0.1653 -0.1586
 9233SOL    HW139158   1.440   1.146   3.629 -2.1251 -1.4836  0.5761
 9233SOL    HW239159   1.459   1.183   3.492 -0.1466 -0.8558 -1.7366
 9234SOL     OW39160   3.055   1.897   8.126 -0.5856 -0.1119 -0.1391
 9234SOL    HW139161   2.978   1.874   8.074  0.2260 -1.3417 -0.7939
 9234SOL    HW239162   3.023   1.928   8.210  1.0596  1.1109  0.0418
 9235SOL     OW39163   3.510   0.908   1.119  0.6126  0.2870 -0.4592
 9235SOL    HW139164   3.469   0.825   1.095  0.9872  0.1084 -0.4832
 9235SOL    HW239165   3.456   0.928   1.196  2.9808  1.5491  0.8700
 9236SOL     OW39166   2.505   0.516   7.490  0.2746 -0.2450  0.5774
 9236SOL    HW139167   2.529   0.606   7.468  1.5876 -1.1653 -1.8205
 9236SOL    HW239168   2.409   0.513   7.486  0.3495 -2.4899  0.1153
 9237SOL     OW39169   2.826   3.757   4.632 -0.5900  0.0318  0.4212
 9237SOL    HW139170   2.842   3.725   4.543  1.0896 -2.5529  1.6604
 9237SOL    HW239171   2.811   3.680   4.686 -1.2411  0.2621  0.5643
 9238SOL     OW39172   4.015   3.275   5.300 -0.2219  0.1730  0.6004
 9238SOL    HW139173   4.101   3.256   5.264  0.3316  1.9556  1.0082
 9238SOL    HW239174   4.039   3.317   5.383  1.4302 -1.2923  0.8760
 9239SOL     OW39175   3.953   3.487  12.067  0.1028 -0.7454  0.0582
 9239SOL    HW139176   3.890   3.444  12.009 -0.0363 -2.3929  1.4181
 9239SOL    HW239177   3.999   3.416  12.111 -3.7575 -2.7912  0.7780
 9240SOL     OW39178   2.047   3.024   1.876  0.0737 -0.1534 -0.1035
 9240SOL    HW139179   2.001   2.970   1.812  0.2642 -1.5439  0.9226
 9240SOL    HW239180   2.133   3.016   1.833  1.4259 -0.0384  2.6006
 9241SOL     OW39181   1.983   4.167   3.128 -0.1461  0.5321 -0.1942
 9241SOL    HW139182   1.915   4.234   3.116 -1.4490 -0.8970 -0.7672
 9241SOL    HW239183   2.023   4.209   3.204 -0.6884  2.2559 -0.8503
 9242SOL     OW39184   4.508   4.422   3.765 -0.0197  0.3904  0.0113
 9242SOL    HW139185   4.415   4.408   3.747 -0.3849  1.9521  0.6885
 9242SOL    HW239186   4.545   4.335   3.775  1.5724  0.8440 -1.9326
 9243SOL     OW39187   1.083   2.601  13.312  0.7778  0.5074  0.7452
 9243SOL    HW139188   1.148   2.653  13.360  0.7723  0.4980  0.7628
 9243SOL    HW239189   1.124   2.579  13.228 -1.7960 -2.2573  0.2060
 9244SOL     OW39190   3.137   2.366   7.593 -0.4007 -0.0820  0.0586
 9244SOL    HW139191   3.097   2.293   7.640  1.3181 -0.9683  0.1426
 9244SOL    HW239192   3.056   2.413   7.575 -1.7566 -1.7568  1.7459
 9245SOL     OW39193   2.704   2.233  11.628  0.6489 -0.2283  0.3278
 9245SOL    HW139194   2.648   2.282  11.688  0.5495 -0.2937  0.2883
 9245SOL    HW239195   2.792   2.254  11.659  0.9407  2.3212 -2.2374
 9246SOL     OW39196   2.607   4.051   7.266  0.7557  0.4511 -0.1092
 9246SOL    HW139197   2.568   4.136   7.285  1.5118  0.6356  0.6200
 9246SOL    HW239198   2.566   3.997   7.334  1.4701  0.5776  0.4244
 9247SOL     OW39199   0.215   2.400   3.681 -0.1972 -0.4571  0.3073
 9247SOL    HW139200   0.290   2.361   3.635  0.6804 -1.1432  2.3314
 9247SOL    HW239201   0.257   2.406   3.767  0.8661  0.7778 -0.2992
 9248SOL     OW39202   4.196   0.750   3.194  0.0641 -0.4092 -0.5809
 9248SOL    HW139203   4.261   0.738   3.125 -0.2082  0.1866 -0.9373
 9248SOL    HW239204   4.157   0.827   3.153 -0.3451 -0.0203  0.5366
 9249SOL     OW39205   3.267   3.028  12.768 -0.4398 -0.3639 -0.5976
 9249SOL    HW139206   3.218   3.051  12.847 -0.4337  1.1824 -1.0516
 9249SOL    HW239207   3.336   3.093  12.758  0.5455 -1.2571  0.3433
 9250SOL     OW39208   0.848   2.984  11.920 -0.2213 -0.0316  0.2523
 9250SOL    HW139209   0.780   2.946  11.865 -0.4370  3.0956 -1.6009
 9250SOL    HW239210   0.928   2.961  11.872 -0.1703  3.2031 -1.2046
 9251SOL     OW39211   3.916   4.238   7.974  0.3220 -0.0675  1.1178
 9251SOL    HW139212   3.983   4.216   8.039  1.1566 -2.4944 -0.5583
 9251SOL    HW239213   3.864   4.158   7.974  0.4007 -0.1161  1.8476
 9252SOL     OW39214   2.014   3.768   4.445 -0.5406  0.3281  0.3173
 9252SOL    HW139215   2.041   3.692   4.497 -2.2576  0.4368  1.3277
 9252SOL    HW239216   1.956   3.811   4.507 -0.4384  0.3216  0.4166
 9253SOL     OW39217   2.092   2.132   7.324  0.5375  0.7157  0.1381
 9253SOL    HW139218   2.076   2.197   7.393  1.1153  0.6814  0.3018
 9253SOL    HW239219   2.014   2.145   7.269 -0.9692 -1.6767  1.6742
 9254SOL     OW39220   2.462   0.808   7.460 -0.0657 -0.3013 -0.3084
 9254SOL    HW139221   2.432   0.899   7.466 -0.6898 -0.6109  1.0221
 9254SOL    HW239222   2.408   0.772   7.530  1.6750 -0.4080  0.9701
 9255SOL     OW39223   2.350   2.405   5.447 -0.0872  0.2999  0.4720
 9255SOL    HW139224   2.327   2.496   5.428 -0.5465  0.2229  0.6562
 9255SOL    HW239225   2.313   2.396   5.535 -0.5496 -1.2270  0.1173
 9256SOL     OW39226   0.812   0.807   4.003 -0.7745 -0.2410 -0.1631
 9256SOL    HW139227   0.809   0.712   4.010 -0.2597 -0.3939 -2.0396
 9256SOL    HW239228   0.791   0.819   3.911  1.0174 -1.8441 -0.7682
 9257SOL     OW39229   3.081   0.943   3.841  0.0553  0.3299 -0.7240
 9257SOL    HW139230   3.004   0.999   3.852 -1.3960 -1.4516 -1.7924
 9257SOL    HW239231   3.042   0.858   3.818 -0.9976 -0.0850  2.4968
 9258SOL     OW39232   0.273   0.186   8.442  0.3274 -0.9516 -0.4629
 9258SOL    HW139233   0.299   0.251   8.507 -1.4843 -0.7831  0.1075
 9258SOL    HW239234   0.188   0.226   8.420 -0.0969  0.0916  3.0402
 9259SOL     OW39235   1.459   0.265   0.672  0.0115  0.2146 -0.0746
 9259SOL    HW139236   1.511   0.186   0.689  0.3938  0.0360 -2.0979
 9259SOL    HW239237   1.397   0.272   0.745 -0.1978  0.3556 -0.2661
 9260SOL     OW39238   4.063   1.945  10.959 -0.3698 -0.1231  0.0611
 9260SOL    HW139239   4.098   2.032  10.938 -0.5932 -0.8726 -3.5074
 9260SOL    HW239240   4.122   1.890  10.907 -0.4970 -1.3827  1.2466
 9261SOL     OW39241   2.785   2.327  16.384  0.3329 -0.5840  0.2912
 9261SOL    HW139242   2.747   2.411  16.412 -2.0386 -1.9249  1.0712
 9261SOL    HW239243   2.760   2.326  16.292  0.8319  0.1045  0.1470
 9262SOL     OW39244   4.375   0.317   5.136 -0.8622 -0.4632  0.4124
 9262SOL    HW139245   4.419   0.244   5.179  0.2704  0.0615  0.1492
 9262SOL    HW239246   4.300   0.265   5.107 -0.1679 -0.2918 -1.6921
 9263SOL     OW39247   4.670   4.154   7.664  0.1806  0.6273 -0.4995
 9263SOL    HW139248   4.627   4.236   7.687  0.2292  0.8894 -1.3351
 9263SOL    HW239249   0.035   4.177   7.686  0.8724 -2.5742 -0.0712
 9264SOL     OW39250   2.208   2.040  12.925 -0.2803  0.0357  0.6626
 9264SOL    HW139251   2.116   2.023  12.943 -0.2215 -0.8506  0.1252
 9264SOL    HW239252   2.228   2.127  12.959 -0.6636 -0.9999  3.5041
 9265SOL     OW39253   3.465   3.601  14.710  0.2049 -0.2436 -0.0825
 9265SOL    HW139254   3.485   3.596  14.804 -0.5753  0.3597  0.1123
 9265SOL    HW239255   3.448   3.694  14.695 -0.7871  0.0434  2.7975
 9266SOL     OW39256   3.985   3.257   4.793 -0.5759 -0.1158  0.2947
 9266SOL    HW139257   3.968   3.348   4.768  0.1740  0.0320  0.3129
 9266SOL    HW239258   3.994   3.225   4.704 -2.1365 -0.6548  0.3411
 9267SOL     OW39259   1.262   4.568  14.140  0.2221  0.0982 -0.0852
 9267SOL    HW139260   1.347   4.528  14.123  0.8439  0.9667  1.0149
 9267SOL    HW239261   1.225   4.494  14.189  1.1632  0.1269  0.6747
 9268SOL     OW39262   1.029   1.266   5.360 -0.2060 -0.4232 -0.0036
 9268SOL    HW139263   1.112   1.309   5.337  0.1440 -0.4685  1.1810
 9268SOL    HW239264   1.045   1.204   5.289  0.4715  0.3157 -0.5081
 9269SOL     OW39265   3.626   1.301   7.712 -0.2044 -0.0812 -0.6857
 9269SOL    HW139266   3.600   1.287   7.803 -0.4356 -3.4136 -1.2607
 9269SOL    HW239267   3.661   1.389   7.720 -1.4339  0.4143 -0.6592
 9270SOL     OW39268   1.519   4.292  17.669  0.0209  0.3286 -0.5857
 9270SOL    HW139269   1.519   4.382  17.635 -2.1017 -0.1316 -1.7840
 9270SOL    HW239270   1.541   4.236  17.595  2.7227 -0.5812  0.9101
 9271SOL     OW39271   3.377   3.222   1.601  0.4759 -0.0865 -1.0040
 9271SOL    HW139272   3.387   3.173   1.682 -1.4109 -0.4243 -0.9637
 9271SOL    HW239273   3.454   3.188   1.556  1.7345 -0.0238  1.1495
 9272SOL     OW39274   1.930   1.360  13.071  0.0538  0.1987  0.0768
 9272SOL    HW139275   1.999   1.309  13.029 -0.2118 -1.1246  1.2483
 9272SOL    HW239276   1.865   1.365  13.001 -1.2178 -0.2650  1.2275
 9273SOL     OW39277   3.955   4.308   5.925  0.2223 -0.1100  0.1758
 9273SOL    HW139278   3.894   4.376   5.955 -0.4502 -1.9473  3.0392
 9273SOL    HW239279   3.960   4.338   5.834  1.5727 -0.0193  0.2774
 9274SOL     OW39280   4.645   1.715   7.042 -0.0078 -0.2083 -0.3450
 9274SOL    HW139281   4.596   1.777   6.987  0.5762 -0.0864 -0.7230
 9274SOL    HW239282   4.702   1.677   6.975  0.9939  0.1953  0.2838
 9275SOL     OW39283   1.575   0.039  13.362 -0.2238 -0.0094 -0.8614
 9275SOL    HW139284   1.617   4.696  13.414 -1.2904  1.3351  1.7601
 9275SOL    HW239285   1.645   0.053  13.298  0.4173  0.6371 -0.0061
 9276SOL     OW39286   4.669   2.278  16.348  0.2114 -0.3428  0.4577
 9276SOL    HW139287   4.585   2.325  16.341 -0.2419 -0.8676  2.2067
 9276SOL    HW239288   4.689   2.313  16.435  2.8023  0.2607 -0.3786
 9277SOL     OW39289   2.780   0.116  16.937 -0.1231 -0.1212  0.2907
 9277SOL    HW139290   2.801   0.166  16.858 -1.3815  0.7999  0.5228
 9277SOL    HW239291   2.714   0.172  16.979 -1.4566 -0.6391 -1.1209
 9278SOL     OW39292   2.935   0.544  16.470  0.1505  0.1995 -0.3568
 9278SOL    HW139293   2.942   0.595  16.389 -0.1738 -1.7286 -1.6030
 9278SOL    HW239294   3.023   0.507  16.471  0.2580  0.4730  0.2402
 9279SOL     OW39295   2.649   2.900   7.550 -0.1267  0.0875 -0.5673
 9279SOL    HW139296   2.564   2.918   7.510  0.4835  1.1811 -1.3862
 9279SOL    HW239297   2.696   2.867   7.473  2.9429 -0.9760  1.7630
 9280SOL     OW39298   2.349   2.589  11.921 -0.1670  0.2616  0.1260
 9280SOL    HW139299   2.281   2.529  11.891 -0.7668  1.4518 -0.9310
 9280SOL    HW239300   2.361   2.560  12.012  1.0406  2.9531  0.8474
 9281SOL     OW39301   4.171   3.580   6.046 -0.1807 -0.0921  0.0236
 9281SOL    HW139302   4.172   3.618   5.959  0.5287  1.7222  0.8212
 9281SOL    HW239303   4.212   3.654   6.091 -1.1061  0.8151 -0.6210
 9282SOL     OW39304   0.354   4.308   2.016 -0.2461  0.2020 -0.0926
 9282SOL    HW139305   0.314   4.379   1.967 -0.4239  0.5518  0.5658
 9282SOL    HW239306   0.443   4.311   1.979  1.4770  0.5112  4.0932
 9283SOL     OW39307   3.743   0.632  13.919  0.4573 -0.5593 -0.4688
 9283SOL    HW139308   3.687   0.556  13.905  0.2774 -0.1478 -1.9933
 9283SOL    HW239309   3.793   0.643  13.837  0.0627  0.9576 -0.5099
 9284SOL     OW39310   1.661   2.768  14.195 -0.3435 -0.0428 -0.1427
 9284SOL    HW139311   1.641   2.675  14.186 -0.9432  0.0103  0.6304
 9284SOL    HW239312   1.585   2.811  14.155 -0.8503 -1.7961 -1.0446
 9285SOL     OW39313   1.595   0.235   2.657 -0.2578  0.5739 -0.7477
 9285SOL    HW139314   1.569   0.327   2.659  0.2443  0.6847  0.7628
 9285SOL    HW239315   1.690   0.232   2.644 -0.1659  1.3835 -0.2821
 9286SOL     OW39316   1.922   4.511  15.023  0.4699  0.2000 -0.3863
 9286SOL    HW139317   2.016   4.526  15.029  0.1833  1.1500  1.9004
 9286SOL    HW239318   1.885   4.588  15.066 -0.4016 -0.2015 -0.4181
 9287SOL     OW39319   0.207   1.752  12.600 -0.1814  0.3741 -0.2213
 9287SOL    HW139320   0.167   1.783  12.681  0.6267 -1.5497  0.9113
 9287SOL    HW239321   0.143   1.682  12.592 -1.1927  1.3210 -0.4074
 9288SOL     OW39322   1.839   4.180   8.993  0.4182  0.1868 -0.6813
 9288SOL    HW139323   1.885   4.139   8.920  2.7639  1.2536  0.2082
 9288SOL    HW239324   1.881   4.124   9.058  1.2377  0.4027 -1.0245
 9289SOL     OW39325   0.659   1.920   0.917  0.0691 -0.0781  0.1881
 9289SOL    HW139326   0.699   1.997   0.957 -0.0195  0.3215 -0.4958
 9289SOL    HW239327   0.638   1.871   0.996 -1.5958 -0.3985 -0.4656
 9290SOL     OW39328   0.568   3.240   3.855 -0.0064  0.4305  0.0283
 9290SOL    HW139329   0.485   3.238   3.807 -0.2336 -3.3277  0.5695
 9290SOL    HW239330   0.613   3.172   3.805  2.0957 -0.5621  3.2847
 9291SOL     OW39331   3.430   0.678   8.362  0.4599  0.4579  0.0590
 9291SOL    HW139332   3.427   0.754   8.303 -0.6078 -0.5253 -1.1460
 9291SOL    HW239333   3.441   0.614   8.292  1.3620  1.4429 -0.6838
 9292SOL     OW39334   4.393   1.815   6.955  0.1001  0.6288  0.3533
 9292SOL    HW139335   4.380   1.793   6.863  2.2248  0.5996  0.0580
 9292SOL    HW239336   4.302   1.826   6.983  0.3969  0.8938  1.2139
 9293SOL     OW39337   1.167   0.304   8.041 -0.3396 -0.0527 -0.8852
 9293SOL    HW139338   1.209   0.223   8.067  1.1648  1.0152  0.0119
 9293SOL    HW239339   1.186   0.306   7.948 -1.6507  1.1438 -1.1341
 9294SOL     OW39340   2.428   4.267   6.401 -0.1258 -0.2231 -0.6361
 9294SOL    HW139341   2.337   4.293   6.389 -0.0494  1.3796  2.4296
 9294SOL    HW239342   2.421   4.172   6.411  0.1797 -0.1418  0.3161
 9295SOL     OW39343   2.270   0.563   8.020 -0.2563  0.0612 -0.4965
 9295SOL    HW139344   2.337   0.540   7.956  2.4896  0.6643  2.1372
 9295SOL    HW239345   2.310   0.532   8.101 -2.3729 -1.2704  0.0368
 9296SOL     OW39346   3.449   1.810   7.615 -0.5527  0.4877 -0.1266
 9296SOL    HW139347   3.429   1.850   7.700 -0.5446 -3.6015  1.7831
 9296SOL    HW239348   3.388   1.737   7.615 -1.3407  1.1280  2.9498
 9297SOL     OW39349   0.596   0.884   2.468 -0.0999  0.0033 -0.7582
 9297SOL    HW139350   0.668   0.910   2.411  1.0211  0.4384  0.8557
 9297SOL    HW239351   0.589   0.795   2.434 -1.8976 -0.2226  0.1999
 9298SOL     OW39352   0.414   2.657  10.474  0.5211  0.1975  0.1480
 9298SOL    HW139353   0.374   2.625  10.393  0.4930  1.4294 -0.3186
 9298SOL    HW239354   0.414   2.574  10.522  0.9204  0.9711  1.4812
 9299SOL     OW39355   4.119   3.655   4.778  0.0846 -0.7988 -0.7490
 9299SOL    HW139356   4.198   3.692   4.819 -0.8046 -2.4644  2.4498
 9299SOL    HW239357   4.052   3.694   4.833  1.9152  3.5934 -1.6456
 9300SOL     OW39358   1.290   3.590   3.147  0.3270  0.0678 -0.0876
 9300SOL    HW139359   1.231   3.660   3.175  0.3462  0.2313 -0.4563
 9300SOL    HW239360   1.260   3.574   3.057 -0.1888 -0.2231  0.1311
 9301SOL     OW39361   0.299   1.565   3.424  0.3743 -0.0033  0.3053
 9301SOL    HW139362   0.341   1.644   3.390  1.8998 -0.1394  1.9315
 9301SOL    HW239363   0.231   1.563   3.356 -0.4037 -1.0759  1.1181
 9302SOL     OW39364   1.804   3.062   6.275 -0.3666  0.5088 -0.4832
 9302SOL    HW139365   1.772   3.139   6.322  1.7673  0.0270  1.7683
 9302SOL    HW239366   1.898   3.079   6.267 -0.3046 -0.3853 -1.5639
 9303SOL     OW39367   0.362   2.192   2.097 -0.1514  0.1051  0.3928
 9303SOL    HW139368   0.369   2.268   2.154 -1.3427  0.7282 -0.3037
 9303SOL    HW239369   0.345   2.228   2.010  1.2208  2.1480  0.9844
 9304SOL     OW39370   4.428   2.459   9.995 -0.3268  0.1728 -0.1600
 9304SOL    HW139371   4.388   2.475  10.081 -1.7611 -0.5648 -0.6781
 9304SOL    HW239372   4.518   2.486  10.013  0.1246 -0.0326 -2.1876
 9305SOL     OW39373   3.759   3.927   9.030  0.1146  0.3081  0.2140
 9305SOL    HW139374   3.784   3.843   8.990  1.1652  1.4239 -1.4834
 9305SOL    HW239375   3.666   3.914   9.048 -0.1361  1.2236 -0.3971
 9306SOL     OW39376   0.337   1.132  15.730  0.3405  0.4251 -0.0079
 9306SOL    HW139377   0.347   1.037  15.738  1.9563  0.7303  1.4165
 9306SOL    HW239378   0.244   1.147  15.711  0.0883 -0.4591  0.5109
 9307SOL     OW39379   3.632   3.003   3.853 -0.2596  0.0554  0.0450
 9307SOL    HW139380   3.715   2.956   3.840 -1.4194 -1.4518 -2.0797
 9307SOL    HW239381   3.568   2.952   3.804  0.7692 -0.2220 -1.0331
 9308SOL     OW39382   3.249   2.663   6.688  0.5153 -0.1476  0.0139
 9308SOL    HW139383   3.293   2.736   6.732 -0.4643  0.3553  0.1495
 9308SOL    HW239384   3.301   2.597   6.735 -0.5593 -0.3779  0.8778
 9309SOL     OW39385   3.541   1.049   4.959 -0.1270  0.0486 -0.1150
 9309SOL    HW139386   3.634   1.071   4.962  0.1422 -1.0448 -0.5559
 9309SOL    HW239387   3.529   1.064   4.865  0.4158  0.9445 -0.0383
 9310SOL     OW39388   3.867   2.573   8.974 -0.2761 -0.5912 -0.5437
 9310SOL    HW139389   3.910   2.659   8.979  1.3073 -1.3855 -0.6321
 9310SOL    HW239390   3.786   2.597   8.928 -1.3446 -0.6645  1.3013
 9311SOL     OW39391   3.528   0.353   5.237 -0.8193  0.1979  0.9734
 9311SOL    HW139392   3.568   0.394   5.313  0.7776 -0.8170  0.6725
 9311SOL    HW239393   3.484   0.432   5.204  0.1656  0.9383  1.4433
 9312SOL     OW39394   4.506   2.010  12.751 -0.3918 -0.2825 -0.4064
 9312SOL    HW139395   4.499   1.921  12.716 -1.3279  0.7326 -2.8279
 9312SOL    HW239396   4.413   2.031  12.741  0.0429  0.5428 -2.8529
 9313SOL     OW39397   3.650   2.030   6.797 -0.0495 -0.1751  0.0419
 9313SOL    HW139398   3.665   1.951   6.746 -0.7774  0.0761 -0.5647
 9313SOL    HW239399   3.694   2.096   6.744 -0.1478  1.2377  1.7226
 9314SOL     OW39400   0.348   4.279   5.502  0.1139 -0.2080 -0.0775
 9314SOL    HW139401   0.331   4.254   5.593 -1.3487 -1.4675 -0.6973
 9314SOL    HW239402   0.285   4.223   5.457  0.7363 -0.5781 -0.4739
 9315SOL     OW39403   0.692   0.628   8.442  0.4686 -0.4892  0.2589
 9315SOL    HW139404   0.661   0.719   8.449  0.4665 -0.5430  0.9329
 9315SOL    HW239405   0.608   0.589   8.418  1.4203 -2.4034  0.0909
 9316SOL     OW39406   0.418   0.638   6.971  0.1711 -0.1565 -0.0455
 9316SOL    HW139407   0.448   0.594   7.051  1.0468 -0.4759 -0.5496
 9316SOL    HW239408   0.365   0.710   7.006  0.8565  1.0883 -1.5725
 9317SOL     OW39409   3.170   3.800   4.146 -0.0741  0.1326  0.6153
 9317SOL    HW139410   3.248   3.786   4.199 -0.0179 -0.2900  0.4218
 9317SOL    HW239411   3.103   3.748   4.190 -0.3262  0.8413  1.0697
 9318SOL     OW39412   0.261   1.735   8.138 -0.3464 -0.0033  0.0291
 9318SOL    HW139413   0.278   1.642   8.118  3.0869  0.8974 -1.2230
 9318SOL    HW239414   0.349   1.765   8.161  0.6735 -1.0238 -2.6012
 9319SOL     OW39415   0.320   0.027   7.169 -0.0927  0.6054  0.5389
 9319SOL    HW139416   0.268   0.041   7.090  0.4788 -0.7077 -0.0725
 9319SOL    HW239417   0.252   4.706   7.217 -0.1653  0.4899  0.3238
 9320SOL     OW39418   2.686   4.554   6.888  0.0305  0.1199  0.0422
 9320SOL    HW139419   2.623   4.626   6.895 -1.5361 -1.0588 -1.5645
 9320SOL    HW239420   2.621   4.484   6.881  1.9733 -1.5189 -1.5897
 9321SOL     OW39421   3.777   3.031   9.710 -0.1608  0.0845  0.3634
 9321SOL    HW139422   3.754   3.123   9.722  0.5672  0.2122  0.8210
 9321SOL    HW239423   3.844   3.046   9.642 -1.4075  0.8193 -0.7001
 9322SOL     OW39424   4.556   1.387   8.652  0.1186  0.5088  0.5782
 9322SOL    HW139425   4.585   1.405   8.562 -0.5536  2.4525  0.7518
 9322SOL    HW239426   4.463   1.373   8.636 -0.2026 -0.6480  3.4205
 9323SOL     OW39427   2.935   2.340   1.577 -0.0527 -0.3174  0.1170
 9323SOL    HW139428   2.899   2.427   1.596  1.4075 -0.1055  1.9610
 9323SOL    HW239429   2.853   2.290   1.578  0.2686 -0.8589 -1.7186
 9324SOL     OW39430   1.120   1.936   1.636 -0.1091  0.2045  0.3262
 9324SOL    HW139431   1.174   1.864   1.670 -0.2226  1.6472  3.6012
 9324SOL    HW239432   1.189   2.002   1.629  0.1320  0.2388  2.7591
 9325SOL     OW39433   1.510   2.768  10.690 -0.7864 -0.2450  0.2658
 9325SOL    HW139434   1.469   2.832  10.748  1.0867  1.7894 -0.6595
 9325SOL    HW239435   1.538   2.815  10.611  0.0821 -0.7764  0.2547
 9326SOL     OW39436   4.325   1.800   9.487  0.2649 -0.7170 -0.3863
 9326SOL    HW139437   4.302   1.716   9.447 -0.9534  0.3710 -2.0176
 9326SOL    HW239438   4.258   1.864   9.462 -0.2110 -0.6362  1.1162
 9327SOL     OW39439   1.280   0.447   9.994 -1.2238 -0.0635 -0.6054
 9327SOL    HW139440   1.313   0.362   9.963  0.4911 -0.3169  1.8417
 9327SOL    HW239441   1.317   0.510   9.933 -2.0187  0.7145 -0.2698
 9328SOL     OW39442   3.176   2.347   4.826  0.4008  0.0579 -0.8211
 9328SOL    HW139443   3.169   2.406   4.752 -1.6691  1.9291  0.8699
 9328SOL    HW239444   3.269   2.361   4.844  0.2994 -0.2001 -0.0783
 9329SOL     OW39445   2.733   3.800   2.078 -0.4614 -0.5693 -0.3152
 9329SOL    HW139446   2.742   3.854   2.000  0.1376  1.4689  1.1731
 9329SOL    HW239447   2.671   3.851   2.130  1.7466  0.1287  1.6267
 9330SOL     OW39448   0.697   3.947   3.647  0.5019  0.9036 -0.2324
 9330SOL    HW139449   0.606   3.969   3.628  0.0788 -0.7836 -0.1740
 9330SOL    HW239450   0.739   4.028   3.675  1.1687  0.3276  0.4063
 9331SOL     OW39451   4.059   3.285   8.120 -0.1340  0.2318  0.4743
 9331SOL    HW139452   4.014   3.262   8.202 -0.5570  1.9082  0.7084
 9331SOL    HW239453   4.082   3.377   8.132 -1.0239  0.5065  0.0702
 9332SOL     OW39454   3.990   1.017   4.224  0.4056 -0.1777 -0.5647
 9332SOL    HW139455   3.933   0.943   4.202 -0.3189 -0.2714  1.6693
 9332SOL    HW239456   3.930   1.086   4.196  0.4043  0.1200  0.1787
 9333SOL     OW39457   2.047   4.418   0.254  0.1539 -0.1535 -0.0850
 9333SOL    HW139458   2.095   4.421   0.337  1.0365  0.0839 -0.6035
 9333SOL    HW239459   2.036   4.513   0.243 -1.9799 -0.3405  0.4024
 9334SOL     OW39460   4.448   1.445   0.632  0.4639  0.2265 -0.4348
 9334SOL    HW139461   4.403   1.378   0.684  0.9340  1.5733  1.6855
 9334SOL    HW239462   4.441   1.516   0.695 -0.3975  0.9410 -1.3384
 9335SOL     OW39463   0.942   2.630   2.193 -0.1247  0.4724 -0.7812
 9335SOL    HW139464   0.847   2.631   2.185 -0.3824 -1.4846  2.2744
 9335SOL    HW239465   0.969   2.706   2.142 -1.2861  1.3898 -0.0397
 9336SOL     OW39466   2.196   2.146   7.757  0.4177 -0.9569  0.4672
 9336SOL    HW139467   2.235   2.188   7.680 -0.6399  1.6389  1.3581
 9336SOL    HW239468   2.103   2.151   7.735  0.6453  0.0295 -0.2445
 9337SOL     OW39469   4.589   2.622   8.253 -0.0459 -0.0584  0.0539
 9337SOL    HW139470   4.662   2.667   8.296 -0.3960 -0.2433  0.8467
 9337SOL    HW239471   4.516   2.654   8.306 -1.0834  1.3255 -2.2238
 9338SOL     OW39472   3.070   4.092  16.705  0.1106  0.2051 -0.2553
 9338SOL    HW139473   3.017   4.166  16.738 -3.3061 -1.6902 -1.5108
 9338SOL    HW239474   3.048   4.095  16.612  2.1299  0.4227 -0.7235
 9339SOL     OW39475   4.142   3.380   7.587 -0.2662  0.1597 -0.0707
 9339SOL    HW139476   4.147   3.408   7.679  1.4899  0.6571 -0.3235
 9339SOL    HW239477   4.129   3.285   7.590  2.7170 -0.2654 -0.7697
 9340SOL     OW39478   3.760   2.790  14.104  0.5927 -0.3114  0.1471
 9340SOL    HW139479   3.722   2.837  14.030 -2.5262 -0.0769  1.9200
 9340SOL    HW239480   3.806   2.726  14.050 -1.4418 -2.6214  1.1569
 9341SOL     OW39481   1.350   1.557   4.751  0.5355  0.0378  0.4619
 9341SOL    HW139482   1.277   1.607   4.713 -0.9915 -0.1388  3.1654
 9341SOL    HW239483   1.294   1.520   4.819  0.5882 -0.9422 -0.0377
 9342SOL     OW39484   4.456   1.237   5.725  0.1512 -0.3807  0.2664
 9342SOL    HW139485   4.460   1.332   5.735 -0.7088 -0.4019  0.8479
 9342SOL    HW239486   4.498   1.222   5.641 -0.1281  0.5245 -0.0318
 9343SOL     OW39487   0.601   1.916   7.915 -0.4269  0.3996  0.3220
 9343SOL    HW139488   0.566   2.005   7.920  1.5877  1.2974 -1.6134
 9343SOL    HW239489   0.557   1.879   7.838  1.0506 -3.5370  1.3343
 9344SOL     OW39490   2.693   3.800   3.135  0.6061  0.1369  0.5533
 9344SOL    HW139491   2.612   3.822   3.180  0.2183 -0.1686 -0.0046
 9344SOL    HW239492   2.744   3.757   3.204 -0.8056 -3.3555 -0.6084
 9345SOL     OW39493   0.137   3.578  10.596 -0.1428 -0.3579  0.1877
 9345SOL    HW139494   0.072   3.622  10.541  1.3997  0.3910 -1.0178
 9345SOL    HW239495   0.104   3.590  10.685  1.4803  1.6521  0.5173
 9346SOL     OW39496   0.098   2.429   7.735 -0.1302  0.0184 -0.2149
 9346SOL    HW139497   0.048   2.511   7.735  0.4515  0.3761 -1.8523
 9346SOL    HW239498   0.070   2.370   7.806 -1.8287 -2.5118 -3.0058
 9347SOL     OW39499   0.588   3.100  17.565 -0.7365  0.3289  0.2630
 9347SOL    HW139500   0.574   3.192  17.586 -0.6845  0.3719  0.1042
 9347SOL    HW239501   0.672   3.075  17.605 -1.2734 -1.0805  0.5075
 9348SOL     OW39502   3.723   1.149   8.667 -0.6589 -0.2484 -0.0166
 9348SOL    HW139503   3.648   1.159   8.608  0.4691 -1.6861 -1.6911
 9348SOL    HW239504   3.688   1.215   8.727 -0.5041 -1.5564  1.5152
 9349SOL     OW39505   3.966   3.188   3.540 -0.0703  0.0186 -0.5202
 9349SOL    HW139506   3.944   3.214   3.630 -1.2393 -0.6604 -0.6053
 9349SOL    HW239507   3.911   3.254   3.497  0.7297  0.8262 -0.3164
 9350SOL     OW39508   1.750   0.631   6.432  0.0633  0.0462  0.6539
 9350SOL    HW139509   1.805   0.555   6.412  1.6479  1.0479  1.2590
 9350SOL    HW239510   1.687   0.628   6.360  1.9423 -1.6544 -0.9474
 9351SOL     OW39511   3.165   0.139   0.159 -0.0106 -0.0630 -0.1645
 9351SOL    HW139512   3.141   0.152   0.251  1.9117 -1.5600  0.5523
 9351SOL    HW239513   3.126   0.053   0.144  2.1682 -0.8501 -1.1758
 9352SOL     OW39514   3.933   4.553   9.822 -0.1955 -0.4672  0.2443
 9352SOL    HW139515   3.932   4.549   9.727  1.7455 -0.8005  0.2339
 9352SOL    HW239516   3.933   4.646   9.844 -2.9978 -0.3372 -0.3574
 9353SOL     OW39517   0.960   1.536   2.903 -0.3590  0.2421 -0.4557
 9353SOL    HW139518   0.934   1.445   2.893  1.2907 -0.4912  1.9642
 9353SOL    HW239519   1.022   1.538   2.830  2.1805  0.1685  1.6819
 9354SOL     OW39520   3.165   1.076   0.310  0.5379  0.0912  0.1062
 9354SOL    HW139521   3.213   1.153   0.341 -0.0840  0.4390  0.2006
 9354SOL    HW239522   3.144   1.029   0.391 -2.9753 -0.1008 -0.9331
 9355SOL     OW39523   0.031   3.099   3.575  0.2277  0.1166 -0.5163
 9355SOL    HW139524   0.082   3.166   3.621  0.8883 -0.9699  0.3418
 9355SOL    HW239525   0.025   3.029   3.640  1.0440  0.3824 -0.1550
 9356SOL     OW39526   3.715   0.254   1.333  0.0398 -0.4749 -0.1019
 9356SOL    HW139527   3.696   0.303   1.413 -0.2198 -0.9549  0.1296
 9356SOL    HW239528   3.783   0.207   1.382 -1.1858 -1.4934  0.6219
 9357SOL     OW39529   1.931   4.222   2.389  0.3781 -0.0335 -0.3753
 9357SOL    HW139530   1.846   4.196   2.354  0.0563  0.6979 -0.1494
 9357SOL    HW239531   1.940   4.309   2.350  2.7871 -1.2562 -2.5500
 9358SOL     OW39532   1.932   1.473   5.772  0.3451  0.2323 -0.5235
 9358SOL    HW139533   1.893   1.432   5.850  0.4010  1.6894  0.2733
 9358SOL    HW239534   2.008   1.414   5.766  0.3096  0.2219 -0.8523
 9359SOL     OW39535   2.126   1.418   3.173 -0.3041  0.1800 -0.1250
 9359SOL    HW139536   2.074   1.491   3.139  2.2071  0.9910 -2.1455
 9359SOL    HW239537   2.121   1.356   3.100  0.6389  1.4381 -1.2597
 9360SOL     OW39538   0.272   4.047   6.030  0.1653 -0.1108  0.0482
 9360SOL    HW139539   0.217   4.113   6.071  0.3145  1.0914 -1.6669
 9360SOL    HW239540   0.232   3.971   6.072  2.1970 -1.0557  0.2888
 9361SOL     OW39541   4.572   3.128   4.847  0.7718 -0.3679 -0.3725
 9361SOL    HW139542   4.561   3.079   4.766 -0.8330  0.1647 -0.4758
 9361SOL    HW239543   4.648   3.182   4.826  0.8154  0.1271  1.0422
 9362SOL     OW39544   4.537   3.014   5.456 -0.0940 -0.3544  0.5488
 9362SOL    HW139545   4.517   2.936   5.405 -0.9229  0.3455 -0.1928
 9362SOL    HW239546   4.449   3.048   5.474  1.8587  4.2971  1.2402
 9363SOL     OW39547   0.555   3.384   0.940 -0.6763  0.3642  0.1434
 9363SOL    HW139548   0.615   3.453   0.911  0.1843  0.9297  3.2836
 9363SOL    HW239549   0.600   3.339   1.012  0.7317 -1.7017 -2.0212
 9364SOL     OW39550   0.037   1.341   8.052  0.1059 -0.2544 -0.5732
 9364SOL    HW139551   0.095   1.284   8.103 -0.3982 -0.1952  0.0661
 9364SOL    HW239552   4.692   1.337   8.116  0.8452 -1.7562  0.1472
 9365SOL     OW39553   3.941   2.297   5.109 -0.0424 -0.0156  0.2753
 9365SOL    HW139554   3.983   2.359   5.168  1.5036 -1.3599  0.6031
 9365SOL    HW239555   3.893   2.237   5.167 -0.3408 -1.2005 -1.1964
 9366SOL     OW39556   0.371   1.454   3.666  0.1187  0.2008 -0.3226
 9366SOL    HW139557   0.305   1.384   3.661 -0.4623  0.6942  0.3515
 9366SOL    HW239558   0.341   1.515   3.599  1.3626 -0.4178 -1.4251
 9367SOL     OW39559   0.657   0.993   6.481  0.3050  0.4857  0.3579
 9367SOL    HW139560   0.718   1.033   6.543  0.3154  0.9971  0.0193
 9367SOL    HW239561   0.588   1.057   6.463 -2.4332 -1.9871  2.0808
 9368SOL     OW39562   0.681   1.253   5.649 -0.2095  0.2427  0.1329
 9368SOL    HW139563   0.604   1.203   5.623  2.2670 -2.3299 -2.2391
 9368SOL    HW239564   0.672   1.330   5.593  2.4185 -1.1338 -2.1670
 9369SOL     OW39565   1.716   3.065   6.917  0.2392  0.0870  0.2528
 9369SOL    HW139566   1.629   3.026   6.920  1.0517 -1.6838  1.5646
 9369SOL    HW239567   1.693   3.157   6.912  0.1689  0.1536  1.7240
 9370SOL     OW39568   3.118   3.708   3.854  0.1672  0.2889 -0.0688
 9370SOL    HW139569   3.194   3.652   3.871 -0.1215  0.3323  1.3277
 9370SOL    HW239570   3.131   3.773   3.923  2.6994  0.6046 -0.8219
 9371SOL     OW39571   1.044   2.784   6.810 -0.3886 -0.6050  0.0973
 9371SOL    HW139572   0.962   2.735   6.816 -0.3817 -0.5445  0.6172
 9371SOL    HW239573   1.007   2.872   6.819 -2.3042 -1.3404 -0.6361
 9372SOL     OW39574   1.710   4.139   6.185  0.0725  0.4281  0.4265
 9372SOL    HW139575   1.772   4.066   6.183 -1.4803 -0.9033  0.3702
 9372SOL    HW239576   1.624   4.096   6.187  0.5829 -0.5999  0.3742
 9373SOL     OW39577   3.706   0.343   7.681  0.1672  0.6508 -0.2385
 9373SOL    HW139578   3.713   0.257   7.638 -0.8060  1.1125 -1.3373
 9373SOL    HW239579   3.790   0.349   7.725  0.0407 -0.8847  0.2275
 9374SOL     OW39580   1.007   2.228   3.096  0.9273 -0.0292  0.7895
 9374SOL    HW139581   1.030   2.315   3.128 -0.7066  0.9680 -0.7328
 9374SOL    HW239582   1.017   2.227   3.000  1.0377 -0.2436  0.8024
 9375SOL     OW39583   4.277   4.037   6.196 -0.3493  0.3288  0.5526
 9375SOL    HW139584   4.247   4.099   6.130  0.2196 -0.0888 -0.1010
 9375SOL    HW239585   4.250   4.069   6.282  0.4530 -0.3057  1.0440
 9376SOL     OW39586   2.469   1.713   8.249 -0.2494 -0.0162  0.3446
 9376SOL    HW139587   2.481   1.695   8.156  4.0775 -0.6835  1.0470
 9376SOL    HW239588   2.450   1.807   8.251 -0.0750  0.0251  0.0161
 9377SOL     OW39589   2.492   1.677   9.520 -0.5213 -0.1088 -0.1227
 9377SOL    HW139590   2.484   1.761   9.476 -1.2139  0.3986  0.9774
 9377SOL    HW239591   2.521   1.623   9.447 -0.7697 -1.3481  0.6891
 9378SOL     OW39592   0.795   0.584   2.823  0.1435 -0.2771  0.0053
 9378SOL    HW139593   0.802   0.679   2.834 -2.6307 -0.1506  0.6812
 9378SOL    HW239594   0.730   0.567   2.891  0.0915  1.1940  0.3362
 9379SOL     OW39595   1.320   0.562   3.163 -0.4912 -0.5629 -0.3165
 9379SOL    HW139596   1.239   0.576   3.212  0.1109  2.5342 -0.2463
 9379SOL    HW239597   1.312   0.466   3.160 -0.8897 -0.4833 -1.8345
 9380SOL     OW39598   3.578   1.192  11.389 -0.0978  0.7230  0.1712
 9380SOL    HW139599   3.621   1.210  11.306  0.8264 -3.3861 -0.2380
 9380SOL    HW239600   3.491   1.189  11.350 -0.8089 -2.2398  1.9454
 9381SOL     OW39601   0.362   2.858  12.859 -0.1676  0.3175  0.2495
 9381SOL    HW139602   0.359   2.953  12.867 -0.9359  0.3850 -0.8952
 9381SOL    HW239603   0.272   2.829  12.844  0.4485 -1.9284  0.9221
 9382SOL     OW39604   2.231   0.334   2.707  0.1528 -0.0353 -0.0627
 9382SOL    HW139605   2.199   0.330   2.797  0.0192  1.2524 -0.0494
 9382SOL    HW239606   2.323   0.316   2.723  0.5290  0.9783 -1.1030
 9383SOL     OW39607   3.089   2.440   3.502  0.0859  0.4141 -0.1661
 9383SOL    HW139608   3.048   2.394   3.574  0.5437  1.0789  0.5151
 9383SOL    HW239609   3.013   2.473   3.453 -0.9195 -0.2717  0.9430
 9384SOL     OW39610   2.735   3.414   2.146 -0.3956 -0.2513  0.2847
 9384SOL    HW139611   2.798   3.348   2.176 -0.6167  0.6404  2.7346
 9384SOL    HW239612   2.754   3.411   2.052  3.0827  1.9240  0.9002
 9385SOL     OW39613   1.596   0.541   2.240  0.0247 -0.4971  0.4978
 9385SOL    HW139614   1.598   0.566   2.148  2.0814 -0.9182  0.4270
 9385SOL    HW239615   1.685   0.549   2.273  0.1221  3.4569 -0.6551
 9386SOL     OW39616   1.129   3.216   8.513 -0.0860  0.1411  0.2312
 9386SOL    HW139617   1.057   3.158   8.491  2.2965 -2.0496 -1.8416
 9386SOL    HW239618   1.079   3.270   8.574 -0.0945  0.3217  0.0626
 9387SOL     OW39619   2.639   2.881  17.123  0.4658 -0.3722 -0.1648
 9387SOL    HW139620   2.677   2.961  17.160 -0.2163  0.1720 -0.6396
 9387SOL    HW239621   2.641   2.818  17.195 -0.8005 -0.8637 -0.5661
 9388SOL     OW39622   3.455   1.172   7.236  0.3941  0.1586 -0.5083
 9388SOL    HW139623   3.477   1.229   7.310  1.8661  1.0310 -1.6217
 9388SOL    HW239624   3.360   1.177   7.245  0.4799  1.1191 -0.1895
 9389SOL     OW39625   2.065   0.917   2.604  0.2386 -0.0274 -0.2286
 9389SOL    HW139626   2.088   0.952   2.518  0.3722  0.1939 -0.1055
 9389SOL    HW239627   2.112   0.835   2.615 -0.0145  0.0608  1.5581
 9390SOL     OW39628   3.685   1.767  15.420 -0.2221  0.4822  0.6207
 9390SOL    HW139629   3.648   1.837  15.365  0.8967  0.9919  0.5135
 9390SOL    HW239630   3.609   1.714  15.443 -0.8543  1.5031  0.9309
 9391SOL     OW39631   2.159   0.751   6.349  0.0185  0.4214 -0.0684
 9391SOL    HW139632   2.072   0.788   6.338  0.7010  2.3165  0.8598
 9391SOL    HW239633   2.131   0.689   6.417  1.4384 -1.2502 -0.9783
 9392SOL     OW39634   3.188   2.982  16.779  0.1353 -0.6396 -0.2976
 9392SOL    HW139635   3.175   3.038  16.855  0.5994 -2.0774  0.8346
 9392SOL    HW239636   3.177   3.049  16.711  0.0233  0.2651  0.6107
 9393SOL     OW39637   3.225   3.032   6.091 -0.2323 -0.2402  0.3908
 9393SOL    HW139638   3.267   3.043   6.176 -0.1499  0.8945  0.1991
 9393SOL    HW239639   3.189   3.121   6.084 -0.7920 -0.4844  0.1541
 9394SOL     OW39640   1.158   2.084  17.275 -0.2322  0.6464 -0.2865
 9394SOL    HW139641   1.120   2.127  17.352  1.6058 -2.1129  2.1609
 9394SOL    HW239642   1.097   2.014  17.249 -2.3514  1.9408  1.1764
 9395SOL     OW39643   0.711   1.778  15.027 -0.1440  0.4384  0.3434
 9395SOL    HW139644   0.757   1.861  15.036 -0.6834  1.0285 -2.1829
 9395SOL    HW239645   0.788   1.735  14.989 -1.1511  0.5521 -1.8555
 9396SOL     OW39646   3.406   3.932  14.429 -0.5297  0.4275  0.1469
 9396SOL    HW139647   3.417   4.026  14.419 -0.4882  0.5283  1.1493
 9396SOL    HW239648   3.326   3.926  14.376 -0.6843  0.8735  0.3294
 9397SOL     OW39649   3.438   0.244  17.655 -0.0587 -0.4018 -0.0329
 9397SOL    HW139650   3.520   0.256  17.607 -0.4762 -1.3231 -0.9652
 9397SOL    HW239651   3.446   0.309   0.021 -0.7535 -1.2256  0.8096
 9398SOL     OW39652   0.224   3.583   6.503  0.1725 -0.0708 -0.3727
 9398SOL    HW139653   0.186   3.557   6.586 -0.0163  1.4954  0.0159
 9398SOL    HW239654   0.151   3.620   6.453  0.7722  0.7981 -0.5903
 9399SOL     OW39655   3.530   3.590   3.140 -0.1615  0.1507 -0.4991
 9399SOL    HW139656   3.511   3.577   3.233 -0.2643 -2.2442 -0.8518
 9399SOL    HW239657   3.472   3.529   3.093 -0.3737 -0.7771  0.9678
 9400SOL     OW39658   2.382   0.903   6.307  0.0899  0.3862 -0.3389
 9400SOL    HW139659   2.353   0.990   6.336  0.8749  0.4650  0.2045
 9400SOL    HW239660   2.295   0.865   6.323  0.0330  0.7677  0.2614
 9401SOL     OW39661   1.412   3.067   9.607  0.3383 -0.1502  0.3578
 9401SOL    HW139662   1.361   2.988   9.589 -2.9830  1.6141  2.0769
 9401SOL    HW239663   1.351   3.092   9.676 -0.9669 -1.1636 -0.4431
 9402SOL     OW39664   2.665   1.412  13.374  0.3722  0.2492  0.3499
 9402SOL    HW139665   2.642   1.347  13.440 -2.5164 -0.2399 -1.1337
 9402SOL    HW239666   2.593   1.475  13.377 -0.1652 -0.4015  1.1967
 9403SOL     OW39667   4.356   3.895   9.273  0.0016  0.3746  0.4081
 9403SOL    HW139668   4.390   3.814   9.310 -0.0079  0.0857 -0.2073
 9403SOL    HW239669   4.434   3.930   9.230 -0.0628 -1.4969 -1.2348
 9404SOL     OW39670   2.769   0.609   6.566  0.5216  0.5392 -0.3711
 9404SOL    HW139671   2.735   0.681   6.512 -2.1858 -0.8510 -0.5661
 9404SOL    HW239672   2.702   0.542   6.548  1.6442 -1.2185  2.0079
 9405SOL     OW39673   3.736   2.088   2.766 -0.2852 -0.2138 -0.2597
 9405SOL    HW139674   3.651   2.053   2.790 -1.3050  0.1173 -3.3262
 9405SOL    HW239675   3.717   2.180   2.786  1.5239 -0.0012  0.4524
 9406SOL     OW39676   3.814   1.199   4.824 -0.4608  0.4541 -0.1888
 9406SOL    HW139677   3.821   1.238   4.737 -1.1041  2.1781  0.5210
 9406SOL    HW239678   3.785   1.274   4.876 -1.2234 -0.3994  0.6103
 9407SOL     OW39679   1.408   1.634   6.837  0.6305 -0.1047 -0.1794
 9407SOL    HW139680   1.409   1.673   6.925  1.6678 -0.5930  0.0316
 9407SOL    HW239681   1.328   1.583   6.848 -0.6413  2.9160  4.5098
 9408SOL     OW39682   3.991   3.847  16.851 -0.2890  0.1436 -0.2387
 9408SOL    HW139683   4.012   3.919  16.792 -0.3811  0.2424 -0.1514
 9408SOL    HW239684   3.908   3.879  16.887  0.6161  0.8375  1.2315
 9409SOL     OW39685   2.248   4.032   4.189 -0.6636 -0.4869 -0.3368
 9409SOL    HW139686   2.161   4.018   4.228 -0.8223  0.3919 -0.3806
 9409SOL    HW239687   2.245   4.127   4.177  0.6125 -0.5523 -1.1446
 9410SOL     OW39688   2.432   3.319   4.563 -0.1463  0.0681 -0.3267
 9410SOL    HW139689   2.437   3.254   4.493 -0.2953 -0.8377  0.4990
 9410SOL    HW239690   2.360   3.369   4.524 -0.3638 -0.4906 -0.6330
 9411SOL     OW39691   3.571   0.685   6.238 -0.0433  0.4689 -0.2695
 9411SOL    HW139692   3.615   0.749   6.182 -0.8270  0.7370 -0.5716
 9411SOL    HW239693   3.492   0.733   6.261  0.8816  1.5907  0.5629
 9412SOL     OW39694   4.583   1.085   8.484  0.4448  0.2320  0.2087
 9412SOL    HW139695   4.521   1.026   8.527  0.3440 -0.5377 -0.9936
 9412SOL    HW239696   4.627   1.131   8.555 -0.8376 -0.1552  1.2603
 9413SOL     OW39697   3.299   2.150   3.580  0.3569  0.6069  0.5886
 9413SOL    HW139698   3.297   2.228   3.524  1.7642 -0.7127 -1.2911
 9413SOL    HW239699   3.213   2.146   3.622 -0.3601 -2.2130 -1.1523
 9414SOL     OW39700   2.361   4.468   7.210  0.4488  0.1476 -0.6261
 9414SOL    HW139701   2.343   4.554   7.173 -0.6155 -0.7166 -2.1266
 9414SOL    HW239702   2.276   4.450   7.249  1.5758  0.5188  2.0295
 9415SOL     OW39703   2.204   2.141   6.507 -0.0985 -0.2474 -0.0684
 9415SOL    HW139704   2.222   2.091   6.587 -2.0891  0.0380  0.5621
 9415SOL    HW239705   2.253   2.219   6.535  0.2471 -0.7662  0.7925
 9416SOL     OW39706   3.701   0.346  16.957  0.3599  0.1415  0.0405
 9416SOL    HW139707   3.679   0.276  16.895 -0.1764  1.0542 -0.7827
 9416SOL    HW239708   3.780   0.389  16.923 -0.6217  2.1491  0.3838
 9417SOL     OW39709   0.647   4.595   4.264  0.6796  0.1126  0.6406
 9417SOL    HW139710   0.726   4.560   4.222 -0.3231 -1.7429  0.2939
 9417SOL    HW239711   0.677   4.673   4.310 -3.3186  1.4843  0.8895
 9418SOL     OW39712   0.750   2.854  16.314  0.4772 -0.3684  0.0843
 9418SOL    HW139713   0.830   2.831  16.267 -0.6906  0.3159 -2.2383
 9418SOL    HW239714   0.735   2.943  16.283 -4.6070 -1.4043 -0.3178
 9419SOL     OW39715   2.398   2.726   5.959  0.0219  0.0877  0.3257
 9419SOL    HW139716   2.419   2.739   6.051 -1.4338  2.7800  0.2761
 9419SOL    HW239717   2.449   2.797   5.919  0.8766 -0.6227  0.1465
 9420SOL     OW39718   3.800   1.839   6.066  0.0904  0.0095  0.5123
 9420SOL    HW139719   3.732   1.883   6.118 -1.3280 -0.5318 -0.8882
 9420SOL    HW239720   3.746   1.775   6.020  1.1782 -1.7354  1.6216
 9421SOL     OW39721   0.856   0.264   3.397 -0.3410  0.0626 -0.0736
 9421SOL    HW139722   0.937   0.233   3.356 -0.1441 -1.7219  1.6739
 9421SOL    HW239723   0.824   0.312   3.321  4.5933  0.7628 -1.6783
 9422SOL     OW39724   1.455   3.763   2.595 -0.2838 -0.0337  0.7068
 9422SOL    HW139725   1.459   3.674   2.631  1.8209  0.0191  0.5758
 9422SOL    HW239726   1.483   3.746   2.505  0.6236  1.0784  0.7868
 9423SOL     OW39727   4.715   0.859  13.513 -0.8719  0.5397  0.1821
 9423SOL    HW139728   4.683   0.803  13.583  1.0100 -2.8247 -1.5962
 9423SOL    HW239729   4.642   0.851  13.452 -1.4997  0.6155  0.9340
 9424SOL     OW39730   3.146   0.735   0.854  0.0198 -0.0245  0.3023
 9424SOL    HW139731   3.140   0.828   0.831 -2.0159 -0.0049  0.9705
 9424SOL    HW239732   3.057   0.721   0.885 -0.2194 -2.3979 -1.4029
 9425SOL     OW39733   4.285   4.020   0.603  0.0133  0.0322 -0.2664
 9425SOL    HW139734   4.278   3.980   0.690  0.2909  0.3073 -0.1161
 9425SOL    HW239735   4.371   4.004   0.566 -0.7035 -1.5187 -1.2488
 9426SOL     OW39736   2.606   3.532  12.786  0.3804  0.3624  0.0821
 9426SOL    HW139737   2.614   3.466  12.854  0.2308  0.0363 -0.2197
 9426SOL    HW239738   2.644   3.610  12.827  0.2183 -0.9018  2.6163
 9427SOL     OW39739   2.531   1.107  11.519  0.7972  0.0635 -0.0889
 9427SOL    HW139740   2.566   1.173  11.579  0.5634  0.3877 -0.3052
 9427SOL    HW239741   2.440   1.131  11.534  0.4394 -2.3288  1.5349
 9428SOL     OW39742   4.227   0.552   5.772  0.2228  0.3111  0.5038
 9428SOL    HW139743   4.314   0.517   5.788  0.1899 -1.2489 -2.6803
 9428SOL    HW239744   4.239   0.603   5.691  2.1393  1.0096  1.2393
 9429SOL     OW39745   4.025   1.005   5.993 -0.6258 -0.3436 -0.7068
 9429SOL    HW139746   3.934   0.982   6.011 -0.2311 -1.6262 -0.3825
 9429SOL    HW239747   4.019   1.084   5.939 -2.5882 -0.8194 -1.1822
 9430SOL     OW39748   0.322   3.125   0.420 -0.2018 -0.4001 -0.5625
 9430SOL    HW139749   0.321   3.102   0.513 -1.7271 -0.3224 -0.5564
 9430SOL    HW239750   0.410   3.162   0.415  0.3719 -1.7926 -0.8859
 9431SOL     OW39751   2.185   3.380   8.200  0.4936 -0.2753  0.1927
 9431SOL    HW139752   2.113   3.419   8.250 -0.8442  0.0031 -1.9631
 9431SOL    HW239753   2.216   3.309   8.256 -0.2946 -0.8603 -0.1143
 9432SOL     OW39754   3.699   3.974  15.944 -0.3500  0.1100 -0.1059
 9432SOL    HW139755   3.773   3.926  15.981 -0.8261 -2.3404 -2.3287
 9432SOL    HW239756   3.681   3.938  15.857 -1.8049 -1.2357  0.7546
 9433SOL     OW39757   0.722   3.624   5.654 -0.1848 -0.1445  0.4016
 9433SOL    HW139758   0.642   3.675   5.643  0.7689  0.8374 -2.0041
 9433SOL    HW239759   0.786   3.692   5.673 -1.9486  0.9029  2.6020
 9434SOL     OW39760   0.232   0.735   6.565 -0.4949  0.1407 -0.2802
 9434SOL    HW139761   0.232   0.814   6.511 -0.0503  0.4884  0.2236
 9434SOL    HW239762   0.322   0.704   6.550  0.2073  2.5275 -0.9478
 9435SOL     OW39763   2.669   1.601   3.381 -0.3060 -0.0315  0.4126
 9435SOL    HW139764   2.703   1.517   3.413  1.2254  0.9209  1.2634
 9435SOL    HW239765   2.735   1.641   3.325 -1.0442 -0.1254 -0.5294
 9436SOL     OW39766   4.407   1.963   4.394  0.1327  0.5137 -0.2602
 9436SOL    HW139767   4.391   1.955   4.488  1.5393  2.5277  0.1741
 9436SOL    HW239768   4.478   1.900   4.381  0.7686  1.2195 -0.2570
 9437SOL     OW39769   4.364   4.570  12.408 -0.0739 -0.3699 -0.6602
 9437SOL    HW139770   4.451   4.602  12.435  0.0841 -1.4881  0.1708
 9437SOL    HW239771   4.348   4.513  12.483 -1.1533 -1.4686 -1.7221
 9438SOL     OW39772   0.658   3.178   7.624  0.1999 -0.0432  0.1720
 9438SOL    HW139773   0.655   3.086   7.598 -0.9147  0.2003 -0.5595
 9438SOL    HW239774   0.719   3.174   7.698  0.5881  0.5487 -0.1097
 9439SOL     OW39775   4.263   3.099   1.485 -0.3033  0.3215 -0.2940
 9439SOL    HW139776   4.229   3.164   1.547 -2.1977  1.6737 -2.7678
 9439SOL    HW239777   4.236   3.018   1.527  0.2328  0.5363  0.4808
 9440SOL     OW39778   1.870   2.954   3.897  0.2284  0.2844  0.0248
 9440SOL    HW139779   1.865   2.928   3.989  1.5560 -1.4669 -0.4024
 9440SOL    HW239780   1.963   2.974   3.889 -0.2138  2.0242 -0.9318
 9441SOL     OW39781   4.203   2.156  11.604  0.1750  0.0070  0.4482
 9441SOL    HW139782   4.283   2.126  11.647 -0.1114 -1.7529 -0.2590
 9441SOL    HW239783   4.140   2.164  11.676 -0.5610  0.9339 -0.3041
 9442SOL     OW39784   2.776   0.879   0.744  0.2528  0.4213 -0.3515
 9442SOL    HW139785   2.746   0.937   0.675  0.5308 -0.1382 -0.9462
 9442SOL    HW239786   2.809   0.947   0.802 -2.2683  0.9785  0.4282
 9443SOL     OW39787   1.090   4.683  13.976 -0.1825 -0.6817 -0.2694
 9443SOL    HW139788   1.166   4.659  14.029 -1.2046 -0.9306  1.0657
 9443SOL    HW239789   1.127   4.669  13.888 -1.4484 -0.5001 -0.8258
 9444SOL     OW39790   1.214   3.003   5.008  0.3021 -0.0459  0.4335
 9444SOL    HW139791   1.224   3.061   5.083  0.5602  2.0341 -1.2109
 9444SOL    HW239792   1.211   3.070   4.940 -1.3224 -0.3709  0.2048
 9445SOL     OW39793   1.311   2.322   2.912 -0.0317 -0.9761 -0.6999
 9445SOL    HW139794   1.234   2.272   2.884  0.6432 -2.3173 -0.1583
 9445SOL    HW239795   1.377   2.255   2.929 -0.3562 -1.3313 -0.8391
 9446SOL     OW39796   4.596   3.801   4.629 -0.1091 -0.2386  0.2709
 9446SOL    HW139797   4.526   3.761   4.578 -0.9466  1.1314  0.3446
 9446SOL    HW239798   4.641   3.720   4.652 -1.0591 -0.7436  0.3718
 9447SOL     OW39799   2.799   2.688  14.381  0.2196  0.2275  0.0359
 9447SOL    HW139800   2.889   2.710  14.358 -0.3984 -1.6099 -4.0660
 9447SOL    HW239801   2.789   2.598  14.350  0.1019  0.0956  0.4575
 9448SOL     OW39802   0.857   0.040   6.132  0.3514  0.2516 -0.0645
 9448SOL    HW139803   0.905   0.005   6.057  0.0136 -0.1344 -0.1052
 9448SOL    HW239804   0.837   0.131   6.111 -1.6810 -0.0590  0.4661
 9449SOL     OW39805   0.432   3.473   2.719  0.1392  0.0582 -0.1764
 9449SOL    HW139806   0.370   3.546   2.720 -0.6477 -0.6286  0.7087
 9449SOL    HW239807   0.515   3.520   2.711  0.2932 -0.1504  0.1890
 9450SOL     OW39808   1.606   2.342  15.382  0.1076 -0.2124  0.1267
 9450SOL    HW139809   1.521   2.302  15.400  0.2049 -0.5705 -0.1873
 9450SOL    HW239810   1.571   2.427  15.356 -1.8769 -1.7319 -2.1969
 9451SOL     OW39811   4.663   3.264   3.365 -0.0357 -0.3362  0.4092
 9451SOL    HW139812   4.670   3.200   3.294  0.3071 -0.7438  0.8040
 9451SOL    HW239813   4.683   3.206   3.439 -0.7964 -1.5163 -0.3234
 9452SOL     OW39814   3.841   0.271  10.196 -0.1107  0.0227  0.2905
 9452SOL    HW139815   3.930   0.259  10.229  0.5716  1.4781 -1.0171
 9452SOL    HW239816   3.870   0.328  10.125  1.6741  1.8923  2.5098
 9453SOL     OW39817   3.572   0.261   9.040 -0.2459  0.3023 -0.7436
 9453SOL    HW139818   3.575   0.168   9.018 -0.6046 -0.4378  2.3304
 9453SOL    HW239819   3.659   0.282   9.008  0.0072 -2.4007 -1.8505
 9454SOL     OW39820   1.815   2.727   3.753 -0.1653  0.9920  0.1704
 9454SOL    HW139821   1.802   2.758   3.663 -2.0516  1.4069  0.5972
 9454SOL    HW239822   1.837   2.808   3.800  0.6808  0.3268  0.9097
 9455SOL     OW39823   0.288   3.805   2.665 -0.4663  0.2219  0.2372
 9455SOL    HW139824   0.261   3.798   2.757 -0.7050  2.4003  0.3315
 9455SOL    HW239825   0.364   3.860   2.679 -0.1222 -0.0837 -0.4149
 9456SOL     OW39826   2.006   4.350  12.555 -0.2132  0.1117  0.2909
 9456SOL    HW139827   1.966   4.424  12.509 -0.0346  0.7776  1.2071
 9456SOL    HW239828   2.091   4.387  12.578 -0.0358  0.5131 -1.0514
 9457SOL     OW39829   0.026   2.868   5.559 -0.2934  0.0489  0.0876
 9457SOL    HW139830   0.068   2.877   5.473 -0.6393 -2.9053 -0.3779
 9457SOL    HW239831   4.669   2.911   5.540 -0.4730 -0.9359 -1.3173
 9458SOL     OW39832   4.244   0.705   6.632 -0.2950  0.0066  0.5645
 9458SOL    HW139833   4.282   0.790   6.610  0.0816  0.7119  4.0141
 9458SOL    HW239834   4.155   0.735   6.612 -1.4220 -3.1277  0.9286
 9459SOL     OW39835   2.855   0.908   3.652  0.4707  0.8393  0.3173
 9459SOL    HW139836   2.931   0.924   3.595 -0.4001  1.6075 -0.6355
 9459SOL    HW239837   2.799   0.979   3.622 -0.3447 -0.0028 -0.1366
 9460SOL     OW39838   2.681   4.498   2.229 -0.5203  0.1973  0.0521
 9460SOL    HW139839   2.657   4.583   2.267  3.2413  0.5324  1.6893
 9460SOL    HW239840   2.606   4.468   2.178  0.0756 -0.5413 -0.3786
 9461SOL     OW39841   1.597   1.556   5.124 -0.0285 -0.3592 -0.6448
 9461SOL    HW139842   1.553   1.616   5.065  1.3025 -0.4629 -1.7638
 9461SOL    HW239843   1.576   1.597   5.207 -0.2995 -3.3510  0.7568
 9462SOL     OW39844   4.426   2.490   7.027  0.2927 -0.3522  0.3338
 9462SOL    HW139845   4.454   2.569   7.074 -1.0700  0.2709  0.1107
 9462SOL    HW239846   4.510   2.452   7.003 -0.8299 -1.9883 -1.0028
 9463SOL     OW39847   1.185   1.491   5.208 -0.0085 -0.1118 -0.0950
 9463SOL    HW139848   1.159   1.520   5.295 -1.2253 -0.7630 -0.2417
 9463SOL    HW239849   1.261   1.443   5.239 -0.1545 -1.0058 -1.1017
 9464SOL     OW39850   3.660   1.580   3.858 -0.1035 -0.2098  0.4817
 9464SOL    HW139851   3.746   1.620   3.859 -0.4990  0.6259  2.3603
 9464SOL    HW239852   3.641   1.572   3.952  0.6691  2.0563  0.8122
 9465SOL     OW39853   3.886   0.598   6.039 -0.3562  0.0769 -0.0741
 9465SOL    HW139854   3.905   0.591   6.132  0.1338  1.4252 -0.0805
 9465SOL    HW239855   3.791   0.589   6.029 -0.6553 -1.4742  4.2112
 9466SOL     OW39856   3.291   3.289   8.517  0.3037 -0.2182 -0.1504
 9466SOL    HW139857   3.233   3.322   8.449 -0.5311  2.6262  1.9077
 9466SOL    HW239858   3.335   3.222   8.465  1.0231 -0.5347  0.8625
 9467SOL     OW39859   0.781   1.684  16.386 -0.4558 -0.0580 -0.2522
 9467SOL    HW139860   0.715   1.749  16.361 -0.9658 -0.7957 -0.8230
 9467SOL    HW239861   0.838   1.746  16.432  0.9662 -0.3473 -1.6041
 9468SOL     OW39862   3.218   2.427   9.129  0.2753  0.4859 -0.6958
 9468SOL    HW139863   3.127   2.403   9.148 -0.2697  1.7014 -1.7387
 9468SOL    HW239864   3.204   2.510   9.084 -0.8263  2.0219  2.4735
 9469SOL     OW39865   4.480   4.336   7.137 -0.0481  0.6627 -0.0223
 9469SOL    HW139866   4.539   4.261   7.133 -0.7078  0.3070 -2.7113
 9469SOL    HW239867   4.517   4.410   7.090  2.0601 -0.9376 -0.8360
 9470SOL     OW39868   1.831   2.503   1.752 -0.1381 -0.2786 -0.0392
 9470SOL    HW139869   1.925   2.495   1.765  0.1460  0.1302 -1.8592
 9470SOL    HW239870   1.813   2.429   1.695  0.3437 -1.5812  1.5234
 9471SOL     OW39871   3.331   1.284   0.350 -0.2832 -0.0069  0.0059
 9471SOL    HW139872   3.278   1.363   0.347 -2.4580 -1.4241  0.8852
 9471SOL    HW239873   3.375   1.275   0.265  0.3469 -1.0485  0.4400
 9472SOL     OW39874   3.868   3.331  11.626  0.1573  0.2694  0.2350
 9472SOL    HW139875   3.832   3.331  11.538  0.9674  1.2801 -0.0982
 9472SOL    HW239876   3.928   3.257  11.612 -0.9250 -1.2344  3.5669
 9473SOL     OW39877   3.391   3.479   6.416  0.0045  0.1161  0.5900
 9473SOL    HW139878   3.485   3.485   6.432  0.6360 -2.9433 -2.0513
 9473SOL    HW239879   3.374   3.571   6.436 -0.0941  0.2185  0.0560
 9474SOL     OW39880   3.144   0.956   1.998  0.4888  0.4189 -0.4211
 9474SOL    HW139881   3.078   1.021   2.023  2.0729  1.8581 -0.0243
 9474SOL    HW239882   3.200   1.014   1.947  1.3385 -0.4997 -0.5426
 9475SOL     OW39883   1.189   4.702   7.284  0.5169  0.5981 -0.2515
 9475SOL    HW139884   1.187   4.650   7.204  0.8319 -0.9506  0.7237
 9475SOL    HW239885   1.230   4.640   7.345 -2.1611 -1.7509 -0.8359
 9476SOL     OW39886   3.308   4.327  16.349  0.2508 -0.5869  0.0287
 9476SOL    HW139887   3.379   4.322  16.284 -1.1200 -0.8040 -1.4407
 9476SOL    HW239888   3.290   4.421  16.342  1.1767 -0.5399 -1.7101
 9477SOL     OW39889   2.864   1.085   4.242 -0.5473  0.0468 -0.0451
 9477SOL    HW139890   2.799   1.015   4.247 -1.8609  1.4239  2.0213
 9477SOL    HW239891   2.844   1.117   4.154  0.5926  2.5023  0.5894
 9478SOL     OW39892   1.109   4.467   9.305 -0.7859 -0.3094 -0.5602
 9478SOL    HW139893   1.044   4.527   9.341  0.2860  0.1800  0.5731
 9478SOL    HW239894   1.095   4.396   9.368 -0.2530 -0.5643 -0.7293
 9479SOL     OW39895   4.391   1.600  15.922  0.3255  0.1010  0.1760
 9479SOL    HW139896   4.399   1.675  15.865 -0.9498  0.5565  0.5900
 9479SOL    HW239897   4.325   1.633  15.984  0.3987  0.3021  0.1448
 9480SOL     OW39898   2.898   1.761   3.899 -0.3660 -0.3691 -0.5031
 9480SOL    HW139899   2.808   1.778   3.871 -0.7797  0.7352  1.5276
 9480SOL    HW239900   2.900   1.824   3.971  1.9974 -0.7353 -0.2525
 9481SOL     OW39901   3.245   3.459  15.615 -0.5868  0.2185  0.2906
 9481SOL    HW139902   3.273   3.534  15.667 -1.0930  0.8953 -0.3980
 9481SOL    HW239903   3.187   3.405  15.669  1.1407 -0.2012  1.7079
 9482SOL     OW39904   3.021   0.549   2.938  0.0045  0.2907  0.3591
 9482SOL    HW139905   2.959   0.583   2.874  0.4542 -1.6315 -1.0778
 9482SOL    HW239906   3.043   0.463   2.903  2.8070  1.1890 -0.0799
 9483SOL     OW39907   1.956   1.467   0.972 -0.0972 -0.1750  0.1627
 9483SOL    HW139908   1.915   1.466   1.058  0.8113  0.7306  0.6120
 9483SOL    HW239909   2.026   1.531   0.989 -0.5007  0.2317  0.2907
 9484SOL     OW39910   0.434   3.434   2.151  0.5578  0.1021  0.4146
 9484SOL    HW139911   0.492   3.373   2.197  2.1284  0.4406 -1.1189
 9484SOL    HW239912   0.373   3.439   2.224 -0.9139 -1.1417 -0.7324
 9485SOL     OW39913   3.321   4.313   7.193  0.1702 -0.2606  0.3245
 9485SOL    HW139914   3.259   4.366   7.142 -0.9960 -1.0167  0.9513
 9485SOL    HW239915   3.308   4.224   7.160 -1.5875  0.7210 -1.6442
 9486SOL     OW39916   4.687   3.075  14.401  0.4230  0.0322 -0.1074
 9486SOL    HW139917   4.685   3.000  14.461  0.9386 -0.9816 -1.3704
 9486SOL    HW239918   0.013   3.043  14.328 -2.0421  0.0055 -1.8378
 9487SOL     OW39919   4.309   1.635  11.935  0.2454  0.6732 -0.7531
 9487SOL    HW139920   4.360   1.556  11.917  0.8431  0.8338  0.2418
 9487SOL    HW239921   4.247   1.622  11.863 -1.7381 -1.7177  1.3554
 9488SOL     OW39922   4.549   1.301   9.436 -0.0524  0.9015 -0.0959
 9488SOL    HW139923   4.536   1.369   9.501 -0.1184  0.6531  0.1507
 9488SOL    HW239924   4.461   1.265   9.437 -0.3567  1.7182  1.5923
 9489SOL     OW39925   2.128   1.833   9.494 -0.1456  0.0570  0.2514
 9489SOL    HW139926   2.172   1.778   9.429  1.9084  0.5778  1.2076
 9489SOL    HW239927   2.049   1.859   9.447 -0.2592 -0.4318  0.1678
 9490SOL     OW39928   0.886   2.893   0.386 -0.0313  0.9256  0.3230
 9490SOL    HW139929   0.831   2.819   0.411  1.6010  0.4610  2.4798
 9490SOL    HW239930   0.952   2.907   0.453 -1.8816  1.2077  2.0913
 9491SOL     OW39931   4.014   1.573   0.058 -0.5530  0.2115 -0.5948
 9491SOL    HW139932   4.098   1.567   0.103 -0.3091 -1.7428 -1.3013
 9491SOL    HW239933   4.033   1.642  17.697  4.0033 -0.6704 -0.1529
 9492SOL     OW39934   1.164   4.617   6.014 -0.5514  0.0424  0.0774
 9492SOL    HW139935   1.154   4.561   6.091  1.5262  0.7508  0.8692
 9492SOL    HW239936   1.121   4.578   5.938  0.0494 -1.2675  0.4049
 9493SOL     OW39937   1.666   0.405  16.750 -0.3185 -0.2749  0.3403
 9493SOL    HW139938   1.732   0.429  16.815 -0.8559  1.6139  0.1774
 9493SOL    HW239939   1.677   0.473  16.683  0.8825 -1.4278 -0.6445
 9494SOL     OW39940   1.775   0.451   3.047 -0.2019 -0.1251  0.2525
 9494SOL    HW139941   1.725   0.372   3.026 -0.6217  0.0201  0.7268
 9494SOL    HW239942   1.759   0.502   2.967  2.4044 -0.0866 -0.2496
 9495SOL     OW39943   2.106   1.259   3.437  0.2921  0.1745  1.0169
 9495SOL    HW139944   2.130   1.322   3.369 -1.4801  1.0134  1.1696
 9495SOL    HW239945   2.110   1.306   3.520 -0.1236 -0.0673  1.1753
 9496SOL     OW39946   4.166   0.808   4.122 -0.1008 -0.5860 -0.4031
 9496SOL    HW139947   4.151   0.902   4.123  1.1038 -0.3870 -0.4541
 9496SOL    HW239948   4.228   0.786   4.051 -0.8223 -0.4761 -1.0642
 9497SOL     OW39949   3.020   4.046   8.439 -0.6955 -0.5136  0.1200
 9497SOL    HW139950   3.003   3.956   8.464 -2.0128  0.2455  1.9539
 9497SOL    HW239951   3.115   4.046   8.428 -0.2507  0.0173  4.2175
 9498SOL     OW39952   2.073   0.181   3.538 -0.3100 -0.1503 -0.2433
 9498SOL    HW139953   2.035   0.190   3.625  0.1324  2.4196 -0.3002
 9498SOL    HW239954   2.108   0.093   3.551  0.6835  0.2119 -0.4636
 9499SOL     OW39955   4.601   2.179   7.596 -0.2639  0.6632  0.6958
 9499SOL    HW139956   4.535   2.116   7.566  0.5062  0.1766  0.0244
 9499SOL    HW239957   4.690   2.145   7.587 -0.6393  0.0115 -0.5854
 9500SOL     OW39958   3.254   1.233  16.609  0.1181 -0.0672  0.0944
 9500SOL    HW139959   3.282   1.323  16.597  1.9520 -0.9641 -2.3915
 9500SOL    HW239960   3.339   1.190  16.610 -0.3175 -0.9986 -1.9091
 9501SOL     OW39961   4.243   4.057   6.504  0.3570  0.3865  0.5610
 9501SOL    HW139962   4.160   4.086   6.542 -0.0251  0.5463 -0.3957
 9501SOL    HW239963   4.246   3.962   6.515  0.0479  0.3368  0.2313
 9502SOL     OW39964   1.814   3.758   0.864  0.1843  0.3236 -0.3604
 9502SOL    HW139965   1.813   3.674   0.910 -1.7147  0.4680 -0.1468
 9502SOL    HW239966   1.745   3.804   0.911  0.2896 -0.8251  0.9266
 9503SOL     OW39967   4.375   0.888   0.751 -0.1433  0.3633 -0.4437
 9503SOL    HW139968   4.380   0.797   0.721 -0.9856  0.0132  0.4755
 9503SOL    HW239969   4.442   0.920   0.690 -0.1839 -0.4622 -0.9154
 9504SOL     OW39970   3.542   3.008   8.058 -0.5156 -0.0988 -0.6337
 9504SOL    HW139971   3.622   3.043   8.095 -0.6462 -1.2046  0.6887
 9504SOL    HW239972   3.493   2.994   8.139  0.9082  0.0283  0.2312
 9505SOL     OW39973   3.465   0.666   3.864 -0.0849 -0.9078 -0.1717
 9505SOL    HW139974   3.441   0.751   3.826 -0.2093 -0.2747  1.3042
 9505SOL    HW239975   3.486   0.615   3.786 -1.7967 -1.3960 -0.3130
 9506SOL     OW39976   3.108   3.279   6.058 -0.2487  0.5350  0.2655
 9506SOL    HW139977   3.141   3.365   6.029  1.6111 -0.5554 -0.8278
 9506SOL    HW239978   3.051   3.253   5.986 -2.2097 -2.7095  2.9928
 9507SOL     OW39979   0.733   3.563   6.292 -0.7256 -0.0344  0.0143
 9507SOL    HW139980   0.774   3.493   6.343 -1.3851 -1.7021 -1.7646
 9507SOL    HW239981   0.674   3.598   6.360  0.6922 -1.6957  2.1019
 9508SOL     OW39982   4.180   3.542  12.720 -0.3957  0.2456  0.2485
 9508SOL    HW139983   4.219   3.610  12.776  0.5550 -1.0552  1.1678
 9508SOL    HW239984   4.188   3.464  12.776 -1.3221 -0.4234 -0.5566
 9509SOL     OW39985   1.546   3.703   7.440  0.6803  0.1469 -0.4164
 9509SOL    HW139986   1.487   3.633   7.466  2.6236 -0.5986  1.9957
 9509SOL    HW239987   1.586   3.726   7.524  0.8785  1.7510 -0.9433
 9510SOL     OW39988   3.486   2.739  12.686  0.2947  0.1909  0.0276
 9510SOL    HW139989   3.510   2.813  12.742 -0.6898 -0.7960  1.7440
 9510SOL    HW239990   3.395   2.719  12.711 -0.0289  0.6501 -0.7854
 9511SOL     OW39991   2.582   1.636   2.859 -0.1937  0.2250 -0.3749
 9511SOL    HW139992   2.627   1.709   2.902 -1.2655 -0.8746  2.6266
 9511SOL    HW239993   2.552   1.685   2.783  1.7257 -0.5766 -1.6614
 9512SOL     OW39994   2.235   1.204   4.388  0.4977 -0.0473 -0.8645
 9512SOL    HW139995   2.181   1.174   4.316 -0.4027 -1.8634  0.5620
 9512SOL    HW239996   2.206   1.294   4.407  3.1936  0.5162  0.6593
 9513SOL     OW39997   2.790   1.885  13.384 -0.2797  0.1569  0.3154
 9513SOL    HW139998   2.815   1.799  13.420  0.1077 -1.0915 -2.9425
 9513SOL    HW239999   2.752   1.853  13.302  0.2651  0.7437 -0.1657
 9514SOL     OW40000   3.125   3.706   4.653  0.6652 -0.2619 -0.0998
 9514SOL    HW140001   3.075   3.751   4.721  0.7086  0.8662 -0.8336
 9514SOL    HW240002   3.166   3.635   4.703 -0.7805 -0.8211  0.2796
 9515SOL     OW40003   3.507   4.220   5.855 -0.3421 -0.0010 -0.6018
 9515SOL    HW140004   3.554   4.162   5.795 -0.3700 -0.6520 -0.0037
 9515SOL    HW240005   3.485   4.157   5.924 -1.2510  2.4174  1.2914
 9516SOL     OW40006   4.632   3.101   6.041  0.1994  0.3533  0.5354
 9516SOL    HW140007   4.646   3.181   5.990 -0.2299 -0.0698 -0.2407
 9516SOL    HW240008   4.537   3.099   6.041  0.1903  1.0879  1.1923
 9517SOL     OW40009   0.273   4.105  17.379  0.0956 -0.4185  0.8686
 9517SOL    HW140010   0.216   4.151  17.440 -0.0003  0.5747  0.0251
 9517SOL    HW240011   0.317   4.177  17.335 -1.2760 -0.4108 -0.5017
 9518SOL     OW40012   3.035   0.556  12.602 -0.6706 -0.1786  0.5580
 9518SOL    HW140013   3.079   0.553  12.687  1.1339  0.3978 -0.3590
 9518SOL    HW240014   3.003   0.646  12.596  2.6113  1.0451  1.2271
 9519SOL     OW40015   3.854   3.437   7.179  0.3208 -0.0290  0.4092
 9519SOL    HW140016   3.905   3.360   7.203 -0.4222 -0.6259  0.0829
 9519SOL    HW240017   3.924   3.489   7.141  0.0163  0.7914  0.9678
 9520SOL     OW40018   4.310   2.496   1.893  0.3276 -0.0354 -0.2113
 9520SOL    HW140019   4.331   2.404   1.912  2.0231  0.1378 -1.2725
 9520SOL    HW240020   4.229   2.492   1.843 -0.4443  3.3191  0.7769
 9521SOL     OW40021   4.609   1.403   5.988 -0.4223 -0.2236  0.1099
 9521SOL    HW140022   4.548   1.347   6.036 -2.7478  1.1061 -1.2631
 9521SOL    HW240023   4.654   1.341   5.931  1.6715 -1.9159  3.6121
 9522SOL     OW40024   3.886   2.346  14.726 -0.1124 -0.1139  0.7906
 9522SOL    HW140025   3.956   2.308  14.673 -1.7237  0.0294 -1.4245
 9522SOL    HW240026   3.817   2.360  14.661  3.7042  1.0577 -2.9566
 9523SOL     OW40027   1.515   1.903   8.411  0.6965  0.3606  0.2021
 9523SOL    HW140028   1.431   1.890   8.454  0.9145  3.2095  1.4664
 9523SOL    HW240029   1.537   1.992   8.437  1.2686  0.5061 -0.7712
 9524SOL     OW40030   0.209   2.117  14.526  0.1768  0.6617 -0.0925
 9524SOL    HW140031   0.221   2.205  14.490 -1.0097  0.9790  0.2583
 9524SOL    HW240032   0.287   2.072  14.497 -0.4650 -0.2189 -0.4443
 9525SOL     OW40033   3.784   4.230   1.090 -0.2917  0.2332  0.2123
 9525SOL    HW140034   3.727   4.153   1.091 -0.2863  0.1897 -1.7923
 9525SOL    HW240035   3.818   4.238   1.000  1.2332 -0.9707  0.6732
 9526SOL     OW40036   3.515   4.610   4.241  0.0345  0.3984 -0.4210
 9526SOL    HW140037   3.490   4.702   4.233 -2.8002 -0.3089  0.3356
 9526SOL    HW240038   3.607   4.621   4.266  0.1485 -0.6451 -0.3616
 9527SOL     OW40039   0.852   2.683  12.117  0.1862 -0.3549  0.5949
 9527SOL    HW140040   0.933   2.683  12.066 -0.7002 -1.5565 -0.8123
 9527SOL    HW240041   0.779   2.670  12.057 -0.1423 -0.0454  0.9294
 9528SOL     OW40042   0.833   2.333  15.777 -0.1679 -0.1385  0.0211
 9528SOL    HW140043   0.831   2.406  15.716 -3.2250 -0.5123 -0.3386
 9528SOL    HW240044   0.887   2.366  15.848  0.4630  0.1865 -0.6102
 9529SOL     OW40045   2.888   2.657  11.568  0.3638 -0.4828  0.3757
 9529SOL    HW140046   2.923   2.724  11.509  1.3180 -0.3411  1.1158
 9529SOL    HW240047   2.885   2.580  11.511 -2.9048 -2.1398  2.7518
 9530SOL     OW40048   2.665   2.073   7.985  0.2964 -0.6917  0.2874
 9530SOL    HW140049   2.759   2.067   7.966  0.1491  0.9573 -1.0283
 9530SOL    HW240050   2.632   2.138   7.923  2.3803  1.0675  1.0040
 9531SOL     OW40051   1.355   3.111   3.020  0.2086 -0.7273  0.4960
 9531SOL    HW140052   1.280   3.155   3.060 -0.0810  0.0004 -0.8633
 9531SOL    HW240053   1.332   3.021   3.042 -1.1438 -0.2696  0.9139
 9532SOL     OW40054   1.225   4.473   7.445  0.3236 -0.4753  0.3966
 9532SOL    HW140055   1.132   4.462   7.462  0.7137 -2.1535  1.4027
 9532SOL    HW240056   1.241   4.395   7.392 -3.0801 -1.7491  1.2843
 9533SOL     OW40057   2.429   4.124   8.265 -0.0931 -0.5586  0.4687
 9533SOL    HW140058   2.419   4.058   8.334  0.3979 -0.1784  0.9007
 9533SOL    HW240059   2.496   4.185   8.296 -0.5844  1.4935 -2.4326
 9534SOL     OW40060   3.734   0.173   2.356  0.3449  0.1476 -0.2515
 9534SOL    HW140061   3.788   0.101   2.324  2.0828  1.5732 -0.5526
 9534SOL    HW240062   3.788   0.205   2.428  1.5047  0.2525 -1.1717
 9535SOL     OW40063   2.566   1.863  11.055 -0.1573  0.3285  0.2682
 9535SOL    HW140064   2.635   1.829  10.998  0.5107 -0.2160  1.3936
 9535SOL    HW240065   2.600   1.950  11.074 -0.4394  0.1588  1.5693
 9536SOL     OW40066   3.353   3.509   8.649  0.1037  1.0702  0.0789
 9536SOL    HW140067   3.324   3.434   8.597  1.0560  1.3162 -0.8137
 9536SOL    HW240068   3.270   3.516   8.696 -0.2966  1.0359 -0.6325
 9537SOL     OW40069   3.641   2.731   3.699  0.2471 -0.1877 -0.1862
 9537SOL    HW140070   3.668   2.807   3.647  2.2093 -1.0864 -0.4631
 9537SOL    HW240071   3.685   2.668   3.642 -1.5887 -0.9248 -0.7751
 9538SOL     OW40072   0.973   4.227   0.488 -0.0202  0.2197  0.1305
 9538SOL    HW140073   0.913   4.301   0.481 -1.5977 -1.1516 -0.8005
 9538SOL    HW240074   0.912   4.162   0.523  0.8402 -0.3059  0.6690
 9539SOL     OW40075   2.247   4.182  14.074  0.2510  0.3899  0.3460
 9539SOL    HW140076   2.294   4.124  14.134  2.0810  1.8388  0.3430
 9539SOL    HW240077   2.320   4.233  14.036  0.2121  0.5193  0.4429
 9540SOL     OW40078   4.056   2.223  14.935  0.0407 -0.0143 -0.3398
 9540SOL    HW140079   3.981   2.232  14.876 -1.0260 -0.8094  0.8869
 9540SOL    HW240080   4.007   2.201  15.015  0.4433  0.7989  0.1281
 9541SOL     OW40081   1.495   0.595   9.208 -0.1405  0.1315  0.2966
 9541SOL    HW140082   1.553   0.520   9.194 -2.2575 -1.6506  0.9360
 9541SOL    HW240083   1.462   0.618   9.122  0.9816 -1.4726 -0.5610
 9542SOL     OW40084   1.684   2.552   8.682  0.3464 -0.3555 -0.1902
 9542SOL    HW140085   1.775   2.528   8.704 -0.4388 -0.7061  2.7442
 9542SOL    HW240086   1.701   2.646   8.676  1.7779 -0.6246 -0.3278
 9543SOL     OW40087   1.224   2.750  16.288  0.2625  0.1205 -0.4405
 9543SOL    HW140088   1.165   2.773  16.217  0.3142 -0.0851 -0.5497
 9543SOL    HW240089   1.168   2.770  16.363  2.9068 -0.2311  1.6524
 9544SOL     OW40090   2.419   1.375   4.633 -0.2177  0.0374 -0.6381
 9544SOL    HW140091   2.347   1.361   4.695  0.7734 -1.5571  0.1344
 9544SOL    HW240092   2.475   1.302   4.660 -0.7221 -1.3041 -3.2059
 9545SOL     OW40093   0.519   0.737  11.999  0.0303 -0.4090 -0.2586
 9545SOL    HW140094   0.614   0.723  11.996 -0.0058 -1.1658  1.7151
 9545SOL    HW240095   0.508   0.746  12.094 -2.2760 -1.0945 -0.4696
 9546SOL     OW40096   3.722   3.428   6.819 -0.6861 -0.3538  0.5146
 9546SOL    HW140097   3.759   3.397   6.902  0.1048  0.6115  0.5189
 9546SOL    HW240098   3.752   3.519   6.820 -1.7276 -0.0177  1.6685
 9547SOL     OW40099   4.652   0.573   3.086 -0.0129 -0.2022 -0.3547
 9547SOL    HW140100   4.628   0.532   3.169 -0.4350  1.4891  0.3396
 9547SOL    HW240101   4.684   0.493   3.043  0.4499 -0.6356  0.8035
 9548SOL     OW40102   4.696   3.724   7.874  0.3476  0.2837 -0.1129
 9548SOL    HW140103   4.712   3.760   7.787 -1.9446  0.7254 -0.3539
 9548SOL    HW240104   0.029   3.649   7.881  1.6844  1.5121  1.8566
 9549SOL     OW40105   4.213   1.030  17.403 -0.2418 -0.0306 -0.0901
 9549SOL    HW140106   4.153   0.961  17.433 -0.2641  0.2060  0.4093
 9549SOL    HW240107   4.174   1.036  17.316  1.2551 -0.4322 -0.7810
 9550SOL     OW40108   2.367   4.019   6.256 -0.0698  0.5824  0.0425
 9550SOL    HW140109   2.309   4.080   6.210 -2.0076  0.2261  2.0366
 9550SOL    HW240110   2.450   4.046   6.216 -0.6209 -0.3272 -1.7357
 9551SOL     OW40111   3.113   0.329  10.011  0.2556 -0.0121  0.1454
 9551SOL    HW140112   3.064   0.249  10.024 -1.5191  1.0454  0.0134
 9551SOL    HW240113   3.204   0.301  10.021  0.2627 -0.0441 -0.0154
 9552SOL     OW40114   4.671   0.952   7.663 -0.3015 -0.3400 -0.1833
 9552SOL    HW140115   4.591   0.926   7.618 -1.2665  2.0347  0.1508
 9552SOL    HW240116   4.650   0.982   7.752  2.4063  1.6281 -0.2103
 9553SOL     OW40117   3.927   0.286  14.167  0.6725 -0.5282 -0.3516
 9553SOL    HW140118   3.926   0.206  14.220  0.0903 -1.2476 -1.4350
 9553SOL    HW240119   3.991   0.339  14.213 -0.7167  1.6621 -0.9631
 9554SOL     OW40120   1.358   1.426   3.074 -0.7747  0.0461 -0.0924
 9554SOL    HW140121   1.329   1.387   2.992 -0.4893  0.6512 -0.4733
 9554SOL    HW240122   1.438   1.474   3.053 -0.3447  0.0951  1.6012
 9555SOL     OW40123   1.948   2.368   9.448 -0.3020 -0.5331  0.2729
 9555SOL    HW140124   1.983   2.448   9.486  3.0121 -0.8639 -2.0431
 9555SOL    HW240125   1.863   2.365   9.492 -0.4906  1.6848  0.0590
 9556SOL     OW40126   3.595   1.692   5.941 -0.0858  0.0775 -0.3761
 9556SOL    HW140127   3.563   1.605   5.964  1.1342 -0.1307  0.5403
 9556SOL    HW240128   3.551   1.705   5.856 -2.2034  2.1001  1.0223
 9557SOL     OW40129   3.369   2.285   8.407 -0.9053  0.3351  0.0838
 9557SOL    HW140130   3.374   2.319   8.318 -1.9373  0.4319  0.0642
 9557SOL    HW240131   3.453   2.242   8.420 -1.2829 -0.2618  0.5714
 9558SOL     OW40132   4.556   3.856   3.153 -0.3105 -0.1613 -0.6603
 9558SOL    HW140133   4.501   3.927   3.184 -1.6814 -1.2116 -0.6873
 9558SOL    HW240134   4.544   3.868   3.059 -0.3254 -2.4187 -0.9463
 9559SOL     OW40135   1.193   4.441   4.236 -0.2270 -0.1626  0.2223
 9559SOL    HW140136   1.270   4.487   4.269  1.0259 -0.5017 -2.2338
 9559SOL    HW240137   1.148   4.420   4.318 -1.2606 -0.5466 -0.4393
 9560SOL     OW40138   2.810   3.924  13.521  0.3266 -0.0849  0.2322
 9560SOL    HW140139   2.738   3.864  13.501  1.6679 -1.2444 -1.0784
 9560SOL    HW240140   2.883   3.863  13.511  1.9673  2.1190 -1.2735
 9561SOL     OW40141   2.070   2.203  17.658 -0.0509 -0.4491 -0.5586
 9561SOL    HW140142   2.098   2.283  17.615 -1.6712  1.5729  2.1488
 9561SOL    HW240143   2.149   2.152  17.676 -0.8683 -1.4663  0.1619
 9562SOL     OW40144   3.713   1.706  14.358 -0.1891 -0.6530 -0.0520
 9562SOL    HW140145   3.622   1.679  14.370 -0.0992 -0.9150  0.0436
 9562SOL    HW240146   3.750   1.617  14.361 -1.9693 -1.3606  1.2199
 9563SOL     OW40147   3.927   1.786   8.058  0.2022 -0.0353  0.2444
 9563SOL    HW140148   3.961   1.875   8.055  0.5242 -0.1395  0.7056
 9563SOL    HW240149   3.963   1.755   8.141 -0.8887  0.2144  0.8106
 9564SOL     OW40150   2.640   4.477   5.103  1.0480 -0.2572 -0.2088
 9564SOL    HW140151   2.632   4.555   5.049  0.0355  1.5732  2.6158
 9564SOL    HW240152   2.549   4.448   5.104  0.1622  2.7107  2.5560
 9565SOL     OW40153   1.686   2.868   5.097 -0.2216 -0.5834 -0.0412
 9565SOL    HW140154   1.732   2.941   5.055 -0.2115 -1.3654 -1.4214
 9565SOL    HW240155   1.602   2.849   5.055 -0.2948  1.3083 -0.7749
   4.72554   4.72554  17.70344
