Membrane in water
40155
    1TCq1    O1    1   4.012   2.626  11.764 -0.0746 -0.2485 -0.6798
    1TCq1    C1    2   4.039   2.689  11.649 -0.4106 -0.2875  0.4009
    1TCq1    O2    3   4.136   2.769  11.638 -0.1821 -0.0162  0.3481
    1TCq1    C2    4   4.003   2.597  11.545  0.0909 -0.0265  0.4639
    1TCq1    C3    5   4.096   2.576  11.442  0.0770 -0.0494  0.5761
    1TCq1    C4    6   4.073   2.476  11.357 -0.5731  0.6914 -0.2208
    1TCq1    C5    7   3.951   2.414  11.358  0.2235  1.3345  0.0708
    1TCq1    C6    8   3.855   2.451  11.442 -0.0893  0.8014 -0.1048
    1TCq1    C7    9   3.880   2.537  11.543 -0.2727  0.8707  0.5007
    1TCq1    C8   10   3.735   2.367  11.458 -0.2024 -0.1253  0.1044
    1TCq1    O4   11   3.649   2.402  11.531 -0.0332 -0.2335  0.0815
    1TCq1    C9   12   4.165   2.446  11.253 -0.7076 -0.0740  0.0925
    1TCq1    O5   13   4.142   2.338  11.185  0.5796  0.0897  0.2659
    1TCq1    O6   14   4.219   2.545  11.199 -0.4062 -0.2627 -0.2345
    1TCq1    H1   15   3.978   2.534  11.761  0.9322 -0.6050 -1.3417
    1TCq1    H2   16   4.190   2.627  11.426  0.6948 -1.5936 -0.7591
    1TCq1    H3   17   3.927   2.358  11.269 -0.5896  0.4209  0.8709
    1TCq1    H4   18   3.803   2.564  11.614  1.3616  2.1930  1.7781
    2MPD2     C   19   3.508   1.909  11.486  0.2819  0.1933  0.1786
    2MPD2    C1   20   3.462   2.036  11.509  0.2822  0.4004 -0.5130
    2MPD2    C2   21   3.544   2.145  11.472 -0.4496  0.6229 -0.1930
    2MPD2    C3   22   3.663   2.137  11.406  0.9755 -0.4630  0.2002
    2MPD2    C4   23   3.701   2.009  11.383 -0.6030 -0.0793 -0.4121
    2MPD2    C5   24   3.628   1.898  11.415 -0.0011 -0.8259 -0.2114
    2MPD2     H   25   3.504   2.244  11.491  0.0057  0.3579  2.1276
    2MPD2    H1   26   3.790   1.986  11.325 -1.2192 -1.6187 -0.7662
    2MPD2    H2   27   3.455   1.817  11.508 -1.5247  1.1834 -0.0165
    2MPD2    H3   28   3.667   1.800  11.391  0.8745 -0.5466  0.0314
    2MPD2     N   29   3.753   2.245  11.399  0.2754  0.2149  0.7382
    2MPD2    H5   30   3.841   2.222  11.353  0.1731  0.8261  0.2353
    2MPD2    N1   31   3.344   2.059  11.578 -0.3457  0.5246  0.1320
    2MPD2    H7   32   3.302   2.151  11.584 -0.9086  0.0789  3.3687
    3TCq1    O1   33   3.676   3.651  10.858 -0.1581  0.7544 -0.2979
    3TCq1    C1   34   3.558   3.649  10.794  0.0149  0.1515  0.4229
    3TCq1    O2   35   3.504   3.754  10.761 -0.7123  0.2776  0.1675
    3TCq1    C2   36   3.487   3.548  10.869 -0.9332  0.5836 -0.0883
    3TCq1    C3   37   3.532   3.413  10.861 -0.1714  0.9828 -0.0134
    3TCq1    C4   38   3.444   3.323  10.916  0.5930 -0.2448 -0.6116
    3TCq1    C5   39   3.335   3.363  10.985 -0.0890  0.0971 -0.0434
    3TCq1    C6   40   3.302   3.496  10.998 -0.0487  0.7540  0.3344
    3TCq1    C7   41   3.373   3.591  10.930  0.1636 -0.4202 -0.6325
    3TCq1    C8   42   3.198   3.530  11.093 -0.1089 -0.3483  0.4521
    3TCq1    O4   43   3.147   3.432  11.152  0.1457  0.0408 -0.0596
    3TCq1    C9   44   3.466   3.187  10.896 -0.4353 -0.9855  0.0143
    3TCq1    O5   45   3.400   3.108  10.971  0.2205  0.4236 -0.3425
    3TCq1    O6   46   3.539   3.157  10.794 -0.2908  0.5622 -0.6151
    3TCq1    H1   47   3.701   3.562  10.891 -0.7537  0.3639 -0.8854
    3TCq1    H2   48   3.621   3.379  10.809  0.3506  0.5723  1.1568
    3TCq1    H3   49   3.280   3.277  11.022 -2.0349  0.9927 -0.8730
    3TCq1    H4   50   3.345   3.695  10.924 -2.2421 -1.0418 -0.2142
    4MPD2     C   51   2.849   3.846  11.266 -0.3817 -0.0051  0.2709
    4MPD2    C1   52   2.938   3.929  11.207 -0.3343  0.0556 -0.3907
    4MPD2    C2   53   3.033   3.853  11.139  0.2531 -0.3935  0.5471
    4MPD2    C3   54   3.057   3.721  11.162 -0.2238  0.1246  0.1654
    4MPD2    C4   55   2.987   3.651  11.259  0.5829 -0.1127 -0.0722
    4MPD2    C5   56   2.873   3.713  11.294  0.2169 -0.1847  0.4061
    4MPD2     H   57   3.103   3.903  11.073  0.5360  0.8698  1.7951
    4MPD2    H1   58   2.990   3.544  11.278  0.7431 -0.1393 -0.2495
    4MPD2    H2   59   2.756   3.891  11.299 -0.9638 -1.2725  0.3468
    4MPD2    H3   60   2.791   3.654  11.333 -0.3746  1.4233  1.6103
    4MPD2     N   61   3.166   3.661  11.092 -0.2409 -0.1306  0.6444
    4MPD2    H5   62   3.221   3.721  11.031  0.1424  0.0484  1.1639
    4MPD2    N1   63   2.923   4.071  11.183  0.7675 -0.5756 -0.7475
    4MPD2    H7   64   2.990   4.117  11.122 -0.9393  1.5469 -1.0492
    5TCq1    O1   65   2.926   4.657   9.897  0.0816 -0.1056  0.2830
    5TCq1    C1   66   2.932   4.585   9.786 -0.9288 -0.9645 -0.3683
    5TCq1    O2   67   2.858   4.603   9.688 -0.1233  0.1370 -0.7573
    5TCq1    C2   68   3.016   4.472   9.800 -0.4340  0.2862  0.0641
    5TCq1    C3   69   2.975   4.358   9.728  0.3114  0.2739  0.1768
    5TCq1    C4   70   3.066   4.256   9.723 -1.3424  0.5536 -0.2936
    5TCq1    C5   71   3.175   4.262   9.798  0.3320 -0.5108 -0.4880
    5TCq1    C6   72   3.201   4.362   9.885  0.5336 -0.2713 -0.1015
    5TCq1    C7   73   3.119   4.473   9.893  0.0757 -0.4850 -0.1125
    5TCq1    C8   74   3.297   4.350   9.994 -0.4100  0.0129 -0.1674
    5TCq1    O4   75   3.347   4.240  10.003 -0.0121  0.0899  0.2744
    5TCq1    C9   76   3.042   4.142   9.634  0.2127 -0.2053 -0.2196
    5TCq1    O5   77   3.132   4.055   9.618 -0.0643 -0.2634  0.2834
    5TCq1    O6   78   2.932   4.147   9.574  0.0321  0.0985  0.5168
    5TCq1    H1   79   2.961   4.619   9.980 -1.6629 -0.7890  0.7228
    5TCq1    H2   80   2.881   4.351   9.675  0.6460  0.8156 -0.4799
    5TCq1    H3   81   3.251   4.185   9.789  0.3620 -0.5312 -0.0806
    5TCq1    H4   82   3.149   4.573   9.922 -2.3233  0.1303  0.1973
    6MPD2     C   83   3.341   4.574  10.285  0.5909 -0.4017 -0.3538
    6MPD2    C1   84   3.364   4.468  10.203 -0.1168  0.8943 -0.1693
    6MPD2    C2   85   3.471   4.384  10.237 -0.1057  0.2974 -0.2195
    6MPD2    C3   86   3.545   4.399  10.354 -0.4417 -0.3628  1.0995
    6MPD2    C4   87   3.514   4.506  10.435 -0.4968  0.4741  0.3715
    6MPD2    C5   88   3.415   4.595  10.402  0.7787 -0.1962 -0.0202
    6MPD2     H   89   3.491   4.294  10.180  3.3454  0.6527  0.4435
    6MPD2    H1   90   3.558   4.532  10.531 -0.0856 -2.3763  0.9724
    6MPD2    H2   91   3.269   4.652  10.264  1.2720  0.5513  0.8755
    6MPD2    H3   92   3.403   4.686  10.461  0.3639 -0.5632  0.4681
    6MPD2     N   93   3.648   4.303  10.387  0.9695  0.7090  0.2565
    6MPD2    H5   94   3.657   4.221  10.328  1.2198  0.0010  1.2897
    6MPD2    N1   95   3.289   4.453  10.085  0.6028 -0.3422 -0.2734
    6MPD2    H7   96   3.217   4.522  10.068  1.0440 -0.0337 -0.8847
    7TCq1    O1   97   0.645   0.584  13.161  0.3493 -0.6037  0.5603
    7TCq1    C1   98   0.588   0.549  13.047 -0.8485  0.7276 -1.0008
    7TCq1    O2   99   0.617   0.596  12.938  0.7345  0.2964 -0.2242
    7TCq1    C2  100   0.564   0.407  13.056  0.3347  0.0618 -0.0511
    7TCq1    C3  101   0.472   0.363  12.968  0.2957  0.5046 -0.3202
    7TCq1    C4  102   0.431   0.229  12.965  0.2941  0.0186 -0.6263
    7TCq1    C5  103   0.483   0.146  13.063  0.0046 -0.1571 -0.1223
    7TCq1    C6  104   0.575   0.196  13.151 -0.3184  0.5326 -0.6171
    7TCq1    C7  105   0.626   0.323  13.141 -0.5361 -0.4028  0.3371
    7TCq1    C8  106   0.614   0.108  13.263 -0.6516  0.0413 -0.1712
    7TCq1    O4  107   0.565   4.721  13.258  0.0973  0.3053 -0.0779
    7TCq1    C9  108   0.347   0.181  12.856 -0.1496 -0.4346 -0.2395
    7TCq1    O5  109   0.314   0.269  12.768  0.1788  0.1505  0.5412
    7TCq1    O6  110   0.337   0.055  12.848 -0.2747 -0.5674 -0.8276
    7TCq1    H1  111   0.594   0.549  13.238 -1.4308 -0.8467 -0.7459
    7TCq1    H2  112   0.429   0.434  12.898  2.0410  0.5636 -1.3175
    7TCq1    H3  113   0.439   0.048  13.078  1.3382 -0.5674  1.0895
    7TCq1    H4  114   0.703   0.356  13.210 -1.6735  0.8706  0.9982
    8MPD2     C  115   0.859   4.713  13.694  0.2389 -0.0218  0.2361
    8MPD2    C1  116   0.784   4.631  13.605  0.0280 -0.2841 -0.1807
    8MPD2    C2  117   0.740   4.687  13.482 -0.5653 -0.5022 -0.2731
    8MPD2    C3  118   0.772   0.094  13.454 -0.2267  0.5311  0.3367
    8MPD2    C4  119   0.842   0.172  13.538  0.8267  0.1912 -0.2432
    8MPD2    C5  120   0.884   0.122  13.659 -0.0253 -0.5212  0.6985
    8MPD2     H  121   0.686   4.629  13.408 -0.6889 -1.3791  0.5037
    8MPD2    H1  122   0.865   0.276  13.518  0.7541  0.3009  0.2581
    8MPD2    H2  123   0.884   4.674  13.792  0.2355  0.3801  0.3995
    8MPD2    H3  124   0.932   0.189  13.730  0.0438  0.4630 -0.2826
    8MPD2     N  125   0.707   0.162  13.346  0.0458 -1.0052 -0.3334
    8MPD2    H5  126   0.732   0.259  13.336  0.6381 -1.3333 -2.0795
    8MPD2    N1  127   0.738   4.505  13.650 -0.0007  0.5064  0.8099
    8MPD2    H7  128   0.783   4.463  13.731 -0.0239 -3.5140 -1.2509
    9TCq1    O1  129   3.351   2.594  11.258  0.4859  0.6348  0.2749
    9TCq1    C1  130   3.430   2.499  11.210 -0.0221 -0.3887 -0.1595
    9TCq1    O2  131   3.408   2.381  11.213  0.4339  0.0757 -0.2240
    9TCq1    C2  132   3.554   2.555  11.162 -0.0858  0.3468  0.0388
    9TCq1    C3  133   3.635   2.465  11.099  0.8087 -0.1926 -0.2772
    9TCq1    C4  134   3.770   2.491  11.086 -0.9576 -0.0053  0.3868
    9TCq1    C5  135   3.817   2.609  11.138  0.4432 -0.6488  0.2466
    9TCq1    C6  136   3.735   2.691  11.213  0.4616 -0.1065  0.1916
    9TCq1    C7  137   3.602   2.669  11.220 -0.2226  0.2240  0.3807
    9TCq1    C8  138   3.792   2.800  11.288 -0.4063 -0.5387  0.8041
    9TCq1    O4  139   3.911   2.822  11.284  0.1047 -0.1806  0.0825
    9TCq1    C9  140   3.855   2.414  10.998  0.0869 -1.0200 -0.0391
    9TCq1    O5  141   3.960   2.475  10.957 -0.2902 -0.2348 -0.2003
    9TCq1    O6  142   3.821   2.298  10.965  0.5045  0.0211 -0.3541
    9TCq1    H1  143   3.379   2.682  11.224  0.8785  0.0897 -0.8012
    9TCq1    H2  144   3.600   2.375  11.050 -1.3589  0.6439 -0.2542
    9TCq1    H3  145   3.923   2.634  11.136 -0.1782  2.1915  1.8927
    9TCq1    H4  146   3.533   2.749  11.246  0.2231  0.8296 -0.3081
   10MPD2     C  147   3.878   2.971  11.528  0.2540  0.2105  0.3609
   10MPD2    C1  148   3.749   2.935  11.492 -0.0423  0.5356  0.7372
   10MPD2    C2  149   3.644   2.977  11.580 -0.1005  0.0918  0.7544
   10MPD2    C3  150   3.666   3.065  11.686 -0.5836  0.4784 -0.1123
   10MPD2    C4  151   3.791   3.086  11.726  0.3318 -0.9581  0.3378
   10MPD2    C5  152   3.897   3.034  11.650  0.3836  0.3564  0.0446
   10MPD2     H  153   3.543   2.942  11.561  1.0841 -3.7254  1.5498
   10MPD2    H1  154   3.821   3.148  11.809 -3.1449  1.2821 -0.0622
   10MPD2    H2  155   3.967   2.952  11.469 -0.7392 -0.0009 -1.0655
   10MPD2    H3  156   3.997   3.045  11.689  0.8763 -2.9882 -0.2768
   10MPD2     N  157   3.562   3.128  11.758 -0.3115  0.1564  0.5450
   10MPD2    H5  158   3.593   3.182  11.838 -3.3632  0.3872  1.5618
   10MPD2    N1  159   3.706   2.850  11.386 -0.0407 -0.2020 -0.1746
   10MPD2    H7  160   3.606   2.837  11.373 -0.1970  2.6472 -2.0835
   11TCq1    O1  161   4.676   3.389  14.106 -0.2060  0.2497 -0.2888
   11TCq1    C1  162   4.577   3.299  14.100  1.2504  0.1438  0.4056
   11TCq1    O2  163   4.525   3.265  13.997 -0.0897  0.2084 -0.4077
   11TCq1    C2  164   4.516   3.284  14.231  0.5182 -0.1453  0.4312
   11TCq1    C3  165   4.596   3.295  14.345 -0.1084 -0.4972  1.2130
   11TCq1    C4  166   4.530   3.269  14.462  0.3766 -0.2173 -0.5707
   11TCq1    C5  167   4.405   3.211  14.469  0.7252  0.1412  0.2835
   11TCq1    C6  168   4.337   3.194  14.353  0.1296 -0.0265  0.2788
   11TCq1    C7  169   4.393   3.226  14.237 -0.3541 -0.2324  0.3601
   11TCq1    C8  170   4.196   3.168  14.359  0.0998 -0.1250  0.0332
   11TCq1    O4  171   4.151   3.206  14.466 -0.1955  0.1757 -0.2594
   11TCq1    C9  172   4.593   3.313  14.589  0.0311 -0.5016 -0.3650
   11TCq1    O5  173   4.518   3.318  14.688 -0.1067  0.0850 -0.5934
   11TCq1    O6  174   4.699   3.379  14.582  0.4264 -0.0807  0.2115
   11TCq1    H1  175   4.695   3.431  14.193  1.3094  0.8038 -0.8794
   11TCq1    H2  176   4.696   3.337  14.349  0.0035 -0.7378  0.9708
   11TCq1    H3  177   4.371   3.192  14.570 -1.4653 -1.3602 -0.7390
   11TCq1    H4  178   4.352   3.207  14.139 -1.4065  1.0885  0.5411
   12MPD2     C  179   3.905   3.133  14.335 -0.3214 -0.0169 -0.0518
   12MPD2    C1  180   4.002   3.072  14.255 -0.5666  0.6452 -0.0860
   12MPD2    C2  181   3.959   2.967  14.172 -0.5198 -0.8597  0.4114
   12MPD2    C3  182   3.828   2.914  14.169 -0.6200  0.2340 -0.2307
   12MPD2    C4  183   3.742   2.971  14.255 -0.4355 -0.3868  0.4162
   12MPD2    C5  184   3.782   3.075  14.335  0.0785  0.3495 -0.4931
   12MPD2     H  185   4.036   2.923  14.109 -1.6462 -1.7535 -0.3218
   12MPD2    H1  186   3.637   2.947  14.264 -0.5699 -0.5097 -1.4818
   12MPD2    H2  187   3.915   3.210  14.411  1.9258  0.3600 -0.7182
   12MPD2    H3  188   3.711   3.116  14.405  0.9597  1.0557 -0.0136
   12MPD2     N  189   3.786   2.818  14.082 -0.2218 -0.3693 -0.5751
   12MPD2    H5  190   3.688   2.794  14.090 -0.6780  1.3211 -1.1716
   12MPD2    N1  191   4.138   3.110  14.249 -0.0821 -0.2837  0.1537
   12MPD2    H7  192   4.197   3.071  14.175 -0.9559 -0.5018 -0.4236
   13TCq1    O1  193   3.053   3.456  10.117  0.4093  0.5388 -0.4513
   13TCq1    C1  194   3.130   3.358  10.167 -0.1235 -0.4743 -0.1012
   13TCq1    O2  195   3.091   3.243  10.172  0.3596 -0.4857 -0.2042
   13TCq1    C2  196   3.186   3.424  10.287  0.2771 -0.4241  0.3865
   13TCq1    C3  197   3.236   3.551  10.274  1.4076  0.4742  1.1470
   13TCq1    C4  198   3.251   3.623  10.384  0.1075 -0.6780 -0.1827
   13TCq1    C5  199   3.222   3.569  10.508  0.0483 -0.7087 -0.3024
   13TCq1    C6  200   3.159   3.449  10.514  0.1013 -0.4223 -0.0497
   13TCq1    C7  201   3.142   3.371  10.405 -0.3237  0.3445 -0.0475
   13TCq1    C8  202   3.109   3.414  10.645  0.7516 -0.0659 -0.3824
   13TCq1    O4  203   3.120   3.494  10.738 -0.0654 -0.0333 -0.1107
   13TCq1    C9  204   3.309   3.754  10.376  0.3306 -0.6279  0.2571
   13TCq1    O5  205   3.322   3.807  10.262 -0.1713  0.7236  0.2187
   13TCq1    O6  206   3.347   3.807  10.484  0.1597  0.5890 -0.2514
   13TCq1    H1  207   3.085   3.548  10.115  0.1001  0.6151 -1.6590
   13TCq1    H2  208   3.258   3.591  10.175 -0.5088  1.7464  1.2253
   13TCq1    H3  209   3.239   3.631  10.595 -0.9514 -2.1735  0.9470
   13TCq1    H4  210   3.113   3.267  10.413 -0.0689  0.3466  0.8644
   14MPD2     C  211   2.850   3.153  10.710 -0.3441 -0.0701 -0.7485
   14MPD2    C1  212   2.950   3.242  10.742  0.0884 -0.2657 -0.0081
   14MPD2    C2  213   2.968   3.266  10.881 -0.0577 -0.0257 -0.2111
   14MPD2    C3  214   2.894   3.206  10.985  0.0795 -0.4024  0.0327
   14MPD2    C4  215   2.807   3.108  10.943 -0.3451 -0.2847  0.4860
   14MPD2    C5  216   2.788   3.087  10.813 -0.2083  0.3023  0.7771
   14MPD2     H  217   3.053   3.330  10.902 -1.5016  1.5842  0.7641
   14MPD2    H1  218   2.742   3.056  11.013 -2.0773 -0.4325 -1.2340
   14MPD2    H2  219   2.824   3.132  10.607  0.2104  2.1441 -1.3410
   14MPD2    H3  220   2.712   3.012  10.793 -0.5163  1.2298 -1.5360
   14MPD2     N  221   2.936   3.231  11.117  0.0036 -0.4549  0.0901
   14MPD2    H5  222   3.009   3.299  11.135 -0.2818 -0.3011  0.6765
   14MPD2    N1  223   3.017   3.308  10.631  0.3153 -0.1329  0.8202
   14MPD2    H7  224   2.983   3.281  10.540 -2.0684  0.1839  1.6095
   15TCq1    O1  225   4.535   2.157   1.437  0.4854  0.1338  0.1276
   15TCq1    C1  226   4.585   2.045   1.387 -0.3466 -0.4503  0.0653
   15TCq1    O2  227   4.584   2.012   1.268  0.7131 -0.1779  0.0984
   15TCq1    C2  228   4.646   1.958   1.489  0.4559 -0.2933  0.3302
   15TCq1    C3  229   4.609   1.976   1.623 -0.6021 -0.2099  0.5155
   15TCq1    C4  230   4.681   1.910   1.720  0.3046  1.1020  0.0402
   15TCq1    C5  231   0.063   1.837   1.689  0.7606 -0.1592  0.4666
   15TCq1    C6  232   0.094   1.822   1.559 -0.3529  0.1071 -0.8416
   15TCq1    C7  233   0.022   1.874   1.454 -0.4690  0.1542 -0.2455
   15TCq1    C8  234   0.166   1.697   1.523  0.3155  0.4938 -0.3883
   15TCq1    O4  235   0.262   1.670   1.591 -0.5343 -0.0496  0.3328
   15TCq1    C9  236   4.649   1.922   1.864 -0.3048 -0.1093  0.2413
   15TCq1    O5  237   4.690   1.821   1.934 -0.2546 -0.4885 -0.4282
   15TCq1    O6  238   4.575   2.020   1.904  0.9091  0.2415 -0.2371
   15TCq1    H1  239   4.590   2.178   1.516 -1.0314 -0.5746  1.3610
   15TCq1    H2  240   4.529   2.040   1.657 -1.1454 -1.2553  1.1887
   15TCq1    H3  241   0.120   1.786   1.766  0.4462 -0.3407  0.5772
   15TCq1    H4  242   0.041   1.844   1.352  0.6188 -0.8455  0.2505
   16MPD2     C  243   0.012   1.423   1.329  0.2937  0.1967 -0.0834
   16MPD2    C1  244   0.112   1.486   1.405  0.2356  0.2602 -0.8306
   16MPD2    C2  245   0.235   1.427   1.427  0.4743 -0.1289 -0.5896
   16MPD2    C3  246   0.273   1.317   1.361 -0.1863 -0.3205  1.3342
   16MPD2    C4  247   0.184   1.262   1.272  0.6681  0.2807 -0.3183
   16MPD2    C5  248   0.062   1.313   1.265 -0.5273 -0.1104 -0.2003
   16MPD2     H  249   0.309   1.468   1.495 -0.2373  0.7899 -0.3644
   16MPD2    H1  250   0.205   1.171   1.218  2.3519  1.7204 -2.1179
   16MPD2    H2  251   4.631   1.451   1.332 -0.1413 -1.5608  1.8505
   16MPD2    H3  252   4.713   1.266   1.200 -2.5753  0.6135  1.5708
   16MPD2     N  253   0.401   1.266   1.381  0.2787  0.0130  0.0794
   16MPD2    H5  254   0.455   1.299   1.459  0.6031 -2.1971  0.8014
   16MPD2    N1  255   0.087   1.619   1.444  0.5045 -0.0462  0.1527
   16MPD2    H7  256   4.721   1.662   1.427 -0.6153 -2.1557  0.7306
   17TCq1    O1  257   3.058   2.623   9.802 -0.7526 -0.2811  0.3735
   17TCq1    C1  258   3.169   2.687   9.851 -0.2476 -0.7869  0.5799
   17TCq1    O2  259   3.280   2.643   9.864 -0.6266  0.0335  0.6180
   17TCq1    C2  260   3.135   2.827   9.840  0.4739 -0.1191 -0.0678
   17TCq1    C3  261   3.034   2.872   9.756 -0.3046 -0.3924  0.4432
   17TCq1    C4  262   3.021   3.011   9.757  0.2521  0.1969  0.2774
   17TCq1    C5  263   3.100   3.102   9.819 -0.0802 -0.1178  0.5631
   17TCq1    C6  264   3.210   3.045   9.877  0.3149 -0.2265 -0.4465
   17TCq1    C7  265   3.230   2.913   9.894 -0.3950 -0.4980  0.1168
   17TCq1    C8  266   3.322   3.135   9.896 -0.2552 -0.5279 -0.8788
   17TCq1    O4  267   3.343   3.227   9.819 -0.3398 -0.2445  0.1077
   17TCq1    C9  268   2.912   3.066   9.679 -0.1703 -0.5594  0.3516
   17TCq1    O5  269   2.901   3.188   9.657  0.4129 -0.2579  0.5132
   17TCq1    O6  270   2.861   2.986   9.600  0.0036 -0.2599  0.3558
   17TCq1    H1  271   2.988   2.688   9.821 -1.1861  0.1539 -2.7670
   17TCq1    H2  272   2.967   2.815   9.693 -0.1043  1.2712 -1.2454
   17TCq1    H3  273   3.100   3.209   9.804 -0.9398  0.0941  2.0981
   17TCq1    H4  274   3.322   2.877   9.940  0.7054  1.5307 -0.5049
   18MPD2     C  275   3.485   3.336  10.036  0.6768  0.4404  0.0290
   18MPD2    C1  276   3.489   3.202  10.068 -0.4883  0.0431 -0.0528
   18MPD2    C2  277   3.587   3.147  10.152  0.5500 -0.8399 -0.1575
   18MPD2    C3  278   3.684   3.231  10.201 -0.2464  0.4196 -0.0033
   18MPD2    C4  279   3.672   3.365  10.173 -0.3871 -0.0584 -0.1440
   18MPD2    C5  280   3.573   3.419  10.096 -0.5925  0.0713 -0.3669
   18MPD2     H  281   3.584   3.041  10.174  0.8336 -0.7078  0.5248
   18MPD2    H1  282   3.742   3.435  10.216 -0.7031 -0.8549  1.7047
   18MPD2    H2  283   3.402   3.379   9.982 -0.8947 -0.9512  1.3601
   18MPD2    H3  284   3.563   3.525  10.077 -0.7824 -0.0027 -0.6649
   18MPD2     N  285   3.787   3.193  10.282  0.4652  0.2063 -0.5274
   18MPD2    H5  286   3.851   3.266  10.311 -0.5694  0.7297  0.4358
   18MPD2    N1  287   3.391   3.110  10.011  0.1708  0.0574  0.1644
   18MPD2    H7  288   3.384   3.019  10.057  1.8638  1.2233  2.7470
   19TMC2    C1  289   0.133   3.003  14.078 -1.0470 -0.1482  0.0350
   19TMC2    C2  290   0.065   3.037  13.967 -0.6903 -0.0557 -1.4339
   19TMC2    C3  291   4.692   2.947  13.925 -0.2733  0.0125 -0.1684
   19TMC2    C4  292   0.117   2.886  14.147 -0.6472 -0.6322  0.0307
   19TMC2    C5  293   0.024   2.798  14.099  0.6020 -0.8068 -0.3159
   19TMC2    C6  294   4.679   2.816  13.984  0.1202  0.6434 -1.1508
   19TMC2     C  295   0.229   3.105  14.125 -0.3756 -0.7081 -0.2542
   19TMC2     O  296   0.243   3.205  14.059  0.3493 -0.2613  0.3142
   19TMC2     H  297   0.070   3.133  13.917 -0.3124 -0.1248 -1.5264
   19TMC2    H1  298   0.159   2.875  14.246  0.5832  3.5588 -0.0179
   19TMC2    H2  299   4.598   2.755  13.947 -1.1717  1.0312  1.0799
   19TMC2    C7  300   0.016   2.674  14.172  0.2007 -0.3974  0.3192
   19TMC2    C8  301   4.587   2.977  13.836  0.0475  0.0154 -0.1262
   19TMC2    O1  302   0.051   2.673  14.290  0.2599  0.6060 -0.1904
   19TMC2    O2  303   4.483   2.910  13.834  0.3937  0.4970 -0.0073
   19TMC2    O5  304   4.620   3.081  13.754  0.2509 -0.2787 -0.9609
   19TMC2    H5  305   4.703   3.130  13.773 -0.4582 -0.5258  2.8028
   20MPD2     C  306   0.368   3.305  14.286  0.2903  0.0004 -0.7448
   20MPD2    C1  307   0.369   3.170  14.308 -0.3977  0.1095  0.3954
   20MPD2    C2  308   0.444   3.123  14.415 -0.4796  0.0150  1.3141
   20MPD2    C3  309   0.513   3.202  14.505 -0.2972 -0.7468  0.2769
   20MPD2    C4  310   0.524   3.336  14.471  0.0686 -0.1427  0.4838
   20MPD2    C5  311   0.443   3.385  14.369 -0.1000 -0.0727  0.1927
   20MPD2     H  312   0.456   3.016  14.425 -1.0620 -0.3465 -2.1880
   20MPD2    H1  313   0.583   3.399  14.536  1.1401  0.1124 -0.7351
   20MPD2    H2  314   0.309   3.352  14.207 -1.4469  0.5941  0.8913
   20MPD2    H3  315   0.440   3.493  14.360  2.4290 -0.1754 -1.9109
   20MPD2     N  316   0.578   3.149  14.621 -0.1960  0.8723 -0.1187
   20MPD2    H5  317   0.652   3.206  14.662  0.8270 -0.5410 -0.0012
   20MPD2    N1  318   0.292   3.074  14.242 -0.6328 -0.6732  0.2290
   20MPD2    H7  319   0.280   2.992  14.301  1.4799 -0.6393  0.6996
   21MPD2     C  320   2.805   3.560  14.207 -0.0457 -0.3578  0.0236
   21MPD2    C1  321   2.820   3.423  14.214 -0.6241  0.4629 -0.0199
   21MPD2    C2  322   2.736   3.354  14.300 -0.5218  0.2679  0.6326
   21MPD2    C3  323   2.639   3.421  14.367  0.4695  0.3411  0.3413
   21MPD2    C4  324   2.633   3.558  14.365 -0.2306  0.3333  0.1416
   21MPD2    C5  325   2.713   3.625  14.281 -0.4038 -0.4739  1.2341
   21MPD2     H  326   2.754   3.249  14.319 -2.3046 -0.4417 -1.5063
   21MPD2    H1  327   2.567   3.615  14.429 -0.2572  0.4387  0.0191
   21MPD2    H2  328   2.872   3.623  14.149 -1.2702  0.7187 -0.2127
   21MPD2    H3  329   2.715   3.734  14.281  1.4915 -0.5037  0.8023
   21MPD2     N  330   2.536   3.350  14.443 -0.1683 -0.2382  0.8975
   21MPD2    H5  331   2.473   3.412  14.493 -0.3974  1.4653 -1.4861
   21MPD2    N1  332   2.933   3.368  14.153  0.8297 -0.2851 -0.5468
   21MPD2    H7  333   2.999   3.438  14.120 -0.3231  1.5954  1.1553
   22TCq2    C1  334   2.527   3.213  14.471  0.7091  0.5891 -0.6031
   22TCq2    O2  335   2.611   3.130  14.437  0.2795 -0.1080 -0.3006
   22TCq2    C2  336   2.406   3.157  14.532  0.4867  0.0018  0.2048
   22TCq2    C3  337   2.409   3.024  14.564 -0.4397  0.2968  0.5047
   22TCq2    C4  338   2.327   2.979  14.661 -0.1953  0.4990 -0.2298
   22TCq2    C5  339   2.237   3.062  14.720  0.5225 -0.6217 -0.3333
   22TCq2    C6  340   2.233   3.194  14.681  0.2273  0.5197  0.0110
   22TCq2    C7  341   2.312   3.245  14.581  0.1402  0.5915 -0.0935
   22TCq2    C8  342   2.131   3.276  14.748 -0.0846 -0.1746 -0.0643
   22TCq2    O4  343   2.107   3.247  14.866  0.0379 -0.1542  0.4109
   22TCq2    C9  344   2.339   2.843  14.710 -0.5437 -0.2265 -1.0677
   22TCq2    O5  345   2.280   2.821  14.819  0.2923 -0.2184 -0.4387
   22TCq2    O6  346   2.440   2.784  14.681 -0.5578  0.2848 -0.1780
   22TCq2    H2  347   2.477   2.961  14.508  0.9082  1.0046  1.3500
   22TCq2    H3  348   2.176   3.029  14.803  0.1166  1.6328  0.2770
   22TCq2    H4  349   2.302   3.349  14.552  0.2344  0.3645 -0.9357
   23MPD2     C  350   3.651   3.893  14.412  0.1746 -0.4199  0.3723
   23MPD2    C1  351   3.618   3.983  14.512 -0.0727 -0.8650  0.2592
   23MPD2    C2  352   3.493   4.046  14.514 -0.0414 -0.3559 -0.9191
   23MPD2    C3  353   3.411   4.036  14.403  0.4675 -0.2112 -0.4024
   23MPD2    C4  354   3.452   3.949  14.306  0.1813 -0.9843 -0.2074
   23MPD2    C5  355   3.564   3.880  14.311 -0.0053 -0.7608 -0.1251
   23MPD2     H  356   3.468   4.118  14.591  2.7539 -1.1945  0.7611
   23MPD2    H1  357   3.380   3.926  14.228 -0.9308  0.3299  0.4295
   23MPD2    H2  358   3.734   3.824  14.414 -1.1904 -2.1086 -1.2498
   23MPD2    H3  359   3.578   3.798  14.241 -0.3613  0.3600 -1.5180
   23MPD2     N  360   3.279   4.089  14.383  0.1782 -0.3993 -0.2272
   23MPD2    H5  361   3.226   4.070  14.299  2.5189  0.7027 -1.9519
   23MPD2    N1  362   3.696   3.999  14.631  0.1195  0.4248  0.1520
   23MPD2    H7  363   3.660   4.065  14.698 -1.4595  1.1986 -1.4560
   24TCq2    C1  364   3.214   4.144  14.488  0.9758  0.5815 -0.1363
   24TCq2    O2  365   3.254   4.212  14.587 -0.4418 -0.0785  0.1613
   24TCq2    C2  366   3.075   4.138  14.448 -0.2513  0.5621 -0.1780
   24TCq2    C3  367   3.010   4.249  14.491 -0.6539  0.2146 -0.1860
   24TCq2    C4  368   2.881   4.258  14.456  0.8087  0.2791  0.8282
   24TCq2    C5  369   2.817   4.165  14.380  0.5136 -0.1941  0.7205
   24TCq2    C6  370   2.894   4.065  14.337 -0.1155 -0.2110 -0.2304
   24TCq2    C7  371   3.026   4.042  14.366 -0.3303  0.0019  0.4538
   24TCq2    C8  372   2.851   3.990  14.223 -1.0026  0.1118 -0.1312
   24TCq2    O4  373   2.918   3.894  14.181 -0.3742  0.2420 -0.6149
   24TCq2    C9  374   2.799   4.356  14.518 -0.1150  0.5774 -0.0575
   24TCq2    O5  375   2.842   4.402  14.627  0.2410 -0.6759  0.8050
   24TCq2    O6  376   2.696   4.388  14.458 -0.6409 -0.0455  0.0565
   24TCq2    H2  377   3.043   4.300  14.581  2.0992 -3.1572  0.7344
   24TCq2    H3  378   2.713   4.173  14.353  0.9558  1.8527 -0.3049
   24TCq2    H4  379   3.076   3.951  14.335 -0.6736  0.3005 -0.9775
   25TMC2    C1  380   3.140   1.869  11.346  0.0707 -0.4736 -0.2568
   25TMC2    C2  381   3.191   1.979  11.277 -0.2364 -0.7660 -0.0042
   25TMC2    C3  382   3.122   2.100  11.283  0.3528  0.0110  0.3715
   25TMC2    C4  383   3.031   1.878  11.424  0.0076 -0.1416  0.0993
   25TMC2    C5  384   2.963   1.994  11.426 -0.9855  0.2228 -0.3049
   25TMC2    C6  385   3.001   2.108  11.363  0.0185 -0.0200  0.6571
   25TMC2     C  386   3.180   1.735  11.298 -0.3903  0.6539  0.5321
   25TMC2     O  387   3.295   1.708  11.273 -0.5124  0.0250 -0.2998
   25TMC2     H  388   3.267   1.965  11.201 -0.2111  0.3063 -0.1765
   25TMC2    H1  389   2.994   1.796  11.485 -0.3317 -1.0824 -1.3741
   25TMC2    H2  390   2.944   2.199  11.356  2.0668  1.0594 -2.2895
   25TMC2    C7  391   2.866   1.996  11.530 -0.7531 -0.5188  0.8512
   25TMC2    C8  392   3.111   2.185  11.172 -1.1460  0.3494  0.1815
   25TMC2    O1  393   2.840   1.894  11.593 -0.3527  0.4209  0.4038
   25TMC2    O2  394   3.004   2.239  11.148 -0.2581  0.2597  0.3058
   25TMC2    O5  395   3.208   2.166  11.080  0.2283 -0.5927  0.1423
   25TMC2    H5  396   3.289   2.135  11.125  1.4683  0.7091 -1.1862
   26MPD2     C  397   3.020   1.322  11.037  0.8343  0.1026  0.2497
   26MPD2    C1  398   2.909   1.389  11.083  0.4695 -1.0555  0.6518
   26MPD2    C2  399   2.921   1.505  11.149 -0.1938 -0.0004  0.3950
   26MPD2    C3  400   3.049   1.552  11.184 -0.0660  0.7203 -0.5374
   26MPD2    C4  401   3.160   1.480  11.146 -0.2853  0.2420 -0.3800
   26MPD2    C5  402   3.143   1.364  11.074  0.4951 -0.1831 -0.6986
   26MPD2     H  403   2.838   1.570  11.176 -0.8084  0.7619 -3.3959
   26MPD2    H1  404   3.259   1.515  11.170  0.5258 -2.2551 -0.1299
   26MPD2    H2  405   3.005   1.239  10.969 -0.0949 -0.0224  0.6110
   26MPD2    H3  406   3.220   1.294  11.043  0.3031 -0.7552  0.1120
   26MPD2     N  407   3.061   1.672  11.261 -0.2126  0.5034 -0.1165
   26MPD2    H5  408   2.977   1.726  11.280 -1.4991 -0.8620 -1.9267
   26MPD2    N1  409   2.786   1.340  11.055  0.2399  0.3320 -0.1239
   26MPD2    H7  410   2.786   1.261  10.992  0.2496 -0.7367  1.1938
   27TMC2    C1  411   1.426   3.951  11.641  0.0340  0.1696  0.4565
   27TMC2    C2  412   1.423   3.927  11.504  0.3835  0.3028  0.2006
   27TMC2    C3  413   1.455   4.040  11.434  0.4223 -0.6506 -0.2142
   27TMC2    C4  414   1.473   4.067  11.700 -0.2154  0.6180 -0.2283
   27TMC2    C5  415   1.508   4.170  11.620  0.3893  0.3497  0.3466
   27TMC2    C6  416   1.500   4.157  11.488  0.3642  0.4368  0.3804
   27TMC2     C  417   1.405   3.832  11.727 -0.4958 -0.4836 -0.1839
   27TMC2     O  418   1.432   3.726  11.669 -0.5188 -0.0152 -0.0662
   27TMC2     H  419   1.395   3.832  11.461  2.3111 -0.9570  1.7586
   27TMC2    H1  420   1.490   4.062  11.807  0.0551 -0.8381 -0.3390
   27TMC2    H2  421   1.524   4.239  11.422 -0.1640 -1.2216 -1.8764
   27TMC2    C7  422   1.589   4.278  11.674 -0.3099 -0.4227 -0.2147
   27TMC2    C8  423   1.428   4.042  11.291 -0.4110  0.3087  0.1306
   27TMC2    O1  424   1.645   4.355  11.602  0.0308 -0.0550  0.4100
   27TMC2    O2  425   1.348   3.962  11.237 -0.4494  0.1689 -0.3397
   27TMC2    O5  426   1.555   4.043  11.246  0.5765  0.1368  0.1870
   27TMC2    H5  427   1.626   4.054  11.314 -0.7605  0.7544  1.4911
   28MPD2     C  428   1.250   3.583  12.143  0.0232  0.0072  0.0556
   28MPD2    C1  429   1.221   3.713  12.163  0.5133  0.1913  0.0886
   28MPD2    C2  430   1.249   3.806  12.063  0.0167 -0.0609 -0.2005
   28MPD2    C3  431   1.307   3.766  11.944  0.5647  0.5732  0.1239
   28MPD2    C4  432   1.338   3.635  11.928 -0.8475 -0.3555 -0.5875
   28MPD2    C5  433   1.315   3.540  12.026  0.3479  1.0632 -0.5676
   28MPD2     H  434   1.244   3.914  12.077  0.6456  0.0725 -0.9820
   28MPD2    H1  435   1.390   3.595  11.842  1.3271 -0.7815  0.9166
   28MPD2    H2  436   1.218   3.509  12.215  0.3623 -0.3628 -0.1730
   28MPD2    H3  437   1.343   3.438  12.001 -1.3407  0.6902 -0.9788
   28MPD2     N  438   1.349   3.857  11.846  0.7399 -0.6843  0.6803
   28MPD2    H5  439   1.319   3.953  11.853  0.0681 -0.8577  0.2171
   28MPD2    N1  440   1.151   3.753  12.284 -0.4480  0.2420  0.2475
   28MPD2    H7  441   1.136   3.684  12.357  0.5724  1.9885  2.1125
   29MPD2     C  442   0.665   1.404  14.093 -0.2754 -0.4399  0.0975
   29MPD2    C1  443   0.773   1.419  14.177 -0.4974  0.2564 -0.8084
   29MPD2    C2  444   0.793   1.532  14.254  0.8212  0.5985 -0.4088
   29MPD2    C3  445   0.690   1.626  14.251 -0.4039  0.7125 -0.0746
   29MPD2    C4  446   0.576   1.602  14.181  0.4584 -0.3349 -0.1237
   29MPD2    C5  447   0.565   1.492  14.107 -0.8013 -0.2069  0.5220
   29MPD2     H  448   0.868   1.537  14.332  2.0622 -2.0816 -1.4067
   29MPD2    H1  449   0.500   1.679  14.170 -0.9670 -1.4793  1.8188
   29MPD2    H2  450   0.645   1.324  14.023 -0.1345 -0.2323 -0.1803
   29MPD2    H3  451   0.473   1.474  14.052 -0.2767 -2.0380  0.2409
   29MPD2     N  452   0.694   1.746  14.317  0.1061 -0.6531 -0.6061
   29MPD2    H5  453   0.616   1.810  14.311  0.5170 -0.1105 -0.2046
   29MPD2    N1  454   0.866   1.314  14.185  0.2832  1.0960  0.4754
   29MPD2    H7  455   0.955   1.341  14.227 -0.5596  1.3235  2.1162
   30TCq2    C1  456   0.799   1.788  14.398 -0.6778  0.0689  0.0735
   30TCq2    O2  457   0.897   1.725  14.433  0.1033 -0.1220 -0.3400
   30TCq2    C2  458   0.787   1.925  14.453 -0.2899 -0.7015 -0.2495
   30TCq2    C3  459   0.822   1.918  14.586 -0.7095  0.0556 -0.2307
   30TCq2    C4  460   0.826   2.037  14.652  0.0262  0.6928 -0.6025
   30TCq2    C5  461   0.814   2.155  14.589 -0.0122  0.1079  0.2618
   30TCq2    C6  462   0.774   2.154  14.453  0.3105  0.5991 -0.2156
   30TCq2    C7  463   0.761   2.034  14.377 -0.9989  0.2272 -0.7974
   30TCq2    C8  464   0.829   2.268  14.375  0.0371  0.4622  0.5752
   30TCq2    O4  465   0.778   2.297  14.269 -0.1290 -0.3662 -0.0557
   30TCq2    C9  466   0.849   2.032  14.790  0.2833  0.4196 -0.3430
   30TCq2    O5  467   0.882   2.135  14.854 -0.2355  0.4443  0.3076
   30TCq2    O6  468   0.851   1.919  14.844 -0.3425 -0.2939 -0.6253
   30TCq2    H2  469   0.857   1.824  14.627  0.1519  0.9520  1.0713
   30TCq2    H3  470   0.794   2.249  14.640  1.2589  0.8846 -0.6667
   30TCq2    H4  471   0.748   2.022  14.270  0.2422  0.7476 -1.0134
   31MPD2     C  472   3.948   0.465  14.956  0.2983  0.1384  0.0837
   31MPD2    C1  473   3.821   0.524  14.941  0.7049  0.1030  0.5385
   31MPD2    C2  474   3.732   0.528  15.043  0.5471 -0.1783  0.4895
   31MPD2    C3  475   3.764   0.455  15.162 -0.8065 -0.4982 -0.7954
   31MPD2    C4  476   3.886   0.389  15.171 -0.1219 -1.0262  0.1578
   31MPD2    C5  477   3.973   0.393  15.071  0.6269 -0.3220  0.0515
   31MPD2     H  478   3.639   0.584  15.035  0.4604 -0.8192 -3.2842
   31MPD2    H1  479   3.908   0.334  15.262  0.0252 -1.7849 -0.3413
   31MPD2    H2  480   4.010   0.464  14.867  0.9732 -2.2773  0.5534
   31MPD2    H3  481   4.060   0.329  15.074  0.2619 -0.7982  0.4679
   31MPD2     N  482   3.678   0.465  15.278  0.7925  0.0750  0.1038
   31MPD2    H5  483   3.709   0.415  15.361 -1.0037 -2.5565 -0.8226
   31MPD2    N1  484   3.800   0.581  14.814  0.2133 -0.4531 -0.6047
   31MPD2    H7  485   3.875   0.570  14.747 -0.2982  2.5601 -1.6706
   32TCq2    C1  486   3.563   0.538  15.298 -0.3135 -0.8417 -0.5432
   32TCq2    O2  487   3.525   0.632  15.227  0.2065 -0.3085 -0.5503
   32TCq2    C2  488   3.502   0.531  15.431  0.2460  0.0555 -0.0098
   32TCq2    C3  489   3.399   0.623  15.460  0.0910  0.1000  0.6388
   32TCq2    C4  490   3.311   0.589  15.552  0.2378 -0.5461  0.0311
   32TCq2    C5  491   3.305   0.467  15.619  0.4264  0.3856 -0.2680
   32TCq2    C6  492   3.417   0.389  15.602  0.1388  0.9445  0.3836
   32TCq2    C7  493   3.512   0.415  15.507 -0.4412  0.2795  0.3053
   32TCq2    C8  494   3.446   0.291  15.705  0.2172 -0.1684  0.8279
   32TCq2    O4  495   3.545   0.224  15.684 -0.0534 -0.6655  0.5255
   32TCq2    C9  496   3.197   0.680  15.567  0.2953 -0.1244  0.6093
   32TCq2    O5  497   3.118   0.645  15.665  0.7959 -0.5766 -0.0395
   32TCq2    O6  498   3.186   0.783  15.493 -0.0908 -0.2335 -0.1160
   32TCq2    H2  499   3.390   0.716  15.404 -2.1948  0.4316  1.5669
   32TCq2    H3  500   3.216   0.436  15.673 -0.2428  1.4134 -0.8000
   32TCq2    H4  501   3.594   0.346  15.489  0.1670  1.4087 -1.3860
   33MPD2     C  502   4.545   3.294  10.684  0.3877 -0.2831 -0.1740
   33MPD2    C1  503   4.449   3.330  10.590  0.4017  0.4591 -0.6381
   33MPD2    C2  504   4.473   3.438  10.505 -0.7712 -0.4556  0.0306
   33MPD2    C3  505   4.578   3.523  10.527  0.8949 -0.7122 -0.1985
   33MPD2    C4  506   4.676   3.493  10.625  0.2981 -0.4613  0.6295
   33MPD2    C5  507   4.652   3.380  10.701 -0.0545  0.4962  0.4506
   33MPD2     H  508   4.405   3.446  10.420 -1.1159 -2.1545  0.1486
   33MPD2    H1  509   0.032   3.562  10.648 -1.2800  0.7727  2.3118
   33MPD2    H2  510   4.533   3.206  10.747  0.7345 -1.0796 -1.2307
   33MPD2    H3  511   0.009   3.358  10.770 -0.5638 -0.7374  0.6558
   33MPD2     N  512   4.603   3.634  10.442 -0.0932 -0.7488 -0.5885
   33MPD2    H5  513   4.687   3.690  10.450 -0.7612  0.0752  0.6893
   33MPD2    N1  514   4.341   3.246  10.560 -1.3001  0.0664 -0.5676
   33MPD2    H7  515   4.353   3.160  10.613  0.2367  0.4734 -0.2740
   34TCq2    C1  516   4.515   3.685  10.355  0.1397  0.6944 -0.5727
   34TCq2    O2  517   4.392   3.674  10.339 -0.6445  0.4862  0.1718
   34TCq2    C2  518   4.576   3.779  10.266 -0.5090 -0.1786 -0.1026
   34TCq2    C3  519   4.493   3.875  10.207  0.9403 -0.0270 -0.1271
   34TCq2    C4  520   4.553   3.967  10.129  0.3366  0.4553 -0.3891
   34TCq2    C5  521   4.685   3.978  10.103  0.3515  0.3555 -0.0800
   34TCq2    C6  522   0.042   3.882  10.163  0.5513  0.6832  0.2835
   34TCq2    C7  523   4.713   3.780  10.240 -0.3640  0.4134  0.6756
   34TCq2    C8  524   0.159   3.843  10.080  0.8073 -0.1409  0.1350
   34TCq2    O4  525   0.159   3.874   9.962 -0.0136  0.0770 -0.0820
   34TCq2    C9  526   4.463   4.055  10.065 -0.6473  0.2061  0.4523
   34TCq2    O5  527   4.508   4.150  10.002  0.1037  0.0719 -0.1118
   34TCq2    O6  528   4.345   4.051  10.105 -0.8594 -0.0199 -0.0843
   34TCq2    H2  529   4.389   3.884  10.238  0.4546  2.6446 -2.5403
   34TCq2    H3  530   4.721   4.058  10.039 -1.7478 -1.5204 -3.6483
   34TCq2    H4  531   0.051   3.691  10.250 -1.7487 -0.8829 -2.3385
   35MPD2     C  532   0.905   4.477  11.565  0.2553  0.0572 -0.3215
   35MPD2    C1  533   0.877   4.365  11.635  0.1186  0.9408 -0.6282
   35MPD2    C2  534   0.799   4.262  11.584  0.6744 -0.5116  0.4521
   35MPD2    C3  535   0.745   4.279  11.460  0.4374 -0.6298  0.3786
   35MPD2    C4  536   0.774   4.391  11.387 -0.0345  0.4549 -0.5416
   35MPD2    C5  537   0.854   4.486  11.438 -0.6951  0.6589  0.0068
   35MPD2     H  538   0.770   4.176  11.643 -0.8076 -0.5873 -0.3812
   35MPD2    H1  539   0.734   4.409  11.288  0.6078 -1.6925 -1.1783
   35MPD2    H2  540   0.965   4.561  11.600  1.3342 -0.5923 -0.6108
   35MPD2    H3  541   0.892   4.568  11.379  1.2883 -0.1502  0.1787
   35MPD2     N  542   0.660   4.179  11.416 -0.0959  0.4170 -0.3523
   35MPD2    H5  543   0.634   4.112  11.488 -2.5871  0.6117 -1.0779
   35MPD2    N1  544   0.918   4.368  11.772 -0.4113  0.1224 -0.0815
   35MPD2    H7  545   0.954   4.456  11.809  1.2016 -0.2347 -0.8192
   36TCq2    C1  546   0.573   4.192  11.312  0.0360 -0.2471 -0.0851
   36TCq2    O2  547   0.574   4.267  11.215  0.0571 -0.1254  0.3809
   36TCq2    C2  548   0.453   4.100  11.313  0.2972  0.2374  0.0410
   36TCq2    C3  549   0.352   4.133  11.233  0.3671  1.0564  0.1253
   36TCq2    C4  550   0.243   4.052  11.217 -0.0661 -0.0908 -0.0201
   36TCq2    C5  551   0.239   3.934  11.282  0.5101  0.0707  0.0791
   36TCq2    C6  552   0.349   3.892  11.353  0.7854 -0.1601 -0.3412
   36TCq2    C7  553   0.451   3.977  11.381 -0.0400 -0.0093  0.5392
   36TCq2    C8  554   0.335   3.784  11.447 -0.6059 -0.1113 -0.3135
   36TCq2    O4  555   0.401   3.684  11.426  0.5820  0.7046 -0.4023
   36TCq2    C9  556   0.128   4.076  11.132 -0.3104 -0.2839 -0.1262
   36TCq2    O5  557   0.132   4.179  11.059  0.1902 -0.5027  0.0010
   36TCq2    O6  558   0.031   3.993  11.154  0.2871 -0.2425  0.0182
   36TCq2    H2  559   0.359   4.224  11.173 -1.9334  0.2313 -1.3975
   36TCq2    H3  560   0.158   3.865  11.263 -0.8731  0.9148  2.8781
   36TCq2    H4  561   0.533   3.945  11.444  1.2498  0.8706 -0.6896
   37TMC2    C1  562   3.098   4.655  11.443  0.2454  0.2777 -0.1999
   37TMC2    C2  563   3.137   0.009  11.342 -0.3573 -0.0331  0.3517
   37TMC2    C3  564   3.265   0.015  11.303 -0.0725 -0.2482 -0.4506
   37TMC2    C4  565   3.191   4.572  11.506  1.0345 -0.3873 -0.6114
   37TMC2    C5  566   3.325   4.584  11.474 -0.2273 -0.7628 -0.4766
   37TMC2    C6  567   3.362   4.677  11.373  0.0229 -0.3649 -0.1782
   37TMC2     C  568   2.984   4.695  11.515 -0.1172  0.6890  0.4929
   37TMC2     O  569   2.892   0.023  11.455 -0.3390  0.9409  0.1353
   37TMC2     H  570   3.061   0.068  11.291  0.3366 -1.0996 -1.8870
   37TMC2    H1  571   3.164   4.504  11.585 -0.1387  0.3825 -0.3517
   37TMC2    H2  572   3.461   4.684  11.328 -1.1632  3.8152 -2.1064
   37TMC2    C7  573   3.421   4.506  11.544 -0.2124  0.1072  0.7479
   37TMC2    C8  574   3.311   0.117  11.209  0.1661  0.4526  0.1161
   37TMC2    O1  575   3.386   4.460  11.650 -0.4943  0.1825 -0.1951
   37TMC2    O2  576   3.400   0.197  11.236 -0.2183 -0.5501 -1.2846
   37TMC2    O5  577   3.222   0.136  11.109 -0.6145 -0.1484  0.0308
   37TMC2    H5  578   3.166   0.055  11.098 -0.9737  0.3242 -1.7119
   38MPD2     C  579   2.708   4.604  11.945 -0.5058  0.2654  0.0775
   38MPD2    C1  580   2.842   4.566  11.966 -0.1429 -0.2659  0.5512
   38MPD2    C2  581   2.933   4.588  11.866 -0.1083 -0.5251 -0.0977
   38MPD2    C3  582   2.892   4.641  11.742  0.2403  0.7557 -0.0812
   38MPD2    C4  583   2.764   4.683  11.717 -0.2997  0.0983  0.1942
   38MPD2    C5  584   2.676   4.664  11.824  0.1271 -0.1043  0.2714
   38MPD2     H  585   3.037   4.561  11.881 -0.0311 -0.1826 -0.0121
   38MPD2    H1  586   2.735   0.004  11.622 -1.1796 -0.7057  0.0834
   38MPD2    H2  587   2.634   4.602  12.024 -2.1426  3.0049 -1.4241
   38MPD2    H3  588   2.571   4.692  11.822  0.4462  1.1955  1.7450
   38MPD2     N  589   2.992   4.652  11.643  0.3683 -0.3518 -0.5180
   38MPD2    H5  590   3.087   4.630  11.669  0.9139  0.5833 -1.7248
   38MPD2    N1  591   2.900   4.519  12.090 -0.0449  0.4607 -0.1397
   38MPD2    H7  592   2.995   4.485  12.097  0.2910  1.3096 -0.5866
   39MPD2     C  593   1.293   0.950   1.471  0.4804  0.3194 -0.1123
   39MPD2    C1  594   1.204   0.971   1.573  0.3975 -0.6136 -0.9173
   39MPD2    C2  595   1.074   0.925   1.562 -0.3418  0.2245  0.4879
   39MPD2    C3  596   1.040   0.830   1.457  0.4414 -0.4651 -0.3255
   39MPD2    C4  597   1.130   0.795   1.360  0.0373 -0.4264  0.1423
   39MPD2    C5  598   1.250   0.865   1.370  0.3297  0.1120  0.0709
   39MPD2     H  599   0.995   0.958   1.627 -0.0797  1.1468  0.3378
   39MPD2    H1  600   1.118   0.741   1.267 -2.4742 -2.8817  1.8940
   39MPD2    H2  601   1.389   0.999   1.463 -0.9402  2.7890 -1.9702
   39MPD2    H3  602   1.317   0.838   1.289  0.0062 -2.1237  0.5515
   39MPD2     N  603   0.904   0.779   1.438 -0.2243 -0.3908 -1.0080
   39MPD2    H5  604   0.898   0.711   1.363 -1.5518 -2.3757  0.8984
   39MPD2    N1  605   1.257   1.057   1.671  0.1060 -0.9445  0.0955
   39MPD2    H7  606   1.349   1.096   1.655  0.5660 -1.6994  0.8990
   40TCq2    C1  607   1.186   1.118   1.773  0.6661 -0.0742  0.2780
   40TCq2    O2  608   1.080   1.079   1.821  0.3944 -0.1181 -0.2484
   40TCq2    C2  609   1.255   1.224   1.835  0.2408 -0.1657 -1.3428
   40TCq2    C3  610   1.206   1.267   1.951  0.3976  0.9703  0.1742
   40TCq2    C4  611   1.258   1.374   2.017 -0.3413  0.3543 -0.0216
   40TCq2    C5  612   1.342   1.457   1.953 -0.5420  0.2666 -0.0717
   40TCq2    C6  613   1.388   1.417   1.831  0.0962  0.5069  0.6230
   40TCq2    C7  614   1.346   1.298   1.772 -0.5975  0.0807  0.0760
   40TCq2    C8  615   1.516   1.472   1.784 -0.1830 -0.0912  0.6603
   40TCq2    O4  616   1.568   1.409   1.693 -0.0680  0.2735 -0.3536
   40TCq2    C9  617   1.207   1.417   2.140 -0.3403 -0.8238 -0.9208
   40TCq2    O5  618   1.237   1.538   2.172 -0.1927 -0.6037 -0.1586
   40TCq2    O6  619   1.126   1.349   2.203  0.6964  0.3774  0.4185
   40TCq2    H2  620   1.138   1.209   2.012  2.6576  0.6202  2.3572
   40TCq2    H3  621   1.390   1.531   2.017  0.9929 -1.1149  0.3622
   40TCq2    H4  622   1.387   1.283   1.673 -2.1386  0.1395 -0.5603
   41TMC2    C1  623   4.463   3.913  13.842 -0.1280 -0.2940 -0.4162
   41TMC2    C2  624   4.571   3.975  13.905  0.2693 -0.0089 -0.1507
   41TMC2    C3  625   4.624   4.080  13.850 -0.2206  0.1926  0.4614
   41TMC2    C4  626   4.417   3.959  13.723 -0.1948 -0.2730  0.3044
   41TMC2    C5  627   4.476   4.064  13.664  0.4615 -0.5716  0.8616
   41TMC2    C6  628   4.577   4.133  13.732 -0.1957  0.0243 -0.3329
   41TMC2     C  629   4.398   3.795  13.897  0.9583 -0.6987 -0.0439
   41TMC2     O  630   4.330   3.714  13.833 -0.0823 -0.2198  0.4509
   41TMC2     H  631   4.614   3.939  13.997  0.4729 -0.0727 -0.2718
   41TMC2    H1  632   4.348   3.901  13.663 -0.6604  2.3525 -1.7034
   41TMC2    H2  633   4.623   4.219  13.684  4.4655 -1.8634  0.7233
   41TMC2    C7  634   4.414   4.122  13.546 -0.9554 -0.3722 -0.1204
   41TMC2    C8  635   4.709   4.155  13.939 -0.5761  0.0511  0.7952
   41TMC2    O1  636   4.294   4.090  13.540  0.2575 -0.5273  0.4364
   41TMC2    O2  637   0.003   4.278  13.924 -0.1209 -0.4066  0.0094
   41TMC2    O5  638   0.070   4.063  13.985 -0.0525  0.0970 -0.1907
   41TMC2    H5  639   0.037   3.971  13.972 -0.5988  0.0854  1.3137
   42MPD2     C  640   4.310   3.571  14.088  1.6464 -0.8925 -1.4196
   42MPD2    C1  641   4.404   3.668  14.114 -0.3678  0.2289 -0.4975
   42MPD2    C2  642   4.442   3.674  14.249 -0.2194 -0.2218  0.7650
   42MPD2    C3  643   4.392   3.599  14.353 -0.3802 -0.5497 -0.0454
   42MPD2    C4  644   4.288   3.518  14.328  0.4471 -0.8235 -0.0067
   42MPD2    C5  645   4.253   3.503  14.188 -0.0309  1.0896 -0.7292
   42MPD2     H  646   4.518   3.748  14.274 -0.2172 -0.2287  0.7792
   42MPD2    H1  647   4.231   3.468  14.406  0.6257 -0.2631  0.4840
   42MPD2    H2  648   4.272   3.551  13.988 -0.3725 -0.2988 -0.7814
   42MPD2    H3  649   4.183   3.424  14.164 -1.4525  2.1481 -0.0406
   42MPD2     N  650   4.429   3.617  14.489 -0.0515 -0.2062  0.4308
   42MPD2    H5  651   4.365   3.571  14.554  1.5232 -0.2456  1.9552
   42MPD2    N1  652   4.438   3.772  14.025 -0.3079 -0.2918 -0.0672
   42MPD2    H7  653   4.498   3.841  14.068  0.5092 -0.9553 -0.1318
   43MPD2     C  654   1.977   3.234   1.046 -0.0301  0.2960 -0.1286
   43MPD2    C1  655   1.901   3.162   1.137 -0.0606  1.1248  0.0996
   43MPD2    C2  656   1.859   3.223   1.256 -0.1181  0.2043  0.4210
   43MPD2    C3  657   1.892   3.353   1.287 -0.3530  0.3743 -0.1708
   43MPD2    C4  658   1.965   3.421   1.200 -0.0218 -0.3260  0.3787
   43MPD2    C5  659   2.005   3.367   1.082  0.0522 -0.8454  0.1372
   43MPD2     H  660   1.821   3.163   1.337  1.8899 -1.0004  0.4858
   43MPD2    H1  661   2.000   3.522   1.220  1.5631 -0.9760  0.8372
   43MPD2    H2  662   2.030   3.194   0.961  2.7110 -0.2201  1.8131
   43MPD2    H3  663   2.069   3.421   1.014 -0.5222  1.9118  1.7570
   43MPD2     N  664   1.880   3.404   1.419  0.1306 -0.0777  0.2232
   43MPD2    H5  665   1.934   3.484   1.448  0.6634 -0.6757  0.8744
   43MPD2    N1  666   1.867   3.021   1.117  0.3502 -0.0525 -0.4868
   43MPD2    H7  667   1.807   2.979   1.187  0.3321 -1.8047 -1.5589
   44TCq2    C1  668   1.625   3.527   1.938  0.6867 -0.4415  0.2442
   44TCq2    O2  669   1.645   3.638   1.983 -0.1632  0.6350  0.5667
   44TCq2    C2  670   1.733   3.480   1.855  0.0535 -0.4421 -0.8543
   44TCq2    C3  671   1.860   3.524   1.894  0.4129 -0.2442 -0.4111
   44TCq2    C4  672   1.966   3.490   1.815 -0.0148 -0.7779  0.8699
   44TCq2    C5  673   1.947   3.435   1.689 -0.2550  0.7410  0.4196
   44TCq2    C6  674   1.816   3.414   1.654 -0.2016  0.1920  0.7224
   44TCq2    C7  675   1.711   3.434   1.733  0.1556 -0.1932  0.3132
   44TCq2    C8  676   1.795   3.354   1.519  0.9647 -0.1197  0.2053
   44TCq2    O4  677   1.687   3.298   1.504 -0.1250  0.5674 -0.0050
   44TCq2    C9  678   2.100   3.537   1.856  0.3851  0.0896  0.1404
   44TCq2    O5  679   2.107   3.582   1.970  0.0505  0.6456  0.0528
   44TCq2    O6  680   2.185   3.559   1.766  0.4242 -0.4879 -0.4879
   44TCq2    H2  681   1.888   3.555   1.995  0.3027 -0.3560 -0.3467
   44TCq2    H3  682   2.029   3.433   1.618 -0.6594 -1.0396 -0.0023
   44TCq2    H4  683   1.609   3.424   1.697 -0.5355  2.9891  1.4025
   45TMC2    C1  684   1.780   4.248   9.759 -0.7889  0.4888 -0.2976
   45TMC2    C2  685   1.810   4.237   9.888 -0.7056 -0.6235  0.0256
   45TMC2    C3  686   1.804   4.343   9.969 -1.3536 -0.2411 -0.0036
   45TMC2    C4  687   1.756   4.369   9.697  0.2433  0.0513 -0.1836
   45TMC2    C5  688   1.764   4.478   9.780  0.2979 -0.4085 -0.0753
   45TMC2    C6  689   1.778   4.466   9.918  0.0549  0.5033 -0.5296
   45TMC2     C  690   1.755   4.127   9.689 -0.2355  0.4951  0.2629
   45TMC2     O  691   1.802   4.018   9.722  0.1421  0.0400 -0.4659
   45TMC2     H  692   1.810   4.138   9.931 -1.4304 -0.2036  0.9888
   45TMC2    H1  693   1.746   4.383   9.590  1.8350 -2.7061 -0.6973
   45TMC2    H2  694   1.781   4.553   9.983 -1.7644  0.2815 -0.1380
   45TMC2    C7  695   1.803   4.601   9.718 -0.0448  0.3302 -0.4392
   45TMC2    C8  696   1.867   4.349  10.102 -0.0481  0.0620  0.2411
   45TMC2    O1  697   1.826   4.593   9.599 -0.1886 -0.0367 -0.4847
   45TMC2    O2  698   1.890   4.457  10.154 -0.2536 -0.2671 -0.2398
   45TMC2    O5  699   1.962   4.259  10.090  0.0128  0.1347  0.8632
   45TMC2    H5  700   1.924   4.178  10.050 -0.9649  1.6250 -1.2406
   46MPD2     C  701   1.617   3.915   9.515 -0.4258  0.3247  0.4443
   46MPD2    C1  702   1.570   4.039   9.530  0.1190 -0.5448 -0.7501
   46MPD2    C2  703   1.451   4.075   9.468  0.6249 -0.4982  0.3046
   46MPD2    C3  704   1.373   3.972   9.409 -0.2395 -0.3897  0.0305
   46MPD2    C4  705   1.422   3.840   9.403  0.4307  0.0978  0.1584
   46MPD2    C5  706   1.550   3.817   9.451  0.6180  0.5489 -0.6852
   46MPD2     H  707   1.422   4.179   9.475 -1.3614 -0.9764 -0.8523
   46MPD2    H1  708   1.372   3.757   9.354  0.5475  0.0308  0.1536
   46MPD2    H2  709   1.715   3.886   9.550  0.1635  0.3343 -1.1685
   46MPD2    H3  710   1.601   3.721   9.454 -0.8396 -0.2335 -0.8943
   46MPD2     N  711   1.246   4.012   9.369 -0.4012  0.4261 -0.0037
   46MPD2    H5  712   1.228   4.110   9.388  0.0900  0.2142  1.5854
   46MPD2    N1  713   1.647   4.141   9.602  0.3207 -0.1367  0.8279
   46MPD2    H7  714   1.623   4.237   9.578 -0.4351 -0.7471 -0.8560
   47TMC2    C1  715   0.047   0.948   8.838  0.3571  0.4120 -1.0714
   47TMC2    C2  716   0.018   1.058   8.760  0.2078  0.4671 -0.1616
   47TMC2    C3  717   4.616   1.113   8.785  0.4331  0.2242  0.6280
   47TMC2    C4  718   4.683   0.895   8.939 -0.0185  0.3047  0.7558
   47TMC2    C5  719   4.563   0.961   8.956  0.1534  0.3247 -0.2906
   47TMC2    C6  720   4.520   1.059   8.871 -0.5609 -0.4554 -0.2056
   47TMC2     C  721   0.179   0.899   8.835  0.5715 -0.4408  0.3354
   47TMC2     O  722   0.260   0.966   8.768 -0.5684 -0.0336 -1.0426
   47TMC2     H  723   0.096   1.111   8.707  0.1484  1.4613  0.7442
   47TMC2    H1  724   4.707   0.802   8.990 -1.6367 -0.3441  0.3329
   47TMC2    H2  725   4.418   1.097   8.877 -0.3398  0.4226 -1.8065
   47TMC2    C7  726   4.480   0.900   9.056  0.5658  0.8779 -0.1631
   47TMC2    C8  727   4.581   1.215   8.686  1.0091 -0.0053  0.3413
   47TMC2    O1  728   4.532   0.815   9.130  0.2202 -0.1246  1.0084
   47TMC2    O2  729   4.550   1.326   8.727  0.1214  0.0158 -0.0788
   47TMC2    O5  730   4.658   1.196   8.575  0.0406  0.4397 -0.2790
   47TMC2    H5  731   4.685   1.102   8.570  0.0423  0.3540  1.1569
   48MPD2     C  732   0.453   0.811   8.906  0.3281  0.6479  0.2303
   48MPD2    C1  733   0.339   0.742   8.945  0.1440  0.5439 -0.0914
   48MPD2    C2  734   0.356   0.619   9.010  0.3908  0.1721  0.0796
   48MPD2    C3  735   0.483   0.569   9.048  0.0489  0.0713 -0.2508
   48MPD2    C4  736   0.591   0.649   9.028 -0.8034  0.0102 -0.0035
   48MPD2    C5  737   0.572   0.764   8.959  0.3582 -0.1557 -0.0115
   48MPD2     H  738   0.280   0.546   9.034  0.4981  0.6891  2.0023
   48MPD2    H1  739   0.688   0.632   9.074 -2.1487 -2.6586  1.8219
   48MPD2    H2  740   0.457   0.911   8.866 -1.2013 -0.4587 -2.6863
   48MPD2    H3  741   0.665   0.817   8.938 -1.2243  2.6924  0.1227
   48MPD2     N  742   0.483   0.452   9.133 -0.2354  0.0697  0.3139
   48MPD2    H5  743   0.394   0.402   9.140 -1.0857  1.2956 -1.8882
   48MPD2    N1  744   0.209   0.787   8.911  0.0514  0.1982 -0.4839
   48MPD2    H7  745   0.140   0.723   8.950 -0.0031 -0.6214 -1.9057
   49MPD2     C  746   2.991   2.822  10.204  0.5267 -0.6217  0.2668
   49MPD2    C1  747   2.925   2.714  10.263  0.2691 -0.1549  0.3152
   49MPD2    C2  748   2.917   2.711  10.402 -0.7269 -0.2354 -0.3529
   49MPD2    C3  749   2.990   2.804  10.473  0.2201  0.2798  0.1955
   49MPD2    C4  750   3.066   2.900  10.415  0.4194 -0.1774 -1.0434
   49MPD2    C5  751   3.061   2.913  10.278  0.6328 -0.6789  0.7604
   49MPD2     H  752   2.858   2.631  10.445  2.7500 -2.2415  0.6496
   49MPD2    H1  753   3.122   2.972  10.473 -0.0232 -0.4255 -0.3139
   49MPD2    H2  754   2.988   2.844  10.098  1.6803 -2.5420 -0.1550
   49MPD2    H3  755   3.120   2.987  10.224 -1.0273 -0.3815 -0.6161
   49MPD2     N  756   2.994   2.797  10.617  0.2649 -0.1362  0.5089
   49MPD2    H5  757   3.058   2.866  10.655  2.3396 -2.5643  1.4811
   49MPD2    N1  758   2.854   2.618  10.188  0.6657 -0.8196  1.4001
   49MPD2    H7  759   2.827   2.532  10.235  2.3950 -1.2938  1.5478
   50TCq2    C1  760   2.857   2.615  10.050  0.6839  0.6187 -0.3854
   50TCq2    O2  761   2.861   2.710   9.971 -0.2199 -0.1851 -0.2457
   50TCq2    C2  762   2.823   2.485   9.992 -0.1804  0.2009 -0.3878
   50TCq2    C3  763   2.751   2.475   9.874  0.5615 -0.2510  0.5608
   50TCq2    C4  764   2.712   2.354   9.827  0.4331 -0.0812 -0.7613
   50TCq2    C5  765   2.718   2.239   9.904 -0.0280 -0.4914  0.2031
   50TCq2    C6  766   2.774   2.257  10.028 -0.0477  0.5875 -0.2541
   50TCq2    C7  767   2.839   2.367  10.068  0.0674  0.3728  0.0060
   50TCq2    C8  768   2.785   2.138  10.111 -0.3395  0.1637 -0.2154
   50TCq2    O4  769   2.702   2.056  10.090 -0.4594 -0.4849 -0.1942
   50TCq2    C9  770   2.673   2.351   9.687 -0.5033  0.5181  0.1915
   50TCq2    O5  771   2.639   2.238   9.645  0.6185  0.1366 -0.3856
   50TCq2    O6  772   2.657   2.463   9.626  0.6373  0.1785 -0.2745
   50TCq2    H2  773   2.745   2.563   9.809  0.7562 -0.0526  0.8127
   50TCq2    H3  774   2.696   2.144   9.857  0.9115 -0.3413 -0.5503
   50TCq2    H4  775   2.904   2.382  10.153  0.1636  1.5167 -0.2630
   51MPD2     C  776   2.237   1.203   0.963  0.4486 -0.0803  0.0911
   51MPD2    C1  777   2.199   1.085   1.024 -0.0459 -0.2512 -0.6254
   51MPD2    C2  778   2.177   1.087   1.162 -0.0716  0.3165 -0.3197
   51MPD2    C3  779   2.201   1.198   1.233  0.0755  0.1534 -0.5103
   51MPD2    C4  780   2.236   1.312   1.169  0.0436  0.0723  0.2644
   51MPD2    C5  781   2.248   1.318   1.033  0.1409  0.2186 -1.5096
   51MPD2     H  782   2.166   0.996   1.219 -3.0526  1.5966  1.1371
   51MPD2    H1  783   2.268   1.399   1.226 -0.9948  1.3436 -1.0914
   51MPD2    H2  784   2.282   1.205   0.865 -0.0918  1.2717 -0.1412
   51MPD2    H3  785   2.282   1.411   0.987  3.1855 -0.9596 -1.5989
   51MPD2     N  786   2.220   1.204   1.373  0.4443  0.5717 -0.9502
   51MPD2    H5  787   2.231   1.295   1.417  1.3523  0.5654 -1.1555
   51MPD2    N1  788   2.198   0.961   0.958  0.3046 -0.0495 -0.2038
   51MPD2    H7  789   2.171   0.878   1.009  2.8080 -0.1454  0.9607
   52TCq2    C1  790   2.184   1.109   1.459 -0.1654  0.3449 -0.7289
   52TCq2    O2  791   2.131   0.995   1.448 -0.2519 -0.0794  0.1799
   52TCq2    C2  792   2.228   1.137   1.590  0.2515  0.0518  0.2187
   52TCq2    C3  793   2.177   1.057   1.690 -0.4053  1.0269 -0.0702
   52TCq2    C4  794   2.257   1.030   1.799  0.2399  0.5086 -0.3397
   52TCq2    C5  795   2.375   1.092   1.816  0.0654 -0.3000  0.6616
   52TCq2    C6  796   2.420   1.183   1.718  0.4642 -0.0722 -0.0548
   52TCq2    C7  797   2.349   1.206   1.600  0.2382 -0.3986  0.3504
   52TCq2    C8  798   2.562   1.231   1.720 -0.0946  0.8744  1.1539
   52TCq2    O4  799   2.637   1.165   1.790 -0.3018 -0.1399  0.3883
   52TCq2    C9  800   2.201   0.942   1.901  0.1209 -0.2087 -0.4176
   52TCq2    O5  801   2.281   0.893   1.984  0.5029 -0.1859 -0.0342
   52TCq2    O6  802   2.076   0.942   1.914  0.6586 -0.1960  0.5834
   52TCq2    H2  803   2.091   0.991   1.684  1.4158 -1.2722 -0.9622
   52TCq2    H3  804   2.422   1.068   1.910 -0.7753 -1.3171  0.8201
   52TCq2    H4  805   2.393   1.283   1.538 -0.5643 -1.3314 -1.3898
   53TMC2    C1  806   3.879   4.293  12.054  0.2708  0.1330  0.5165
   53TMC2    C2  807   3.987   4.254  12.122  0.4371 -0.0977 -0.0432
   53TMC2    C3  808   3.984   4.279  12.254  0.2969  0.5838 -0.5269
   53TMC2    C4  809   3.771   4.353  12.112 -0.2284  0.1960  0.6638
   53TMC2    C5  810   3.776   4.387  12.241  0.2600  0.6664  0.0960
   53TMC2    C6  811   3.890   4.353  12.314  0.1505  0.3544 -0.4227
   53TMC2     C  812   3.873   4.258  11.911 -0.3492 -0.1907  0.1652
   53TMC2     O  813   3.952   4.168  11.883 -0.0701  0.0349 -0.3779
   53TMC2     H  814   4.087   4.240  12.083  0.6369  0.3162  0.3196
   53TMC2    H1  815   3.673   4.354  12.065  0.4898 -0.6460 -0.8649
   53TMC2    H2  816   3.900   4.387  12.416  1.2594 -0.6191 -0.2218
   53TMC2    C7  817   3.667   4.466  12.290 -1.2028 -0.4859  0.4441
   53TMC2    C8  818   4.105   4.261  12.335 -0.3561  0.2425  0.6987
   53TMC2    O1  819   3.599   4.534  12.214 -0.4286  0.5194  0.4710
   53TMC2    O2  820   4.137   4.329  12.432  0.1345  0.4176  0.0736
   53TMC2    O5  821   4.164   4.143  12.304  0.0844  0.3815 -0.0684
   53TMC2    H5  822   4.121   4.100  12.227  3.6482  0.5338 -2.1063
   54MPD2     C  823   3.828   4.220  11.612 -0.0343 -0.3148 -0.2576
   54MPD2    C1  824   3.763   4.310  11.693 -0.2694  0.3779 -0.4289
   54MPD2    C2  825   3.665   4.396  11.646  0.3029  0.2266 -0.4628
   54MPD2    C3  826   3.631   4.389  11.512 -0.1829 -0.2933  0.8024
   54MPD2    C4  827   3.691   4.297  11.432  0.3270 -0.4426  0.2827
   54MPD2    C5  828   3.792   4.218  11.482  0.0020  0.3365 -0.2097
   54MPD2     H  829   3.611   4.454  11.720  0.9295 -0.9150  0.8800
   54MPD2    H1  830   3.659   4.279  11.330 -0.2354 -0.2514  0.4247
   54MPD2    H2  831   3.893   4.144  11.654  0.4096  0.8078  1.1016
   54MPD2    H3  832   3.836   4.138  11.424 -0.4682  0.4606 -0.7436
   54MPD2     N  833   3.524   4.468  11.457 -0.0081 -1.1023 -0.2083
   54MPD2    H5  834   3.509   4.465  11.357 -0.3078 -1.3210 -0.1587
   54MPD2    N1  835   3.779   4.323  11.832 -0.2572  0.1016  0.0735
   54MPD2    H7  836   3.719   4.392  11.877 -0.2607 -0.2556  0.6151
   55MPD2     C  837   3.647   1.606   1.024  0.7816 -0.5343  0.2868
   55MPD2    C1  838   3.547   1.526   1.066  0.1207 -0.4553 -0.1924
   55MPD2    C2  839   3.427   1.583   1.101 -0.0687  0.1800 -0.5540
   55MPD2    C3  840   3.390   1.712   1.075 -0.0489 -0.4102  0.2508
   55MPD2    C4  841   3.493   1.788   1.026  0.2837  0.6259 -0.7872
   55MPD2    C5  842   3.616   1.741   1.001  0.5572 -0.9255  0.8411
   55MPD2     H  843   3.336   1.529   1.124  0.5367 -1.7315 -2.7355
   55MPD2    H1  844   3.469   1.885   0.983  0.5403  0.8306 -0.4627
   55MPD2    H2  845   3.737   1.556   0.989  1.6812  1.3624 -0.0777
   55MPD2    H3  846   3.688   1.795   0.942  1.4789 -0.4368  2.4238
   55MPD2     N  847   3.256   1.754   1.086 -0.2449  0.5088  0.6962
   55MPD2    H5  848   3.190   1.678   1.096 -0.3810  0.2014 -2.7720
   55MPD2    N1  849   3.581   1.387   1.076  0.1147 -0.1859 -0.0520
   55MPD2    H7  850   3.677   1.358   1.059  0.0225  0.8717 -2.3782
   56TCq2    C1  851   3.499   1.291   1.126 -0.5776 -0.2397  0.1768
   56TCq2    O2  852   3.386   1.291   1.168  0.4653 -0.3348 -0.4160
   56TCq2    C2  853   3.577   1.163   1.140  0.5789 -0.0454  0.1574
   56TCq2    C3  854   3.718   1.159   1.130 -0.6805  0.6180 -0.3332
   56TCq2    C4  855   3.773   1.038   1.086  0.5397 -0.2044  0.3313
   56TCq2    C5  856   3.695   0.921   1.070  0.0966  0.0158 -0.3457
   56TCq2    C6  857   3.557   0.933   1.089 -0.2354 -0.1176 -0.5926
   56TCq2    C7  858   3.498   1.057   1.113 -0.2927  0.6571 -0.0921
   56TCq2    C8  859   3.472   0.817   1.071 -0.1324  0.9192  0.5618
   56TCq2    O4  860   3.531   0.713   1.078 -0.1067 -0.3006 -0.1340
   56TCq2    C9  861   3.911   1.032   1.047 -0.2323  0.2035 -0.0419
   56TCq2    O5  862   3.958   0.921   1.039  0.3509  0.0361  0.1986
   56TCq2    O6  863   3.958   1.149   1.033 -0.1669 -0.6130  0.0456
   56TCq2    H2  864   3.788   1.230   1.172  0.1582 -0.7928  0.6150
   56TCq2    H3  865   3.740   0.827   1.040  0.1935 -0.0317 -0.0508
   56TCq2    H4  866   3.392   1.070   1.133  0.4608  2.2803  2.9921
   57TMC2    C1  867   3.129   2.773  13.617 -0.5762 -0.0519  0.0254
   57TMC2    C2  868   3.096   2.744  13.487 -0.3560  0.3188  0.0431
   57TMC2    C3  869   3.197   2.740  13.399 -0.2130 -0.2118 -0.2464
   57TMC2    C4  870   3.254   2.805  13.652 -0.5168 -0.1141 -0.1571
   57TMC2    C5  871   3.349   2.798  13.566 -0.5978 -0.4014  0.5761
   57TMC2    C6  872   3.328   2.752  13.435 -0.0920  0.8581  0.4144
   57TMC2     C  873   3.028   2.815  13.710  0.6640  0.4267  0.3903
   57TMC2     O  874   3.063   2.895  13.795 -0.2337 -1.0887  0.0053
   57TMC2     H  875   2.993   2.729  13.456 -0.3920 -1.7420  1.1790
   57TMC2    H1  876   3.276   2.842  13.752  0.1424  0.2601 -0.4417
   57TMC2    H2  877   3.408   2.750  13.363 -0.0466  1.0206  0.4607
   57TMC2    C7  878   3.490   2.794  13.615 -0.6371 -0.0581  0.4456
   57TMC2    C8  879   3.164   2.694  13.265  0.1993 -0.6363 -0.0027
   57TMC2    O1  880   3.515   2.855  13.722  0.1153 -0.2972 -0.5771
   57TMC2    O2  881   3.047   2.709  13.236  0.0100  0.1158  0.0397
   57TMC2    O5  882   3.235   2.580  13.233  0.2859  0.3812 -0.0314
   57TMC2    H5  883   3.328   2.585  13.263 -0.1473  0.8567  1.2141
   58MPD2     C  884   2.590   2.768  13.942 -0.7559 -0.9293  0.1962
   58MPD2    C1  885   2.667   2.877  13.930 -0.0460  0.5349  0.6291
   58MPD2    C2  886   2.783   2.862  13.847  0.4920 -0.4490 -0.2483
   58MPD2    C3  887   2.807   2.746  13.777 -0.6910 -0.5996  0.4613
   58MPD2    C4  888   2.712   2.644  13.784  0.1509 -0.2273  0.2580
   58MPD2    C5  889   2.606   2.653  13.867  1.0062  0.3577  0.5006
   58MPD2     H  890   2.846   2.948  13.832  0.3473 -0.0547  1.4629
   58MPD2    H1  891   2.719   2.554  13.724  0.4898 -0.6579  0.9314
   58MPD2    H2  892   2.501   2.763  14.004 -0.1465 -1.7163  1.0008
   58MPD2    H3  893   2.540   2.569  13.887 -0.1134  0.9093 -0.9221
   58MPD2     N  894   2.922   2.732  13.697 -0.2354 -0.5628  0.3366
   58MPD2    H5  895   2.931   2.653  13.633 -0.9865 -0.3902  0.0203
   58MPD2    N1  896   2.636   3.003  13.979 -0.4070  0.6546 -0.2273
   58MPD2    H7  897   2.710   3.072  13.973 -0.3585  0.4300 -2.0921
   59MPD2     C  898   0.817   3.396  13.129  0.4529 -0.1078 -0.5913
   59MPD2    C1  899   0.900   3.426  13.027 -0.2272  0.3387  0.6428
   59MPD2    C2  900   1.015   3.504  13.045  0.0466 -0.1680  0.3595
   59MPD2    C3  901   1.048   3.552  13.171 -0.2114 -0.2106 -0.8836
   59MPD2    C4  902   0.956   3.517  13.271  0.6240  0.0307  0.3399
   59MPD2    C5  903   0.838   3.453  13.249  0.5554  0.5769 -0.0394
   59MPD2     H  904   1.092   3.525  12.972 -0.5333  1.4661  0.2267
   59MPD2    H1  905   0.981   3.527  13.376 -1.2104 -1.3456  0.9143
   59MPD2    H2  906   0.726   3.341  13.108 -0.3852  1.0819 -0.0734
   59MPD2    H3  907   0.776   3.421  13.331  0.7068  0.5669  0.0718
   59MPD2     N  908   1.158   3.630  13.208 -0.0484  0.1299 -0.1416
   59MPD2    H5  909   1.167   3.671  13.300 -0.5426  0.9763 -0.4753
   59MPD2    N1  910   0.860   3.391  12.897  0.5472 -0.0796  0.4345
   59MPD2    H7  911   0.761   3.371  12.888  0.9376 -0.9183 -2.0643
   60TCq2    C1  912   0.940   3.396  12.788 -0.2748 -0.1479 -0.1858
   60TCq2    O2  913   1.049   3.438  12.765 -0.4201  0.0104  0.1467
   60TCq2    C2  914   0.862   3.340  12.675 -0.6543  0.6700 -0.8269
   60TCq2    C3  915   0.780   3.230  12.696 -0.1773 -0.6470 -0.5692
   60TCq2    C4  916   0.729   3.160  12.587 -0.1062 -0.1767  0.1579
   60TCq2    C5  917   0.759   3.203  12.460 -0.5633 -0.0995  0.1481
   60TCq2    C6  918   0.833   3.311  12.439  0.3771 -0.3356 -0.3988
   60TCq2    C7  919   0.900   3.373  12.544 -0.7893  1.1108  0.7446
   60TCq2    C8  920   0.854   3.339  12.296  0.4068  0.1140 -0.0809
   60TCq2    O4  921   0.878   3.248  12.216  0.7617 -0.3371 -0.5014
   60TCq2    C9  922   0.655   3.045  12.609 -1.3136  0.2534 -0.2869
   60TCq2    O5  923   0.624   3.024  12.730  0.1145 -0.2082  1.0659
   60TCq2    O6  924   0.610   2.969  12.512  0.0829 -0.3948 -0.5369
   60TCq2    H2  925   0.776   3.196  12.799  0.8344 -1.6463 -0.8533
   60TCq2    H3  926   0.704   3.146  12.386  2.1427 -1.2858 -0.9551
   60TCq2    H4  927   0.946   3.467  12.515 -4.0741  2.5545  0.1390
   61MPD2     C  928   4.074   0.134  15.462 -0.3173 -0.5577  0.0004
   61MPD2    C1  929   4.214   0.169  15.470 -0.1821 -0.2479 -0.1094
   61MPD2    C2  930   4.281   0.163  15.349 -0.1687 -0.8362  0.3249
   61MPD2    C3  931   4.227   0.132  15.224 -0.1929 -0.0393 -0.1518
   61MPD2    C4  932   4.098   0.080  15.223  0.6842 -0.6334 -0.0644
   61MPD2    C5  933   4.025   0.090  15.343  0.3544  0.2647 -0.1578
   61MPD2     H  934   4.385   0.193  15.355  0.1356 -1.6197 -0.8903
   61MPD2    H1  935   4.056   0.040  15.131  3.0099 -0.9146 -1.0128
   61MPD2    H2  936   4.007   0.134  15.548  1.7344  2.3341  1.5886
   61MPD2    H3  937   3.922   0.056  15.346 -0.2934  2.0654 -2.0242
   61MPD2     N  938   4.299   0.136  15.104  0.3399 -0.4117 -0.1943
   61MPD2    H5  939   4.254   0.095  15.023  0.4147 -0.8954  0.0073
   61MPD2    N1  940   4.285   0.180  15.594  0.7773 -0.2658  0.1977
   61MPD2    H7  941   4.383   0.202  15.579  0.5699  1.9762  2.1348
   62TCq2    C1  942   4.222   0.192  15.716  0.6582  0.0678  0.2719
   62TCq2    O2  943   4.107   0.190  15.750 -0.6956  0.0804 -0.0376
   62TCq2    C2  944   4.324   0.214  15.811 -0.0679 -0.4333 -0.1737
   62TCq2    C3  945   4.311   0.165  15.939 -0.5594  0.4766 -0.8370
   62TCq2    C4  946   4.404   0.208  16.034  0.0083  0.0102  0.0405
   62TCq2    C5  947   4.507   0.298  16.008  0.1800 -0.2094 -0.1659
   62TCq2    C6  948   4.517   0.331  15.876 -0.9970  0.0995 -0.0866
   62TCq2    C7  949   4.431   0.289  15.779  0.4132  0.0599 -0.3854
   62TCq2    C8  950   4.605   0.440  15.843  0.1465  0.6703 -0.3442
   62TCq2    O4  951   4.611   0.476  15.724  0.4989 -0.1813 -0.9083
   62TCq2    C9  952   4.394   0.174  16.173  0.1461  1.0275  0.2996
   62TCq2    O5  953   4.447   0.252  16.259  0.3902  0.3079 -0.1799
   62TCq2    O6  954   4.335   0.065  16.195  0.4815  1.2423  0.1502
   62TCq2    H2  955   4.230   0.097  15.963 -1.5881  2.3612  1.0515
   62TCq2    H3  956   4.569   0.328  16.092 -0.0837 -3.0154  1.0306
   62TCq2    H4  957   4.429   0.351  15.690 -0.7355 -0.9138 -1.0280
   63TMC2    C1  958   0.112   4.709  10.494 -0.2617 -0.4883  0.0826
   63TMC2    C2  959   0.188   4.713  10.609 -0.4644  0.3392  0.5520
   63TMC2    C3  960   0.245   0.113  10.639  0.4720 -0.3478 -0.4383
   63TMC2    C4  961   0.097   0.095  10.413  0.5339 -0.3849 -0.0655
   63TMC2    C5  962   0.157   0.211  10.450 -0.5617 -0.2966 -0.7496
   63TMC2    C6  963   0.231   0.222  10.559  0.3726  1.0323 -1.2764
   63TMC2     C  964   0.041   4.589  10.450 -0.5785 -0.1191  0.0616
   63TMC2     O  965   4.690   4.593  10.356 -0.3655  0.2657 -0.0030
   63TMC2     H  966   0.202   4.626  10.671 -0.7728  0.3191  0.5947
   63TMC2    H1  967   0.039   0.089  10.322 -0.0506  0.0425  0.2805
   63TMC2    H2  968   0.283   0.312  10.589  0.0597  0.5694  0.6485
   63TMC2    C7  969   0.125   0.328  10.380  0.5571  0.0284  0.0996
   63TMC2    C8  970   0.300   0.125  10.773 -0.2539  0.4575 -0.1773
   63TMC2    O1  971   0.065   0.312  10.276  0.2497  0.3143 -0.1255
   63TMC2    O2  972   0.296   0.029  10.844 -0.1793  0.9472 -0.6815
   63TMC2    O5  973   0.220   0.230  10.808 -0.5224 -0.4426  0.6813
   63TMC2    H5  974   0.238   0.312  10.757  1.0616 -1.3996 -0.3014
   64MPD2     C  975   4.698   4.074  10.480  0.4781  0.4508 -0.9602
   64MPD2    C1  976   0.067   4.114  10.569 -0.4162 -0.2909  0.3277
   64MPD2    C2  977   0.097   4.247  10.578  0.0130 -0.1134  0.0122
   64MPD2    C3  978   0.033   4.337  10.500 -0.3101 -0.0164  0.6209
   64MPD2    C4  979   4.668   4.298  10.405  0.4566  0.0166 -0.0642
   64MPD2    C5  980   4.641   4.166  10.400 -0.0405 -0.1661 -1.0799
   64MPD2     H  981   0.156   4.289  10.658  0.6834  0.6353 -0.8798
   64MPD2    H1  982   4.622   4.366  10.334  1.1426  0.6060  0.0466
   64MPD2    H2  983   4.675   3.969  10.469  0.7599  0.4744 -1.8264
   64MPD2    H3  984   4.571   4.132  10.326 -0.8350 -1.8366  0.4497
   64MPD2     N  985   0.068   4.470  10.525 -0.1799 -0.6770 -0.0285
   64MPD2    H5  986   0.128   4.485  10.606  0.2467  1.5908 -0.7611
   64MPD2    N1  987   0.128   4.027  10.656 -0.1499  0.0046 -0.6792
   64MPD2    H7  988   0.182   4.078  10.724  0.3786 -1.4735  0.0101
   65MPD2     C  989   0.814   4.304  15.878 -1.1037 -0.3676  0.3009
   65MPD2    C1  990   0.838   4.306  15.745 -0.6679  0.7261 -0.1260
   65MPD2    C2  991   0.859   4.187  15.676 -0.0824  0.2583 -0.2672
   65MPD2    C3  992   0.838   4.067  15.743 -0.1264 -0.1240  0.4733
   65MPD2    C4  993   0.807   4.064  15.877 -0.0042  0.0087 -0.7213
   65MPD2    C5  994   0.799   4.185  15.944  0.0702  0.3808  0.7107
   65MPD2     H  995   0.889   4.203  15.573  1.4306  2.2805  0.5016
   65MPD2    H1  996   0.802   3.971  15.932 -0.7273 -1.0139 -2.5074
   65MPD2    H2  997   0.797   4.390  15.942  1.8521  1.4925 -1.4842
   65MPD2    H3  998   0.777   4.197  16.050 -2.2737  2.6059 -0.0267
   65MPD2     N  999   0.853   3.937  15.684  0.4015  0.0068 -0.0104
   65MPD2    H5 1000   0.841   3.862  15.752  2.2345  0.5702  0.9483
   65MPD2    N1 1001   0.852   4.428  15.674  0.4380 -0.4560  0.1497
   65MPD2    H7 1002   0.902   4.425  15.586  0.7124 -1.9791  0.3573
   66TCq2    C1 1003   0.819   4.551  15.724 -0.5962  0.4731  0.0084
   66TCq2    O2 1004   0.768   4.588  15.831 -0.1448 -0.2088 -0.0300
   66TCq2    C2 1005   0.845   4.656  15.620  0.1740  0.1450 -0.0874
   66TCq2    C3 1006   0.939   4.630  15.526  0.5538 -0.3879  0.0817
   66TCq2    C4 1007   1.010   0.012  15.472 -0.4835  0.7027  0.2109
   66TCq2    C5 1008   0.987   0.138  15.503 -0.0029  0.1550  0.2494
   66TCq2    C6 1009   0.887   0.161  15.593 -0.3886 -0.3724 -0.3798
   66TCq2    C7 1010   0.809   0.058  15.645  0.0870  0.2392  0.0356
   66TCq2    C8 1011   0.866   0.300  15.636  0.2882 -0.3328 -0.0263
   66TCq2    O4 1012   0.930   0.383  15.572  0.0140 -0.0952  0.0092
   66TCq2    C9 1013   1.118   4.707  15.379  0.0451  0.1362  0.5012
   66TCq2    O5 1014   1.140   0.076  15.296  0.9013  0.8080  0.0702
   66TCq2    O6 1015   1.130   4.586  15.346  0.0259  0.4077  0.2965
   66TCq2    H2 1016   0.957   4.529  15.493  0.7839  0.9095 -3.8177
   66TCq2    H3 1017   1.047   0.217  15.459  0.9110 -0.6858 -0.0235
   66TCq2    H4 1018   0.729   0.078  15.715 -0.8077 -2.0483 -0.3192
   67MPD2     C 1019   1.231   3.767  14.213  0.0346  0.0487  0.0554
   67MPD2    C1 1020   1.154   3.735  14.323 -0.5472  0.0926 -0.2609
   67MPD2    C2 1021   1.022   3.700  14.296 -0.1705 -0.3118  0.1333
   67MPD2    C3 1022   0.965   3.710  14.166  0.9087  0.1433 -0.3312
   67MPD2    C4 1023   1.048   3.736  14.060 -0.6241 -0.2295 -0.1620
   67MPD2    C5 1024   1.185   3.752  14.085 -0.3834  0.7204  0.4472
   67MPD2     H 1025   0.957   3.689  14.382  1.2571 -3.2355  0.8473
   67MPD2    H1 1026   1.010   3.770  13.964 -1.4259 -0.3410  0.1159
   67MPD2    H2 1027   1.333   3.804  14.215 -0.1801  0.6650 -0.4270
   67MPD2    H3 1028   1.257   3.771  14.006 -0.8238 -2.6586 -0.7597
   67MPD2     N 1029   0.827   3.726  14.148  0.6215  0.3416  0.5734
   67MPD2    H5 1030   0.802   3.746  14.052  0.5976  1.5135  0.8315
   67MPD2    N1 1031   1.189   3.746  14.454  0.5870  0.0538  0.1345
   67MPD2    H7 1032   1.117   3.729  14.524  2.0713  0.1733  1.7012
   68TCq2    C1 1033   1.317   3.767  14.493  0.2266  0.2381  0.0350
   68TCq2    O2 1034   1.422   3.744  14.437  0.1281 -0.0184 -0.8198
   68TCq2    C2 1035   1.316   3.833  14.626 -0.0430  0.1662  0.1344
   68TCq2    C3 1036   1.200   3.903  14.663  0.4735  0.1262  0.0242
   68TCq2    C4 1037   1.182   3.939  14.791 -0.5065 -0.2849  0.2855
   68TCq2    C5 1038   1.278   3.913  14.885  0.3876 -0.3321 -0.3284
   68TCq2    C6 1039   1.397   3.849  14.845  0.4527 -0.5367 -0.4609
   68TCq2    C7 1040   1.410   3.799  14.721  0.1489  0.4896 -0.5146
   68TCq2    C8 1041   1.505   3.847  14.934 -1.3062  0.3278 -0.4062
   68TCq2    O4 1042   1.606   3.786  14.898 -0.9495 -0.1486  0.4447
   68TCq2    C9 1043   1.053   3.989  14.828  0.1824  0.1059  0.1448
   68TCq2    O5 1044   1.035   4.019  14.948 -0.5222  0.1179  0.5033
   68TCq2    O6 1045   0.962   3.989  14.735 -0.1050  0.6658  0.3244
   68TCq2    H2 1046   1.120   3.927  14.595 -0.0975  3.7001  1.9896
   68TCq2    H3 1047   1.262   3.957  14.983  0.6514 -0.0849 -0.3930
   68TCq2    H4 1048   1.502   3.751  14.690  0.4799  0.2509  0.8286
   69TMC2    C1 1049   3.199   0.556  11.954 -0.0108  0.2293 -0.1407
   69TMC2    C2 1050   3.146   0.670  11.890 -0.2865 -0.1882 -0.5691
   69TMC2    C3 1051   3.188   0.697  11.761 -0.2946  0.1207 -0.1134
   69TMC2    C4 1052   3.298   0.482  11.889  0.5522 -0.2726  0.1578
   69TMC2    C5 1053   3.337   0.520  11.763 -0.8416  0.1543  0.0221
   69TMC2    C6 1054   3.272   0.612  11.691 -0.4680  0.0841 -0.2692
   69TMC2     C 1055   3.153   0.503  12.080 -0.0270 -0.2151 -0.6716
   69TMC2     O 1056   3.226   0.429  12.147  0.0258 -0.0980  0.4445
   69TMC2     H 1057   3.083   0.738  11.946 -0.6432 -0.7974 -0.2201
   69TMC2    H1 1058   3.338   0.394  11.937 -0.4581  0.9175  3.1898
   69TMC2    H2 1059   3.281   0.625  11.584 -3.8250 -0.5322 -0.6197
   69TMC2    C7 1060   3.453   0.454  11.704  0.1612 -0.3470  0.5433
   69TMC2    C8 1061   3.116   0.792  11.684 -0.1200 -0.4084 -0.6228
   69TMC2    O1 1062   3.505   0.373  11.780  0.1665 -0.1242  0.4052
   69TMC2    O2 1063   3.086   0.779  11.566 -0.8394 -0.0247  0.1087
   69TMC2    O5 1064   3.131   0.900  11.758 -0.4208 -0.1273 -0.4705
   69TMC2    H5 1065   3.181   0.865  11.835  0.2174  1.1261 -0.3200
   70MPD2     C 1066   2.797   0.529  12.181 -0.4139 -0.3227 -0.1222
   70MPD2    C1 1067   2.935   0.502  12.197  0.8248 -0.4839 -0.3435
   70MPD2    C2 1068   2.984   0.454  12.315 -0.0350 -0.0221 -0.0701
   70MPD2    C3 1069   2.898   0.447  12.425  0.0506 -0.2104 -0.2064
   70MPD2    C4 1070   2.763   0.472  12.401 -0.0349 -0.2143 -0.1543
   70MPD2    C5 1071   2.712   0.496  12.283  0.0408  0.5837  0.1386
   70MPD2     H 1072   3.090   0.437  12.330 -0.1827 -0.5732  0.3357
   70MPD2    H1 1073   2.694   0.437  12.477 -0.2054  0.2660 -0.0913
   70MPD2    H2 1074   2.762   0.568  12.086 -2.6206  0.0796  0.8479
   70MPD2    H3 1075   2.605   0.496  12.267 -0.0482 -0.3940  0.7406
   70MPD2     N 1076   2.928   0.395  12.557  0.6938  0.2214  0.0659
   70MPD2    H5 1077   2.857   0.383  12.628 -2.7640  1.1355 -3.2648
   70MPD2    N1 1078   3.020   0.527  12.088 -0.2486  0.8268  0.1684
   70MPD2    H7 1079   2.970   0.580  12.018 -0.2398  2.2612  1.2432
   71TMC2    C1 1080   1.010   4.547   1.589 -0.2743 -0.2382 -0.6687
   71TMC2    C2 1081   1.061   4.595   1.707  0.1912  0.3816 -0.3338
   71TMC2    C3 1082   0.991   4.564   1.823  0.0433  0.5699  0.5283
   71TMC2    C4 1083   0.897   4.476   1.582 -1.0158 -0.0594  0.1508
   71TMC2    C5 1084   0.840   4.442   1.703  0.2812 -0.2090  0.0144
   71TMC2    C6 1085   0.882   4.482   1.827  0.2523 -0.1425 -0.3224
   71TMC2     C 1086   1.072   4.585   1.467  0.6465 -0.7806  0.2943
   71TMC2     O 1087   1.007   4.581   1.367  0.5825  0.1434  0.4944
   71TMC2     H 1088   1.139   4.671   1.716  0.8062 -0.0972 -1.6146
   71TMC2    H1 1089   0.864   4.443   1.485  0.2267  0.7710 -0.5550
   71TMC2    H2 1090   0.822   4.465   1.916  1.8324 -3.1148  0.1661
   71TMC2    C7 1091   0.719   4.371   1.708  0.0418  0.4616  0.3990
   71TMC2    C8 1092   0.995   4.654   1.943  0.1466  0.5278  0.4871
   71TMC2    O1 1093   0.711   4.302   1.811 -0.4017  0.3714 -0.2157
   71TMC2    O2 1094   1.021   0.050   1.945 -0.4979  0.0936  0.4884
   71TMC2    O5 1095   0.980   4.578   2.054  0.4401  0.0836  0.4830
   71TMC2    H5 1096   0.990   4.480   2.052  3.1219  0.3266  2.2150
   72MPD2     C 1097   1.481   0.008   1.196  0.0647 -0.5551 -0.1759
   72MPD2    C1 1098   1.347   0.021   1.166  0.3580 -0.5342 -0.5271
   72MPD2    C2 1099   1.253   4.704   1.266 -0.3444 -0.3220 -0.0423
   72MPD2    C3 1100   1.290   4.654   1.386 -0.4569  0.5763  0.5334
   72MPD2    C4 1101   1.423   4.666   1.423  0.0696 -0.3826 -0.2995
   72MPD2    C5 1102   1.515   4.706   1.328 -0.5333  0.3857  0.3760
   72MPD2     H 1103   1.146   4.709   1.245 -0.4091  0.6384  0.5213
   72MPD2    H1 1104   1.454   4.636   1.522 -1.9937  2.0217  1.0664
   72MPD2    H2 1105   1.566   0.045   1.140  0.2026 -1.0425 -0.2885
   72MPD2    H3 1106   1.622   4.697   1.345 -0.9323  0.9721  3.1931
   72MPD2     N 1107   1.199   4.621   1.487 -1.2899  0.2377 -0.7388
   72MPD2    H5 1108   1.233   4.602   1.581 -2.2578  1.2269 -0.1874
   72MPD2    N1 1109   1.301   0.089   1.049 -0.2881 -0.3511 -0.9542
   72MPD2    H7 1110   1.200   0.099   1.040 -0.1719  0.1673 -1.6917
   73TMC2    C1 1111   0.428   2.494  14.350  0.5132  0.3368 -0.2139
   73TMC2    C2 1112   0.315   2.521  14.421  0.2354 -0.1686  0.3949
   73TMC2    C3 1113   0.320   2.572  14.546  0.1562 -0.4317 -0.0764
   73TMC2    C4 1114   0.544   2.506  14.412 -0.2965 -0.5558  0.2202
   73TMC2    C5 1115   0.547   2.559  14.541  0.7711 -0.0610 -0.5449
   73TMC2    C6 1116   0.435   2.590  14.611 -0.2465 -0.1414  0.2046
   73TMC2     C 1117   0.426   2.539  14.218 -0.0558  0.0470 -1.0093
   73TMC2     O 1118   0.517   2.614  14.203  0.1219 -0.0225  0.0006
   73TMC2     H 1119   0.224   2.494  14.368  1.8277  0.5843 -2.7578
   73TMC2    H1 1120   0.640   2.488  14.365 -0.2814  3.3072 -1.2213
   73TMC2    H2 1121   0.436   2.633  14.710 -1.1619 -0.5422  0.3874
   73TMC2    C7 1122   0.640   2.671  14.545 -0.5766  0.2038 -0.0114
   73TMC2    C8 1123   0.208   2.627  14.619 -0.2847  0.7320  0.5947
   73TMC2    O1 1124   0.690   2.703  14.655  0.7408 -0.4479 -0.3064
   73TMC2    O2 1125   0.213   2.618  14.739  0.1353  0.1287 -0.5388
   73TMC2    O5 1126   0.094   2.634  14.545  0.0078 -0.5024 -0.1871
   73TMC2    H5 1127   0.110   2.663  14.452  1.0866  0.1845  0.2140
   74MPD2     C 1128   0.239   2.638  13.749  0.5849  0.1845  0.2571
   74MPD2    C1 1129   0.308   2.715  13.842  0.0850 -0.2392 -0.1908
   74MPD2    C2 1130   0.337   2.671  13.966 -0.3294 -0.2636 -0.2317
   74MPD2    C3 1131   0.305   2.545  14.002  0.3939 -0.2688 -0.1137
   74MPD2    C4 1132   0.229   2.467  13.918  0.2114  0.6999  0.0256
   74MPD2    C5 1133   0.201   2.509  13.791  0.2135  0.3113 -0.7913
   74MPD2     H 1134   0.368   2.730  14.052  1.1453 -0.1409 -0.8524
   74MPD2    H1 1135   0.193   2.370  13.953 -0.2385  0.6864 -0.4797
   74MPD2    H2 1136   0.207   2.675  13.652  2.3933  0.1216 -0.3614
   74MPD2    H3 1137   0.142   2.442  13.729 -0.7537 -1.2506  1.8539
   74MPD2     N 1138   0.324   2.496  14.132 -0.1706  0.4773 -0.6036
   74MPD2    H5 1139   0.268   2.421  14.171  1.0923  0.0473  0.4044
   74MPD2    N1 1140   0.358   2.846  13.802 -0.5791 -0.3049 -0.1440
   74MPD2    H7 1141   0.336   2.893  13.714  0.9971 -2.3323 -1.6062
   75TCq2    C1 1142   0.729   3.728  14.248 -0.7024  0.3266  0.3075
   75TCq2    O2 1143   0.744   3.750  14.367  0.3285 -0.4110 -0.0683
   75TCq2    C2 1144   0.595   3.761  14.203  0.2283  0.1823 -0.1033
   75TCq2    C3 1145   0.499   3.775  14.300  0.1097 -0.4832 -0.1193
   75TCq2    C4 1146   0.373   3.796  14.254  0.1887 -0.2421  0.2573
   75TCq2    C5 1147   0.337   3.805  14.127  0.0430 -0.1755 -0.7883
   75TCq2    C6 1148   0.436   3.787  14.035  0.3951  0.0225 -0.1069
   75TCq2    C7 1149   0.565   3.760  14.069 -0.0787 -0.1215  0.4732
   75TCq2    C8 1150   0.409   3.827  13.898  0.1193  0.4766  0.3139
   75TCq2    O4 1151   0.479   3.767  13.811  0.0007  0.8345 -0.2040
   75TCq2    C9 1152   0.266   3.826  14.355  0.1952 -0.0008  0.2668
   75TCq2    O5 1153   0.303   3.851  14.476  0.1309 -0.0837  0.1374
   75TCq2    O6 1154   0.143   3.824  14.324 -0.0973  0.4246  0.3590
   75TCq2    H2 1155   0.515   3.766  14.407  0.2935  0.3654 -0.0807
   75TCq2    H3 1156   0.230   3.817  14.113  0.4839 -0.6343 -4.5065
   75TCq2    H4 1157   0.644   3.755  13.994  0.3253 -1.4422  0.9897
   76MPD2     C 1158   4.322   4.451  11.943 -0.4535 -0.1853  0.7084
   76MPD2    C1 1159   4.265   4.360  11.863  0.0505  0.1450  0.1900
   76MPD2    C2 1160   4.293   4.226  11.889  0.1324 -0.7603  0.1845
   76MPD2    C3 1161   4.358   4.194  12.004  0.4166  0.2581  0.4492
   76MPD2    C4 1162   4.419   4.290  12.090  0.3504 -0.1222  0.5719
   76MPD2    C5 1163   4.411   4.417  12.044  0.6399  0.2256 -0.3685
   76MPD2     H 1164   4.252   4.153  11.820 -1.2498  0.0107  0.1945
   76MPD2    H1 1165   4.477   4.265  12.177 -0.7899  2.3408  2.0595
   76MPD2    H2 1166   4.307   4.558  11.928  2.5844  0.2552  0.8227
   76MPD2    H3 1167   4.459   4.497  12.099  0.1179 -0.0538  0.5032
   76MPD2     N 1168   4.383   4.060  12.042  0.9376 -0.0927 -0.2184
   76MPD2    H5 1169   4.447   4.055  12.120  0.9374 -0.7311 -0.2601
   76MPD2    N1 1170   4.177   4.395  11.758 -0.5705 -0.5130 -0.1311
   76MPD2    H7 1171   4.149   4.313  11.705  0.7823 -0.8959 -0.2559
   77TCq2    C1 1172   4.325   3.948  11.985  0.1853  0.1693 -0.1302
   77TCq2    O2 1173   4.225   3.940  11.917  0.5014 -0.6359  0.1379
   77TCq2    C2 1174   4.397   3.828  12.043  0.1436  0.6208 -0.5579
   77TCq2    C3 1175   4.303   3.727  12.062 -0.3096 -0.2411 -0.1834
   77TCq2    C4 1176   4.331   3.637  12.156 -0.4640 -0.6123  0.2697
   77TCq2    C5 1177   4.456   3.642  12.222 -0.2489  0.1238 -0.2501
   77TCq2    C6 1178   4.541   3.746  12.205  0.4404 -0.6629  0.0686
   77TCq2    C7 1179   4.510   3.849  12.123 -0.2537 -0.1281 -0.0393
   77TCq2    C8 1180   4.665   3.734  12.274  0.0738  0.0194  0.1885
   77TCq2    O4 1181   4.710   3.619  12.293 -0.2795  0.1730 -0.0880
   77TCq2    C9 1182   4.241   3.526  12.163 -0.5520 -0.2408 -0.1833
   77TCq2    O5 1183   4.172   3.496  12.063  0.1934 -0.2462  0.6264
   77TCq2    O6 1184   4.276   3.444  12.251 -0.3536 -0.1906 -0.3199
   77TCq2    H2 1185   4.210   3.720  12.007  0.7014 -1.4359 -1.7600
   77TCq2    H3 1186   4.492   3.556  12.277 -1.7988 -0.7346 -0.5509
   77TCq2    H4 1187   4.584   3.925  12.100  0.3713 -0.2516  1.5392
   78MPD1     C 1188   4.676   3.317   1.634  0.1961 -0.8055  0.2082
   78MPD1    C1 1189   4.617   3.352   1.752 -0.0703  0.4167 -0.0536
   78MPD1    C2 1190   4.697   3.427   1.838 -0.4158  0.4590 -0.1413
   78MPD1    C3 1191   0.107   3.449   1.815 -0.4558  0.3577  0.7539
   78MPD1    C4 1192   0.168   3.400   1.703  0.3679  0.4337 -0.1660
   78MPD1    C5 1193   0.082   3.341   1.613  0.3239  0.1029 -0.3946
   78MPD1     H 1194   4.647   3.477   1.920 -0.3447  1.1050 -0.4906
   78MPD1    H1 1195   0.272   3.403   1.675  0.2831  0.3140 -0.5004
   78MPD1    H2 1196   4.621   3.259   1.561  0.2846 -1.1493  0.4190
   78MPD1    H3 1197   0.119   3.298   1.521 -0.7281  0.1103 -0.8206
   78MPD1     N 1198   0.187   3.537   1.897  0.3693  0.2350  0.3753
   78MPD1    H5 1199   0.281   3.563   1.868  0.0222  0.8331 -0.2011
   78MPD1    N1 1200   4.482   3.340   1.764 -0.2144 -0.4614 -0.2718
   78MPD1    H6 1201   4.450   3.252   1.725  2.4251 -1.4616 -0.1678
   78MPD1    H7 1202   4.446   3.348   1.859  0.4512  0.6499 -0.1174
   79TCq2    C1 1203   0.143   3.598   2.014  0.1324  0.0500  0.2033
   79TCq2    O2 1204   0.046   3.559   2.085 -0.6498 -0.6082 -0.2634
   79TCq2    C2 1205   0.231   3.700   2.061 -0.2214  0.1595 -0.0518
   79TCq2    C3 1206   0.207   3.751   2.184 -0.4364 -0.3871 -0.5081
   79TCq2    C4 1207   0.280   3.871   2.211 -0.0936 -0.7687  0.4233
   79TCq2    C5 1208   0.369   3.929   2.127 -0.6814 -0.2878  0.1359
   79TCq2    C6 1209   0.392   3.868   2.011 -0.0456 -0.0804  0.5939
   79TCq2    C7 1210   0.324   3.753   1.972 -0.1822  0.1330 -0.3755
   79TCq2    C8 1211   0.506   3.920   1.932  0.6384  0.1474 -1.2327
   79TCq2    O4 1212   0.603   3.975   1.985  0.4884 -0.0568 -0.1245
   79TCq2    C9 1213   0.258   3.948   2.338  1.0040 -0.2680  0.3628
   79TCq2    O5 1214   0.199   3.889   2.430  0.1799 -0.5534 -0.5343
   79TCq2    O6 1215   0.304   4.062   2.343  0.4661 -0.4537  0.6175
   79TCq2    H2 1216   0.146   3.702   2.259  2.6610 -1.1485  1.5546
   79TCq2    H3 1217   0.418   4.021   2.159 -2.0503 -0.5257  2.9457
   79TCq2    H4 1218   0.344   3.717   1.872 -1.9581  0.7405 -0.9531
   80MPD2     C 1219   3.643   4.015  12.191  0.0951  0.9068  0.5359
   80MPD2    C1 1220   3.543   4.057  12.109  0.4008 -0.3716  0.6208
   80MPD2    C2 1221   3.436   4.132  12.163 -0.1078  0.0033  0.0068
   80MPD2    C3 1222   3.429   4.153  12.300  0.3699  0.5445  0.4309
   80MPD2    C4 1223   3.527   4.109  12.376  0.5980 -0.1191 -0.0508
   80MPD2    C5 1224   3.629   4.041  12.322  0.5799 -0.4508 -0.3760
   80MPD2     H 1225   3.354   4.162  12.099 -1.0814 -1.6815  0.4765
   80MPD2    H1 1226   3.525   4.120  12.484  2.6767  2.0555 -0.2174
   80MPD2    H2 1227   3.731   3.962  12.155 -1.5983 -2.3883  1.3102
   80MPD2    H3 1228   3.704   3.995  12.385 -0.7044  0.2098  1.6275
   80MPD2     N 1229   3.318   4.216  12.355  0.3266 -0.1143  0.1457
   80MPD2    H5 1230   3.322   4.228  12.456  1.6195 -0.2017  0.1026
   80MPD2    N1 1231   3.546   4.043  11.973  0.7219  0.1030 -0.4348
   80MPD2    H7 1232   3.465   4.076  11.921 -0.1279  0.2548  0.9987
   81TCq2    C1 1233   3.646   3.981  11.901 -0.1507 -0.1737  0.0723
   81TCq2    O2 1234   3.765   3.962  11.926  0.1047  0.6427  0.6911
   81TCq2    C2 1235   3.596   3.938  11.771 -0.3194  0.6257 -0.1016
   81TCq2    C3 1236   3.687   3.911  11.673  0.0268  0.4888  0.1044
   81TCq2    C4 1237   3.649   3.851  11.559 -0.5118  0.0655 -0.7597
   81TCq2    C5 1238   3.518   3.829  11.534 -0.1132 -0.7412  0.3649
   81TCq2    C6 1239   3.432   3.837  11.636  0.2807  0.2164 -0.3572
   81TCq2    C7 1240   3.468   3.901  11.751 -0.7843  0.9129  0.2231
   81TCq2    C8 1241   3.291   3.785  11.621  0.0996 -0.0410 -0.0917
   81TCq2    O4 1242   3.245   3.788  11.507 -0.3768 -0.4412  0.1319
   81TCq2    C9 1243   3.747   3.825  11.456 -0.2506  0.3257 -0.0558
   81TCq2    O5 1244   3.705   3.780  11.349 -0.1300  0.4741 -0.0215
   81TCq2    O6 1245   3.865   3.844  11.494  0.5930 -0.1281 -0.5215
   81TCq2    H2 1246   3.791   3.936  11.690  0.0180  1.8833 -1.7914
   81TCq2    H3 1247   3.499   3.788  11.435 -2.0825  1.3987 -0.1496
   81TCq2    H4 1248   3.388   3.902  11.824 -0.0728  1.9653  0.9684
   82MPD2     C 1249   1.950   3.682  10.929  0.1045  0.4487  0.0004
   82MPD2    C1 1250   1.855   3.579  10.923  0.2966  0.8414  0.4601
   82MPD2    C2 1251   1.869   3.467  11.005 -0.9519 -0.5475 -0.8505
   82MPD2    C3 1252   1.980   3.452  11.086 -0.5562 -0.9457 -0.0068
   82MPD2    C4 1253   2.074   3.554  11.090  0.9054  0.0490  0.5009
   82MPD2    C5 1254   2.059   3.668  11.010 -0.4000  0.2940  0.5485
   82MPD2     H 1255   1.791   3.392  10.998  0.3762 -2.0965  1.0657
   82MPD2    H1 1256   2.164   3.555  11.150  0.2345  1.2526  1.4862
   82MPD2    H2 1257   1.945   3.773  10.869 -0.4509  0.1375 -0.4290
   82MPD2    H3 1258   2.132   3.747  11.024  0.4232 -0.1120 -1.5789
   82MPD2     N 1259   2.004   3.338  11.161  0.0495 -0.4250 -0.0384
   82MPD2    H5 1260   2.098   3.328  11.198  0.1715 -0.0462 -0.2396
   82MPD2    N1 1261   1.741   3.600  10.839  0.2857  0.0330 -0.3524
   82MPD2    H7 1262   1.745   3.690  10.791  3.4609 -0.9547 -1.9677
   83TCq2    C1 1263   1.918   3.232  11.176  0.1674  0.2838 -0.1271
   83TCq2    O2 1264   1.804   3.200  11.138 -0.0718  0.7007 -0.5003
   83TCq2    C2 1265   1.960   3.156  11.283  0.4255 -0.4933 -0.1597
   83TCq2    C3 1266   2.096   3.118  11.286  0.5076 -0.3716 -0.3789
   83TCq2    C4 1267   2.138   3.015  11.366 -0.0158 -0.6985 -0.3443
   83TCq2    C5 1268   2.046   2.962  11.456 -0.6379  0.0817  0.0446
   83TCq2    C6 1269   1.910   3.001  11.453  0.4883 -0.3984  0.1540
   83TCq2    C7 1270   1.863   3.104  11.367  0.3543  0.6418  0.5229
   83TCq2    C8 1271   1.819   2.896  11.450  0.4264 -0.8325 -0.0988
   83TCq2    O4 1272   1.705   2.928  11.480 -0.5278 -0.2596 -0.3597
   83TCq2    C9 1273   2.271   2.969  11.358  0.8409  0.0308  0.5455
   83TCq2    O5 1274   2.304   2.867  11.429  0.5141 -0.7160 -0.2517
   83TCq2    O6 1275   2.353   3.061  11.325  0.1004 -0.3752  0.3588
   83TCq2    H2 1276   2.153   3.148  11.199 -0.3581  1.5755 -0.2784
   83TCq2    H3 1277   2.082   2.874  11.508  2.2760  0.6532 -1.0150
   83TCq2    H4 1278   1.760   3.138  11.359  0.3096  1.3436  4.0365
   84TCq2    C1 1279   2.923   2.716  10.704 -0.1977 -0.1099  0.4310
   84TCq2    O2 1280   2.820   2.655  10.678  0.1050  0.3992  0.2966
   84TCq2    C2 1281   2.980   2.718  10.835  0.5411  0.1375  0.7459
   84TCq2    C3 1282   3.112   2.738  10.841 -0.0109 -0.4130 -0.5379
   84TCq2    C4 1283   3.170   2.755  10.966  0.1320 -0.3504 -0.1666
   84TCq2    C5 1284   3.089   2.750  11.084 -0.1152 -0.0144  0.9045
   84TCq2    C6 1285   2.952   2.731  11.061 -0.4493  0.4825 -0.1811
   84TCq2    C7 1286   2.893   2.710  10.941 -0.1832  0.1182 -0.1611
   84TCq2    C8 1287   2.863   2.775  11.170 -0.2541  0.2281  0.0248
   84TCq2    O4 1288   2.750   2.804  11.141  0.3566  0.0493  0.0036
   84TCq2    C9 1289   3.308   2.785  10.976 -0.5233 -0.8922  0.5188
   84TCq2    O5 1290   3.368   2.805  10.869  0.4614 -0.2254  0.3036
   84TCq2    O6 1291   3.357   2.799  11.091  0.8950 -0.4987 -0.1126
   84TCq2    H2 1292   3.177   2.746  10.755 -1.0726  1.4023 -1.1712
   84TCq2    H3 1293   3.129   2.786  11.178  2.3630  1.8246 -0.8535
   84TCq2    H4 1294   2.786   2.714  10.925 -0.5256  0.0762  2.0757
   85MPD2     C 1295   3.058   0.222  16.555  0.2472  0.2266 -0.1151
   85MPD2    C1 1296   2.956   0.291  16.497 -0.7294  0.1816 -0.7089
   85MPD2    C2 1297   2.978   0.410  16.439  0.3870  0.2415 -0.1394
   85MPD2    C3 1298   3.103   0.470  16.454  0.2227 -0.3131  0.6946
   85MPD2    C4 1299   3.210   0.398  16.503 -0.7333 -0.0975  0.4136
   85MPD2    C5 1300   3.189   0.273  16.550 -0.9158  0.2749  0.5601
   85MPD2     H 1301   2.897   0.468  16.397 -0.0382  1.0451  1.7909
   85MPD2    H1 1302   3.312   0.434  16.510 -1.2548  1.3822  0.4175
   85MPD2    H2 1303   3.047   0.117  16.581 -0.0343  0.3753  0.3521
   85MPD2    H3 1304   3.275   0.215  16.582 -1.4542 -0.8535 -0.0284
   85MPD2     N 1305   3.116   0.594  16.399 -0.0861 -0.2367  0.3989
   85MPD2    H5 1306   3.026   0.634  16.375  0.4551  0.4209 -0.5460
   85MPD2    N1 1307   2.822   0.235  16.483 -0.6423 -0.0628  0.4272
   85MPD2    H7 1308   2.759   0.285  16.421  0.3603  2.3472  1.3904
   86TCq2    C1 1309   3.236   0.649  16.356 -0.2704  0.1443  0.9332
   86TCq2    O2 1310   3.348   0.602  16.343 -0.6698 -0.1376 -0.4059
   86TCq2    C2 1311   3.226   0.783  16.304  0.4378 -0.7550  0.1875
   86TCq2    C3 1312   3.111   0.851  16.312 -0.6116 -0.0144 -0.5235
   86TCq2    C4 1313   3.109   0.981  16.269 -0.2724  0.5187 -0.0489
   86TCq2    C5 1314   3.216   1.042  16.212  0.6486  0.2260  0.0818
   86TCq2    C6 1315   3.334   0.973  16.206  0.1041 -0.5545 -0.4882
   86TCq2    C7 1316   3.342   0.845  16.252 -0.7016  0.5283  0.8040
   86TCq2    C8 1317   3.451   1.026  16.140 -0.5514  0.0351  0.4092
   86TCq2    O4 1318   3.554   0.966  16.167  0.0801  0.0800 -0.6933
   86TCq2    C9 1319   2.992   1.058  16.303 -0.4138 -1.0288  1.0983
   86TCq2    O5 1320   2.922   1.024  16.403 -0.5474  0.4459 -0.0335
   86TCq2    O6 1321   2.975   1.173  16.248  0.2528  0.0052  0.7902
   86TCq2    H2 1322   3.029   0.816  16.375 -0.5855  1.2409  0.2167
   86TCq2    H3 1323   3.209   1.144  16.177  0.3602  0.3899  0.6130
   86TCq2    H4 1324   3.434   0.787  16.250  0.3236  2.1422  1.7352
   87MPD2     C 1325   4.670   3.388   1.210  0.1869 -0.6545  0.2183
   87MPD2    C1 1326   0.055   3.462   1.168  0.2127  0.3161 -0.1661
   87MPD2    C2 1327   0.062   3.597   1.194  0.4989  0.3823 -0.4803
   87MPD2    C3 1328   4.700   3.655   1.279  0.5411 -0.1562 -0.0017
   87MPD2    C4 1329   4.583   3.583   1.318  0.4948  0.2805  0.4267
   87MPD2    C5 1330   4.573   3.452   1.286 -0.3590  0.0476  0.0947
   87MPD2     H 1331   0.148   3.656   1.164  2.5206 -0.1127  4.2319
   87MPD2    H1 1332   4.517   3.630   1.390  2.8074  2.2776  1.2643
   87MPD2    H2 1333   4.647   3.283   1.189  0.7551 -1.0196  1.4462
   87MPD2    H3 1334   4.483   3.400   1.317 -1.2179  1.8484  0.6082
   87MPD2     N 1335   4.713   3.783   1.339 -0.0531  0.1165  0.1915
   87MPD2    H5 1336   4.629   3.833   1.367 -0.1834  0.0163 -0.0202
   87MPD2    N1 1337   0.163   3.396   1.094 -0.0369 -0.6536  0.9120
   87MPD2    H7 1338   0.152   3.296   1.081 -0.4389 -0.3920 -0.7326
   88TCq2    C1 1339   0.282   3.456   1.061  0.2147 -0.1616 -0.4853
   88TCq2    O2 1340   0.327   3.570   1.073  0.2412  0.4503  0.1266
   88TCq2    C2 1341   0.372   3.365   1.000 -0.3378  0.0191  0.4248
   88TCq2    C3 1342   0.352   3.229   1.015  0.5496  0.1897  0.9531
   88TCq2    C4 1343   0.451   3.141   0.984 -0.2592  0.5447  0.0455
   88TCq2    C5 1344   0.570   3.190   0.938  0.2725 -0.3716 -0.1312
   88TCq2    C6 1345   0.595   3.325   0.933 -0.2861  1.1301  0.2190
   88TCq2    C7 1346   0.492   3.416   0.959  0.4343 -0.3920 -0.4183
   88TCq2    C8 1347   0.733   3.363   0.884  0.9765 -0.2196 -0.5614
   88TCq2    O4 1348   0.742   3.444   0.792  0.5034 -0.2242  0.2028
   88TCq2    C9 1349   0.429   2.996   0.987  0.5191 -0.4894 -0.5513
   88TCq2    O5 1350   0.530   2.924   0.956  0.7390 -0.3878  0.0709
   88TCq2    O6 1351   0.335   2.955   1.059 -0.0213 -0.0934 -0.0486
   88TCq2    H2 1352   0.258   3.186   1.048  0.9592 -1.8380 -0.5424
   88TCq2    H3 1353   0.647   3.125   0.899  0.0310 -0.4020 -0.5597
   88TCq2    H4 1354   0.501   3.523   0.947  0.7590 -0.5932 -1.9077
   89MPD2     C 1355   1.755   1.633   1.727  0.1050  1.1540  0.8269
   89MPD2    C1 1356   1.641   1.680   1.786  0.5221 -0.2179  0.3610
   89MPD2    C2 1357   1.638   1.813   1.814 -0.0960  0.4381 -0.8253
   89MPD2    C3 1358   1.747   1.900   1.781  0.4175  0.1639 -0.9373
   89MPD2    C4 1359   1.867   1.842   1.733 -0.6106 -0.0892 -0.1129
   89MPD2    C5 1360   1.864   1.707   1.704 -0.4531 -0.0448 -0.1059
   89MPD2     H 1361   1.544   1.863   1.830 -0.0745  0.3526 -0.4341
   89MPD2    H1 1362   1.960   1.895   1.714 -0.4139 -0.3547  0.1065
   89MPD2    H2 1363   1.769   1.528   1.702  0.9522  1.2596  0.8552
   89MPD2    H3 1364   1.951   1.663   1.655  0.3277  1.1978  0.1774
   89MPD2     N 1365   1.731   2.040   1.816 -0.3736  0.5389 -0.4683
   89MPD2    H5 1366   1.637   2.070   1.841 -0.0600  2.2173 -1.3543
   89MPD2    N1 1367   1.528   1.603   1.821  0.4315  0.1686 -0.4591
   89MPD2    H7 1368   1.457   1.648   1.879  1.5404 -0.4856  1.3911
   90TCq2    C1 1369   1.814   2.142   1.791  0.0240 -0.3853 -0.4109
   90TCq2    O2 1370   1.923   2.148   1.736  0.1764 -0.0773  0.5384
   90TCq2    C2 1371   1.752   2.273   1.830 -0.3426 -0.2117  0.4464
   90TCq2    C3 1372   1.664   2.263   1.940 -0.0147  0.2707  0.1057
   90TCq2    C4 1373   1.580   2.372   1.957  0.5962  0.0852  0.0845
   90TCq2    C5 1374   1.589   2.477   1.869 -0.0518  0.6532  0.0729
   90TCq2    C6 1375   1.691   2.484   1.779  0.0634 -0.4183 -0.0745
   90TCq2    C7 1376   1.783   2.389   1.760 -0.6931 -0.2448 -0.5765
   90TCq2    C8 1377   1.732   2.620   1.745  0.2567 -0.1165  0.1226
   90TCq2    O4 1378   1.677   2.720   1.801 -0.0938  0.3195  0.0813
   90TCq2    C9 1379   1.474   2.348   2.044  0.2004 -0.6293  0.2694
   90TCq2    O5 1380   1.478   2.242   2.117 -0.1344 -0.8872 -0.0325
   90TCq2    O6 1381   1.389   2.441   2.048  0.2238  0.1105 -0.3118
   90TCq2    H2 1382   1.657   2.176   2.005  2.2173  1.2408  1.6703
   90TCq2    H3 1383   1.522   2.563   1.869 -1.1973 -0.2204 -0.9415
   90TCq2    H4 1384   1.823   2.379   1.660 -0.5209 -3.5132 -0.1592
   91TMC2    C1 1385   3.054   1.693  16.542  0.0040  0.1920  1.0535
   91TMC2    C2 1386   3.076   1.807  16.466  0.2412  0.1562  0.1881
   91TMC2    C3 1387   2.976   1.868  16.410 -0.1886  0.4792  0.0165
   91TMC2    C4 1388   2.928   1.651  16.579 -0.3317 -0.1082  0.0352
   91TMC2    C5 1389   2.823   1.730  16.529 -0.5331  0.2684  0.7416
   91TMC2    C6 1390   2.850   1.827  16.441 -0.1138  0.1312  0.0666
   91TMC2     C 1391   3.172   1.618  16.591  0.5300 -0.1602 -0.1052
   91TMC2     O 1392   3.142   1.527  16.664 -0.3537  0.4667 -0.1893
   91TMC2     H 1393   3.174   1.839  16.435  0.1487 -0.2586 -0.5440
   91TMC2    H1 1394   2.907   1.565  16.641 -0.3455  0.5060  0.8862
   91TMC2    H2 1395   2.768   1.882  16.396  1.0269 -0.1625 -2.3643
   91TMC2    C7 1396   2.694   1.661  16.526 -0.1775 -0.3615 -0.1293
   91TMC2    C8 1397   2.977   2.011  16.389  0.0009  0.6020  0.5875
   91TMC2    O1 1398   2.671   1.583  16.617  0.2981 -0.1107 -0.4854
   91TMC2    O2 1399   2.925   2.074  16.301 -0.1688  0.5269 -0.2086
   91TMC2    O5 1400   3.068   2.065  16.485  0.0433 -0.2327 -0.0971
   91TMC2    H5 1401   3.075   1.991  16.550 -2.4106  0.5284  1.0136
   92MPD2     C 1402   3.423   1.462  16.592  0.2930  0.3412  0.3221
   92MPD2    C1 1403   3.411   1.598  16.566 -0.1574 -0.0391  0.3737
   92MPD2    C2 1404   3.526   1.671  16.545 -0.3514 -0.1286  0.3019
   92MPD2    C3 1405   3.648   1.607  16.544  0.5465 -0.4154 -0.0647
   92MPD2    C4 1406   3.652   1.472  16.574 -0.1959 -0.0590 -0.2448
   92MPD2    C5 1407   3.540   1.397  16.603 -0.1442 -0.3379 -0.7151
   92MPD2     H 1408   3.524   1.778  16.525 -0.2014  0.0049  1.0141
   92MPD2    H1 1409   3.751   1.428  16.581 -0.0490  0.4630  0.9034
   92MPD2    H2 1410   3.325   1.417  16.588  0.8022 -0.7820  0.3563
   92MPD2    H3 1411   3.548   1.293  16.632  0.0239 -0.4275 -1.0887
   92MPD2     N 1412   3.761   1.686  16.503  0.6885 -0.3822 -0.2661
   92MPD2    H5 1413   3.746   1.780  16.468  1.3970 -0.6486 -1.2939
   92MPD2    N1 1414   3.295   1.664  16.562  0.2687 -0.3785  0.1109
   92MPD2    H7 1415   3.313   1.758  16.529 -1.9624  0.4391  1.2294
   93MPD2     C 1416   4.536   1.190  13.551 -0.2281 -0.0806  0.1754
   93MPD2    C1 1417   4.445   1.258  13.634 -0.4459 -0.6173 -0.3370
   93MPD2    C2 1418   4.312   1.238  13.622 -0.0679  0.2301 -0.6779
   93MPD2    C3 1419   4.263   1.164  13.516  0.5790  0.2119 -0.0484
   93MPD2    C4 1420   4.353   1.096  13.435  0.3998 -0.0783  0.2503
   93MPD2    C5 1421   4.486   1.119  13.450  0.5472  1.0917  0.1301
   93MPD2     H 1422   4.243   1.301  13.678  0.0164  0.4501 -0.8220
   93MPD2    H1 1423   4.322   1.034  13.352 -1.3177 -0.4109  1.1408
   93MPD2    H2 1424   4.645   1.199  13.552 -0.1985 -0.4071 -0.4714
   93MPD2    H3 1425   4.548   1.055  13.389  1.5256  2.3397 -0.1804
   93MPD2     N 1426   4.129   1.164  13.471  0.4170  0.1711 -0.4717
   93MPD2    H5 1427   4.110   1.132  13.377  0.9333 -0.2524 -0.4327
   93MPD2    N1 1428   4.495   1.352  13.728 -0.1702  0.1500 -0.7190
   93MPD2    H7 1429   4.426   1.384  13.795  0.8902 -1.0352  0.9520
   94TCq2    C1 1430   4.622   1.401  13.743 -0.3463  0.1512  0.1244
   94TCq2    O2 1431   0.002   1.381  13.682  0.3420  0.3690 -0.1592
   94TCq2    C2 1432   4.632   1.511  13.833 -0.6098 -0.5174  0.3130
   94TCq2    C3 1433   4.522   1.592  13.873 -0.4212  0.4713 -0.5715
   94TCq2    C4 1434   4.544   1.712  13.941 -0.4113  0.4379 -0.2815
   94TCq2    C5 1435   4.674   1.754  13.971 -0.0183  0.3339  0.8991
   94TCq2    C6 1436   0.054   1.678  13.925 -0.2993  0.1516  0.0171
   94TCq2    C7 1437   0.034   1.556  13.858 -0.9665  0.6733  0.2334
   94TCq2    C8 1438   0.194   1.723  13.933  0.5572 -0.1650 -0.3590
   94TCq2    O4 1439   0.283   1.639  13.936  0.7084  0.2942  0.1650
   94TCq2    C9 1440   4.438   1.789  13.995 -0.1341 -0.6464 -0.6431
   94TCq2    O5 1441   4.472   1.903  14.041  0.6931 -0.0495 -0.0843
   94TCq2    O6 1442   4.323   1.735  13.988  1.0375 -0.5318  0.4778
   94TCq2    H2 1443   4.420   1.556  13.862 -0.1166 -0.0602 -1.6095
   94TCq2    H3 1444   4.692   1.844  14.028 -0.8675  1.2203 -0.2354
   94TCq2    H4 1445   0.121   1.502  13.823 -0.7720  0.1090  1.5682
   95TMC2    C1 1446   0.252   3.219  16.033 -1.0660  0.8475  0.6939
   95TMC2    C2 1447   0.147   3.301  16.026 -0.0835  0.1059 -0.2730
   95TMC2    C3 1448   0.045   3.284  16.114 -0.5486 -0.0521  0.3317
   95TMC2    C4 1449   0.269   3.138  16.136 -0.7048  0.3180 -0.0708
   95TMC2    C5 1450   0.165   3.118  16.232 -0.0349  0.1003  0.7588
   95TMC2    C6 1451   0.049   3.192  16.219 -0.7330  0.7606  0.3717
   95TMC2     C 1452   0.370   3.244  15.953 -0.0032  0.6342  0.0338
   95TMC2     O 1453   0.381   3.357  15.902  0.6119  0.2732  0.1965
   95TMC2     H 1454   0.136   3.358  15.934  2.5333  1.3491  0.1843
   95TMC2    H1 1455   0.358   3.077  16.147 -3.0104 -3.0866 -0.2185
   95TMC2    H2 1456   4.681   3.166  16.271 -0.7649  1.2673  0.5754
   95TMC2    C7 1457   0.201   3.037  16.353 -0.1902  0.4562 -0.0698
   95TMC2    C8 1458   4.657   3.367  16.085 -0.3586  0.0173 -0.5276
   95TMC2    O1 1459   0.306   2.975  16.352  0.5941  0.2792 -0.2411
   95TMC2    O2 1460   4.649   3.428  15.980 -0.2015 -0.1775  0.7219
   95TMC2    O5 1461   4.636   3.412  16.206 -0.2106  0.1623  0.0853
   95TMC2    H5 1462   4.675   3.374  16.288 -0.3493 -2.9407 -1.2593
   96MPD2     C 1463   0.773   3.104  15.671  0.1395  0.6757  0.4926
   96MPD2    C1 1464   0.730   3.226  15.703  0.3087 -0.1954  0.6525
   96MPD2    C2 1465   0.634   3.240  15.804 -0.0245  0.4723 -0.3236
   96MPD2    C3 1466   0.568   3.125  15.859  0.4361  0.0819  0.1247
   96MPD2    C4 1467   0.615   2.996  15.826  0.2240  0.6428  0.8694
   96MPD2    C5 1468   0.720   2.995  15.729  0.2657  0.1613 -0.0039
   96MPD2     H 1469   0.595   3.338  15.831  1.0811  0.3908  1.5517
   96MPD2    H1 1470   0.581   2.904  15.872 -1.0931 -0.1165 -1.6087
   96MPD2    H2 1471   0.852   3.077  15.602 -1.2758 -1.3522 -0.3023
   96MPD2    H3 1472   0.762   2.897  15.714  0.0199  0.4580 -2.7645
   96MPD2     N 1473   0.453   3.137  15.946  0.0919 -0.2794  0.3489
   96MPD2    H5 1474   0.424   3.044  15.973  1.9024 -1.2256 -0.9408
   96MPD2    N1 1475   0.799   3.338  15.648 -0.5338  0.2295 -0.1915
   96MPD2    H7 1476   0.870   3.309  15.582 -0.6748 -0.8245  0.1188
   97MPD2     C 1477   1.639   0.548   0.637 -0.3673 -0.1054  0.7562
   97MPD2    C1 1478   1.668   0.684   0.646 -0.0440 -0.3633 -0.4070
   97MPD2    C2 1479   1.700   0.753   0.535 -0.0430  0.2357 -0.3212
   97MPD2    C3 1480   1.719   0.689   0.408 -0.5403 -0.0096  0.0268
   97MPD2    C4 1481   1.680   0.552   0.403 -0.0008  0.8764  0.1686
   97MPD2    C5 1482   1.637   0.484   0.512  0.5214 -0.2035 -0.2127
   97MPD2     H 1483   1.702   0.861   0.532 -0.0327  0.2780  1.2816
   97MPD2    H1 1484   1.675   0.496   0.310  0.0936  0.1205  0.6226
   97MPD2    H2 1485   1.613   0.482   0.719  0.5775 -1.9716 -0.4667
   97MPD2    H3 1486   1.617   0.377   0.503 -0.7468  0.0425 -0.3802
   97MPD2     N 1487   1.759   0.750   0.292  0.0740  0.0640  0.5075
   97MPD2    H5 1488   1.760   0.688   0.211  2.3815 -1.0173  1.3456
   97MPD2    N1 1489   1.669   0.740   0.777  0.6384 -0.7140 -0.3902
   97MPD2    H7 1490   1.622   0.686   0.849 -0.7937 -0.0178 -0.7989
   98TCq2    C1 1491   1.821   0.872   0.279 -0.6078  0.7633  0.0305
   98TCq2    O2 1492   1.872   0.941   0.363  0.1224 -0.3314  0.1963
   98TCq2    C2 1493   1.846   0.907   0.135  0.2077 -0.3093 -0.6844
   98TCq2    C3 1494   1.761   0.862   0.037 -0.2769  0.2448  0.1183
   98TCq2    C4 1495   1.789   0.905  17.603  0.0521  0.1178  0.2348
   98TCq2    C5 1496   1.889   0.989  17.573 -0.2324 -0.0528  0.2009
   98TCq2    C6 1497   1.966   1.035  17.672 -0.3189 -1.0610  0.1406
   98TCq2    C7 1498   1.943   0.994   0.106 -0.1920 -0.1180 -0.3876
   98TCq2    C8 1499   2.090   1.106  17.649  0.1665  0.2305  0.2360
   98TCq2    O4 1500   2.162   1.113   0.054 -0.3328  0.2708 -0.0202
   98TCq2    C9 1501   1.707   0.850  17.495 -0.3596  0.2546 -0.0478
   98TCq2    O5 1502   1.741   0.875  17.378  0.3895 -0.2318  0.0782
   98TCq2    O6 1503   1.610   0.776  17.533  0.0485 -0.1757  0.0836
   98TCq2    H2 1504   1.684   0.789   0.058  0.3280 -0.5358 -0.3583
   98TCq2    H3 1505   1.898   1.013  17.468 -0.2355 -0.0410  0.2033
   98TCq2    H4 1506   2.010   1.018   0.188  0.6138  0.1180 -1.1118
   99MPD2     C 1507   1.154   3.556   2.118 -0.2554 -1.1175 -0.6944
   99MPD2    C1 1508   1.170   3.433   2.053  0.6388 -0.5602 -0.6158
   99MPD2    C2 1509   1.287   3.411   1.984  0.0185  0.3190  0.0567
   99MPD2    C3 1510   1.389   3.503   1.980  0.0805 -0.1174 -0.4105
   99MPD2    C4 1511   1.369   3.626   2.041  0.6727 -0.0534 -0.0613
   99MPD2    C5 1512   1.253   3.648   2.113 -0.1110 -0.0729 -0.2973
   99MPD2     H 1513   1.300   3.322   1.923  0.5006  0.3885  0.0547
   99MPD2    H1 1514   1.452   3.696   2.044  1.6758 -1.1733 -1.9220
   99MPD2    H2 1515   1.067   3.600   2.164  0.0032  0.0774 -1.3512
   99MPD2    H3 1516   1.245   3.740   2.170 -0.9797  0.7208 -1.7084
   99MPD2     N 1517   1.507   3.458   1.927 -0.4481  0.4199  0.3999
   99MPD2    H5 1518   1.514   3.363   1.891 -1.7039 -0.2389  1.8619
   99MPD2    N1 1519   1.070   3.327   2.040 -0.0545  0.1585  0.4923
   99MPD2    H7 1520   1.086   3.250   1.975  1.1374 -0.2798  1.2900
  100TCq2    C1 1521   0.945   3.338   2.098  0.3023 -0.6810 -0.6561
  100TCq2    O2 1522   0.902   3.415   2.184 -0.3348 -0.1962  0.3695
  100TCq2    C2 1523   0.846   3.273   2.027  0.0947  0.4035  0.1909
  100TCq2    C3 1524   0.856   3.262   1.890 -0.3928 -0.6097 -0.3478
  100TCq2    C4 1525   0.776   3.167   1.833 -0.2462 -0.2799  0.7185
  100TCq2    C5 1526   0.690   3.084   1.900  0.1989  0.0064  0.6866
  100TCq2    C6 1527   0.679   3.109   2.038 -0.4688 -0.0673  0.1150
  100TCq2    C7 1528   0.761   3.200   2.110  0.3596  0.1012 -0.5584
  100TCq2    C8 1529   0.582   3.042   2.129  0.1739 -0.2007 -0.2650
  100TCq2    O4 1530   0.579   3.067   2.248 -0.3206 -1.1766  0.5225
  100TCq2    C9 1531   0.772   3.158   1.689  0.1906 -0.0754 -0.4907
  100TCq2    O5 1532   0.866   3.219   1.634 -0.3170  0.2772  0.1367
  100TCq2    O6 1533   0.690   3.082   1.634  0.1152 -0.4604 -0.1779
  100TCq2    H2 1534   0.916   3.337   1.839 -0.0365  1.4401  3.1589
  100TCq2    H3 1535   0.631   3.007   1.850  0.2423  0.3368  0.1332
  100TCq2    H4 1536   0.746   3.228   2.214 -1.1655  0.8215 -0.9723
  101MPD2     C 1537   1.978   4.157  12.739 -0.5232  0.1242  0.2293
  101MPD2    C1 1538   1.891   4.242  12.802 -0.1695 -0.7367  0.0161
  101MPD2    C2 1539   1.798   4.197  12.896 -0.1765  0.3913 -0.6731
  101MPD2    C3 1540   1.802   4.066  12.941  0.5406 -0.5125 -0.1018
  101MPD2    C4 1541   1.891   3.984  12.881 -1.0634  0.0686 -0.1872
  101MPD2    C5 1542   1.978   4.026  12.784  0.4312  0.4134  0.3606
  101MPD2     H 1543   1.724   4.259  12.944  1.5771 -0.4568  3.1616
  101MPD2    H1 1544   1.896   3.877  12.899 -1.3262 -0.0551 -0.8426
  101MPD2    H2 1545   2.040   4.186  12.656 -1.0141  1.6097  0.3719
  101MPD2    H3 1546   2.043   3.957  12.732 -1.3692 -1.8754  1.1527
  101MPD2     N 1547   1.713   4.019  13.038 -0.1536 -0.3970  0.5233
  101MPD2    H5 1548   1.655   4.089  13.082  2.0619  1.7037  0.0889
  101MPD2    N1 1549   1.902   4.374  12.757 -0.1384 -0.1998  1.3946
  101MPD2    H7 1550   1.962   4.396  12.679 -2.5526  1.3760 -0.0403
  102TCq2    C1 1551   2.118   0.044  12.545 -0.0174  0.0750 -0.0923
  102TCq2    O2 1552   2.214   4.702  12.583  0.2751 -0.5254 -0.6108
  102TCq2    C2 1553   1.992   0.020  12.615 -0.1461  0.3062  0.3441
  102TCq2    C3 1554   1.876   0.090  12.580 -0.3892 -0.1450 -0.5737
  102TCq2    C4 1555   1.762   0.073  12.657  0.4865  0.2541 -0.1776
  102TCq2    C5 1556   1.756   4.684  12.731 -0.2504  0.3381 -0.3088
  102TCq2    C6 1557   1.868   4.606  12.752 -0.1343 -0.1146  0.1045
  102TCq2    C7 1558   1.990   4.632  12.699 -0.1399  0.1632  0.1439
  102TCq2    C8 1559   1.834   4.483  12.816  0.0823  0.8181 -0.1073
  102TCq2    O4 1560   1.747   4.485  12.900 -0.2467  0.5235 -0.2286
  102TCq2    C9 1561   1.646   0.158  12.642  0.4452 -0.5489 -0.2247
  102TCq2    O5 1562   1.536   0.102  12.672 -0.0396 -0.4231 -0.8870
  102TCq2    O6 1563   1.670   0.281  12.629 -0.1084  0.4490  0.2163
  102TCq2    H2 1564   1.872   0.174  12.512  0.5970  0.5620  0.2427
  102TCq2    H3 1565   1.662   4.656  12.779 -0.1691  0.7453  0.0921
  102TCq2    H4 1566   2.079   4.573  12.716  0.4571  1.3228  0.9952
  103TMC2    C1 1567   0.186   4.366  12.721  0.0168 -0.1727 -0.3374
  103TMC2    C2 1568   0.314   4.419  12.738 -0.2706 -1.0015  0.1479
  103TMC2    C3 1569   0.349   4.462  12.862  0.5247 -0.0341 -0.3271
  103TMC2    C4 1570   0.093   4.376  12.818 -1.2603  0.3679  1.1371
  103TMC2    C5 1571   0.134   4.427  12.945  0.2055  0.3479 -0.2925
  103TMC2    C6 1572   0.261   4.462  12.967 -0.5365 -0.3007 -0.0488
  103TMC2     C 1573   0.158   4.272  12.611  0.2303 -0.0390  0.1718
  103TMC2     O 1574   0.044   4.288  12.562  0.0566 -0.4184  0.0241
  103TMC2     H 1575   0.390   4.412  12.661  0.2964 -0.4002  0.6580
  103TMC2    H1 1576   0.002   4.321  12.799  0.1396 -1.3832 -0.4961
  103TMC2    H2 1577   0.302   4.492  13.063 -0.3240 -2.8774  0.6578
  103TMC2    C7 1578   0.060   4.381  13.065 -0.0583 -0.2440  0.7262
  103TMC2    C8 1579   0.491   4.473  12.886 -0.0606  0.1999 -0.2579
  103TMC2    O1 1580   0.117   4.380  13.171 -0.2210 -0.1324 -0.2107
  103TMC2    O2 1581   0.577   4.394  12.847  0.1742 -0.9762 -0.0771
  103TMC2    O5 1582   0.501   4.603  12.915 -0.0824 -0.1234  0.0872
  103TMC2    H5 1583   0.421   4.657  12.897  0.2349  0.2542 -0.1811
  104MPD2     C 1584   0.298   3.931  12.597 -0.1935  0.3383 -0.4284
  104MPD2    C1 1585   0.217   4.033  12.553 -0.3690 -0.5697 -0.0299
  104MPD2    C2 1586   0.119   4.009  12.458  0.0917 -0.8694 -0.1207
  104MPD2    C3 1587   0.102   3.880  12.410  0.1605 -0.3263 -0.1086
  104MPD2    C4 1588   0.187   3.779  12.443 -0.2745 -0.1689  0.0174
  104MPD2    C5 1589   0.282   3.802  12.538  0.2830  0.1796  0.6918
  104MPD2     H 1590   0.059   4.093  12.425 -0.6502 -1.0469  0.8008
  104MPD2    H1 1591   0.181   3.681  12.397  0.8518 -0.5173  0.6263
  104MPD2    H2 1592   0.383   3.938  12.663 -1.6204  1.3391  1.2924
  104MPD2    H3 1593   0.359   3.729  12.559 -0.8059 -0.6479  1.7579
  104MPD2     N 1594   4.705   3.853  12.329 -0.4381  0.3888 -0.7236
  104MPD2    H5 1595   4.648   3.936  12.310  0.2178  1.4159  1.8297
  104MPD2    N1 1596   0.239   4.165  12.610  0.4885  0.6379 -0.0650
  104MPD2    H7 1597   0.306   4.169  12.687 -0.0630  0.8070  0.3999
  105MPD2     C 1598   1.830   3.240  17.459 -0.7697 -0.7596 -0.5039
  105MPD2    C1 1599   1.692   3.255  17.434 -0.5075  0.0824  0.5952
  105MPD2    C2 1600   1.605   3.274  17.539 -0.0296 -0.5300  0.4160
  105MPD2    C3 1601   1.652   3.270  17.669 -0.7674 -0.8296 -0.3545
  105MPD2    C4 1602   1.785   3.239  17.691  0.7249  0.3449  0.3439
  105MPD2    C5 1603   1.874   3.222  17.586 -0.4978 -0.0329  0.1075
  105MPD2     H 1604   1.499   3.292  17.522  0.5472  1.2987 -1.2739
  105MPD2    H1 1605   1.827   3.232   0.094  0.3427  0.1281  0.4889
  105MPD2    H2 1606   1.905   3.260  17.384  1.5798 -1.8774  1.5476
  105MPD2    H3 1607   1.979   3.223  17.614 -1.0165 -2.5694  2.2560
  105MPD2     N 1608   1.551   3.294   0.076 -0.2961 -0.2432  0.7403
  105MPD2    H5 1609   1.465   3.331   0.036  0.3412  2.0194  1.4879
  105MPD2    N1 1610   1.633   3.266  17.303  0.4952  0.3150  0.5517
  105MPD2    H7 1611   1.533   3.279  17.296  0.8902  2.2536 -1.3578
  106TCq2    C1 1612   1.562   3.267   0.209 -0.1446  0.2192 -0.4126
  106TCq2    O2 1613   1.658   3.218   0.268 -0.2401  0.5081  0.7114
  106TCq2    C2 1614   1.441   3.312   0.271  0.2789 -0.1383 -0.3372
  106TCq2    C3 1615   1.347   3.380   0.202 -0.3078 -0.1099 -0.4446
  106TCq2    C4 1616   1.245   3.448   0.271  0.1758 -0.3816 -0.3689
  106TCq2    C5 1617   1.237   3.450   0.409 -0.1553  0.4289  0.8525
  106TCq2    C6 1618   1.346   3.391   0.474  0.1685  0.3814 -1.0133
  106TCq2    C7 1619   1.441   3.316   0.407  0.6674 -0.2940  0.4842
  106TCq2    C8 1620   1.330   3.353   0.618  0.2252 -0.3127 -0.5526
  106TCq2    O4 1621   1.428   3.315   0.681 -0.1854 -0.3017  0.3221
  106TCq2    C9 1622   1.134   3.510   0.199  0.1159  0.4443  0.2142
  106TCq2    O5 1623   1.044   3.572   0.267 -0.0927 -0.2438 -0.2829
  106TCq2    O6 1624   1.139   3.499   0.074  0.2709  0.0096  0.9889
  106TCq2    H2 1625   1.340   3.385   0.094  0.2911  4.5988 -0.3030
  106TCq2    H3 1626   1.153   3.501   0.456  0.1311  2.0292 -0.3673
  106TCq2    H4 1627   1.513   3.257   0.462 -0.0053 -0.7514  0.8627
  107TMC2    C1 1628   2.202   3.176  11.785 -0.6740 -0.2769  0.4563
  107TMC2    C2 1629   2.173   3.246  11.670 -0.1287  0.2102 -0.2171
  107TMC2    C3 1630   2.267   3.239  11.575 -0.0402  0.0416  0.5370
  107TMC2    C4 1631   2.305   3.084  11.786  1.2671  0.5731 -0.2594
  107TMC2    C5 1632   2.394   3.073  11.681  0.6308  0.3072 -0.6892
  107TMC2    C6 1633   2.383   3.167  11.583 -1.3346  0.6591 -0.1217
  107TMC2     C 1634   2.135   3.202  11.908  0.3792 -0.1563 -0.4201
  107TMC2     O 1635   2.116   3.109  11.983  0.3712  0.2438  0.4340
  107TMC2     H 1636   2.087   3.312  11.660  0.9343  2.0437  2.6817
  107TMC2    H1 1637   2.314   3.027  11.877  0.3722  1.2727  0.2743
  107TMC2    H2 1638   2.462   3.177  11.510 -0.1268 -0.8630  0.9547
  107TMC2    C7 1639   2.505   2.979  11.695  0.2370  0.7864  0.9541
  107TMC2    C8 1640   2.262   3.347  11.475  0.1030 -0.4614 -1.0789
  107TMC2    O1 1641   2.496   2.904  11.790 -0.4439  0.0285  0.8262
  107TMC2    O2 1642   2.200   3.450  11.484  0.4201 -0.1339  0.3130
  107TMC2    O5 1643   2.309   3.296  11.359  0.1157 -0.4092  0.6565
  107TMC2    H5 1644   2.340   3.203  11.367 -0.4943 -0.6537  0.1463
  108MPD2     C 1645   1.977   3.513  12.008  0.6367 -0.0716  0.1007
  108MPD2    C1 1646   2.013   3.383  12.018 -0.8516  0.9208 -0.4014
  108MPD2    C2 1647   1.973   3.314  12.131  0.1359  0.6782 -0.1174
  108MPD2    C3 1648   1.886   3.367  12.223  0.4135  0.5170 -0.9517
  108MPD2    C4 1649   1.837   3.494  12.197  0.0024  0.1214 -0.2113
  108MPD2    C5 1650   1.893   3.572  12.102  0.2765 -0.3683  1.2344
  108MPD2     H 1651   1.995   3.209  12.144 -1.2431  0.2747 -1.0098
  108MPD2    H1 1652   1.760   3.538  12.260 -1.1529  0.5692 -1.9353
  108MPD2    H2 1653   2.019   3.578  11.932  1.1154  0.3723  0.7537
  108MPD2    H3 1654   1.855   3.672  12.088  2.2138  0.2421  0.4415
  108MPD2     N 1655   1.823   3.295  12.327 -0.5516 -0.3167 -0.3121
  108MPD2    H5 1656   1.761   3.348  12.387  0.1361  0.2468 -0.0998
  108MPD2    N1 1657   2.095   3.333  11.914  0.6038 -0.0386 -0.6513
  108MPD2    H7 1658   2.135   3.398  11.848 -0.1337 -0.1162 -1.1776
  109MPD2     C 1659   1.270   4.460   2.140 -1.1799 -0.0866 -0.0416
  109MPD2    C1 1660   1.302   4.498   2.015  0.4369  0.0932 -0.1098
  109MPD2    C2 1661   1.328   4.626   1.982  0.5176 -0.1466  0.7460
  109MPD2    C3 1662   1.328   4.723   2.082 -0.3843  0.2179  0.4350
  109MPD2    C4 1663   1.293   4.685   2.211  0.1769  0.4794  0.3066
  109MPD2    C5 1664   1.263   4.551   2.238 -0.1472 -0.0271  0.4088
  109MPD2     H 1665   1.324   4.664   1.881  1.7266 -2.1687 -0.0621
  109MPD2    H1 1666   1.304   0.024   2.299  0.1594  2.9610 -1.4583
  109MPD2    H2 1667   1.256   4.354   2.159  0.1553 -0.0795  0.9679
  109MPD2    H3 1668   1.248   4.509   2.337  0.5802  0.2728  0.6408
  109MPD2     N 1669   1.369   0.134   2.046  0.1206  0.2871 -0.1626
  109MPD2    H5 1670   1.395   0.155   1.950  0.2959 -2.3463 -0.6890
  109MPD2    N1 1671   1.311   4.395   1.918  0.1158 -0.0557  0.1155
  109MPD2    H7 1672   1.281   4.305   1.953 -0.9790  1.0921  2.1187
  110TCq2    C1 1673   1.380   0.240   2.135  0.6440 -1.1220 -0.2232
  110TCq2    O2 1674   1.342   0.246   2.252 -0.1623 -0.1833 -0.0627
  110TCq2    C2 1675   1.434   0.366   2.077  0.2508 -0.0030 -0.5448
  110TCq2    C3 1676   1.462   0.480   2.158 -0.4202 -0.7945  0.4837
  110TCq2    C4 1677   1.513   0.595   2.101 -0.8844  0.1146 -0.5682
  110TCq2    C5 1678   1.533   0.604   1.969  0.1032 -0.2736  0.2202
  110TCq2    C6 1679   1.505   0.497   1.892 -0.3258  0.1842  0.5105
  110TCq2    C7 1680   1.457   0.380   1.941  0.3097 -0.2040 -0.1328
  110TCq2    C8 1681   1.526   0.520   1.751  0.1831 -0.7960  0.3508
  110TCq2    O4 1682   1.593   0.616   1.723 -0.3062 -0.1951  0.4800
  110TCq2    C9 1683   1.524   0.712   2.186 -0.3480  0.4439  0.0076
  110TCq2    O5 1684   1.593   0.805   2.144 -0.0302 -0.1268  0.0240
  110TCq2    O6 1685   1.475   0.720   2.303 -0.5610 -0.4278 -0.2568
  110TCq2    H2 1686   1.433   0.489   2.262 -1.1617  0.8920  0.1334
  110TCq2    H3 1687   1.578   0.694   1.930  2.4414 -1.5201 -0.0308
  110TCq2    H4 1688   1.456   0.293   1.876  0.3832  0.5142 -1.0875
  111TMC2    C1 1689   2.817   0.612  11.295 -0.2831  0.4378 -0.2958
  111TMC2    C2 1690   2.827   0.525  11.189  0.5097 -0.4620 -0.3599
  111TMC2    C3 1691   2.899   0.412  11.205 -0.5291  0.1030  0.1198
  111TMC2    C4 1692   2.882   0.580  11.414  0.2872  0.4291  0.1531
  111TMC2    C5 1693   2.955   0.465  11.429 -0.1764  0.7773  0.0686
  111TMC2    C6 1694   2.965   0.378  11.326  0.2406  0.1159  0.4659
  111TMC2     C 1695   2.683   0.654  11.308  0.4260  0.1172  0.2430
  111TMC2     O 1696   2.628   0.689  11.207 -0.2582 -0.0292 -0.4079
  111TMC2     H 1697   2.758   0.535  11.105 -0.1238  1.0675  0.3431
  111TMC2    H1 1698   2.899   0.653  11.492 -2.2566 -1.6808  2.6500
  111TMC2    H2 1699   3.014   0.282  11.327  1.4189  0.7346  1.4048
  111TMC2    C7 1700   2.977   0.410  11.557 -0.1264  0.5805 -0.0317
  111TMC2    C8 1701   2.874   0.298  11.126  0.1844  0.2725  0.1983
  111TMC2    O1 1702   2.904   0.431  11.653 -0.0638  0.6341  0.8243
  111TMC2    O2 1703   2.882   0.180  11.156  0.0085  0.8656 -0.4109
  111TMC2    O5 1704   2.842   0.344  11.006  0.6230 -0.4848 -0.2343
  111TMC2    H5 1705   2.863   0.438  10.984 -0.8301  0.6128  2.9870
  112MPD2     C 1706   2.237   0.637  11.547  0.0002 -0.2248 -0.1501
  112MPD2    C1 1707   2.264   0.626  11.416  0.2991 -0.1566 -0.8042
  112MPD2    C2 1708   2.396   0.627  11.382 -0.6911  0.7232  0.1055
  112MPD2    C3 1709   2.499   0.646  11.472 -0.3878 -0.2087  0.7349
  112MPD2    C4 1710   2.465   0.658  11.604  0.2140  0.0488  0.3146
  112MPD2    C5 1711   2.336   0.657  11.637  0.3150  0.4365 -0.2636
  112MPD2     H 1712   2.401   0.625  11.274 -1.0580  2.3180  0.0571
  112MPD2    H1 1713   2.545   0.670  11.677 -0.2316  0.8400  0.6793
  112MPD2    H2 1714   2.136   0.633  11.587  0.3238 -2.5491  0.4241
  112MPD2    H3 1715   2.310   0.662  11.742 -1.6392 -0.7828 -0.6890
  112MPD2     N 1716   2.633   0.645  11.437 -0.4155 -0.1142  0.3012
  112MPD2    H5 1717   2.698   0.658  11.514 -1.9386  2.4531  1.1673
  112MPD2    N1 1718   2.167   0.602  11.312  0.4221  0.2349 -0.6426
  112MPD2    H7 1719   2.186   0.620  11.214 -1.2715  1.6909 -0.7016
  113MPD2     C 1720   0.287   2.514   1.512 -0.3616  0.6660 -0.1447
  113MPD2    C1 1721   0.166   2.571   1.500 -0.3750  0.1936 -0.1011
  113MPD2    C2 1722   0.074   2.534   1.405  0.7972  0.0156  0.4342
  113MPD2    C3 1723   0.102   2.444   1.306  0.6935  0.0852 -0.3975
  113MPD2    C4 1724   0.226   2.385   1.320  0.1243 -0.4996 -0.2101
  113MPD2    C5 1725   0.320   2.420   1.416 -0.7495  0.5052 -1.2075
  113MPD2     H 1726   4.701   2.581   1.394  0.5253 -0.5354  0.5020
  113MPD2    H1 1727   0.256   2.313   1.245  0.2316 -0.9152  0.2354
  113MPD2    H2 1728   0.358   2.545   1.588 -0.5271  2.2801 -0.6430
  113MPD2    H3 1729   0.424   2.396   1.398  0.3347  3.3762  1.3642
  113MPD2     N 1730   0.026   2.410   1.191 -0.8200 -0.4575  0.4383
  113MPD2    H5 1731   0.065   2.347   1.121  0.1980 -0.1278  0.7138
  113MPD2    N1 1732   0.120   2.675   1.585  0.0995  0.1188  0.2508
  113MPD2    H7 1733   0.034   2.723   1.562  0.1602 -0.1158 -0.4608
  114TCq2    C1 1734   4.613   2.422   1.194 -0.1124  0.2330 -0.0991
  114TCq2    O2 1735   4.530   2.456   1.274  0.0339 -0.4163  0.5391
  114TCq2    C2 1736   4.558   2.355   1.074 -0.3244  0.2502  0.5958
  114TCq2    C3 1737   4.621   2.368   0.958  1.0954 -0.4675 -0.7391
  114TCq2    C4 1738   4.571   2.302   0.850 -0.0673  0.3540  0.3450
  114TCq2    C5 1739   4.465   2.223   0.859  0.1627  0.1742 -0.2036
  114TCq2    C6 1740   4.420   2.192   0.987 -0.3343 -0.9494  0.1652
  114TCq2    C7 1741   4.458   2.269   1.094  0.0679 -0.0506 -1.0602
  114TCq2    C8 1742   4.328   2.078   1.003  0.5369 -0.7278  0.5498
  114TCq2    O4 1743   4.269   2.044   0.904 -0.0815 -0.3514  0.3689
  114TCq2    C9 1744   4.637   2.335   0.724  0.0957  0.0229 -0.1691
  114TCq2    O5 1745   0.032   2.388   0.734  0.3928 -0.3023 -0.1196
  114TCq2    O6 1746   4.589   2.284   0.618  0.1637  0.5380 -0.4865
  114TCq2    H2 1747   4.701   2.439   0.944 -0.8571  1.6654 -1.0419
  114TCq2    H3 1748   4.434   2.157   0.779 -0.9416 -0.1519  0.4942
  114TCq2    H4 1749   4.418   2.250   1.193  2.1220  1.4197  0.0591
  115TMC2    C1 1750   0.692   1.013   0.113  0.1167 -0.0484  0.9910
  115TMC2    C2 1751   0.796   1.024   0.205 -0.2698  0.0927 -0.1404
  115TMC2    C3 1752   0.853   1.147   0.221  0.3684  0.6661 -0.0728
  115TMC2    C4 1753   0.655   1.118   0.029 -0.2273 -0.9044  0.3987
  115TMC2    C5 1754   0.724   1.239   0.051  0.0194  0.3847 -0.4260
  115TMC2    C6 1755   0.824   1.251   0.144 -0.1664 -0.0988 -0.5456
  115TMC2     C 1756   0.626   0.890   0.081 -0.1897 -0.1560  1.1098
  115TMC2     O 1757   0.572   0.879  17.671  0.2945 -0.4400 -0.1399
  115TMC2     H 1758   0.815   0.932   0.259 -0.1567  1.1074  1.5451
  115TMC2    H1 1759   0.585   1.115  17.643  0.2768 -3.4108  0.0569
  115TMC2    H2 1760   0.881   1.342   0.156  0.7248 -0.2763 -3.6025
  115TMC2    C7 1761   0.709   1.344  17.643  0.2287 -0.0079 -0.5356
  115TMC2    C8 1762   0.926   1.187   0.345  0.5477 -0.6194  0.0912
  115TMC2    O1 1763   0.594   1.363  17.607  0.1632 -1.1380  0.4856
  115TMC2    O2 1764   0.923   1.300   0.392 -0.1936 -0.0850 -0.5396
  115TMC2    O5 1765   0.987   1.085   0.399  0.1227  0.7491 -0.1893
  115TMC2    H5 1766   0.979   0.994   0.362  1.9198  0.1884  0.7534
  116MPD2     C 1767   0.668   0.381   0.147  0.6519  0.6532  0.8636
  116MPD2    C1 1768   0.621   0.446   0.037  0.0842  0.0714  0.3459
  116MPD2    C2 1769   0.624   0.584   0.047  0.5570 -0.5164  0.4492
  116MPD2    C3 1770   0.653   0.653   0.169  0.1904 -0.0232 -0.5222
  116MPD2    C4 1771   0.689   0.577   0.279 -1.0326 -0.0233  0.9904
  116MPD2    C5 1772   0.699   0.445   0.263 -0.4461 -0.1670 -0.4037
  116MPD2     H 1773   0.578   0.642  17.665  0.2855 -1.1431  0.1459
  116MPD2    H1 1774   0.725   0.630   0.367  4.0316  1.8886 -2.2237
  116MPD2    H2 1775   0.678   0.273   0.143 -3.4432  0.3763 -1.6854
  116MPD2    H3 1776   0.737   0.391   0.349  0.4155 -0.0692 -0.7252
  116MPD2     N 1777   0.653   0.796   0.179 -0.9936  0.2479 -0.1480
  116MPD2    H5 1778   0.673   0.839   0.268  0.2057 -0.2566 -0.1750
  116MPD2    N1 1779   0.578   0.387  17.614 -0.4473  0.3574 -0.3245
  116MPD2    H7 1780   0.532   0.448  17.547  3.2273 -0.6978 -3.7777
  117TMC2    C1 1781   4.456   1.892  13.667  0.0307  0.0753  0.4989
  117TMC2    C2 1782   4.545   1.819  13.593  0.0153  0.1161  0.5758
  117TMC2    C3 1783   4.679   1.846  13.594 -0.1503 -0.2814  0.2032
  117TMC2    C4 1784   4.492   1.996  13.748 -0.1982  0.0487  0.1534
  117TMC2    C5 1785   4.631   2.014  13.749 -0.3794  0.0319 -0.1586
  117TMC2    C6 1786   0.004   1.944  13.674  0.1394 -0.1682  0.0785
  117TMC2     C 1787   4.323   1.886  13.610  0.3316  0.4365  0.2367
  117TMC2     O 1788   4.311   1.827  13.504  0.2376 -0.2149 -0.0467
  117TMC2     H 1789   4.511   1.736  13.532  3.4247 -2.0798  1.6518
  117TMC2    H1 1790   4.422   2.067  13.788 -2.1135 -1.7926  0.0844
  117TMC2    H2 1791   0.109   1.964  13.686 -0.1806  1.2180  0.4863
  117TMC2    C7 1792   4.682   2.108  13.848 -0.5008 -0.1915  0.2001
  117TMC2    C8 1793   0.052   1.756  13.536  0.1804  0.8288 -0.4272
  117TMC2    O1 1794   0.056   2.180  13.816  0.5548  0.2041 -0.0400
  117TMC2    O2 1795   0.172   1.776  13.541 -0.0341  0.0604 -0.3369
  117TMC2    O5 1796   4.716   1.665  13.457  0.1000  0.0020 -0.1480
  117TMC2    H5 1797   4.624   1.637  13.479  0.1269  0.2366  0.2803
  118MPD2     C 1798   4.622   2.178  14.198 -0.2373 -0.6425 -0.0316
  118MPD2    C1 1799   4.641   2.211  14.068 -0.1739 -0.4320  0.5193
  118MPD2    C2 1800   4.667   2.342  14.037 -0.7940  0.4633 -0.3567
  118MPD2    C3 1801   4.676   2.438  14.139  0.2195  1.2044  0.2470
  118MPD2    C4 1802   4.664   2.402  14.270  0.4745 -0.3884 -0.3114
  118MPD2    C5 1803   4.633   2.272  14.299 -0.0305 -0.8637  0.1723
  118MPD2     H 1804   4.678   2.379  13.936 -0.7304 -0.9704 -0.8672
  118MPD2    H1 1805   4.669   2.478  14.348 -3.8382 -0.1505 -0.3029
  118MPD2    H2 1806   4.599   2.077  14.229  1.3318 -0.2131  2.5705
  118MPD2    H3 1807   4.605   2.243  14.400 -1.1349 -0.9514 -0.1601
  118MPD2     N 1808   4.694   2.572  14.092 -0.1957  0.3102 -0.2119
  118MPD2    H5 1809   4.674   2.589  13.994  1.4625  2.2977 -0.1897
  118MPD2    N1 1810   4.621   2.109  13.971 -0.0424 -0.3818 -0.5745
  118MPD2    H7 1811   4.555   2.035  13.994 -0.1669 -0.7602 -2.1646
  119MPD2     C 1812   2.894   3.485  13.662 -0.4604  0.2005 -0.4733
  119MPD2    C1 1813   2.764   3.505  13.701  0.0617  0.1214 -0.0362
  119MPD2    C2 1814   2.686   3.564  13.604 -0.0048 -0.4250  0.0022
  119MPD2    C3 1815   2.724   3.583  13.470  0.0155  0.1054  0.8775
  119MPD2    C4 1816   2.854   3.563  13.432  0.3289 -0.0056  0.3527
  119MPD2    C5 1817   2.944   3.516  13.532  0.0053 -0.5640  0.4447
  119MPD2     H 1818   2.581   3.580  13.626 -0.3814 -1.3808 -1.1059
  119MPD2    H1 1819   2.897   3.571  13.333 -0.8038 -2.6647 -0.3618
  119MPD2    H2 1820   2.963   3.424  13.719  0.5352  0.4759 -1.3795
  119MPD2    H3 1821   3.049   3.503  13.511 -0.0060 -1.1986  0.7683
  119MPD2     N 1822   2.629   3.610  13.368 -0.3289  0.3817  0.7987
  119MPD2    H5 1823   2.667   3.596  13.275 -1.3037 -4.2879  1.1138
  119MPD2    N1 1824   2.717   3.459  13.826  0.5512 -0.3561  0.3577
  119MPD2    H7 1825   2.774   3.400  13.885 -1.1345 -0.5911  1.7549
  120TCq2    C1 1826   2.494   3.627  13.394  0.1515 -0.5134  0.2193
  120TCq2    O2 1827   2.440   3.677  13.493 -0.1101 -0.0462  0.0021
  120TCq2    C2 1828   2.415   3.603  13.274 -0.0194 -0.0990  0.9195
  120TCq2    C3 1829   2.468   3.574  13.153 -0.2367  0.2318 -0.9267
  120TCq2    C4 1830   2.406   3.481  13.073  0.3596  0.1487  0.1793
  120TCq2    C5 1831   2.294   3.418  13.121  0.9690  0.0897 -0.7678
  120TCq2    C6 1832   2.232   3.457  13.236  0.4721 -0.0083 -0.3233
  120TCq2    C7 1833   2.295   3.555  13.314  0.6315 -0.1937  0.1095
  120TCq2    C8 1834   2.113   3.383  13.278 -0.2368 -1.0280  0.4208
  120TCq2    O4 1835   2.065   3.313  13.188  0.2166 -0.3462  0.4306
  120TCq2    C9 1836   2.458   3.447  12.944 -0.0169  0.1680 -0.6137
  120TCq2    O5 1837   2.579   3.466  12.933 -0.4013 -0.3045 -0.5595
  120TCq2    O6 1838   2.378   3.402  12.856  0.3986  0.5897 -0.2041
  120TCq2    H2 1839   2.564   3.611  13.118  0.7683  0.0307  1.6737
  120TCq2    H3 1840   2.252   3.333  13.068  2.3911 -1.4146  0.5353
  120TCq2    H4 1841   2.247   3.587  13.406 -2.0452 -0.0838 -1.3043
  121TMC2    C1 1842   3.635   1.110  13.747 -0.0386 -0.5136  0.4041
  121TMC2    C2 1843   3.653   1.211  13.839 -0.0211 -0.2597 -0.8216
  121TMC2    C3 1844   3.683   1.183  13.969  0.3260  0.3218  0.8459
  121TMC2    C4 1845   3.642   0.979  13.788 -0.6496  0.6230  0.1008
  121TMC2    C5 1846   3.675   0.959  13.917  0.7713 -0.2486  0.4015
  121TMC2    C6 1847   3.695   1.053  14.011 -0.4681 -0.1756 -0.3655
  121TMC2     C 1848   3.641   1.137  13.607  0.4719 -0.5366 -0.2307
  121TMC2     O 1849   3.579   1.232  13.561  0.4149  0.4837 -0.5845
  121TMC2     H 1850   3.632   1.314  13.813 -0.7130 -0.2257 -0.1245
  121TMC2    H1 1851   3.618   0.906  13.711  0.8191 -0.1706  0.3982
  121TMC2    H2 1852   3.678   1.024  14.114  0.8393  0.6890  0.0863
  121TMC2    C7 1853   3.652   0.827  13.977 -0.5039 -0.0677  0.3612
  121TMC2    C8 1854   3.661   1.283  14.063 -0.5486 -0.3981  0.7850
  121TMC2    O1 1855   3.729   0.791  14.067  0.4377 -0.1369  0.7146
  121TMC2    O2 1856   3.574   1.270  14.149 -0.6257 -0.4888 -0.2746
  121TMC2    O5 1857   3.686   1.408  14.013  0.3932 -0.2810 -0.5489
  121TMC2    H5 1858   3.746   1.400  13.935  1.5903  0.6834  0.2856
  122MPD2     C 1859   3.695   1.115  13.317 -0.7399 -0.2050 -0.0741
  122MPD2    C1 1860   3.765   1.037  13.408 -0.2062  0.3206  0.4760
  122MPD2    C2 1861   3.865   0.947  13.354 -0.0407  0.5210  0.4575
  122MPD2    C3 1862   3.877   0.933  13.216 -0.0092  0.2486 -0.1411
  122MPD2    C4 1863   3.796   1.006  13.131 -0.1535  0.6225 -0.2260
  122MPD2    C5 1864   3.719   1.110  13.181 -0.5991 -0.0145  0.0732
  122MPD2     H 1865   3.907   0.878  13.427  0.0301  0.1963  0.1089
  122MPD2    H1 1866   3.807   1.004  13.023  0.6314  1.7309 -0.1606
  122MPD2    H2 1867   3.613   1.183  13.338 -0.1360  0.2323  0.8664
  122MPD2    H3 1868   3.675   1.179  13.111  1.1311 -0.2638 -1.2700
  122MPD2     N 1869   3.978   0.851  13.159 -0.2404  0.7673 -0.5702
  122MPD2    H5 1870   3.978   0.840  13.058 -1.0687  2.7140 -0.7710
  122MPD2    N1 1871   3.738   1.053  13.548  0.5326  0.1340  0.0419
  122MPD2    H7 1872   3.800   1.004  13.612  0.9546 -1.9793 -2.0017
  123MPD2     C 1873   2.855   3.579  10.445  0.7498  0.5347 -0.6579
  123MPD2    C1 1874   2.826   3.621  10.317  0.3668  0.5521  0.1351
  123MPD2    C2 1875   2.834   3.757  10.295  0.3250  0.3822  0.5085
  123MPD2    C3 1876   2.864   3.848  10.388  0.8066 -0.1905 -0.2410
  123MPD2    C4 1877   2.883   3.812  10.518  0.6260 -0.5284  0.1980
  123MPD2    C5 1878   2.874   3.679  10.546  0.2930  0.1392 -0.4384
  123MPD2     H 1879   2.824   3.789  10.192 -0.5382  0.1492  0.5142
  123MPD2    H1 1880   2.909   3.881  10.598  3.2732  0.5889 -1.6343
  123MPD2    H2 1881   2.838   3.477  10.476  1.0166  0.5971 -0.3092
  123MPD2    H3 1882   2.878   3.646  10.649 -2.3317  0.4305 -0.2505
  123MPD2     N 1883   2.860   3.984  10.347 -0.5548  0.1835  0.4879
  123MPD2    H5 1884   2.836   4.004  10.251  1.1813 -2.1488 -0.4159
  123MPD2    N1 1885   2.775   3.519  10.229  0.3594  0.4424  0.4885
  123MPD2    H7 1886   2.769   3.426  10.271  1.6478 -0.1611 -0.6972
  124TCq2    C1 1887   2.890   4.104  10.415 -0.2939  0.5066 -0.5045
  124TCq2    O2 1888   2.950   4.123  10.525  0.2923 -0.7461 -0.5987
  124TCq2    C2 1889   2.837   4.221  10.345  0.3519  0.5520 -0.3678
  124TCq2    C3 1890   2.927   4.328  10.347  0.4864  0.4020  0.0920
  124TCq2    C4 1891   2.903   4.422  10.257  0.4270 -0.7220 -0.5016
  124TCq2    C5 1892   2.818   4.403  10.153  0.4305 -0.0674  0.9969
  124TCq2    C6 1893   2.739   4.290  10.147  0.0282  0.2064 -0.9082
  124TCq2    C7 1894   2.743   4.205  10.253 -0.3017 -0.0874  0.3866
  124TCq2    C8 1895   2.648   4.246  10.040  0.3207 -0.6022 -0.0731
  124TCq2    O4 1896   2.611   4.128  10.055  0.2174  0.5212  0.2645
  124TCq2    C9 1897   2.981   4.545  10.246  0.4013 -0.1389 -0.1823
  124TCq2    O5 1898   2.988   4.615  10.350 -0.0463 -0.5858 -0.4271
  124TCq2    O6 1899   3.008   4.586  10.129  0.8716  0.3795  0.0833
  124TCq2    H2 1900   3.002   4.336  10.425 -1.6942  1.9462  2.0322
  124TCq2    H3 1901   2.826   4.470  10.069 -1.7859  1.8469  2.3086
  124TCq2    H4 1902   2.668   4.128  10.265 -0.5140 -0.3225 -2.4034
  125TMC2    C1 1903   3.660   1.349   9.507 -0.1808  0.4699 -0.1213
  125TMC2    C2 1904   3.710   1.465   9.455 -0.2658 -0.0038  0.2191
  125TMC2    C3 1905   3.801   1.449   9.352  0.3261 -0.0995 -0.2763
  125TMC2    C4 1906   3.700   1.224   9.463 -0.1543  0.3398 -0.3867
  125TMC2    C5 1907   3.796   1.206   9.366 -0.2310 -0.3665 -0.1515
  125TMC2    C6 1908   3.848   1.324   9.311 -0.1755 -0.1829  0.0728
  125TMC2     C 1909   3.563   1.358   9.613  0.5200 -0.2747  0.1221
  125TMC2     O 1910   3.548   1.251   9.671 -0.0252  0.2768 -0.6523
  125TMC2     H 1911   3.687   1.566   9.487 -2.7793 -1.2773  2.3405
  125TMC2    H1 1912   3.653   1.132   9.495 -0.0159  0.0646 -0.9673
  125TMC2    H2 1913   3.930   1.326   9.241  1.7264  1.6283  2.3713
  125TMC2    C7 1914   3.844   1.076   9.340  0.7572  0.3243 -0.2038
  125TMC2    C8 1915   3.851   1.571   9.295 -0.2904  0.3304 -0.4284
  125TMC2    O1 1916   3.820   0.994   9.428 -0.2661  0.1630 -0.5224
  125TMC2    O2 1917   3.947   1.560   9.215 -0.1334 -0.1863  0.1337
  125TMC2    O5 1918   3.733   1.613   9.245  0.1434  0.4090  0.0197
  125TMC2    H5 1919   3.652   1.591   9.295 -0.0649 -4.2461 -2.3839
  126MPD1     C 1920   3.119   1.538   9.807  0.2938 -0.2487 -0.2900
  126MPD1    C1 1921   3.146   1.616   9.696  0.1916  0.7414 -0.1071
  126MPD1    C2 1922   3.271   1.593   9.631  1.3044 -0.5638  0.4421
  126MPD1    C3 1923   3.363   1.496   9.670  1.0695 -0.0880  0.4620
  126MPD1    C4 1924   3.333   1.429   9.781  0.1778 -0.0932  0.2140
  126MPD1    C5 1925   3.213   1.448   9.847  0.4500  0.3471  0.3720
  126MPD1     H 1926   3.304   1.646   9.543  0.8630  1.9763  1.8183
  126MPD1    H1 1927   3.393   1.349   9.822  1.7760  0.2279 -1.5240
  126MPD1    H2 1928   3.019   1.531   9.849  0.3361  3.4110  0.3998
  126MPD1    H3 1929   3.203   1.384   9.935  0.1577  0.9624  0.7816
  126MPD1     N 1930   3.479   1.466   9.597 -0.0244  0.0196 -0.2709
  126MPD1    H5 1931   3.501   1.509   9.508 -1.3720  0.7156 -0.2566
  126MPD1    N1 1932   3.043   1.699   9.643 -0.0230 -0.2203 -0.3355
  126MPD1    H6 1933   3.077   1.768   9.576 -0.4911  0.5345  0.2098
  126MPD1    H7 1934   2.988   1.738   9.719  0.5777  0.4441 -0.2434
  127MPD2     C 1935   0.414   4.216   9.076 -0.6647  0.0370  0.4408
  127MPD2    C1 1936   0.472   4.220   9.203  0.0180  0.2029 -0.0398
  127MPD2    C2 1937   0.477   4.341   9.276  0.0888 -0.3125 -0.3963
  127MPD2    C3 1938   0.418   4.455   9.219 -0.1682  0.1401  0.3149
  127MPD2    C4 1939   0.357   4.452   9.095 -0.7271 -0.6088  1.1169
  127MPD2    C5 1940   0.365   4.333   9.026 -0.0370 -0.3016 -0.2297
  127MPD2     H 1941   0.530   4.351   9.370 -0.1605 -1.4235 -0.1350
  127MPD2    H1 1942   0.327   4.537   9.036 -0.0109 -1.4993 -0.5267
  127MPD2    H2 1943   0.416   4.130   9.010  1.8974 -0.6724  1.4503
  127MPD2    H3 1944   0.325   4.337   8.926 -0.0083 -2.5483 -0.3420
  127MPD2     N 1945   0.429   4.577   9.293  0.0568  0.3011 -0.4847
  127MPD2    H5 1946   0.493   4.571   9.372 -0.0235  0.4622 -0.4083
  127MPD2    N1 1947   0.515   4.097   9.254 -0.2207 -0.1016  0.5305
  127MPD2    H7 1948   0.506   4.015   9.196  0.1048 -0.4314  0.9418
  128TCq2    C1 1949   0.529   4.067   9.383  0.9812 -0.8769  0.0108
  128TCq2    O2 1950   0.513   4.130   9.487  0.4934 -0.1234 -0.7785
  128TCq2    C2 1951   0.578   3.929   9.395 -0.4886  0.3421 -1.0813
  128TCq2    C3 1952   0.641   3.863   9.294  0.3091  0.1272 -0.1649
  128TCq2    C4 1953   0.709   3.752   9.328  0.4057  0.4263 -0.2082
  128TCq2    C5 1954   0.695   3.693   9.450  0.0116 -0.0807  0.0386
  128TCq2    C6 1955   0.620   3.753   9.543  0.1118  0.1355 -0.5985
  128TCq2    C7 1956   0.568   3.877   9.521  0.5723  0.1273  0.1866
  128TCq2    C8 1957   0.643   3.701   9.679 -0.2388  0.0072  0.1087
  128TCq2    O4 1958   0.752   3.650   9.714  0.5146 -0.6807 -0.2380
  128TCq2    C9 1959   0.787   3.686   9.225  0.8366  0.3543  0.6000
  128TCq2    O5 1960   0.814   3.748   9.116  0.1093  0.0620 -0.9699
  128TCq2    O6 1961   0.826   3.572   9.262  0.4266  0.3320  0.1875
  128TCq2    H2 1962   0.654   3.910   9.197  1.7145  0.0292 -0.0244
  128TCq2    H3 1963   0.723   3.591   9.471 -2.0371 -0.9737 -1.5499
  128TCq2    H4 1964   0.521   3.934   9.600  0.0602  0.8923 -0.6718
  129MPD2     C 1965   1.745   0.337   1.278  0.1215  0.4068 -0.6485
  129MPD2    C1 1966   1.844   0.420   1.322  0.6099  0.1282  0.0516
  129MPD2    C2 1967   1.932   0.475   1.229  0.2017 -0.1153  0.6597
  129MPD2    C3 1968   1.916   0.469   1.099 -0.1686 -0.1757 -0.7021
  129MPD2    C4 1969   1.800   0.402   1.053 -0.0077  1.2618 -0.1564
  129MPD2    C5 1970   1.726   0.331   1.142  0.2965  0.2414  0.0570
  129MPD2     H 1971   2.016   0.533   1.266  0.2825  0.7610 -0.9096
  129MPD2    H1 1972   1.781   0.400   0.946  1.4185 -0.9451 -0.3650
  129MPD2    H2 1973   1.669   0.285   1.336  0.5951 -0.4813 -0.8346
  129MPD2    H3 1974   1.643   0.272   1.108  0.4407  0.5656 -0.8621
  129MPD2     N 1975   2.006   0.534   1.019  0.7101 -0.5964 -0.5223
  129MPD2    H5 1976   2.074   0.599   1.056  0.4345  0.0033 -1.0564
  129MPD2    N1 1977   1.865   0.428   1.460 -0.4548  0.4094 -0.1375
  129MPD2    H7 1978   1.931   0.500   1.489 -0.1987  0.3643 -0.6038
  130TCq2    C1 1979   1.795   0.355   1.565 -0.3836  0.5033  0.1820
  130TCq2    O2 1980   1.718   0.261   1.553  0.0173  0.4871 -0.3800
  130TCq2    C2 1981   1.853   0.391   1.697  0.0485 -0.8756 -0.3310
  130TCq2    C3 1982   1.975   0.454   1.721  0.3291 -0.2272  0.4440
  130TCq2    C4 1983   2.017   0.482   1.849 -0.1424 -0.3411 -0.1419
  130TCq2    C5 1984   1.946   0.432   1.953  0.3663  0.4975 -0.1323
  130TCq2    C6 1985   1.835   0.351   1.927 -0.8217 -0.1563  0.0881
  130TCq2    C7 1986   1.784   0.330   1.803 -0.4059 -0.0902  0.2859
  130TCq2    C8 1987   1.765   0.273   2.036 -0.0389 -0.0562  0.1416
  130TCq2    O4 1988   1.694   0.184   1.997  0.7043 -0.0309  0.7620
  130TCq2    C9 1989   2.147   0.545   1.879 -0.1792  0.1803 -0.6967
  130TCq2    O5 1990   2.180   0.545   2.000  0.0766  0.0942  0.3465
  130TCq2    O6 1991   2.221   0.581   1.787  0.2004 -0.2328  0.2384
  130TCq2    H2 1992   2.029   0.498   1.637  0.8818 -2.0196 -0.1413
  130TCq2    H3 1993   1.985   0.431   2.055 -1.9332 -0.8405  0.7325
  130TCq2    H4 1994   1.687   0.281   1.798 -0.8170  0.9331 -1.4434
  131MPD2     C 1995   1.967   3.755   9.727 -0.2326 -0.0779  0.3087
  131MPD2    C1 1996   2.074   3.817   9.795 -0.6830 -0.0875 -0.0744
  131MPD2    C2 1997   2.175   3.750   9.859  0.4799 -0.1579  0.4808
  131MPD2    C3 1998   2.170   3.615   9.868 -0.6976 -0.7275 -0.0137
  131MPD2    C4 1999   2.064   3.551   9.802  0.1808 -1.2027  0.2330
  131MPD2    C5 2000   1.971   3.619   9.724  0.1249  0.7513 -0.3431
  131MPD2     H 2001   2.258   3.805   9.903 -0.6374  0.9581  1.2200
  131MPD2    H1 2002   2.063   3.443   9.795 -1.8784 -1.0133 -2.4937
  131MPD2    H2 2003   1.892   3.806   9.667 -0.5020 -2.4977 -1.4130
  131MPD2    H3 2004   1.889   3.574   9.670 -0.8597  1.3058  0.6991
  131MPD2     N 2005   2.274   3.543   9.919 -0.1184  0.2608 -0.5265
  131MPD2    H5 2006   2.348   3.608   9.945 -0.7525  0.6723  0.2408
  131MPD2    N1 2007   2.072   3.956   9.782  0.2551  0.1095 -0.8363
  131MPD2    H7 2008   1.993   3.994   9.732  1.2024  0.0188 -2.4067
  132TCq2    C1 2009   2.262   4.508   9.931 -0.0307  0.2867  0.0020
  132TCq2    O2 2010   2.248   4.493  10.052  0.2270 -0.1342  0.5889
  132TCq2    C2 2011   2.217   4.404   9.840  1.0383 -0.0485  0.0599
  132TCq2    C3 2012   2.173   4.441   9.713  0.2526  0.3435 -0.3525
  132TCq2    C4 2013   2.127   4.340   9.628  0.3342 -0.0295  0.0859
  132TCq2    C5 2014   2.111   4.208   9.666  0.0027  0.0810 -0.3134
  132TCq2    C6 2015   2.146   4.181   9.797 -0.9233  0.0318 -0.5682
  132TCq2    C7 2016   2.204   4.274   9.884  0.3274 -1.2074 -0.1452
  132TCq2    C8 2017   2.151   4.050   9.844  0.2239  0.5715  0.0806
  132TCq2    O4 2018   2.218   4.034   9.948 -0.8014  0.5280  0.6756
  132TCq2    C9 2019   2.098   4.383   9.491 -0.0078 -0.2075 -0.1995
  132TCq2    O5 2020   2.172   4.478   9.452 -0.4441 -0.7903  0.0018
  132TCq2    O6 2021   2.040   4.304   9.415  0.6356  0.4235 -0.0442
  132TCq2    H2 2022   2.184   4.540   9.671 -2.5723 -0.5501 -3.2395
  132TCq2    H3 2023   2.060   4.137   9.602 -0.1278 -1.1460  1.1678
  132TCq2    H4 2024   2.248   4.253   9.981  1.2577 -0.8817 -0.4911
  133MPD2     C 2025   0.889   0.107   9.298 -0.5101  0.2568 -0.2798
  133MPD2    C1 2026   0.831   0.021   9.211  0.1280 -0.4193  0.3377
  133MPD2    C2 2027   0.845   4.607   9.223 -0.2787 -0.4353  0.7738
  133MPD2    C3 2028   0.907   4.553   9.335  0.3352  0.6111 -0.0616
  133MPD2    C4 2029   0.950   4.639   9.436 -0.2270  0.2317 -0.7652
  133MPD2    C5 2030   0.939   0.054   9.415  0.8620  0.0173  0.1068
  133MPD2     H 2031   0.812   4.538   9.146  2.4523 -0.3927 -0.4624
  133MPD2    H1 2032   0.983   4.598   9.531 -0.1535  2.0650  0.0089
  133MPD2    H2 2033   0.885   0.215   9.292 -1.5302  0.4255  3.6023
  133MPD2    H3 2034   0.966   0.114   9.501 -1.3464  0.3348  0.5837
  133MPD2     N 2035   0.926   4.420   9.367 -0.4131 -0.2252  0.1207
  133MPD2    H5 2036   0.970   4.406   9.458  2.0310  0.7749 -0.8947
  133MPD2    N1 2037   0.768   0.082   9.102  0.4191  0.5656  0.2935
  133MPD2    H7 2038   0.761   0.183   9.098 -2.5530  0.3015 -1.2340
  134TCq2    C1 2039   0.689   0.013   9.012 -0.3908 -0.5971 -0.4470
  134TCq2    O2 2040   0.673   4.618   8.992 -0.5079 -0.3615 -0.1744
  134TCq2    C2 2041   0.618   0.087   8.915 -0.1202 -0.2217  0.2871
  134TCq2    C3 2042   0.656   0.212   8.887 -0.2669  0.1878  0.9704
  134TCq2    C4 2043   0.590   0.283   8.789 -0.4558  0.5729 -0.1489
  134TCq2    C5 2044   0.476   0.236   8.740 -0.6623  0.3550 -0.2832
  134TCq2    C6 2045   0.430   0.119   8.784 -0.2379  0.4186  0.5475
  134TCq2    C7 2046   0.505   0.033   8.864  0.2117 -0.8890 -0.4659
  134TCq2    C8 2047   0.297   0.076   8.753 -0.0314  0.3886  0.1601
  134TCq2    O4 2048   0.248   0.123   8.650  0.3434  0.1030 -0.7761
  134TCq2    C9 2049   0.632   0.412   8.744 -0.2766 -0.6832  0.1609
  134TCq2    O5 2050   0.553   0.480   8.672  0.0992  0.3458  0.0497
  134TCq2    O6 2051   0.757   0.414   8.734 -0.0252  0.3383  0.0522
  134TCq2    H2 2052   0.743   0.259   8.933  1.5457 -1.5223 -0.7208
  134TCq2    H3 2053   0.419   0.291   8.665 -0.9836  1.8667  1.0541
  134TCq2    H4 2054   0.486   4.650   8.877 -1.2355 -0.3319  2.0197
  135MPD2     C 2055   4.196   1.261   9.368  0.3115 -0.5114  0.4183
  135MPD2    C1 2056   4.296   1.166   9.382 -0.2385  0.7481 -0.5205
  135MPD2    C2 2057   4.411   1.185   9.310 -0.3879 -1.1186 -0.0571
  135MPD2    C3 2058   4.431   1.299   9.236  0.2395  0.5422 -0.0829
  135MPD2    C4 2059   4.332   1.390   9.233  0.0937 -0.5298  0.1853
  135MPD2    C5 2060   4.214   1.373   9.300  0.4252 -0.4040  1.0002
  135MPD2     H 2061   4.479   1.100   9.315  1.4209  0.3748  0.5367
  135MPD2    H1 2062   4.343   1.476   9.168  1.9242 -0.1862  0.9527
  135MPD2    H2 2063   4.100   1.251   9.418  0.2339 -0.5887  0.2558
  135MPD2    H3 2064   4.147   1.458   9.298  2.6073  1.2226 -2.4269
  135MPD2     N 2065   4.548   1.326   9.164 -0.5616 -0.6285 -0.8084
  135MPD2    H5 2066   4.548   1.404   9.099 -3.4691 -0.8054 -1.0202
  135MPD2    N1 2067   4.283   1.063   9.476  0.1148  0.2628  0.3899
  135MPD2    H7 2068   4.355   0.991   9.488  0.1686  0.2914  0.2324
  136TCq2    C1 2069   4.188   1.061   9.577 -0.4504  0.2949 -0.1854
  136TCq2    O2 2070   4.094   1.134   9.610  0.1510 -0.0798 -0.0723
  136TCq2    C2 2071   4.220   0.955   9.665 -0.0471  0.4910 -0.1179
  136TCq2    C3 2072   4.239   0.979   9.793 -0.5642 -0.4701  0.3144
  136TCq2    C4 2073   4.279   0.881   9.876  0.4797  0.4615  0.3139
  136TCq2    C5 2074   4.293   0.757   9.834 -0.1074  0.8527 -0.0163
  136TCq2    C6 2075   4.280   0.733   9.702  0.3759 -0.0108 -0.0530
  136TCq2    C7 2076   4.251   0.834   9.608  0.0159 -0.1446  0.4996
  136TCq2    C8 2077   4.260   0.596   9.663  0.1340  0.6489  0.0127
  136TCq2    O4 2078   4.193   0.567   9.563  0.1712 -0.1469  0.0265
  136TCq2    C9 2079   4.300   0.912  10.017 -0.0394  0.5746 -0.3833
  136TCq2    O5 2080   4.369   0.825  10.073  0.0006  0.1394 -0.6332
  136TCq2    O6 2081   4.263   1.023  10.063  0.0872 -0.3413  0.0469
  136TCq2    H2 2082   4.214   1.075   9.835  1.1723 -0.8123  2.1279
  136TCq2    H3 2083   4.314   0.676   9.903 -1.4987  0.7422  0.2742
  136TCq2    H4 2084   4.222   0.811   9.506 -0.2367 -0.8684  0.7314
  137MPD2     C 2085   3.922   1.294   8.960 -0.2705 -0.0395 -0.4876
  137MPD2    C1 2086   3.826   1.192   8.962  0.2790  0.2134  0.1845
  137MPD2    C2 2087   3.856   1.065   8.910 -0.0591  0.9925  0.7798
  137MPD2    C3 2088   3.984   1.044   8.856 -0.1795  0.1738  0.2917
  137MPD2    C4 2089   4.070   1.146   8.853  0.0261  0.4226  0.1344
  137MPD2    C5 2090   4.039   1.267   8.908 -0.4878 -0.0551  0.5135
  137MPD2     H 2091   3.792   0.980   8.932  0.5350  0.7669  1.6157
  137MPD2    H1 2092   4.167   1.139   8.805 -0.4738 -0.0913 -0.8160
  137MPD2    H2 2093   3.902   1.389   9.009  0.9447  0.7522 -1.5292
  137MPD2    H3 2094   4.111   1.346   8.888  1.7025 -2.7588 -2.3330
  137MPD2     N 2095   4.018   0.907   8.828  0.3448 -0.4459  0.1950
  137MPD2    H5 2096   3.957   0.830   8.855  1.2719 -1.5916 -0.9860
  137MPD2    N1 2097   3.706   1.229   9.029 -0.2937 -0.3007  0.1172
  137MPD2    H7 2098   3.700   1.327   9.053  1.1307 -0.1619 -0.0787
  138TCq2    C1 2099   3.596   1.151   9.043  0.0100 -0.7618 -0.4906
  138TCq2    O2 2100   3.581   1.034   9.014 -0.4662 -0.1658  0.0838
  138TCq2    C2 2101   3.490   1.214   9.118 -0.2719 -0.2559 -0.5632
  138TCq2    C3 2102   3.496   1.344   9.158  0.1157  0.0758  0.1103
  138TCq2    C4 2103   3.379   1.409   9.193 -0.0767  0.0222  0.7299
  138TCq2    C5 2104   3.259   1.341   9.188  0.4495 -0.1693  0.2684
  138TCq2    C6 2105   3.254   1.213   9.155  0.0791  0.2201  0.1848
  138TCq2    C7 2106   3.370   1.147   9.118 -0.4956  0.1024  0.0585
  138TCq2    C8 2107   3.123   1.149   9.147  0.1926 -0.1864 -0.0018
  138TCq2    O4 2108   3.030   1.223   9.137  0.0920  0.2835 -0.7031
  138TCq2    C9 2109   3.380   1.540   9.259  0.0231 -0.6664  0.2302
  138TCq2    O5 2110   3.268   1.603   9.256  0.1959 -0.4152 -0.0694
  138TCq2    O6 2111   3.490   1.575   9.311  0.4071 -0.3084 -0.6471
  138TCq2    H2 2112   3.589   1.398   9.164  0.4063 -0.6688  2.3367
  138TCq2    H3 2113   3.169   1.393   9.217  1.6612  1.2219  1.4874
  138TCq2    H4 2114   3.362   1.041   9.097  0.3402 -0.4130  2.3111
  139TMC2    C1 2115   4.431   3.003  13.522 -0.2296 -0.9363  0.0357
  139TMC2    C2 2116   4.512   3.072  13.434 -0.0080  0.3982 -0.1825
  139TMC2    C3 2117   4.475   3.199  13.405 -0.1439 -0.4224 -0.1608
  139TMC2    C4 2118   4.310   3.051  13.568 -0.0929 -0.2068 -0.4584
  139TMC2    C5 2119   4.265   3.174  13.524 -0.5188  0.0314  0.2281
  139TMC2    C6 2120   4.345   3.241  13.430  0.1309  0.7061 -0.6916
  139TMC2     C 2121   4.448   2.857  13.513 -0.6857  0.0948  0.1721
  139TMC2     O 2122   4.519   2.828  13.419  0.1236  0.1403  0.0168
  139TMC2     H 2123   4.607   3.035  13.397  0.7953 -0.3408  2.5823
  139TMC2    H1 2124   4.248   2.988  13.630 -2.2914  3.3720  0.9678
  139TMC2    H2 2125   4.314   3.337  13.389  0.2942  0.7598 -0.6910
  139TMC2    C7 2126   4.128   3.226  13.545 -0.6639 -0.6151  0.5136
  139TMC2    C8 2127   4.524   3.243  13.273 -0.1907  0.2806  1.1096
  139TMC2    O1 2128   4.079   3.320  13.482  0.3737 -0.2525 -0.2065
  139TMC2    O2 2129   4.453   3.245  13.174 -0.2933 -0.1198 -0.2845
  139TMC2    O5 2130   4.662   3.250  13.282 -0.3811  0.4758 -0.0370
  139TMC2    H5 2131   4.702   3.273  13.369 -1.4697  2.2808 -0.0034
  140MPD2     C 2132   4.252   2.565  13.640  0.3979  0.2239 -1.0109
  140MPD2    C1 2133   4.356   2.625  13.566  0.2857 -0.4578 -0.4452
  140MPD2    C2 2134   4.429   2.543  13.483 -0.6633  0.9922 -0.5195
  140MPD2    C3 2135   4.414   2.406  13.478  0.3047  0.3778  0.2909
  140MPD2    C4 2136   4.309   2.353  13.561 -0.0138 -0.0341 -0.3742
  140MPD2    C5 2137   4.233   2.434  13.643  0.2458 -0.4568 -0.1270
  140MPD2     H 2138   4.510   2.581  13.420  0.3260  0.2072  0.2760
  140MPD2    H1 2139   4.283   2.248  13.565 -1.0603  0.0829 -4.9978
  140MPD2    H2 2140   4.190   2.625  13.705  1.1780 -1.5269  1.3475
  140MPD2    H3 2141   4.160   2.395  13.713  0.9146 -1.9852 -0.2928
  140MPD2     N 2142   4.517   2.329  13.419 -0.1561  0.5898 -0.4560
  140MPD2    H5 2143   4.597   2.374  13.376  0.8891  0.9303  1.8664
  140MPD2    N1 2144   4.369   2.766  13.586 -0.8762 -0.0375  0.0086
  140MPD2    H7 2145   4.313   2.821  13.650 -2.0784 -0.6539 -0.5147
  141TCq2    C1 2146   4.503   3.721  14.538 -0.0188 -0.3023  0.3849
  141TCq2    O2 2147   4.580   3.798  14.487 -0.1126  0.5394  0.7011
  141TCq2    C2 2148   4.451   3.768  14.671 -0.8482  0.5029 -0.2271
  141TCq2    C3 2149   4.450   3.671  14.767  0.8922 -0.4253 -0.8517
  141TCq2    C4 2150   4.456   3.708  14.899  0.2295  0.7598  0.1557
  141TCq2    C5 2151   4.472   3.833  14.933  1.1661  0.5234 -0.1294
  141TCq2    C6 2152   4.489   3.931  14.834  0.7242 -0.4205  0.3593
  141TCq2    C7 2153   4.479   3.900  14.699  0.1053  0.8143 -0.3907
  141TCq2    C8 2154   4.523   4.063  14.867 -0.2284 -0.8386 -0.4255
  141TCq2    O4 2155   4.471   4.125  14.954 -0.0552 -0.3480 -0.2420
  141TCq2    C9 2156   4.470   3.606  14.992 -0.5836 -0.1278  0.0229
  141TCq2    O5 2157   4.505   3.494  14.947  0.2226 -0.1940  0.0863
  141TCq2    O6 2158   4.479   3.639  15.110  0.1761 -0.1271  0.2232
  141TCq2    H2 2159   4.448   3.568  14.732 -1.9655 -0.9064  0.7385
  141TCq2    H3 2160   4.487   3.869  15.035 -0.1193  0.9790 -0.0999
  141TCq2    H4 2161   4.485   3.972  14.618  0.5234  1.2584  0.0359
  142MPD2     C 2162   2.500   3.111   9.768 -0.0635  0.4477 -0.3901
  142MPD2    C1 2163   2.382   3.127   9.703 -0.0840  0.2914  0.2887
  142MPD2    C2 2164   2.363   3.241   9.630  0.7191  0.3499 -0.4303
  142MPD2    C3 2165   2.448   3.354   9.629  0.5265 -0.4010  0.9931
  142MPD2    C4 2166   2.564   3.327   9.703 -0.1041 -0.0363  0.3862
  142MPD2    C5 2167   2.591   3.208   9.760  0.2488 -0.1633  0.6097
  142MPD2     H 2168   2.272   3.244   9.572  0.5249 -0.2820 -0.1602
  142MPD2    H1 2169   2.649   3.394   9.714 -0.5361  1.0100 -2.8400
  142MPD2    H2 2170   2.536   3.022   9.819  2.0870  0.9466 -1.0107
  142MPD2    H3 2171   2.684   3.196   9.814 -0.0001  0.8141  1.2735
  142MPD2     N 2172   2.420   3.475   9.570  0.4765 -0.8040 -0.4129
  142MPD2    H5 2173   2.479   3.552   9.601  1.8942 -0.9867 -2.7029
  142MPD2    N1 2174   2.287   3.021   9.707 -0.2538 -0.4736  0.7522
  142MPD2    H7 2175   2.326   2.933   9.739  0.5839  0.2148  1.6156
  143TCq2    C1 2176   2.322   3.513   9.481  0.0613  0.2238  0.2702
  143TCq2    O2 2177   2.247   3.443   9.413 -0.5547 -0.1899  0.2424
  143TCq2    C2 2178   2.309   3.649   9.459 -0.0022 -1.1031 -0.3770
  143TCq2    C3 2179   2.214   3.691   9.373 -0.3473 -0.2732 -0.6821
  143TCq2    C4 2180   2.169   3.816   9.376  0.3318  0.5355 -0.1476
  143TCq2    C5 2181   2.231   3.913   9.449  0.1880 -0.2724  0.4409
  143TCq2    C6 2182   2.325   3.872   9.542 -0.0611 -0.1170 -0.1551
  143TCq2    C7 2183   2.362   3.742   9.551  0.5588 -0.2842 -0.0159
  143TCq2    C8 2184   2.412   3.969   9.613  0.4571  0.0182 -0.1485
  143TCq2    O4 2185   2.469   3.921   9.709  0.1942  0.0265 -0.3956
  143TCq2    C9 2186   2.064   3.860   9.282 -0.0350 -0.3580  0.3229
  143TCq2    O5 2187   1.999   3.768   9.222 -0.2152  0.4652 -0.3681
  143TCq2    O6 2188   2.068   3.982   9.242 -0.1569 -0.2704 -0.6821
  143TCq2    H2 2189   2.169   3.639   9.289 -3.0144  1.7827 -0.5277
  143TCq2    H3 2190   2.193   4.014   9.443 -0.2397 -0.4302  0.4716
  143TCq2    H4 2191   2.433   3.708   9.626  0.3682 -3.4148 -1.2672
  144MPD2     C 2192   4.586   1.673   0.985  0.6033 -0.0247  0.6247
  144MPD2    C1 2193   4.644   1.588   0.890 -0.3492 -0.0639 -0.4804
  144MPD2    C2 2194   0.044   1.539   0.914  0.1071 -0.0409 -0.6780
  144MPD2    C3 2195   0.117   1.579   1.025  0.5379 -0.0286  0.8982
  144MPD2    C4 2196   0.056   1.671   1.112  0.2191 -0.3610 -0.4263
  144MPD2    C5 2197   4.650   1.709   1.098 -0.3703 -0.2401  0.5335
  144MPD2     H 2198   0.096   1.482   0.837  1.6885 -1.5635  1.5239
  144MPD2    H1 2199   0.123   1.694   1.194  0.1984 -0.3513 -0.4120
  144MPD2    H2 2200   4.485   1.711   0.975  0.7152  0.0034 -0.3934
  144MPD2    H3 2201   4.614   1.773   1.177  0.5977 -0.6082  1.2751
  144MPD2     N 2202   0.245   1.534   1.056  0.4136  0.1944 -0.4420
  144MPD2    H5 2203   0.303   1.590   1.118 -2.1567  2.2474  0.0772
  144MPD2    N1 2204   4.583   1.542   0.772 -0.4645 -0.0381  0.6865
  144MPD2    H7 2205   4.642   1.490   0.708  0.2620  1.0586  0.4710
  145TCq2    C1 2206   0.307   1.421   1.005 -0.3310  0.2612 -0.0299
  145TCq2    O2 2207   0.262   1.341   0.920  0.2891 -0.2410  0.4222
  145TCq2    C2 2208   0.447   1.405   1.048  0.3834 -0.3801  0.1646
  145TCq2    C3 2209   0.532   1.336   0.967 -0.2244  0.5465 -0.5742
  145TCq2    C4 2210   0.663   1.352   0.991  0.0566 -0.0440  0.7814
  145TCq2    C5 2211   0.705   1.440   1.077  0.2250  0.8230  0.1821
  145TCq2    C6 2212   0.619   1.513   1.156  0.0234 -0.4362 -0.2594
  145TCq2    C7 2213   0.490   1.497   1.139 -0.3567 -0.5077 -0.6607
  145TCq2    C8 2214   0.681   1.575   1.276  0.1290 -0.5116  0.4721
  145TCq2    O4 2215   0.795   1.548   1.300 -0.7048  0.0328  0.0482
  145TCq2    C9 2216   0.759   1.271   0.911 -0.5818  0.1026  0.3108
  145TCq2    O5 2217   0.869   1.331   0.890  0.5019 -0.6117 -0.3206
  145TCq2    O6 2218   0.712   1.185   0.832  0.7550 -0.1733 -0.4144
  145TCq2    H2 2219   0.495   1.268   0.891 -1.9077  0.2425  0.5134
  145TCq2    H3 2220   0.811   1.442   1.100 -0.2952 -1.3355  2.7111
  145TCq2    H4 2221   0.437   1.534   1.226  0.8130 -0.0191 -0.1637
  146TMC2    C1 2222   1.501   0.935  12.567 -0.2551  0.1038  0.6564
  146TMC2    C2 2223   1.494   1.022  12.462  1.0963 -0.2324  0.6152
  146TMC2    C3 2224   1.396   1.007  12.369  0.3080  0.1029 -0.5082
  146TMC2    C4 2225   1.408   0.838  12.583 -0.0203  0.2486  0.6824
  146TMC2    C5 2226   1.302   0.829  12.494  0.1932 -0.1308  0.5226
  146TMC2    C6 2227   1.293   0.911  12.380  0.1595  0.5013 -0.4595
  146TMC2     C 2228   1.629   0.919  12.636 -0.3052  0.2556 -0.2518
  146TMC2     O 2229   1.733   0.954  12.582 -0.6979 -0.0172 -0.3711
  146TMC2     H 2230   1.566   1.102  12.456 -0.5567  1.2277  0.1449
  146TMC2    H1 2231   1.424   0.755  12.652  1.1506 -0.3250 -0.2848
  146TMC2    H2 2232   1.216   0.900  12.305  1.1200 -1.6781 -1.1264
  146TMC2    C7 2233   1.200   0.720  12.498  0.3970  0.3902  0.2724
  146TMC2    C8 2234   1.406   1.087  12.257  0.6328  0.0562 -0.1443
  146TMC2    O1 2235   1.128   0.685  12.403 -0.4284  0.0344  0.4215
  146TMC2    O2 2236   1.510   1.123  12.201 -0.1882  0.1206 -0.8338
  146TMC2    O5 2237   1.294   1.160  12.264  0.0946 -0.1234 -0.4887
  146TMC2    H5 2238   1.249   1.127  12.345  0.6123 -1.4574 -0.7372
  147MPD2     C 2239   1.157   0.248  12.705  0.2334  0.3729  0.4769
  147MPD2    C1 2240   1.234   0.324  12.788 -0.4351  0.8320 -0.5935
  147MPD2    C2 2241   1.235   0.464  12.763 -0.0227 -0.1065 -0.1541
  147MPD2    C3 2242   1.176   0.519  12.646  0.2234 -0.3630 -0.7864
  147MPD2    C4 2243   1.117   0.434  12.557  0.3276  0.7287  0.3034
  147MPD2    C5 2244   1.108   0.301  12.588 -1.0466 -0.0105 -0.2986
  147MPD2     H 2245   1.286   0.532  12.831 -0.2774 -0.3050  0.2295
  147MPD2    H1 2246   1.094   0.456  12.453  0.5169  4.0823  0.9961
  147MPD2    H2 2247   1.163   0.141  12.725  1.6254  0.2619 -0.5063
  147MPD2    H3 2248   1.062   0.233  12.518  0.0882 -1.7467  0.6534
  147MPD2     N 2249   1.204   0.653  12.623 -0.1151  1.1143 -0.4157
  147MPD2    H5 2250   1.268   0.695  12.690  0.9698 -2.1406  0.5509
  147MPD2    N1 2251   1.315   0.256  12.880 -0.0134  0.3034 -0.2720
  147MPD2    H7 2252   1.324   0.155  12.874 -0.4182  0.1819  1.0659
  148MPD2     C 2253   2.761   3.686  10.930  0.0941  0.2529 -0.3464
  148MPD2    C1 2254   2.668   3.765  10.869 -0.4594  0.0210  0.8776
  148MPD2    C2 2255   2.545   3.721  10.829 -0.2553  0.0566 -0.1353
  148MPD2    C3 2256   2.511   3.585  10.847  0.3534 -0.1889 -0.5558
  148MPD2    C4 2257   2.606   3.500  10.899 -0.0961  0.0906 -0.4790
  148MPD2    C5 2258   2.731   3.551  10.936 -0.2018  0.2818 -0.5764
  148MPD2     H 2259   2.473   3.787  10.781  1.3960 -0.6769 -3.5896
  148MPD2    H1 2260   2.597   3.393  10.911 -1.3218  0.1468 -0.9196
  148MPD2    H2 2261   2.854   3.722  10.972  0.7336 -0.4685 -1.1500
  148MPD2    H3 2262   2.814   3.495  10.977  0.3884  1.0645 -0.7054
  148MPD2     N 2263   2.386   3.538  10.812 -0.4671  0.2011  0.2737
  148MPD2    H5 2264   2.372   3.438  10.827 -0.7754  0.4068  1.3303
  148MPD2    N1 2265   2.692   3.903  10.860 -0.4998 -1.0123  0.0906
  148MPD2    H7 2266   2.614   3.961  10.832 -0.9601 -1.2857  0.8108
  149TCq2    C1 2267   2.810   3.969  10.861 -0.7806  0.2051 -0.0627
  149TCq2    O2 2268   2.925   3.923  10.856 -0.3554 -0.3461  0.2841
  149TCq2    C2 2269   2.796   4.113  10.861  0.5634 -0.0295  0.5713
  149TCq2    C3 2270   2.914   4.187  10.841 -0.0189 -0.2945  0.1209
  149TCq2    C4 2271   2.894   4.315  10.795  0.1348  0.1623 -0.5896
  149TCq2    C5 2272   2.771   4.365  10.773  0.2320  0.0501 -0.3325
  149TCq2    C6 2273   2.658   4.294  10.803  0.0116 -0.2882 -0.9242
  149TCq2    C7 2274   2.669   4.169  10.843 -0.5879  0.2898 -0.2846
  149TCq2    C8 2275   2.537   4.329  10.731 -0.9167  0.0170 -0.5092
  149TCq2    O4 2276   2.438   4.262  10.772  0.6383 -0.6096  0.2295
  149TCq2    C9 2277   3.017   4.377  10.731 -0.3331 -0.0418  0.1881
  149TCq2    O5 2278   3.124   4.310  10.732  0.1089  0.0706 -0.0568
  149TCq2    O6 2279   3.002   4.495  10.693  0.1952  0.5161  0.2620
  149TCq2    H2 2280   3.014   4.146  10.845 -0.3779 -1.2056 -0.1493
  149TCq2    H3 2281   2.764   4.462  10.725 -2.2892 -0.2140 -0.5305
  149TCq2    H4 2282   2.577   4.121  10.875 -0.5132  0.0287 -0.4596
  150MPD2     C 2283   3.619   3.099  12.422  0.1868 -1.0671 -0.2412
  150MPD2    C1 2284   3.572   3.214  12.353  0.2442 -0.0331  0.4766
  150MPD2    C2 2285   3.654   3.325  12.362 -0.5614  0.1920  0.9256
  150MPD2    C3 2286   3.780   3.329  12.429 -0.2207 -0.5537 -0.3707
  150MPD2    C4 2287   3.823   3.213  12.490  0.0301  0.1136  0.0445
  150MPD2    C5 2288   3.747   3.095  12.483  0.1996  0.1417  0.0617
  150MPD2     H 2289   3.627   3.417  12.311  2.2541  0.9466  0.8045
  150MPD2    H1 2290   3.913   3.205  12.549  0.2039 -0.0537 -0.2445
  150MPD2    H2 2291   3.568   3.004  12.415 -1.9573  0.2974 -2.9945
  150MPD2    H3 2292   3.790   3.012  12.539 -0.7682 -0.5279 -0.1860
  150MPD2     N 2293   3.851   3.449  12.430  0.0851 -0.0647 -0.0338
  150MPD2    H5 2294   3.801   3.531  12.397  1.4787  0.3454 -1.1050
  150MPD2    N1 2295   3.467   3.201  12.262 -0.5791  0.7194  0.1676
  150MPD2    H7 2296   3.426   3.108  12.264 -0.1231  0.5099 -0.2285
  151TCq2    C1 2297   3.980   3.471  12.481 -0.5697  0.3011 -0.2724
  151TCq2    O2 2298   4.067   3.398  12.528  0.3665  0.0207 -0.2580
  151TCq2    C2 2299   4.033   3.604  12.440 -0.1454  0.4766  0.1692
  151TCq2    C3 2300   3.986   3.669  12.333 -0.1945  0.2778  0.2588
  151TCq2    C4 2301   4.040   3.783  12.288 -0.2952 -0.2974 -0.4603
  151TCq2    C5 2302   4.150   3.829  12.352  0.0256 -0.2810  0.3227
  151TCq2    C6 2303   4.194   3.766  12.464  0.4825  0.3331 -0.0685
  151TCq2    C7 2304   4.137   3.647  12.509 -0.7625  0.0497 -0.1438
  151TCq2    C8 2305   4.312   3.819  12.529  1.1106 -0.7060 -0.5738
  151TCq2    O4 2306   4.343   3.933  12.502 -0.1561 -0.6833 -0.4627
  151TCq2    C9 2307   3.991   3.857  12.171 -0.2764 -0.4124 -0.2520
  151TCq2    O5 2308   3.937   3.786  12.084  0.2769 -0.0092  0.6306
  151TCq2    O6 2309   4.037   3.976  12.161 -0.0573 -0.4659  0.0543
  151TCq2    H2 2310   3.905   3.622  12.278  1.7376 -0.4219 -1.9328
  151TCq2    H3 2311   4.201   3.918  12.316 -0.1828 -1.0267 -1.7948
  151TCq2    H4 2312   4.175   3.599  12.599 -2.5223 -1.3296 -0.1409
  152MPD2     C 2313   3.327   2.937  12.764 -0.6725  0.1990 -0.4668
  152MPD2    C1 2314   3.376   3.058  12.710  0.0189 -0.4391 -0.5320
  152MPD2    C2 2315   3.289   3.129  12.629 -0.4656 -0.0831  0.8979
  152MPD2    C3 2316   3.156   3.092  12.619  0.3334 -0.1657 -0.1911
  152MPD2    C4 2317   3.105   2.981  12.683 -0.6304 -0.1531  0.0281
  152MPD2    C5 2318   3.194   2.909  12.756  0.2912 -0.0149  0.6742
  152MPD2     H 2319   3.318   3.222  12.580  2.3800 -1.6525 -0.3672
  152MPD2    H1 2320   3.002   2.949  12.678 -0.7120 -0.0132  0.8424
  152MPD2    H2 2321   3.381   2.875  12.834 -1.8982 -2.0600 -1.5181
  152MPD2    H3 2322   3.158   2.821  12.808  1.3577 -1.3805 -0.8790
  152MPD2     N 2323   3.083   3.185  12.543 -0.0668  0.4849  0.1882
  152MPD2    H5 2324   3.130   3.269  12.511  1.7289  0.8461  3.7476
  152MPD2    N1 2325   3.502   3.097  12.759  0.6597 -0.9391 -0.0392
  152MPD2    H7 2326   3.537   3.033  12.829  1.4559  0.5695  0.9427
  153TCq2    C1 2327   3.546   3.229  12.755  0.3463  0.4836  0.3804
  153TCq2    O2 2328   3.489   3.326  12.702 -0.5849  0.1286 -0.0399
  153TCq2    C2 2329   3.681   3.241  12.816  0.0054 -0.0293 -0.5695
  153TCq2    C3 2330   3.762   3.132  12.831  0.0565 -0.1813  0.1808
  153TCq2    C4 2331   3.896   3.154  12.835 -0.4386 -0.4976  0.2831
  153TCq2    C5 2332   3.949   3.276  12.863  0.0167  0.3402  0.0943
  153TCq2    C6 2333   3.862   3.377  12.862  0.7042  0.0072  0.6230
  153TCq2    C7 2334   3.731   3.363  12.826 -0.4095  0.8951  0.4298
  153TCq2    C8 2335   3.917   3.515  12.860  0.9216  0.4818 -0.4617
  153TCq2    O4 2336   3.850   3.600  12.804 -0.0193  0.6918  0.0937
  153TCq2    C9 2337   3.981   3.041  12.820  0.1402  0.1477  0.6023
  153TCq2    O5 2338   3.929   2.929  12.788  0.2168 -0.0506 -0.1820
  153TCq2    O6 2339   4.089   3.049  12.885 -0.1989  0.3865 -0.4300
  153TCq2    H2 2340   3.738   3.032  12.797  1.6465 -0.0785 -1.2346
  153TCq2    H3 2341   4.055   3.293  12.882  0.3354 -1.7727  0.2102
  153TCq2    H4 2342   3.670   3.452  12.822 -1.6437 -0.1184 -2.4152
  154MPD2     C 2343   0.373   3.231   0.601 -0.0448  0.3194 -0.0510
  154MPD2    C1 2344   0.303   3.115   0.609 -0.6704 -0.2400 -0.0585
  154MPD2    C2 2345   0.182   3.118   0.677 -0.0566 -0.1723  0.8079
  154MPD2    C3 2346   0.131   3.242   0.721  0.6966 -0.3886  0.2252
  154MPD2    C4 2347   0.208   3.359   0.711 -0.2761  0.2046  0.8034
  154MPD2    C5 2348   0.331   3.354   0.650 -0.0682 -0.4763 -0.1122
  154MPD2     H 2349   0.119   3.029   0.683 -1.1730  0.4929 -1.0189
  154MPD2    H1 2350   0.178   3.454   0.755 -1.8672  0.3779 -0.6608
  154MPD2    H2 2351   0.465   3.243   0.545 -1.0530  1.7342 -1.4114
  154MPD2    H3 2352   0.386   3.446   0.636 -2.4070  0.8553 -0.6889
  154MPD2     N 2353   4.720   3.247   0.776 -0.4464 -0.7597  0.0139
  154MPD2    H5 2354   4.673   3.157   0.779 -1.0533 -0.4862 -1.2815
  154MPD2    N1 2355   0.361   3.002   0.553  0.0080 -0.3407  1.0079
  154MPD2    H7 2356   0.453   3.005   0.509  0.1417  2.2502  1.4817
  155TCq2    C1 2357   0.311   2.874   0.561  0.7327 -0.7134 -0.4930
  155TCq2    O2 2358   0.208   2.830   0.611  0.2052  0.2440  0.5721
  155TCq2    C2 2359   0.378   2.772   0.480  0.1108 -0.3011  0.4545
  155TCq2    C3 2360   0.339   2.643   0.500 -0.0563 -0.8675 -0.1325
  155TCq2    C4 2361   0.400   2.539   0.437  0.4483  0.7250 -1.2594
  155TCq2    C5 2362   0.504   2.565   0.346  0.4684  0.0204  0.3027
  155TCq2    C6 2363   0.543   2.692   0.328  0.1864 -0.4231 -0.3225
  155TCq2    C7 2364   0.484   2.803   0.387 -0.0268 -0.2266  0.1348
  155TCq2    C8 2365   0.683   2.698   0.291 -0.6876  0.4212 -0.0095
  155TCq2    O4 2366   0.727   2.610   0.217 -0.5426  0.2349 -0.5536
  155TCq2    C9 2367   0.362   2.405   0.461 -0.0961  0.1645 -0.1802
  155TCq2    O5 2368   0.265   2.383   0.541  0.4521  0.1776  0.1875
  155TCq2    O6 2369   0.453   2.323   0.443 -0.4429  0.4380  0.0471
  155TCq2    H2 2370   0.261   2.624   0.572 -1.2524  2.3172 -0.5743
  155TCq2    H3 2371   0.543   2.482   0.289  1.1422  2.1089 -2.2600
  155TCq2    H4 2372   0.508   2.904   0.355  0.6620 -0.6642 -0.7111
  156MPD2     C 2373   3.963   0.087  11.963  0.1332  0.4321  0.6541
  156MPD2    C1 2374   3.972   0.202  11.891  0.2428  0.8951  0.8583
  156MPD2    C2 2375   3.908   0.321  11.927  0.5031  0.0238  0.0137
  156MPD2    C3 2376   3.831   0.321  12.042  0.3275  0.6883  0.2073
  156MPD2    C4 2377   3.831   0.210  12.123  0.2702  0.8531  0.0149
  156MPD2    C5 2378   3.896   0.096  12.085 -0.3347 -0.3189  0.1019
  156MPD2     H 2379   3.919   0.411  11.867 -0.0737  1.0968  1.5269
  156MPD2    H1 2380   3.777   0.209  12.217  2.0871 -1.8707  1.0520
  156MPD2    H2 2381   4.012   4.719  11.934  0.3963  0.5405  0.7481
  156MPD2    H3 2382   3.881   0.005  12.143  0.4074  0.4421  1.4990
  156MPD2     N 2383   3.762   0.440  12.072 -0.7187 -0.3783  0.3354
  156MPD2    H5 2384   3.767   0.525  12.016  1.9718  0.0024  1.1417
  156MPD2    N1 2385   4.042   0.188  11.769 -0.3516 -0.1272 -0.2361
  156MPD2    H7 2386   4.088   0.099  11.748  2.9420  1.2080  1.2214
  157TCq2    C1 2387   4.057   0.287  11.679  0.0426  0.6779  0.6717
  157TCq2    O2 2388   4.003   0.398  11.673 -0.7033  0.4805  0.0507
  157TCq2    C2 2389   4.129   0.247  11.558  0.7761  0.2990 -0.6472
  157TCq2    C3 2390   4.249   0.176  11.564 -0.2410 -0.4979 -0.6187
  157TCq2    C4 2391   4.336   0.180  11.456  0.0156  0.1340  0.5263
  157TCq2    C5 2392   4.316   0.252  11.345 -0.2379 -0.1732  0.6719
  157TCq2    C6 2393   4.197   0.318  11.342 -0.1727 -0.1408  0.2221
  157TCq2    C7 2394   4.102   0.309  11.438 -0.2725 -0.3443 -0.4650
  157TCq2    C8 2395   4.189   0.431  11.245  0.3441  0.6056 -0.3878
  157TCq2    O4 2396   4.083   0.479  11.212  0.8032 -0.1102  0.2628
  157TCq2    C9 2397   4.466   0.121  11.465  0.5790  0.9724  1.0058
  157TCq2    O5 2398   4.487   0.061  11.573  0.0967  0.0554 -0.1424
  157TCq2    O6 2399   4.558   0.157  11.389 -0.2311  0.1033 -0.0826
  157TCq2    H2 2400   4.271   0.113  11.649 -2.4958  0.6815  0.8572
  157TCq2    H3 2401   4.387   0.247  11.263 -0.2382  0.6895  0.6106
  157TCq2    H4 2402   4.013   0.366  11.413  0.8604  0.9700 -1.4983
  158TMC2    C1 2403   4.281   4.382  13.767  0.0310  0.1997 -0.2855
  158TMC2    C2 2404   4.371   4.456  13.693 -0.2642 -0.5935 -0.6359
  158TMC2    C3 2405   4.326   4.519  13.583 -0.6892 -0.8053  0.9417
  158TMC2    C4 2406   4.149   4.372  13.733  0.2323 -0.0762 -0.0528
  158TMC2    C5 2407   4.112   4.430  13.616  0.0538  0.3536 -0.1549
  158TMC2    C6 2408   4.194   4.507  13.538  0.4505 -0.3124 -0.2632
  158TMC2     C 2409   4.331   4.319  13.891 -0.8149 -0.1897  0.7111
  158TMC2     O 2410   4.451   4.355  13.914 -0.7921  0.0997  0.8264
  158TMC2     H 2411   4.477   4.463  13.717 -0.0149 -2.0501 -1.3366
  158TMC2    H1 2412   4.070   4.335  13.798 -1.6485 -2.2783 -3.5935
  158TMC2    H2 2413   4.156   4.578  13.465 -0.7142 -0.7938 -0.1276
  158TMC2    C7 2414   3.975   4.435  13.595 -0.1616  0.7772  0.1271
  158TMC2    C8 2415   4.431   4.569  13.485  0.1713  0.6210 -0.7723
  158TMC2    O1 2416   3.938   4.520  13.515  0.0693  0.0916 -0.1664
  158TMC2    O2 2417   4.544   4.599  13.517 -0.2436  0.2746 -0.3342
  158TMC2    O5 2418   4.374   4.609  13.373  0.4409  0.1328 -0.0366
  158TMC2    H5 2419   4.288   4.575  13.340  0.2307 -1.4259  2.1862
  159MPD2     C 2420   4.305   3.966  14.276  0.4715  0.2333 -0.3152
  159MPD2    C1 2421   4.190   3.950  14.196  0.0803 -0.1237  0.2935
  159MPD2    C2 2422   4.169   4.033  14.086 -0.2703  0.1127  0.0608
  159MPD2    C3 2423   4.261   4.129  14.052  0.6879  0.5524  0.5510
  159MPD2    C4 2424   4.379   4.146  14.125  0.5563  1.1453 -0.3581
  159MPD2    C5 2425   4.390   4.073  14.245 -0.2064  0.3847  0.3459
  159MPD2     H 2426   4.081   4.023  14.023 -0.3061 -2.8765  0.5509
  159MPD2    H1 2427   4.452   4.223  14.105  0.3829  1.3870 -0.0602
  159MPD2    H2 2428   4.331   3.905  14.362  2.4867 -0.2588 -1.2620
  159MPD2    H3 2429   4.475   4.095  14.309  0.3442  2.2146 -1.0352
  159MPD2     N 2430   4.245   4.211  13.934 -0.2003 -0.3796  0.7280
  159MPD2    H5 2431   4.165   4.182  13.880 -0.2345  0.8093  0.1386
  159MPD2    N1 2432   4.108   3.837  14.231  0.1653 -0.2516  0.4759
  159MPD2    H7 2433   4.130   3.795  14.321 -2.3459  0.3784  1.3874
  160TMC2    C1 2434   3.494   1.780   1.424  0.3995  0.6481  0.3493
  160TMC2    C2 2435   3.585   1.714   1.494  0.6513 -0.1302  0.8935
  160TMC2    C3 2436   3.713   1.761   1.484  0.0823 -0.7906  0.1097
  160TMC2    C4 2437   3.522   1.883   1.340 -0.0165 -0.0382  0.4519
  160TMC2    C5 2438   3.650   1.913   1.324  0.2318 -1.5512  0.2893
  160TMC2    C6 2439   3.753   1.851   1.393  0.0911  0.5641 -0.3829
  160TMC2     C 2440   3.355   1.744   1.431 -0.3164 -0.5779  0.4524
  160TMC2     O 2441   3.329   1.634   1.468  0.0373  0.3200  0.7543
  160TMC2     H 2442   3.561   1.621   1.544  0.3297 -0.6952 -0.3167
  160TMC2    H1 2443   3.447   1.933   1.281 -1.0191 -1.6146  0.3873
  160TMC2    H2 2444   3.849   1.898   1.405 -0.4716  2.0032 -1.6445
  160TMC2    C7 2445   3.687   2.039   1.246 -0.5453 -0.3207  0.6294
  160TMC2    C8 2446   3.815   1.702   1.561 -0.3791  0.2608  0.2186
  160TMC2    O1 2447   3.593   2.087   1.189  0.7446 -0.2770  0.4336
  160TMC2    O2 2448   3.933   1.713   1.529  0.0752 -0.7483  0.2507
  160TMC2    O5 2449   3.774   1.626   1.670  0.2621  0.4366  0.0272
  160TMC2    H5 2450   3.683   1.650   1.699 -1.0576 -2.9938 -1.2887
  161MPD2     C 2451   3.046   1.725   1.417  0.8058  0.6508 -1.2601
  161MPD2    C1 2452   3.128   1.839   1.404 -0.0716  0.6818 -0.0375
  161MPD2    C2 2453   3.065   1.954   1.376 -0.1541 -0.2359  0.0699
  161MPD2    C3 2454   2.934   1.967   1.367  0.0718  0.6693 -0.3569
  161MPD2    C4 2455   2.854   1.861   1.398 -1.3404 -0.0329  0.3693
  161MPD2    C5 2456   2.912   1.736   1.425  0.0551  0.4472  0.6140
  161MPD2     H 2457   3.135   2.035   1.356 -0.0480 -0.3505 -0.0167
  161MPD2    H1 2458   2.747   1.872   1.406 -1.4699 -1.0809  0.1732
  161MPD2    H2 2459   3.091   1.629   1.439 -0.5783  0.1756 -0.5431
  161MPD2    H3 2460   2.849   1.647   1.430 -0.5780  0.8031 -1.0916
  161MPD2     N 2461   2.868   2.087   1.326  0.5242 -0.0987 -0.1422
  161MPD2    H5 2462   2.769   2.092   1.347  0.6063  2.6650 -0.3593
  161MPD2    N1 2463   3.274   1.849   1.401 -0.9946 -0.1054 -0.0513
  161MPD2    H7 2464   3.316   1.941   1.395  0.8269 -0.9736 -0.5995
  162TMC2    C1 2465   1.518   3.933   1.250 -0.0236 -0.1063  0.7721
  162TMC2    C2 2466   1.385   3.905   1.277  0.3687 -0.0647 -0.1259
  162TMC2    C3 2467   1.350   3.909   1.407 -0.6157  0.4981 -0.5580
  162TMC2    C4 2468   1.610   3.964   1.345  0.4510 -0.2526 -0.0295
  162TMC2    C5 2469   1.566   3.980   1.476 -0.3243 -0.3186  0.8191
  162TMC2    C6 2470   1.434   3.948   1.508 -0.1487  0.0755 -0.6427
  162TMC2     C 2471   1.569   3.947   1.114 -0.0312  0.3970 -0.0320
  162TMC2     O 2472   1.687   3.939   1.091 -0.4682 -0.5081  0.5196
  162TMC2     H 2473   1.327   3.850   1.204 -1.5998  1.5244  0.2268
  162TMC2    H1 2474   1.713   3.977   1.314  0.4666  1.3701  0.7582
  162TMC2    H2 2475   1.391   3.969   1.605 -3.6509 -0.6162 -2.0187
  162TMC2    C7 2476   1.616   4.099   1.524  0.0305  0.6025  0.0309
  162TMC2    C8 2477   1.216   3.886   1.448 -0.1887 -0.0151  0.0882
  162TMC2    O1 2478   1.657   4.180   1.442 -0.5215  0.3551  0.4055
  162TMC2    O2 2479   1.188   3.878   1.565  0.8968  0.2530 -0.0070
  162TMC2    O5 2480   1.141   3.940   1.353 -0.0176 -0.2723 -0.7834
  162TMC2    H5 2481   1.184   3.949   1.265  2.2842 -0.7066  0.3173
  163MPD2     C 2482   1.483   4.060   0.622 -0.0080 -0.8828 -0.0886
  163MPD2    C1 2483   1.599   4.031   0.678  0.2754  0.3029  0.3319
  163MPD2    C2 2484   1.593   4.001   0.821 -0.5594 -0.1005 -0.0801
  163MPD2    C3 2485   1.473   4.003   0.894 -0.6983 -0.1718 -0.6401
  163MPD2    C4 2486   1.355   4.031   0.833 -0.4273  0.8203 -0.5896
  163MPD2    C5 2487   1.366   4.067   0.700  0.1676  0.6350  0.5704
  163MPD2     H 2488   1.686   3.977   0.872 -1.3564 -1.6871  0.6421
  163MPD2    H1 2489   1.272   4.065   0.894 -0.9488 -0.1948 -0.7198
  163MPD2    H2 2490   1.477   4.082   0.516 -0.5988  0.9449  0.3222
  163MPD2    H3 2491   1.279   4.114   0.656  1.3350  0.7835 -1.6190
  163MPD2     N 2492   1.461   3.974   1.031  0.2176  0.1073 -0.1124
  163MPD2    H5 2493   1.367   3.981   1.068  0.4465  1.3688  0.2170
  163MPD2    N1 2494   1.717   4.026   0.600  0.2208 -0.4710 -0.3107
  163MPD2    H7 2495   1.719   4.062   0.505 -1.2127 -0.8427 -0.4832
  164TCq2    C1 2496   2.828   4.150  11.240 -0.7923 -0.2973 -0.8054
  164TCq2    O2 2497   2.736   4.116  11.313  0.5849  0.8108  0.6025
  164TCq2    C2 2498   2.847   4.283  11.198 -0.1269  0.4022 -0.6682
  164TCq2    C3 2499   2.968   4.335  11.157  0.0001  0.9112  0.2460
  164TCq2    C4 2500   2.971   4.470  11.146 -0.1860  0.3129 -0.3230
  164TCq2    C5 2501   2.864   4.552  11.172  0.0211 -0.4427 -0.0873
  164TCq2    C6 2502   2.745   4.494  11.209  0.4722 -0.1906 -0.1108
  164TCq2    C7 2503   2.732   4.358  11.220 -0.0200 -0.1711 -0.1598
  164TCq2    C8 2504   2.625   4.573  11.229 -0.1550  0.5903 -0.4743
  164TCq2    O4 2505   2.510   4.526  11.218  0.2642 -0.0546 -0.5953
  164TCq2    C9 2506   3.091   4.531  11.103 -0.0661  0.3875 -0.7781
  164TCq2    O5 2507   3.189   4.463  11.062  0.2620  0.5739  0.1601
  164TCq2    O6 2508   3.082   4.653  11.066  0.4521 -0.4500  0.0632
  164TCq2    H2 2509   3.056   4.276  11.136 -0.4395  0.0722  0.7521
  164TCq2    H3 2510   2.877   4.659  11.157  0.3479 -0.3607  0.8149
  164TCq2    H4 2511   2.651   4.315  11.278  2.2799 -1.1949  2.2360
  165MPD2     C 2512   2.643   1.596   1.688  0.7435 -0.4762  0.5884
  165MPD2    C1 2513   2.672   1.463   1.701  0.9857 -0.1615  0.1147
  165MPD2    C2 2514   2.801   1.427   1.744  0.6330 -0.3737  0.4881
  165MPD2    C3 2515   2.895   1.524   1.763 -0.0975  0.0146 -0.1250
  165MPD2    C4 2516   2.857   1.655   1.748  0.5120 -0.5156  0.6534
  165MPD2    C5 2517   2.730   1.695   1.727  0.6286 -0.1246  1.3067
  165MPD2     H 2518   2.828   1.323   1.758 -2.0881 -1.3101 -1.2302
  165MPD2    H1 2519   2.930   1.733   1.766 -0.2727  0.4770 -0.5191
  165MPD2    H2 2520   2.550   1.635   1.649  0.7544 -0.2075  0.8295
  165MPD2    H3 2521   2.725   1.802   1.714 -0.1758 -0.1641  1.2900
  165MPD2     N 2522   3.032   1.507   1.803 -0.1155 -0.5539 -0.1994
  165MPD2    H5 2523   3.086   1.587   1.835 -0.6915  0.1287 -0.9422
  165MPD2    N1 2524   2.563   1.368   1.695  0.5369 -0.2256  0.1171
  165MPD2    H7 2525   2.473   1.414   1.681  1.5500  2.1807  1.5757
  166TCq2    C1 2526   3.109   1.390   1.790 -0.2997  0.0647  0.1783
  166TCq2    O2 2527   3.071   1.275   1.765 -0.4997  0.2586 -1.0162
  166TCq2    C2 2528   3.247   1.420   1.823  0.6670 -0.1700  0.1203
  166TCq2    C3 2529   3.293   1.545   1.817  0.5794 -0.3574 -0.3319
  166TCq2    C4 2530   3.427   1.571   1.841 -0.5671  0.1080  0.1728
  166TCq2    C5 2531   3.517   1.475   1.843 -0.2026 -0.9201 -0.1020
  166TCq2    C6 2532   3.475   1.349   1.841  0.4897  0.1750 -0.0909
  166TCq2    C7 2533   3.340   1.320   1.833  0.5940 -0.7901 -0.7880
  166TCq2    C8 2534   3.556   1.229   1.830 -0.1485  0.2803 -0.1092
  166TCq2    O4 2535   3.512   1.116   1.843  0.1235 -0.1232  0.1448
  166TCq2    C9 2536   3.471   1.708   1.838 -0.0919 -0.4049 -0.2164
  166TCq2    O5 2537   3.392   1.790   1.886  0.4401  0.4439 -0.2011
  166TCq2    O6 2538   3.584   1.730   1.812 -0.5180  0.1723 -0.0200
  166TCq2    H2 2539   3.228   1.631   1.807  0.9083  0.1847  2.0427
  166TCq2    H3 2540   3.620   1.501   1.868  0.4606 -2.2899 -1.4552
  166TCq2    H4 2541   3.306   1.217   1.835 -1.1633 -0.1890  0.5398
  167TMC2    C1 2542   1.571   4.498  12.472 -0.1952  0.2001 -0.1627
  167TMC2    C2 2543   1.480   4.569  12.549  0.3359 -0.2393  0.2593
  167TMC2    C3 2544   1.462   4.513  12.672  0.6619 -0.4507 -0.4904
  167TMC2    C4 2545   1.608   4.369  12.498 -0.8126  0.4739  0.5424
  167TMC2    C5 2546   1.571   4.320  12.617  0.1755  0.8381  0.2073
  167TMC2    C6 2547   1.504   4.391  12.714 -0.4967  0.8177 -0.2587
  167TMC2     C 2548   1.608   4.554  12.345 -0.2725 -0.6711  0.4174
  167TMC2     O 2549   1.620   4.678  12.331 -0.1920  0.4317 -0.5838
  167TMC2     H 2550   1.451   4.669  12.516  2.2150  1.1190  2.7654
  167TMC2    H1 2551   1.662   4.306  12.428 -3.0938  1.3983 -2.0054
  167TMC2    H2 2552   1.495   4.365  12.818  1.0043 -0.7371 -0.5322
  167TMC2    C7 2553   1.596   4.177  12.648  0.5298 -0.2393 -0.0502
  167TMC2    C8 2554   1.350   4.558  12.746 -0.4218 -0.2290 -0.3023
  167TMC2    O1 2555   1.523   4.129  12.731 -0.0829  0.6909  0.1118
  167TMC2    O2 2556   1.305   4.471  12.826 -0.6411  0.0304  0.2152
  167TMC2    O5 2557   1.345   4.692  12.752  0.0070 -0.0829  0.1978
  167TMC2    H5 2558   1.423   0.006  12.707 -0.3172  1.4034  0.8875
  168MPD2     C 2559   1.658   4.604  12.057 -0.5597 -0.0636 -0.3906
  168MPD2    C1 2560   1.623   4.484  12.108 -0.0968  0.0096  0.2092
  168MPD2    C2 2561   1.600   4.368  12.027  0.9151 -1.0328 -0.2736
  168MPD2    C3 2562   1.615   4.387  11.886 -0.0409  0.4339 -0.2824
  168MPD2    C4 2563   1.658   4.509  11.838  0.0631 -0.4143 -0.6639
  168MPD2    C5 2564   1.677   4.613  11.924  0.2042  0.7292  0.5135
  168MPD2     H 2565   1.558   4.278  12.071  0.2922 -0.8541 -0.5084
  168MPD2    H1 2566   1.670   4.526  11.732 -1.1065 -0.6372 -0.8288
  168MPD2    H2 2567   1.679   4.701  12.100 -2.7613  0.3146 -0.1470
  168MPD2    H3 2568   1.712   4.705  11.878  0.8087  0.9478  1.4049
  168MPD2     N 2569   1.580   4.277  11.810  0.3890 -0.2364 -0.1616
  168MPD2    H5 2570   1.516   4.208  11.849  1.0793 -0.6522  0.2476
  168MPD2    N1 2571   1.596   4.466  12.243 -0.0762 -0.3445  0.1070
  168MPD2    H7 2572   1.553   4.380  12.276 -0.6520 -0.9493 -2.2304
  169MPD1     C 2573   3.851   4.347  10.120  0.8910  0.6463 -0.7077
  169MPD1    C1 2574   3.985   4.357  10.153 -0.0290 -0.7315 -0.2202
  169MPD1    C2 2575   4.056   4.238  10.138 -0.3243 -0.3365 -0.5952
  169MPD1    C3 2576   4.001   4.113  10.105  0.0116 -0.1625  0.3440
  169MPD1    C4 2577   3.864   4.112  10.075 -0.5211 -0.6200  0.5605
  169MPD1    C5 2578   3.792   4.230  10.085  0.7429 -0.7748  0.9788
  169MPD1     H 2579   4.165   4.240  10.133 -0.3971  0.4263 -2.0445
  169MPD1    H1 2580   3.807   4.027  10.038  0.3957 -0.6097 -0.8900
  169MPD1    H2 2581   3.782   4.430  10.122 -1.2324 -1.0969 -2.0440
  169MPD1    H3 2582   3.689   4.232  10.052  1.2738 -0.4032 -0.6778
  169MPD1     N 2583   4.084   3.997  10.094 -0.0511  0.6605  0.5428
  169MPD1    H5 2584   4.183   4.013  10.078 -0.7102  2.0322 -2.1468
  169MPD1    N1 2585   4.048   4.481  10.159 -0.1917  0.9663  0.6972
  169MPD1    H6 2586   3.982   4.548  10.200  2.1777  1.6973  3.3350
  169MPD1    H7 2587   4.133   4.484  10.215 -0.1831  0.3408  0.7118
  170MPD1     C 2588   1.695   1.919  13.329 -0.1753  0.0589 -0.0800
  170MPD1    C1 2589   1.811   1.930  13.262  0.6509 -0.0550 -0.5536
  170MPD1    C2 2590   1.926   1.889  13.328  0.3603 -1.9818  0.2352
  170MPD1    C3 2591   1.920   1.823  13.450 -0.5322  0.8320  0.1738
  170MPD1    C4 2592   1.795   1.793  13.502  0.2265  0.0720 -0.0615
  170MPD1    C5 2593   1.686   1.842  13.440  0.1034  0.6088  0.3149
  170MPD1     H 2594   2.022   1.909  13.282  0.0174  0.8490  0.7035
  170MPD1    H1 2595   1.775   1.734  13.591  1.8094  0.0076  0.2381
  170MPD1    H2 2596   1.603   1.947  13.280 -1.3863 -0.5623  1.8259
  170MPD1    H3 2597   1.597   1.823  13.500 -0.3647 -1.5380 -1.0847
  170MPD1     N 2598   2.048   1.784  13.498  0.3958  0.1976  0.0631
  170MPD1    H5 2599   2.126   1.781  13.433  0.5193 -1.4816  0.2987
  170MPD1    N1 2600   1.823   1.999  13.138 -0.1077  0.5365  0.0201
  170MPD1    H6 2601   1.738   1.990  13.083  0.1316  2.5815 -0.7067
  170MPD1    H7 2602   1.902   1.979  13.077 -0.6974  0.3489 -0.6800
  171MPD1     C 2603   1.325   3.013  15.505 -0.1312  0.3948  0.3054
  171MPD1    C1 2604   1.345   2.979  15.375 -1.0373 -0.9411 -0.1648
  171MPD1    C2 2605   1.326   2.845  15.334 -0.0514  0.6418  0.3584
  171MPD1    C3 2606   1.267   2.753  15.420  0.5317 -0.1861  0.5894
  171MPD1    C4 2607   1.229   2.794  15.540 -0.0582 -0.2152 -0.1215
  171MPD1    C5 2608   1.262   2.917  15.589  0.0186  0.5975  1.0557
  171MPD1     H 2609   1.348   2.818  15.231  0.4226  0.5549  0.4835
  171MPD1    H1 2610   1.177   2.722  15.602 -0.8220  0.6599  0.2614
  171MPD1    H2 2611   1.340   3.115  15.538 -2.6250  0.8762 -0.0478
  171MPD1    H3 2612   1.237   2.930  15.694  0.6848 -1.4931  1.4753
  171MPD1     N 2613   1.251   2.617  15.396  1.0430  0.1086 -0.2385
  171MPD1    H5 2614   1.217   2.557  15.471 -2.4979  2.4153  0.0128
  171MPD1    N1 2615   1.409   3.071  15.285 -0.4906  0.1968 -0.0744
  171MPD1    H6 2616   1.394   3.052  15.186  0.9050  0.1127 -0.2743
  171MPD1    H7 2617   1.373   3.165  15.301  0.8531  1.0201 -1.9399
  172MPD1     C 2618   0.231   1.028  17.695  0.3035 -0.6953  0.2424
  172MPD1    C1 2619   0.256   0.986   0.127 -0.5478 -0.5240  0.5568
  172MPD1    C2 2620   0.334   1.065   0.208  0.0222  0.4631 -0.2958
  172MPD1    C3 2621   0.370   1.197   0.175 -0.0470  0.1498  0.1819
  172MPD1    C4 2622   0.348   1.233   0.048  0.8152  0.4263  0.3508
  172MPD1    C5 2623   0.285   1.148  17.659 -0.3819 -0.6308  0.0037
  172MPD1     H 2624   0.364   1.026   0.305  1.8213 -0.6956 -1.3218
  172MPD1    H1 2625   0.369   1.330   0.006  0.5523  0.7444  0.9570
  172MPD1    H2 2626   0.171   0.970  17.626 -0.5571 -1.6502  1.7852
  172MPD1    H3 2627   0.254   1.176  17.559 -1.1803  0.4706  0.5628
  172MPD1     N 2628   0.430   1.290   0.267 -0.4492 -0.9330 -0.0095
  172MPD1    H5 2629   0.457   1.383   0.238  0.5908 -1.5970 -1.1756
  172MPD1    N1 2630   0.241   0.850   0.153 -0.1924  0.3031 -0.1372
  172MPD1    H6 2631   0.253   0.836   0.253  0.3592  0.0894 -0.2315
  172MPD1    H7 2632   0.150   0.823   0.116  0.8537 -1.0486 -1.6972
  173MPD1     C 2633   1.932   1.571  14.106 -0.5835  0.1998 -0.3746
  173MPD1    C1 2634   1.964   1.444  14.152 -0.2295  0.6252  0.3214
  173MPD1    C2 2635   1.874   1.375  14.236  0.5091  0.8719 -0.2615
  173MPD1    C3 2636   1.752   1.434  14.254  0.6846  0.3535 -0.0820
  173MPD1    C4 2637   1.720   1.552  14.201  0.0221  0.3985 -0.2124
  173MPD1    C5 2638   1.807   1.616  14.115 -0.1192  0.7166 -0.4543
  173MPD1     H 2639   1.912   1.289  14.289 -0.6372  0.1425 -0.6179
  173MPD1    H1 2640   1.622   1.591  14.223 -0.3817  0.9491 -2.9588
  173MPD1    H2 2641   2.003   1.630  14.049  0.4645 -2.6240 -2.0080
  173MPD1    H3 2642   1.785   1.715  14.077 -0.4413  0.3046 -1.3410
  173MPD1     N 2643   1.673   1.366  14.357 -0.4482 -0.2757 -0.5050
  173MPD1    H5 2644   1.715   1.293  14.413 -0.2107 -0.5444 -1.0360
  173MPD1    N1 2645   2.088   1.388  14.147 -0.4638 -0.4248 -0.6926
  173MPD1    H6 2646   2.087   1.288  14.125 -1.6927 -0.4013 -0.7127
  173MPD1    H7 2647   2.147   1.429  14.075 -0.2940  0.0358 -0.2947
  174MPD1     C 2648   1.903   0.651  14.762  0.1719  0.6060  0.1769
  174MPD1    C1 2649   1.779   0.661  14.829  1.0262  0.1259  0.5552
  174MPD1    C2 2650   1.706   0.771  14.792 -0.7553 -0.2738 -0.3106
  174MPD1    C3 2651   1.746   0.871  14.702  0.1454  0.5383 -0.4551
  174MPD1    C4 2652   1.874   0.859  14.645 -0.7801 -0.3483  0.0878
  174MPD1    C5 2653   1.951   0.750  14.669 -0.2048 -0.1975  0.1691
  174MPD1     H 2654   1.605   0.772  14.830 -1.0285  1.8514 -1.1175
  174MPD1    H1 2655   1.911   0.937  14.579  1.5053 -3.2047 -1.9952
  174MPD1    H2 2656   1.970   0.569  14.785 -1.4734 -1.3757 -2.1307
  174MPD1    H3 2657   2.047   0.736  14.622 -0.6465  0.3681 -0.8828
  174MPD1     N 2658   1.658   0.985  14.659 -0.3170 -0.0695 -0.2376
  174MPD1    H5 2659   1.710   1.050  14.602  0.8933  0.2732  1.2571
  174MPD1    N1 2660   1.718   0.559  14.907 -0.2253  0.3111 -0.2795
  174MPD1    H6 2661   1.786   0.489  14.936 -1.6038 -0.8747  0.0749
  174MPD1    H7 2662   1.672   0.608  14.983 -0.5528 -1.6030  0.7444
  175MPD1     C 2663   4.483   2.981  15.781  0.2451 -0.0974  0.0040
  175MPD1    C1 2664   4.613   3.001  15.811 -0.3417 -0.1537 -0.3549
  175MPD1    C2 2665   4.663   2.955  15.936 -0.3478  0.3218  0.7178
  175MPD1    C3 2666   4.576   2.888  16.023  0.5004  0.2812 -0.2926
  175MPD1    C4 2667   4.436   2.894  15.999 -0.2128 -0.5194  0.0358
  175MPD1    C5 2668   4.398   2.933  15.875  0.5919  0.2182  0.3834
  175MPD1     H 2669   0.046   2.959  15.955 -0.1670  0.1200 -0.2375
  175MPD1    H1 2670   4.361   2.855  16.068 -0.0094  0.6404  0.9064
  175MPD1    H2 2671   4.445   3.014  15.685  0.6519  0.9245  0.1966
  175MPD1    H3 2672   4.293   2.925  15.851  0.4709  0.7387  0.7333
  175MPD1     N 2673   4.620   2.830  16.145 -0.0797 -0.3740  0.8074
  175MPD1    H5 2674   4.551   2.801  16.214  0.3692 -0.2582  1.3052
  175MPD1    N1 2675   4.691   3.096  15.744 -0.4227  0.0070 -0.0744
  175MPD1    H6 2676   4.666   3.115  15.647  1.5467 -2.0101 -0.9641
  175MPD1    H7 2677   0.066   3.076  15.755 -0.4282 -0.5325 -0.9651
  176MPD1     C 2678   1.312   4.087  17.612  0.4643  0.4706  0.0262
  176MPD1    C1 2679   1.191   4.116  17.542 -0.8272  0.2201  0.4197
  176MPD1    C2 2680   1.182   4.218  17.453  0.0127 -0.2610  0.4442
  176MPD1    C3 2681   1.296   4.287  17.410 -0.1881  0.0872 -0.1522
  176MPD1    C4 2682   1.413   4.253  17.469 -0.0519 -0.1441 -0.2890
  176MPD1    C5 2683   1.421   4.166  17.576 -0.1454  0.5319 -0.2658
  176MPD1     H 2684   1.084   4.240  17.412 -0.4614 -1.2441  1.0285
  176MPD1    H1 2685   1.504   4.296  17.429 -0.5682 -0.7242 -2.0919
  176MPD1    H2 2686   1.334   4.013  17.688 -0.4504  0.8926  0.7088
  176MPD1    H3 2687   1.515   4.141  17.623  0.2786 -0.2281 -1.5386
  176MPD1     N 2688   1.278   4.378  17.302  0.1441 -0.0464 -0.7072
  176MPD1    H5 2689   1.187   4.378  17.258 -0.9100 -1.1520  1.4535
  176MPD1    N1 2690   1.072   4.047  17.582 -0.0313  0.0264 -0.1205
  176MPD1    H6 2691   1.073   3.958  17.631 -3.8248  1.3460  2.3797
  176MPD1    H7 2692   1.004   4.056  17.507  2.7204  1.7938 -2.4142
  177MPD1     C 2693   0.707   4.706  10.089  0.7695 -0.3958 -0.4422
  177MPD1    C1 2694   0.677   4.594  10.009  0.5054  0.4730  0.0747
  177MPD1    C2 2695   0.635   4.625   9.881  0.8758 -0.6657  0.9486
  177MPD1    C3 2696   0.649   0.030   9.828  0.8335  0.2826  0.2909
  177MPD1    C4 2697   0.687   0.137   9.915 -0.2517  0.2742 -0.1176
  177MPD1    C5 2698   0.720   0.107  10.043  0.5445 -0.1524 -0.2990
  177MPD1     H 2699   0.602   4.556   9.804  0.0164  1.1049 -0.2763
  177MPD1    H1 2700   0.688   0.244   9.896 -0.7294  0.1723 -0.7068
  177MPD1    H2 2701   0.717   4.701  10.197 -1.4229 -2.5058 -0.3481
  177MPD1    H3 2702   0.747   0.177  10.121  0.9950  0.1200 -0.6976
  177MPD1     N 2703   0.611   0.057   9.693  0.2663 -0.4645  0.1898
  177MPD1    H5 2704   0.569   4.706   9.639  0.0622 -0.9090  0.9540
  177MPD1    N1 2705   0.660   4.466  10.064 -0.2103  0.2419  0.1733
  177MPD1    H6 2706   0.674   4.395   9.993 -0.6386  0.1768  0.1520
  177MPD1    H7 2707   0.721   4.457  10.145  1.2531 -1.3771 -1.1113
  178MPD1     C 2708   2.110   0.617   0.414 -0.2303  0.2950 -0.3475
  178MPD1    C1 2709   2.065   0.501   0.365  0.0866  0.9545  0.1173
  178MPD1    C2 2710   2.136   0.440   0.265  0.6924 -0.2077 -0.6394
  178MPD1    C3 2711   2.228   0.519   0.190 -0.0924 -0.1994  0.0094
  178MPD1    C4 2712   2.265   0.638   0.241  0.1892 -0.0647 -0.4490
  178MPD1    C5 2713   2.202   0.691   0.353 -0.1367 -0.0662  0.0824
  178MPD1     H 2714   2.103   0.343   0.229  0.9107 -0.8850  1.0032
  178MPD1    H1 2715   2.346   0.696   0.199 -0.5934  0.4736 -1.2133
  178MPD1    H2 2716   2.069   0.659   0.505 -1.5235 -0.7320 -0.4549
  178MPD1    H3 2717   2.227   0.790   0.390 -2.0577  0.5593 -0.3286
  178MPD1     N 2718   2.302   0.467   0.079  0.0907 -0.2804 -0.1725
  178MPD1    H5 2719   2.392   0.512   0.068 -0.1380  0.3724  0.6321
  178MPD1    N1 2720   1.970   0.433   0.446  0.4341 -0.1869  0.1989
  178MPD1    H6 2721   1.904   0.503   0.480  0.9951  0.8606 -0.8489
  178MPD1    H7 2722   1.919   0.369   0.386  1.3478 -1.7315  1.0702
  179MPD1     C 2723   3.056   3.574  16.142  0.2638 -0.2788  0.7986
  179MPD1    C1 2724   2.958   3.666  16.126 -0.0490 -0.5632  0.5176
  179MPD1    C2 2725   2.831   3.617  16.096  0.4890 -1.0689 -0.7794
  179MPD1    C3 2726   2.818   3.487  16.047 -0.0538 -0.2478 -0.1232
  179MPD1    C4 2727   2.929   3.403  16.040 -0.4161  0.6598 -0.5126
  179MPD1    C5 2728   3.048   3.446  16.093  0.1214  0.4229 -0.3367
  179MPD1     H 2729   2.753   3.692  16.099  1.8376  0.3090 -0.4190
  179MPD1    H1 2730   2.923   3.296  16.021 -0.8587  0.6194 -0.1456
  179MPD1    H2 2731   3.153   3.604  16.177  0.2849 -0.0842  0.5723
  179MPD1    H3 2732   3.137   3.385  16.100 -0.1338  0.2497  1.6168
  179MPD1     N 2733   2.698   3.433  16.004 -0.1051  0.1923 -0.5359
  179MPD1    H5 2734   2.704   3.346  15.952  1.7162 -0.1180  0.1749
  179MPD1    N1 2735   2.970   3.793  16.179  0.7624  0.3930  0.1532
  179MPD1    H6 2736   2.899   3.856  16.143 -0.2317  0.2526  1.8610
  179MPD1    H7 2737   3.063   3.835  16.180  1.1147 -0.4030  1.0326
  180MPD1     C 2738   3.032   0.127  14.528 -0.7242 -0.5394 -0.5388
  180MPD1    C1 2739   2.957   0.014  14.557  0.2461  0.4899 -0.3352
  180MPD1    C2 2740   2.819   0.018  14.524 -0.3196 -0.4302  0.1510
  180MPD1    C3 2741   2.759   0.136  14.503  0.1373  0.8219  0.0670
  180MPD1    C4 2742   2.830   0.252  14.501 -0.1481 -0.2933  0.4725
  180MPD1    C5 2743   2.968   0.248  14.512  0.6067  0.0184  0.0674
  180MPD1     H 2744   2.761   4.652  14.511 -0.7826 -0.2988  1.2960
  180MPD1    H1 2745   2.778   0.345  14.478  0.4004 -0.5523 -1.8107
  180MPD1    H2 2746   3.140   0.114  14.535 -1.0170 -0.8893  3.4422
  180MPD1    H3 2747   3.022   0.342  14.504  0.8829 -0.0797  0.7948
  180MPD1     N 2748   2.616   0.131  14.484  0.1117 -0.0337 -0.3040
  180MPD1    H5 2749   2.582   0.035  14.483  0.3084 -0.1003 -0.8951
  180MPD1    N1 2750   3.024   4.615  14.572  0.0873  0.1624 -0.4555
  180MPD1    H6 2751   3.091   4.620  14.648  1.8213  1.4032 -2.0387
  180MPD1    H7 2752   2.957   4.541  14.594  0.6448 -0.4654 -0.8653
  181MPD1     C 2753   3.412   1.693  10.100  0.3109  0.1796  0.2889
  181MPD1    C1 2754   3.427   1.818  10.165  0.0113 -0.2981 -0.1871
  181MPD1    C2 2755   3.551   1.879  10.143 -0.7834 -0.2149  0.2335
  181MPD1    C3 2756   3.664   1.806  10.120 -1.4335 -0.8001  0.2056
  181MPD1    C4 2757   3.655   1.680  10.077 -0.5787  0.4227 -0.4224
  181MPD1    C5 2758   3.528   1.622  10.073 -0.3155 -0.8284 -0.1790
  181MPD1     H 2759   3.565   1.983  10.172 -0.7584 -0.4264  0.9668
  181MPD1    H1 2760   3.740   1.621  10.045 -1.4404 -1.4281  0.6963
  181MPD1    H2 2761   3.318   1.641  10.086  0.8033 -0.3751 -0.9811
  181MPD1    H3 2762   3.529   1.521  10.033  3.2939 -0.2492 -1.5411
  181MPD1     N 2763   3.797   1.854  10.139  0.1304  0.6246  0.5423
  181MPD1    H5 2764   3.871   1.787  10.120 -0.1644  0.3360  0.4125
  181MPD1    N1 2765   3.310   1.889  10.202  0.3352 -0.0306 -0.1296
  181MPD1    H6 2766   3.325   1.966  10.267 -0.5043 -2.5247  3.0498
  181MPD1    H7 2767   3.235   1.836  10.246  0.9855 -0.3986  0.5313
  182MPD1     C 2768   0.315   0.198   1.180  0.0221  0.5982 -0.6762
  182MPD1    C1 2769   0.296   0.199   1.041 -0.0594  0.4926  0.3307
  182MPD1    C2 2770   0.241   0.312   0.977 -0.7865  0.0441  0.0746
  182MPD1    C3 2771   0.229   0.427   1.051 -0.1291 -0.6262  0.6426
  182MPD1    C4 2772   0.242   0.421   1.188  0.5490 -0.3981  1.0450
  182MPD1    C5 2773   0.280   0.309   1.252 -0.0312  0.8170 -0.8313
  182MPD1     H 2774   0.216   0.289   0.874 -1.9515 -1.9884  0.8128
  182MPD1    H1 2775   0.198   0.497   1.251 -0.6624  1.1465 -1.6629
  182MPD1    H2 2776   0.357   0.116   1.237  1.5037  0.6193 -1.7559
  182MPD1    H3 2777   0.291   0.296   1.359  1.3054 -1.5104 -1.2567
  182MPD1     N 2778   0.170   0.546   1.002  0.0782  0.2314 -0.0121
  182MPD1    H5 2779   0.165   0.618   1.073  1.0244  0.7806 -0.5090
  182MPD1    N1 2780   0.310   0.078   0.969 -0.0875  0.1550  0.2647
  182MPD1    H6 2781   0.378   0.010   1.003  0.1941 -0.0693 -0.7366
  182MPD1    H7 2782   0.323   0.100   0.870 -1.2741  1.7338  0.4624
  183MPD1     C 2783   0.926   2.427   9.725  0.8619  0.4069  0.2454
  183MPD1    C1 2784   0.846   2.439   9.620 -0.2165  0.1992 -1.2184
  183MPD1    C2 2785   0.774   2.326   9.577  0.3926  0.3886 -0.7058
  183MPD1    C3 2786   0.793   2.199   9.630 -0.3068 -0.0873  0.2552
  183MPD1    C4 2787   0.888   2.188   9.725  0.2462  0.3489  0.0849
  183MPD1    C5 2788   0.951   2.305   9.773 -0.1543 -0.6620 -0.0321
  183MPD1     H 2789   0.701   2.336   9.498 -0.6521  0.0261  0.2131
  183MPD1    H1 2790   0.918   2.095   9.772  0.3760  1.3626  2.0314
  183MPD1    H2 2791   0.959   2.516   9.777 -0.0540  1.1129 -0.3808
  183MPD1    H3 2792   1.018   2.302   9.859  2.2862 -0.5973 -1.9369
  183MPD1     N 2793   0.710   2.091   9.593 -0.2491  0.0778  0.1053
  183MPD1    H5 2794   0.628   2.119   9.540 -0.6010 -1.8963 -0.3749
  183MPD1    N1 2795   0.800   2.568   9.577  0.3771 -0.6179  0.6353
  183MPD1    H6 2796   0.876   2.636   9.580 -0.7301  0.5800  1.0583
  183MPD1    H7 2797   0.764   2.571   9.482  1.3234 -1.9554  0.2228
  184MPD1     C 2798   4.136   4.383   9.390 -0.2102 -0.4515 -0.4955
  184MPD1    C1 2799   4.219   4.450   9.479 -0.0123 -0.2755 -0.0921
  184MPD1    C2 2800   4.294   4.545   9.419  0.0731 -0.9251  0.2078
  184MPD1    C3 2801   4.279   4.590   9.289  0.1156  0.0926 -0.5527
  184MPD1    C4 2802   4.179   4.533   9.211  0.1125 -0.5686 -0.1730
  184MPD1    C5 2803   4.117   4.427   9.264  0.9251 -0.6730 -0.2678
  184MPD1     H 2804   4.353   4.601   9.491 -1.1455 -0.4727  0.8737
  184MPD1    H1 2805   4.148   4.573   9.115 -1.5922 -0.0756  0.5821
  184MPD1    H2 2806   4.085   4.289   9.405  0.3763 -0.6623  0.1908
  184MPD1    H3 2807   4.041   4.373   9.209 -1.5127  0.0056  2.4003
  184MPD1     N 2808   4.369   4.677   9.223  0.2577 -0.9139 -0.3274
  184MPD1    H5 2809   4.360   4.687   9.122  1.0460 -1.2063 -0.4271
  184MPD1    N1 2810   4.228   4.411   9.610  0.1028 -0.5496  0.1510
  184MPD1    H6 2811   4.268   4.487   9.665 -1.2539  0.8736 -0.8354
  184MPD1    H7 2812   4.138   4.400   9.657 -0.7779  0.8911 -1.2047
  185MPD1     C 2813   4.294   0.270   8.427  0.3019  0.2259  0.1615
  185MPD1    C1 2814   4.396   0.347   8.477 -0.4215 -0.4947  0.5336
  185MPD1    C2 2815   4.447   0.323   8.600  0.8173 -0.4000 -0.3703
  185MPD1    C3 2816   4.407   0.215   8.678  0.3767 -0.0492 -0.2028
  185MPD1    C4 2817   4.305   0.135   8.625 -1.0276 -0.8769  0.3476
  185MPD1    C5 2818   4.255   0.164   8.501  0.1741 -0.3177 -0.2593
  185MPD1     H 2819   4.516   0.396   8.641 -0.8971  1.2397 -0.3868
  185MPD1    H1 2820   4.278   0.038   8.665 -0.2332 -1.7831 -1.2727
  185MPD1    H2 2821   4.248   0.304   8.335 -0.4472 -0.4881  0.2664
  185MPD1    H3 2822   4.175   0.098   8.469 -1.3925  0.9522  1.0169
  185MPD1     N 2823   4.454   0.180   8.805 -0.5279  0.2284 -0.4505
  185MPD1    H5 2824   4.407   0.103   8.852  2.6764  0.2012  2.6436
  185MPD1    N1 2825   4.432   0.458   8.403  0.2999  0.4912 -1.1388
  185MPD1    H6 2826   4.528   0.490   8.419  0.1035 -0.5884  2.2118
  185MPD1    H7 2827   4.417   0.447   8.303 -1.0030  0.1486 -0.9021
  186MPD1     C 2828   2.450   3.393  15.515  0.3473  0.2303  0.7710
  186MPD1    C1 2829   2.351   3.484  15.503 -0.1028 -0.0956  0.1820
  186MPD1    C2 2830   2.351   3.581  15.600  0.5959 -0.1303  0.0549
  186MPD1    C3 2831   2.463   3.600  15.680  0.8433  0.3177  0.4618
  186MPD1    C4 2832   2.575   3.517  15.670 -0.5514 -0.1964 -0.7504
  186MPD1    C5 2833   2.564   3.412  15.590  0.2921  0.2090 -0.1801
  186MPD1     H 2834   2.259   3.638  15.601 -0.6927 -2.1302 -1.7317
  186MPD1    H1 2835   2.660   3.528  15.736 -1.3714 -0.4617  0.3598
  186MPD1    H2 2836   2.445   3.297  15.466 -1.3495  0.6594  0.1010
  186MPD1    H3 2837   2.635   3.330  15.597  1.0892  0.8659 -0.6199
  186MPD1     N 2838   2.482   3.710  15.769 -0.1216  0.1812 -0.4053
  186MPD1    H5 2839   2.561   3.700  15.833  1.1418 -2.3149 -2.3303
  186MPD1    N1 2840   2.246   3.459  15.412 -0.1127  0.0593  0.0983
  186MPD1    H6 2841   2.287   3.441  15.320  1.5424  0.5793  0.7236
  186MPD1    H7 2842   2.190   3.541  15.389  0.7659  0.5307 -0.3951
  187MPD1     C 2843   1.296   0.785   0.559  0.3323 -0.1486 -0.1544
  187MPD1    C1 2844   1.360   0.908   0.566 -1.2769  0.5198 -0.2021
  187MPD1    C2 2845   1.411   0.960   0.447  0.2780  0.1013 -0.0331
  187MPD1    C3 2846   1.419   0.884   0.333  0.2805 -0.2332 -0.2349
  187MPD1    C4 2847   1.370   0.750   0.338 -0.0770 -0.3828 -0.4779
  187MPD1    C5 2848   1.312   0.708   0.445  1.0825  0.4428 -1.4112
  187MPD1     H 2849   1.453   1.059   0.452  2.2786 -0.6324 -2.2292
  187MPD1    H1 2850   1.383   0.688   0.250 -0.1890 -0.9080 -0.1183
  187MPD1    H2 2851   1.240   0.741   0.640 -0.3313  0.5551 -0.2286
  187MPD1    H3 2852   1.288   0.602   0.446 -0.6840  0.8508  0.0121
  187MPD1     N 2853   1.454   0.929   0.199 -0.0450 -0.0386  0.1091
  187MPD1    H5 2854   1.453   0.859   0.126 -2.2176 -1.4480  1.5130
  187MPD1    N1 2855   1.340   0.986   0.682  0.5040  0.1384 -0.9828
  187MPD1    H6 2856   1.405   1.064   0.689  2.8550 -1.8657 -0.4556
  187MPD1    H7 2857   1.335   0.934   0.769  1.5033  0.9799 -0.4297
  188MPD1     C 2858   1.660   1.192   9.549 -0.2098  1.1945 -0.5907
  188MPD1    C1 2859   1.587   1.145   9.655  0.2410 -0.2656 -0.0618
  188MPD1    C2 2860   1.559   1.014   9.661 -0.1128 -0.4769 -0.1719
  188MPD1    C3 2861   1.620   0.920   9.579  0.7361 -0.0562 -0.7817
  188MPD1    C4 2862   1.704   0.964   9.479  0.3420  0.0112  0.3379
  188MPD1    C5 2863   1.724   1.100   9.472 -0.2744 -0.8206 -0.0600
  188MPD1     H 2864   1.502   0.986   9.749 -0.3467  0.7574  0.0776
  188MPD1    H1 2865   1.765   0.896   9.420  1.0330  0.2526  0.7762
  188MPD1    H2 2866   1.696   1.294   9.541  0.2380  1.3954  4.3681
  188MPD1    H3 2867   1.800   1.131   9.400 -1.1540  1.1623 -0.1403
  188MPD1     N 2868   1.596   0.779   9.597  0.0737  0.1755 -0.5756
  188MPD1    H5 2869   1.642   0.718   9.530  2.6927  1.6636 -0.1531
  188MPD1    N1 2870   1.512   1.237   9.735 -0.0129  0.0960  0.7292
  188MPD1    H6 2871   1.482   1.191   9.821  0.6736 -1.7216  0.0171
  188MPD1    H7 2872   1.570   1.315   9.764 -0.7847  1.0640 -0.3753
  189MPD1     C 2873   2.961   0.826   0.621  0.3595 -1.2765 -0.2953
  189MPD1    C1 2874   2.897   0.780   0.507  0.1821  0.3204 -0.3537
  189MPD1    C2 2875   2.884   0.865   0.405  0.6024  0.3618  0.9630
  189MPD1    C3 2876   2.910   1.004   0.428  0.7367 -0.5661  0.0859
  189MPD1    C4 2877   2.956   1.051   0.552 -0.3758  0.5112  0.8235
  189MPD1    C5 2878   2.992   0.956   0.640  0.1556 -0.4284  0.7694
  189MPD1     H 2879   2.849   0.826   0.310 -0.6611  0.5894  1.3362
  189MPD1    H1 2880   2.976   1.156   0.569 -0.4658  0.3843  1.7168
  189MPD1    H2 2881   3.002   0.753   0.689  1.2197  0.4324  1.0037
  189MPD1    H3 2882   3.033   0.979   0.738  1.0161 -2.6343  0.9397
  189MPD1     N 2883   2.883   1.099   0.323  0.2765 -0.6617 -0.1980
  189MPD1    H5 2884   2.845   1.056   0.239  1.1759  0.3951 -1.1430
  189MPD1    N1 2885   2.887   0.643   0.479 -0.7640  0.2816 -0.1766
  189MPD1    H6 2886   2.850   0.591   0.559 -0.7483  0.0272 -0.3339
  189MPD1    H7 2887   2.813   0.640   0.410 -1.0493  0.1028  0.1365
  190MPD1     C 2888   1.703   0.545  16.005 -0.5859 -0.6257  0.3160
  190MPD1    C1 2889   1.763   0.579  16.132 -0.3814 -0.3574  0.1058
  190MPD1    C2 2890   1.897   0.550  16.147  0.1113 -0.2249 -0.2757
  190MPD1    C3 2891   1.975   0.505  16.036  0.0767 -0.6575  0.0489
  190MPD1    C4 2892   1.911   0.484  15.912  0.1677 -0.4451  0.2335
  190MPD1    C5 2893   1.781   0.498  15.902  0.3397  0.6348  0.5455
  190MPD1     H 2894   1.938   0.562  16.247  0.0957 -4.4806  0.2489
  190MPD1    H1 2895   1.962   0.435  15.831  0.3450  0.7226 -0.3616
  190MPD1    H2 2896   1.598   0.568  15.990 -0.4453 -1.9366 -2.5191
  190MPD1    H3 2897   1.737   0.474  15.806  1.7712  0.3724 -0.0377
  190MPD1     N 2898   2.115   0.482  16.046 -0.7310 -0.0744  0.2033
  190MPD1    H5 2899   2.145   0.494  16.142 -2.7899 -1.1931  0.9700
  190MPD1    N1 2900   1.688   0.596  16.247 -0.0239  0.4219  0.1198
  190MPD1    H6 2901   1.614   0.666  16.246  0.8238  1.3358  1.9783
  190MPD1    H7 2902   1.742   0.637  16.323 -1.2452  0.1745  1.1401
  191MPD1     C 2903   1.196   1.899  13.430  0.5233  0.2369  0.2005
  191MPD1    C1 2904   1.082   1.971  13.396  0.0702  0.5905  0.2357
  191MPD1    C2 2905   1.095   2.057  13.283  0.2093  0.5557 -1.2029
  191MPD1    C3 2906   1.209   2.066  13.210 -0.0196 -0.5941 -0.2270
  191MPD1    C4 2907   1.319   1.990  13.253  0.4439  1.0722  0.2740
  191MPD1    C5 2908   1.314   1.920  13.371 -0.8805 -0.7951 -0.2144
  191MPD1     H 2909   1.008   2.106  13.241 -1.3878 -1.3252 -0.0731
  191MPD1    H1 2910   1.414   2.001  13.200 -0.7420  1.2692 -1.8183
  191MPD1    H2 2911   1.205   1.830  13.513 -0.9223  0.3575  0.4639
  191MPD1    H3 2912   1.400   1.873  13.417  0.4420  0.0255 -1.8391
  191MPD1     N 2913   1.207   2.146  13.094  0.2643  0.7731 -0.1465
  191MPD1    H5 2914   1.113   2.179  13.071 -0.2456 -0.1350  0.6418
  191MPD1    N1 2915   0.959   1.951  13.465  0.0210  0.2222  0.0018
  191MPD1    H6 2916   0.887   2.015  13.432  1.2910  1.7088  0.1326
  191MPD1    H7 2917   0.974   1.980  13.562 -3.0483  0.9951  0.2514
  192MPD1     C 2918   0.626   2.564  12.417  0.0785 -0.1772  0.1944
  192MPD1    C1 2919   0.636   2.444  12.471  0.2169  0.0689 -0.2017
  192MPD1    C2 2920   0.754   2.402  12.539  0.1616  0.1400 -0.2456
  192MPD1    C3 2921   0.851   2.497  12.571  0.1891  0.1053 -0.0385
  192MPD1    C4 2922   0.836   2.620  12.519  0.3120  0.3398 -0.4571
  192MPD1    C5 2923   0.725   2.660  12.448 -0.1650 -0.0455  0.2849
  192MPD1     H 2924   0.770   2.297  12.561 -3.2507 -0.5605 -1.0234
  192MPD1    H1 2925   0.923   2.683  12.533 -1.2931  2.4483  0.0533
  192MPD1    H2 2926   0.539   2.582  12.356 -0.6597  1.2237  1.6841
  192MPD1    H3 2927   0.733   2.764  12.418 -0.0217  0.8460  3.3715
  192MPD1     N 2928   0.977   2.467  12.632  0.2077  0.3809  0.4269
  192MPD1    H5 2929   1.040   2.545  12.644 -0.7323  1.2537 -0.3595
  192MPD1    N1 2930   0.553   2.341  12.427 -0.3706 -0.0988 -0.4399
  192MPD1    H6 2931   0.549   2.266  12.496  1.6401  1.6015  1.5015
  192MPD1    H7 2932   0.463   2.363  12.385  0.0966  1.3451 -0.6838
  193MPD1     C 2933   0.949   2.130  16.183 -0.1109 -0.3302 -0.4265
  193MPD1    C1 2934   0.946   2.253  16.248  0.0806  0.2243 -0.6160
  193MPD1    C2 2935   1.036   2.277  16.347  0.7123  0.2242  0.4096
  193MPD1    C3 2936   1.123   2.180  16.400  0.0743  0.1438 -0.4706
  193MPD1    C4 2937   1.127   2.064  16.331 -0.2868 -0.3083 -0.4079
  193MPD1    C5 2938   1.040   2.041  16.224  0.0661 -0.0066  0.8323
  193MPD1     H 2939   1.027   2.377  16.388  0.7263 -0.0780  1.1486
  193MPD1    H1 2940   1.205   1.993  16.357  0.1146  0.2816 -0.0010
  193MPD1    H2 2941   0.889   2.109  16.095 -0.5742 -0.4151 -0.0925
  193MPD1    H3 2942   1.049   1.945  16.175  2.0310  0.2530  0.6819
  193MPD1     N 2943   1.197   2.189  16.516 -0.1212  0.6909 -0.3448
  193MPD1    H5 2944   1.252   2.109  16.546 -0.4828  0.4293 -0.3764
  193MPD1    N1 2945   0.858   2.346  16.207  0.5734 -0.2130 -0.0735
  193MPD1    H6 2946   0.822   2.405  16.282  1.2385 -1.7427  1.4355
  193MPD1    H7 2947   0.789   2.308  16.143  1.0983  1.9925 -1.9923
  194MPD1     C 2948   2.887   2.895  17.134  0.0810  0.4521 -0.6319
  194MPD1    C1 2949   2.898   3.032  17.143  0.2671 -0.6348 -0.0207
  194MPD1    C2 2950   2.982   3.091  17.240  0.1723  0.9187 -0.2038
  194MPD1    C3 2951   3.047   3.013  17.328 -0.0716 -0.6490  0.0060
  194MPD1    C4 2952   3.028   2.880  17.324 -0.4922  0.4118  0.2875
  194MPD1    C5 2953   2.951   2.822  17.228 -0.1049  0.2847  0.0254
  194MPD1     H 2954   2.981   3.199  17.250 -0.5514  1.1220 -2.4779
  194MPD1    H1 2955   3.097   2.817  17.379  0.0620  0.8630  0.1070
  194MPD1    H2 2956   2.822   2.846  17.064  0.8738  2.0655 -2.5067
  194MPD1    H3 2957   2.936   2.715  17.235 -1.2899  0.3892 -0.9128
  194MPD1     N 2958   3.125   3.057  17.439  0.8646 -0.4596 -0.1717
  194MPD1    H5 2959   3.160   2.987  17.504 -1.9896 -3.6698 -2.1187
  194MPD1    N1 2960   2.825   3.118  17.056 -0.2703 -0.1906 -0.0924
  194MPD1    H6 2961   2.810   3.216  17.082 -1.6325 -0.8771  1.6648
  194MPD1    H7 2962   2.748   3.072  17.008 -0.5660 -1.8906  1.9944
  195MPD1     C 2963   1.139   1.306  17.646 -0.3839  0.2881  0.4108
  195MPD1    C1 2964   1.170   1.222   0.055 -0.5995 -0.0801 -0.0919
  195MPD1    C2 2965   1.124   1.090   0.046  0.3507  0.1438  1.0663
  195MPD1    C3 2966   1.066   1.040  17.628 -0.1683 -0.1172 -0.3757
  195MPD1    C4 2967   1.050   1.129  17.516  0.0773  0.5634 -0.0399
  195MPD1    C5 2968   1.084   1.259  17.530  0.2534  0.3141 -0.0296
  195MPD1     H 2969   1.141   1.032   0.136  0.7946 -0.8017  0.3712
  195MPD1    H1 2970   1.003   1.097  17.424  1.6775 -1.2519 -0.2349
  195MPD1    H2 2971   1.158   1.412  17.637 -4.3096  1.0889  1.5068
  195MPD1    H3 2972   1.059   1.328  17.449  0.8134  0.8022  0.2168
  195MPD1     N 2973   1.042   0.901  17.606  0.4519  0.1606 -0.1889
  195MPD1    H5 2974   0.992   0.884  17.520 -1.4677 -0.8701  1.1313
  195MPD1    N1 2975   1.200   1.280   0.185  0.9261  0.0313  0.5343
  195MPD1    H6 2976   1.259   1.360   0.161  0.7507  0.1262  0.4195
  195MPD1    H7 2977   1.260   1.215   0.236 -0.2374 -0.0950  1.7438
  196MPD1     C 2978   0.597   4.692   0.680  0.5137 -0.3121 -0.0215
  196MPD1    C1 2979   0.646   0.057   0.590 -0.3416 -0.6749 -0.3504
  196MPD1    C2 2980   0.757   0.126   0.623  0.2180 -0.1036 -0.5518
  196MPD1    C3 2981   0.811   0.114   0.750 -0.3498  0.1324  0.0905
  196MPD1    C4 2982   0.758   0.026   0.840 -0.2133  0.2049  0.1229
  196MPD1    C5 2983   0.652   4.674   0.804 -0.5990  0.0977  0.2692
  196MPD1     H 2984   0.810   0.187   0.551  2.9709 -0.9271  0.7678
  196MPD1    H1 2985   0.791   0.010   0.942 -2.1072  1.9826  1.0076
  196MPD1    H2 2986   0.516   4.623   0.660 -1.1712  1.3907  1.0314
  196MPD1    H3 2987   0.602   4.604   0.871  0.4566 -2.1159 -1.2293
  196MPD1     N 2988   0.922   0.179   0.798  0.2465  0.2932  0.1095
  196MPD1    H5 2989   0.964   0.147   0.885 -0.2742 -0.9796 -0.1009
  196MPD1    N1 2990   0.605   0.053   0.455 -0.3177  0.2652 -0.0796
  196MPD1    H6 2991   0.603   0.150   0.422 -0.2248  0.0808 -0.6270
  196MPD1    H7 2992   0.512   0.011   0.455 -0.7199  1.1476  0.7625
  197MPD1     C 2993   0.147   2.557   0.181  0.0458 -0.0551 -0.5038
  197MPD1    C1 2994   0.133   2.693   0.187  0.3399 -0.0392 -0.0733
  197MPD1    C2 2995   0.194   2.770   0.087  0.1858 -0.0516 -0.3053
  197MPD1    C3 2996   0.276   2.716  17.684  0.2370  0.4022  0.4874
  197MPD1    C4 2997   0.293   2.578  17.683 -0.1621 -0.4652 -0.2128
  197MPD1    C5 2998   0.222   2.505   0.081 -0.0091  0.0780 -1.3062
  197MPD1     H 2999   0.189   2.878   0.091  0.9773 -0.0165 -0.1853
  197MPD1    H1 3000   0.343   2.523  17.603 -1.7648 -2.2341 -0.0078
  197MPD1    H2 3001   0.094   2.488   0.245  1.2368  0.1847  0.7404
  197MPD1    H3 3002   0.224   2.397   0.078  0.1989  0.0999 -1.9271
  197MPD1     N 3003   0.339   2.794  17.585  0.3322  0.6325  0.5426
  197MPD1    H5 3004   0.403   2.744  17.525 -0.6551 -0.4218  0.3697
  197MPD1    N1 3005   0.028   2.743   0.271 -0.6078 -0.0666 -0.1543
  197MPD1    H6 3006   0.031   2.689   0.357 -1.2500  0.8085  0.4295
  197MPD1    H7 3007   0.045   2.838   0.304  2.0037 -0.6966  0.2661
  198MPD1     C 3008   1.418   1.549  15.852 -0.3630  0.2928 -0.5223
  198MPD1    C1 3009   1.513   1.549  15.958  0.1465  0.3999 -0.5825
  198MPD1    C2 3010   1.638   1.606  15.934 -0.5677 -0.4910 -0.4833
  198MPD1    C3 3011   1.674   1.652  15.811 -0.0058  0.5314 -1.5480
  198MPD1    C4 3012   1.581   1.648  15.708 -0.2022  0.3317  0.8513
  198MPD1    C5 3013   1.450   1.599  15.728 -0.8242 -0.4790 -0.5939
  198MPD1     H 3014   1.713   1.610  16.012  0.0302  1.2313 -1.1524
  198MPD1    H1 3015   1.607   1.679  15.608  0.1261 -1.0495  0.4983
  198MPD1    H2 3016   1.317   1.511  15.862 -0.2670  0.7455  2.0956
  198MPD1    H3 3017   1.380   1.581  15.648  0.1149 -0.2041 -1.4750
  198MPD1     N 3018   1.812   1.700  15.802  0.0822  0.9150 -0.0433
  198MPD1    H5 3019   1.872   1.696  15.884  0.7450  1.2044 -0.5194
  198MPD1    N1 3020   1.486   1.512  16.093  0.5277 -0.0250 -0.4369
  198MPD1    H6 3021   1.568   1.520  16.153 -0.1857  0.5225  0.4647
  198MPD1    H7 3022   1.437   1.423  16.096  0.5226  0.0354  1.3430
  199MPD1     C 3023   0.511   2.410   9.790 -0.1914  0.2015 -0.0828
  199MPD1    C1 3024   0.467   2.537   9.745  0.0016  0.1023  0.3344
  199MPD1    C2 3025   0.330   2.558   9.766  0.7733 -0.5457  0.0092
  199MPD1    C3 3026   0.242   2.455   9.796 -0.8763  0.5185  0.4765
  199MPD1    C4 3027   0.285   2.318   9.821 -0.2068 -0.6362  0.1813
  199MPD1    C5 3028   0.420   2.306   9.815  0.7729  0.0223  0.2408
  199MPD1     H 3029   0.298   2.661   9.754 -0.5708 -0.9321  0.1877
  199MPD1    H1 3030   0.221   2.238   9.858 -1.0636  0.1631  0.4301
  199MPD1    H2 3031   0.615   2.379   9.788 -0.7756 -1.8615  1.5743
  199MPD1    H3 3032   0.466   2.214   9.847 -0.1750 -0.0762  1.3289
  199MPD1     N 3033   0.100   2.483   9.793  0.6465 -0.6351  0.0755
  199MPD1    H5 3034   0.040   2.404   9.814  0.7564 -0.3545  1.4445
  199MPD1    N1 3035   0.557   2.647   9.723  0.1216 -0.5925  0.0626
  199MPD1    H6 3036   0.531   2.708   9.646  2.6173  0.3291 -0.0633
  199MPD1    H7 3037   0.652   2.615   9.703  0.1467 -1.3865  1.4754
  200MPD1     C 3038   2.630   2.460  15.130  0.9762 -0.2913 -0.2203
  200MPD1    C1 3039   2.618   2.420  14.999  0.3531 -0.1669  0.0037
  200MPD1    C2 3040   2.732   2.435  14.919 -0.4213 -0.0210  0.0574
  200MPD1    C3 3041   2.855   2.472  14.970  0.0801 -0.2621 -0.6388
  200MPD1    C4 3042   2.868   2.495  15.101  0.4128  0.6785  0.3528
  200MPD1    C5 3043   2.758   2.485  15.180  0.0068 -0.1990  0.7075
  200MPD1     H 3044   2.719   2.403  14.816  1.0767  0.6298 -0.3346
  200MPD1    H1 3045   2.962   2.529  15.142 -0.0607  1.8964  0.4533
  200MPD1    H2 3046   2.540   2.472  15.190  0.9662  0.5889 -0.4154
  200MPD1    H3 3047   2.767   2.528  15.279 -1.8373 -0.0808  0.8237
  200MPD1     N 3048   2.964   2.483  14.880 -0.4242 -0.1657  0.4080
  200MPD1    H5 3049   2.947   2.467  14.781 -0.7104  0.3448  0.3762
  200MPD1    N1 3050   2.489   2.394  14.936 -0.0135  0.1209  0.7716
  200MPD1    H6 3051   2.410   2.380  14.999 -0.7375 -0.7034 -0.3343
  200MPD1    H7 3052   2.491   2.323  14.863  2.0534 -2.5801  3.4465
  201MPD1     C 3053   0.682   2.019  12.715  0.8775 -0.2489  0.4899
  201MPD1    C1 3054   0.800   1.958  12.719  0.7246 -0.7144  0.3339
  201MPD1    C2 3055   0.800   1.835  12.777 -0.7586  0.7162 -0.7068
  201MPD1    C3 3056   0.702   1.789  12.863  0.0953  0.1317  0.5849
  201MPD1    C4 3057   0.587   1.863  12.861  0.4780 -0.0315  0.2362
  201MPD1    C5 3058   0.574   1.973  12.786  0.0560 -0.3370 -0.2134
  201MPD1     H 3059   0.882   1.764  12.773 -1.2212  0.2287 -1.5477
  201MPD1    H1 3060   0.509   1.837  12.932  0.2941 -3.8384 -1.3240
  201MPD1    H2 3061   0.667   2.110  12.658  1.3760 -0.2762  0.3123
  201MPD1    H3 3062   0.483   2.030  12.773 -0.5674 -1.4133 -0.5133
  201MPD1     N 3063   0.710   1.668  12.935  0.4062 -0.0925 -0.3548
  201MPD1    H5 3064   0.794   1.615  12.917 -0.6374 -1.9888  0.3777
  201MPD1    N1 3065   0.915   2.003  12.649  0.5584  0.1429  0.0352
  201MPD1    H6 3066   0.926   2.103  12.663  2.5496 -0.2322  1.0933
  201MPD1    H7 3067   0.993   1.954  12.692  1.3295  1.2262 -0.1536
  202MPD1     C 3068   1.200   1.016   8.979 -0.2275 -0.0577  0.0300
  202MPD1    C1 3069   1.267   0.906   9.024 -0.0323  0.5409 -0.7403
  202MPD1    C2 3070   1.245   0.889   9.160 -0.9745  0.2336 -0.5832
  202MPD1    C3 3071   1.212   0.986   9.246  0.1138  0.5380  0.3581
  202MPD1    C4 3072   1.177   1.102   9.203 -0.1298  0.0196 -0.3732
  202MPD1    C5 3073   1.156   1.110   9.065 -0.0472 -0.1568  1.2821
  202MPD1     H 3074   1.276   0.794   9.200  1.8899  2.0009  1.3755
  202MPD1    H1 3075   1.150   1.184   9.269  0.6324  0.5624 -0.7351
  202MPD1    H2 3076   1.190   1.031   8.873  0.6491  1.5986  0.1858
  202MPD1    H3 3077   1.104   1.199   9.031 -0.3748 -1.4269 -1.5245
  202MPD1     N 3078   1.222   0.967   9.386  0.6667 -0.2197 -0.4770
  202MPD1    H5 3079   1.230   1.053   9.440  2.0689 -1.0016  0.5552
  202MPD1    N1 3080   1.292   0.796   8.936 -0.6355  0.2714 -0.0920
  202MPD1    H6 3081   1.335   0.816   8.846  2.1755 -1.9358  0.7688
  202MPD1    H7 3082   1.348   0.726   8.984 -0.2212 -0.2446 -1.3443
  203MPD1     C 3083   4.613   2.053  12.808 -0.0253  0.9578 -0.2489
  203MPD1    C1 3084   4.506   1.974  12.820 -0.2937  0.1007  0.0898
  203MPD1    C2 3085   4.507   1.843  12.793 -0.0578  0.1173  0.2332
  203MPD1    C3 3086   4.622   1.783  12.749  0.0648  0.5228 -0.1253
  203MPD1    C4 3087   0.010   1.855  12.731  0.2762 -0.2897  0.0916
  203MPD1    C5 3088   0.009   1.991  12.771  0.1515 -0.1456 -0.7319
  203MPD1     H 3089   4.418   1.781  12.798  1.5698 -2.3108 -0.9337
  203MPD1    H1 3090   0.104   1.805  12.710  0.5407 -0.6049  2.0678
  203MPD1    H2 3091   4.608   2.160  12.824 -1.5092  0.3634  3.3669
  203MPD1    H3 3092   0.094   2.056  12.751  0.4368  0.0089  1.0182
  203MPD1     N 3093   4.618   1.650  12.705  0.4766 -0.2099 -0.3263
  203MPD1    H5 3094   4.529   1.604  12.720  0.8034 -0.7047  0.0753
  203MPD1    N1 3095   4.375   2.022  12.831  0.3768  0.1617 -0.1734
  203MPD1    H6 3096   4.314   1.955  12.876 -0.2837 -0.5117 -2.0920
  203MPD1    H7 3097   4.380   2.108  12.886 -1.1053 -0.6275  1.1659
  204MPD1     C 3098   3.450   2.294   0.550 -0.0773  0.2422 -0.3581
  204MPD1    C1 3099   3.525   2.186   0.536  0.4709 -0.3786  0.2270
  204MPD1    C2 3100   3.543   2.116   0.410  0.2905 -0.2367 -0.3623
  204MPD1    C3 3101   3.475   2.172   0.303 -0.2164 -0.4270 -0.1857
  204MPD1    C4 3102   3.389   2.278   0.323  0.5196 -0.1855  0.3790
  204MPD1    C5 3103   3.367   2.331   0.444  0.8132 -0.8420 -0.4377
  204MPD1     H 3104   3.597   2.023   0.398 -1.0899 -0.9661 -0.8943
  204MPD1    H1 3105   3.338   2.320   0.237 -0.8150 -3.1935 -0.3155
  204MPD1    H2 3106   3.447   2.352   0.641 -2.7538  0.4982 -0.6099
  204MPD1    H3 3107   3.304   2.418   0.452 -0.4964 -1.8722  0.5624
  204MPD1     N 3108   3.489   2.108   0.175 -0.3062  0.7293 -0.4134
  204MPD1    H5 3109   3.543   2.023   0.168 -0.9937  0.2283  0.3380
  204MPD1    N1 3110   3.607   2.150   0.640  0.3092 -0.7467  0.0587
  204MPD1    H6 3111   3.628   2.051   0.653  0.7385 -0.6701 -0.0782
  204MPD1    H7 3112   3.567   2.180   0.729  0.5208  1.3748 -0.5837
  205MPD1     C 3113   3.356   1.114  16.517  0.0135  0.1253  0.2869
  205MPD1    C1 3114   3.271   1.148  16.621 -0.1972 -0.0298  0.1770
  205MPD1    C2 3115   3.297   1.091  16.744 -0.1631 -0.9479 -0.1097
  205MPD1    C3 3116   3.419   1.020  16.773  0.9510  0.3417  0.0634
  205MPD1    C4 3117   3.506   1.002  16.664  0.1698 -0.2938  0.5435
  205MPD1    C5 3118   3.472   1.044  16.536 -0.1452 -0.3303 -0.0723
  205MPD1     H 3119   3.223   1.107  16.822 -0.7815 -0.1355 -0.8675
  205MPD1    H1 3120   3.598   0.948  16.686  0.5956  0.5175  0.7560
  205MPD1    H2 3121   3.335   1.158  16.420 -2.4006 -0.9028  0.3583
  205MPD1    H3 3122   3.536   1.022  16.451 -0.1616 -2.0676  0.3646
  205MPD1     N 3123   3.458   0.981  16.896 -0.4777  0.2139 -0.0158
  205MPD1    H5 3124   3.539   0.920  16.901 -1.7387 -1.2178  2.4066
  205MPD1    N1 3125   3.143   1.200  16.599 -0.2945 -0.0374  0.2399
  205MPD1    H6 3126   3.106   1.247  16.681 -0.0738 -0.3280  0.5020
  205MPD1    H7 3127   3.139   1.271  16.525 -1.6211  1.5037  1.7712
  206MPD1     C 3128   4.365   4.020  16.498  0.5961  1.0880  0.4076
  206MPD1    C1 3129   4.301   4.132  16.543 -0.3315 -0.4918  0.2574
  206MPD1    C2 3130   4.202   4.190  16.474  0.2431 -0.7783  0.2704
  206MPD1    C3 3131   4.165   4.147  16.352 -0.3121 -0.0698  0.7225
  206MPD1    C4 3132   4.223   4.030  16.304  0.4158  0.0092 -0.0052
  206MPD1    C5 3133   4.319   3.968  16.381  0.0391 -0.7428 -1.2143
  206MPD1     H 3134   4.163   4.284  16.513  0.5185 -0.4321 -0.2839
  206MPD1    H1 3135   4.199   3.996  16.204 -2.5904  3.3652 -0.4525
  206MPD1    H2 3136   4.455   3.996  16.553 -0.0877 -4.4586 -0.8777
  206MPD1    H3 3137   4.371   3.883  16.337 -1.4233 -2.6631  0.7947
  206MPD1     N 3138   4.066   4.209  16.273 -0.0766  0.5636 -0.7635
  206MPD1    H5 3139   4.034   4.159  16.190 -1.2717  3.0893 -1.8485
  206MPD1    N1 3140   4.366   4.203  16.646 -0.5146 -0.5873 -0.2839
  206MPD1    H6 3141   4.296   4.266  16.686  0.9191  0.1329  1.1236
  206MPD1    H7 3142   4.416   4.143  16.711 -1.0445  0.0371  0.7264
  207MPD1     C 3143   1.252   2.596   9.579 -0.0152 -0.2918 -0.6008
  207MPD1    C1 3144   1.310   2.724   9.570 -0.2713  0.3924  0.5701
  207MPD1    C2 3145   1.446   2.738   9.585 -0.3559  0.5724  0.1992
  207MPD1    C3 3146   1.528   2.630   9.603 -0.3254  0.4829  0.3280
  207MPD1    C4 3147   1.466   2.508   9.609  0.2249 -0.0258  0.0664
  207MPD1    C5 3148   1.336   2.487   9.590 -0.1499  0.6116 -0.1442
  207MPD1     H 3149   1.480   2.841   9.579  0.0667  0.4709  0.7929
  207MPD1    H1 3150   1.520   2.417   9.633  1.4104 -0.4675 -4.2522
  207MPD1    H2 3151   1.145   2.580   9.568 -0.0666 -2.6277  3.1241
  207MPD1    H3 3152   1.298   2.386   9.582 -0.0590  0.5238  0.5956
  207MPD1     N 3153   1.674   2.643   9.621  0.6418  0.0302 -0.2260
  207MPD1    H5 3154   1.729   2.558   9.628 -1.4822 -1.1940  1.3160
  207MPD1    N1 3155   1.221   2.826   9.533 -0.5914  0.3326  0.6544
  207MPD1    H6 3156   1.127   2.822   9.571 -1.5163  0.5194 -1.6259
  207MPD1    H7 3157   1.262   2.918   9.548  1.2579 -0.0752 -1.8627
  208MPD1     C 3158   0.382   1.879  17.360 -0.0404  0.2264  0.0790
  208MPD1    C1 3159   0.281   1.857  17.269  0.2861  0.5636  0.4693
  208MPD1    C2 3160   0.211   1.740  17.277  0.6356 -0.2960  0.0413
  208MPD1    C3 3161   0.227   1.651  17.381  0.2706  0.1117 -0.1324
  208MPD1    C4 3162   0.332   1.675  17.470 -0.1901  0.3915  0.1828
  208MPD1    C5 3163   0.410   1.789  17.456 -0.0891  0.6626 -0.2148
  208MPD1     H 3164   0.156   1.712  17.187 -1.0521 -0.2610  1.0731
  208MPD1    H1 3165   0.353   1.614  17.558 -2.7120 -1.9033 -0.8040
  208MPD1    H2 3166   0.437   1.972  17.355  0.9728 -0.2917  1.6825
  208MPD1    H3 3167   0.483   1.816  17.530  1.4945 -0.7776 -1.2382
  208MPD1     N 3168   0.141   1.538  17.395 -0.5293 -0.1098 -0.5061
  208MPD1    H5 3169   0.058   1.529  17.337  0.2122  0.5044 -1.6627
  208MPD1    N1 3170   0.269   1.943  17.160 -0.0695 -0.1122 -0.4016
  208MPD1    H6 3171   0.295   2.041  17.170 -1.2979  0.0805  0.8129
  208MPD1    H7 3172   0.187   1.925  17.104 -1.6174  1.3199  1.4216
  209MPD1     C 3173   2.440   1.651  10.966 -0.0021  1.2423 -0.3223
  209MPD1    C1 3174   2.470   1.781  10.997 -0.2651 -0.1033 -0.5083
  209MPD1    C2 3175   2.500   1.871  10.888  0.4223  0.3833 -0.2929
  209MPD1    C3 3176   2.483   1.834  10.759  0.0356  0.4237  0.1421
  209MPD1    C4 3177   2.445   1.708  10.723 -0.0836 -0.2049 -0.2750
  209MPD1    C5 3178   2.419   1.625  10.832 -0.0884 -0.8854 -0.1440
  209MPD1     H 3179   2.550   1.962  10.918  0.1687  0.5110 -0.2571
  209MPD1    H1 3180   2.420   1.674  10.623 -0.4021  1.1173 -0.6448
  209MPD1    H2 3181   2.413   1.574  11.037  3.4601 -0.7310 -1.1312
  209MPD1    H3 3182   2.386   1.523  10.811 -1.1330 -0.5663 -0.0401
  209MPD1     N 3183   2.519   1.931  10.659 -0.2174 -0.4176  0.2348
  209MPD1    H5 3184   2.571   2.015  10.682 -0.4828  0.0427 -0.8255
  209MPD1    N1 3185   2.483   1.819  11.128 -0.6090  0.4609 -0.2645
  209MPD1    H6 3186   2.457   1.911  11.161 -2.6396  0.5566 -2.1102
  209MPD1    H7 3187   2.448   1.756  11.199  0.0966  0.5618  0.1733
  210MPD1     C 3188   3.192   2.431  10.763 -0.5469 -0.0771  0.6958
  210MPD1    C1 3189   3.180   2.418  10.623 -0.2886  0.3020 -0.3363
  210MPD1    C2 3190   3.047   2.398  10.577  0.4982 -0.5771 -0.2106
  210MPD1    C3 3191   2.941   2.359  10.655 -0.2255 -0.1309 -0.0194
  210MPD1    C4 3192   2.968   2.360  10.793  0.0381 -0.3341 -1.3170
  210MPD1    C5 3193   3.088   2.405  10.841 -1.8280  0.2687  0.1011
  210MPD1     H 3194   3.029   2.399  10.471 -2.8040 -0.4236  0.3483
  210MPD1    H1 3195   2.892   2.341  10.869 -0.2209  0.8115 -1.2925
  210MPD1    H2 3196   3.279   2.469  10.816  1.0797 -0.8752 -1.3547
  210MPD1    H3 3197   3.101   2.405  10.949  4.0244  0.6454 -0.6489
  210MPD1     N 3198   2.819   2.305  10.606  0.1164 -0.2421  0.0953
  210MPD1    H5 3199   2.752   2.273  10.674  1.6197  2.1694  2.7069
  210MPD1    N1 3200   3.281   2.456  10.539  0.2495 -0.4334  0.4184
  210MPD1    H6 3201   3.276   2.389  10.463  1.9032 -3.4355  2.9462
  210MPD1    H7 3202   3.374   2.439  10.578  0.8219  4.0048  0.9603
  211MPD1     C 3203   4.692   1.795  15.920  0.6874  0.1092  0.4924
  211MPD1    C1 3204   4.604   1.893  15.893 -0.9143  0.3512  0.2011
  211MPD1    C2 3205   4.488   1.898  15.963  0.1583 -0.2372  0.6865
  211MPD1    C3 3206   4.468   1.824  16.079 -0.2793  0.1940 -0.0078
  211MPD1    C4 3207   4.565   1.735  16.121 -0.6413 -0.1796 -0.3445
  211MPD1    C5 3208   4.668   1.724  16.036 -0.3471 -0.4186  0.3972
  211MPD1     H 3209   4.408   1.962  15.927  0.7615 -0.2010 -0.5910
  211MPD1    H1 3210   4.552   1.674  16.209 -1.4847 -1.4439 -1.3579
  211MPD1    H2 3211   0.057   1.772  15.863  0.9996  1.1328  0.5539
  211MPD1    H3 3212   0.023   1.653  16.058  0.6997  0.1255 -1.6244
  211MPD1     N 3213   4.343   1.825  16.147 -0.5246 -0.6142 -0.3639
  211MPD1    H5 3214   4.280   1.893  16.106 -0.8745 -1.9008 -2.0020
  211MPD1    N1 3215   4.620   1.956  15.775  0.0994  0.6012  0.6518
  211MPD1    H6 3216   4.568   2.043  15.787 -4.5638 -2.0971  0.1195
  211MPD1    H7 3217   4.712   1.998  15.760  0.2168  0.3376  0.6513
  212MPD1     C 3218   3.535   0.180  16.859  0.6059  0.7522  1.0141
  212MPD1    C1 3219   3.607   0.063  16.864 -0.7269 -0.7769  0.5422
  212MPD1    C2 3220   3.537   4.667  16.841 -0.5356 -0.0371 -0.2793
  212MPD1    C3 3221   3.398   4.665  16.829 -0.5484  0.0357  1.3397
  212MPD1    C4 3222   3.332   0.060  16.826  0.3014 -0.3663 -0.1332
  212MPD1    C5 3223   3.400   0.175  16.843  0.1077  0.0235 -0.5976
  212MPD1     H 3224   3.589   4.573  16.846 -1.0440 -0.2822  0.4310
  212MPD1    H1 3225   3.227   0.070  16.800  0.0899  0.0941  0.9021
  212MPD1    H2 3226   3.584   0.275  16.872 -0.0157  1.3913 -1.3106
  212MPD1    H3 3227   3.342   0.267  16.844 -4.1670 -2.6596  3.9987
  212MPD1     N 3228   3.319   4.549  16.811  0.3715 -0.1692 -0.0029
  212MPD1    H5 3229   3.218   4.560  16.811  0.4839  0.9468  0.5278
  212MPD1    N1 3230   3.741   0.056  16.898 -0.6618  0.0470 -0.2439
  212MPD1    H6 3231   3.800   0.119  16.843 -0.4677 -1.4494 -1.7391
  212MPD1    H7 3232   3.778   4.686  16.882 -0.0512  0.4624 -1.2456
  213MPD1     C 3233   0.863   1.374  15.898  0.7408 -0.2608  0.5670
  213MPD1    C1 3234   0.768   1.331  15.802  0.4578  0.0178  0.3415
  213MPD1    C2 3235   0.817   1.298  15.680 -0.6602 -0.0165 -0.7411
  213MPD1    C3 3236   0.947   1.327  15.639  0.9444 -0.0295  0.7768
  213MPD1    C4 3237   1.033   1.373  15.733  0.7462 -0.2207 -0.2767
  213MPD1    C5 3238   0.994   1.389  15.864 -0.0990  0.1549  0.7183
  213MPD1     H 3239   0.752   1.252  15.607  0.6288  0.2495 -2.0465
  213MPD1    H1 3240   1.137   1.399  15.718  0.7682  0.0948  0.4410
  213MPD1    H2 3241   0.839   1.380  16.003 -0.2643  3.6181  0.1171
  213MPD1    H3 3242   1.062   1.424  15.940  0.8474  0.8529 -0.4369
  213MPD1     N 3243   0.991   1.286  15.512  0.0655  0.4882  0.3009
  213MPD1    H5 3244   0.919   1.240  15.457  0.8599  0.1101 -0.4253
  213MPD1    N1 3245   0.656   1.270  15.844 -0.3356  1.0688  0.5962
  213MPD1    H6 3246   0.616   1.314  15.927 -3.9521 -0.8689 -0.1378
  213MPD1    H7 3247   0.583   1.273  15.774  1.6597  1.7543 -1.4635
  214MPD1     C 3248   0.703   0.533  15.261  0.0010 -0.5280 -0.4360
  214MPD1    C1 3249   0.714   0.613  15.147 -0.0514 -0.6283  0.3001
  214MPD1    C2 3250   0.809   0.713  15.145 -0.4908 -0.0923  0.8755
  214MPD1    C3 3251   0.873   0.751  15.264  0.4511 -0.6197 -0.7523
  214MPD1    C4 3252   0.840   0.683  15.385 -0.7759  0.0572  0.4068
  214MPD1    C5 3253   0.763   0.580  15.375  0.2154 -1.2487  0.3524
  214MPD1     H 3254   0.830   0.764  15.052  0.8390 -1.0535  0.6471
  214MPD1    H1 3255   0.870   0.715  15.484  1.2699 -0.7455  0.0347
  214MPD1    H2 3256   0.636   0.448  15.266  0.3757 -0.8405 -0.7397
  214MPD1    H3 3257   0.739   0.542  15.473 -1.8080 -0.8113  0.0301
  214MPD1     N 3258   0.962   0.852  15.269  0.3624  0.5128  0.3694
  214MPD1    H5 3259   0.995   0.882  15.360 -1.3596  1.1476  0.7878
  214MPD1    N1 3260   0.663   0.572  15.024  0.2489 -0.1519 -0.3630
  214MPD1    H6 3261   0.716   0.497  14.982  0.2816  0.1342 -0.8432
  214MPD1    H7 3262   0.570   0.535  15.042 -0.2746  1.9890  1.3740
  215MPD1     C 3263   2.018   1.209  10.613 -0.2838  0.6292 -0.6665
  215MPD1    C1 3264   2.025   1.315  10.523 -0.0993  0.3389  0.1174
  215MPD1    C2 3265   2.030   1.443  10.569 -0.3893  0.1651  0.3131
  215MPD1    C3 3266   2.060   1.462  10.703 -0.0045 -0.2232 -0.6040
  215MPD1    C4 3267   2.059   1.358  10.798  0.0469  0.0988 -0.6944
  215MPD1    C5 3268   2.037   1.229  10.754 -0.0805  0.4168  0.5947
  215MPD1     H 3269   2.017   1.523  10.498  0.5571  2.3430  2.6065
  215MPD1    H1 3270   2.082   1.365  10.904  0.7607 -0.8301 -0.7862
  215MPD1    H2 3271   1.997   1.112  10.568 -0.8255  0.7988 -0.7821
  215MPD1    H3 3272   2.039   1.144  10.821 -1.1588  0.2652  0.4282
  215MPD1     N 3273   2.069   1.595  10.760 -0.3062 -0.7792 -0.1747
  215MPD1    H5 3274   2.074   1.671  10.693 -0.5100 -0.1048  0.5712
  215MPD1    N1 3275   1.990   1.290  10.386 -0.4252  0.3536 -0.8525
  215MPD1    H6 3276   2.022   1.198  10.354 -1.2343  0.3478 -1.6405
  215MPD1    H7 3277   2.026   1.360  10.321 -0.0051  1.0892  0.1792
  216MPD1     C 3278   2.833   4.023  17.374 -0.0968 -0.1970 -0.1499
  216MPD1    C1 3279   2.904   4.038  17.492  0.0295 -0.3430 -1.0157
  216MPD1    C2 3280   2.921   3.924  17.573  0.1938  0.4476  0.1126
  216MPD1    C3 3281   2.890   3.795  17.528 -0.5132 -0.0682 -0.1382
  216MPD1    C4 3282   2.831   3.783  17.411 -0.3376  0.9216 -0.9862
  216MPD1    C5 3283   2.793   3.895  17.341 -0.1947  0.0370 -0.8398
  216MPD1     H 3284   2.959   3.934  17.674 -0.8081 -0.8392  0.6100
  216MPD1    H1 3285   2.796   3.690  17.366 -1.4546  0.3216  1.1008
  216MPD1    H2 3286   2.805   4.099  17.302 -0.5954 -1.4624 -1.2915
  216MPD1    H3 3287   2.747   3.872  17.245 -0.3645 -0.8424 -0.5485
  216MPD1     N 3288   2.927   3.676  17.606  0.2553  0.3355 -0.5179
  216MPD1    H5 3289   2.890   3.591  17.566  1.1777 -1.3066  2.1139
  216MPD1    N1 3290   2.927   4.167  17.541  0.7352 -0.5721 -0.0847
  216MPD1    H6 3291   3.000   4.180  17.611  1.5457 -1.8759 -0.6912
  216MPD1    H7 3292   2.956   4.224  17.461  1.0911  0.2509  0.6353
  217MPD1     C 3293   4.580   1.873   8.570  0.3936  0.2253 -0.2131
  217MPD1    C1 3294   4.706   1.893   8.626 -0.1891  0.0460 -0.1993
  217MPD1    C2 3295   0.031   1.774   8.684 -0.2040 -0.1372  0.3463
  217MPD1    C3 3296   4.669   1.676   8.730 -0.2534 -0.1811  0.7289
  217MPD1    C4 3297   4.534   1.686   8.710  0.3527  0.0415 -0.2130
  217MPD1    C5 3298   4.497   1.781   8.613  0.2364 -0.6955 -0.3963
  217MPD1     H 3299   0.136   1.772   8.712  0.5055  1.2633 -2.2359
  217MPD1    H1 3300   4.462   1.611   8.743 -1.2458  0.7688 -2.0232
  217MPD1    H2 3301   4.544   1.953   8.507 -0.1460  1.9253  2.2328
  217MPD1    H3 3302   4.394   1.795   8.584  0.2950 -1.2519 -0.8770
  217MPD1     N 3303   4.717   1.562   8.796 -0.0587 -0.3919  0.1134
  217MPD1    H5 3304   4.660   1.479   8.806 -0.6244  0.0182  0.2676
  217MPD1    N1 3305   0.062   2.004   8.584 -0.4147  0.0314  0.0764
  217MPD1    H6 3306   0.003   2.087   8.583  0.5859  0.7585  0.8672
  217MPD1    H7 3307   0.143   2.032   8.639 -0.6877  2.1475 -0.5867
  218MPD1     C 3308   1.116   2.351  12.336  0.1906 -0.0341 -0.3263
  218MPD1    C1 3309   1.237   2.409  12.309 -0.1073 -0.6189 -0.5204
  218MPD1    C2 3310   1.348   2.328  12.332 -0.4132 -0.3317  0.2641
  218MPD1    C3 3311   1.339   2.217  12.409  0.4888 -0.6785 -0.5935
  218MPD1    C4 3312   1.219   2.174  12.450  0.6591  0.2794  0.8306
  218MPD1    C5 3313   1.108   2.230  12.399 -0.0386 -0.6384 -0.3023
  218MPD1     H 3314   1.448   2.359  12.303 -0.5187  1.4591  1.8193
  218MPD1    H1 3315   1.202   2.082  12.505  2.7935  0.3935  1.6830
  218MPD1    H2 3316   1.030   2.406  12.299  1.2094  1.4076 -0.5415
  218MPD1    H3 3317   1.009   2.194  12.424 -0.5619  0.8382 -0.2330
  218MPD1     N 3318   1.457   2.148  12.439  0.2300 -0.4714  0.1676
  218MPD1    H5 3319   1.539   2.158  12.379  0.3885 -0.2868  0.4165
  218MPD1    N1 3320   1.246   2.521  12.223 -0.0028  0.4551  0.0981
  218MPD1    H6 3321   1.327   2.581  12.238  0.6019 -0.5422  0.8188
  218MPD1    H7 3322   1.165   2.583  12.228 -0.1521  0.3840 -1.2584
  219MPD1     C 3323   2.442   2.153  12.472  0.3416 -0.1229 -0.3195
  219MPD1    C1 3324   2.349   2.177  12.371 -1.0368 -0.1038  0.4699
  219MPD1    C2 3325   2.225   2.124  12.385  0.3227  0.3483  0.5236
  219MPD1    C3 3326   2.186   2.051  12.495 -1.0499 -0.3671 -1.0139
  219MPD1    C4 3327   2.278   2.023  12.593  0.2896  0.2223  0.1772
  219MPD1    C5 3328   2.405   2.078  12.579 -0.6255 -0.4787 -0.2079
  219MPD1     H 3329   2.160   2.138  12.300  0.9461  0.7494  0.1149
  219MPD1    H1 3330   2.263   1.970  12.686 -0.6604  0.3926  0.1255
  219MPD1    H2 3331   2.537   2.205  12.481  0.2301 -0.1271  0.7749
  219MPD1    H3 3332   2.481   2.057  12.653 -0.4743  2.1985  0.4067
  219MPD1     N 3333   2.061   1.995  12.508  0.1536 -0.3941  0.5051
  219MPD1    H5 3334   2.052   1.924  12.580 -1.1127  0.3754  1.0937
  219MPD1    N1 3335   2.382   2.249  12.257  0.0824  0.0636 -0.1274
  219MPD1    H6 3336   2.351   2.201  12.173 -0.9097  0.4997 -0.0074
  219MPD1    H7 3337   2.484   2.255  12.252  0.1079 -1.9525 -1.6931
  220MPD1     C 3338   1.696   2.153   9.261  0.3169  0.1516 -0.3769
  220MPD1    C1 3339   1.658   2.034   9.323  0.1274 -0.7151  1.3445
  220MPD1    C2 3340   1.641   2.036   9.462  0.5219  0.2864  0.8189
  220MPD1    C3 3341   1.666   2.152   9.527 -0.1638 -0.3061  0.0408
  220MPD1    C4 3342   1.713   2.263   9.460 -0.0865  0.0122  0.4938
  220MPD1    C5 3343   1.733   2.263   9.326 -0.1505 -0.0004  0.2918
  220MPD1     H 3344   1.592   1.958   9.518 -0.4606 -0.4318 -1.0331
  220MPD1    H1 3345   1.741   2.356   9.509 -2.3009  0.5436  0.7524
  220MPD1    H2 3346   1.687   2.167   9.154 -0.9210 -0.5416 -0.3639
  220MPD1    H3 3347   1.777   2.355   9.291 -0.6329  0.1173 -0.0084
  220MPD1     N 3348   1.664   2.154   9.668 -0.2165 -0.0892  0.0185
  220MPD1    H5 3349   1.629   2.069   9.710 -1.2002 -0.4397 -1.4934
  220MPD1    N1 3350   1.601   1.938   9.246  0.2009  0.4654 -0.1181
  220MPD1    H6 3351   1.621   1.843   9.276 -2.7490 -0.0894  0.0528
  220MPD1    H7 3352   1.633   1.938   9.149  2.7015  2.7024  0.6911
  221MPD1     C 3353   4.147   0.793  17.590 -0.4757 -0.4091 -0.2988
  221MPD1    C1 3354   4.050   0.700  17.561  0.4294 -0.0095 -0.1289
  221MPD1    C2 3355   4.033   0.656  17.430 -0.0393 -1.0049 -0.1941
  221MPD1    C3 3356   4.137   0.678  17.341  0.1041 -0.7469  0.4376
  221MPD1    C4 3357   4.245   0.751  17.387  0.4535 -0.0656 -0.0506
  221MPD1    C5 3358   4.248   0.814  17.505 -0.1651 -0.9113  0.0827
  221MPD1     H 3359   3.946   0.602  17.395  0.7508 -0.2120 -3.4275
  221MPD1    H1 3360   4.322   0.774  17.314  0.3323 -1.9617 -0.7722
  221MPD1    H2 3361   4.151   0.836  17.689  0.3272 -1.6784  0.2219
  221MPD1    H3 3362   4.327   0.886  17.527  0.3453 -0.8304 -2.0189
  221MPD1     N 3363   4.142   0.639  17.207 -0.5761 -0.2596 -0.4390
  221MPD1    H5 3364   4.224   0.671  17.157  0.4424 -2.7001 -0.3054
  221MPD1    N1 3365   3.946   0.694  17.650  0.0399  0.7206 -0.2577
  221MPD1    H6 3366   3.979   0.704   0.049  0.8208  2.2073 -0.6826
  221MPD1    H7 3367   3.905   0.601  17.645  0.3577  0.7137 -2.7309
  222MPD1     C 3368   4.467   4.535  16.884 -0.4251 -0.7639 -0.3808
  222MPD1    C1 3369   4.469   4.552  17.025 -0.0409 -0.5005 -0.0498
  222MPD1    C2 3370   4.337   4.547  17.086 -0.1923 -0.2544 -0.2764
  222MPD1    C3 3371   4.217   4.515  17.021 -0.5125  0.6491  0.5545
  222MPD1    C4 3372   4.238   4.464  16.891  0.0014 -0.1890  0.0135
  222MPD1    C5 3373   4.357   4.485  16.825  0.4137  0.0223  0.4194
  222MPD1     H 3374   4.337   4.560  17.194  1.4633 -0.8936 -0.1948
  222MPD1    H1 3375   4.161   4.410  16.837  0.8315 -0.6162 -0.7586
  222MPD1    H2 3376   4.554   4.546  16.821  0.8855 -0.2970  1.5174
  222MPD1    H3 3377   4.350   4.457  16.721 -2.9837 -2.3842  1.3121
  222MPD1     N 3378   4.085   4.523  17.070  0.6308  0.0579 -0.3952
  222MPD1    H5 3379   4.012   4.522  16.999  1.1912  0.1046 -0.9756
  222MPD1    N1 3380   4.585   4.601  17.087  0.0002  0.3131  0.0121
  222MPD1    H6 3381   4.666   4.548  17.056 -1.1708 -0.1141 -2.3017
  222MPD1    H7 3382   4.578   4.584  17.187  0.7979  2.2413  0.4013
  223MPD1     C 3383   3.185   4.116  17.135  0.5655  0.4367  0.1537
  223MPD1    C1 3384   3.155   4.240  17.191 -0.4907 -0.1395 -0.1987
  223MPD1    C2 3385   3.252   4.336  17.201  0.7376  0.3813  0.5458
  223MPD1    C3 3386   3.378   4.318  17.142 -0.6615 -0.2404  0.3578
  223MPD1    C4 3387   3.409   4.189  17.090 -0.0270  0.0137 -0.4301
  223MPD1    C5 3388   3.309   4.100  17.075 -0.5491 -0.4318  0.4358
  223MPD1     H 3389   3.225   4.425  17.257 -2.3783  0.7446 -1.5651
  223MPD1    H1 3390   3.502   4.151  17.048  0.0524  0.1550 -0.3819
  223MPD1    H2 3391   3.125   4.026  17.145  0.9005  0.3573  1.4591
  223MPD1    H3 3392   3.338   4.004  17.033 -1.2494 -0.7651  0.7164
  223MPD1     N 3393   3.474   4.412  17.159 -0.4417  0.2219 -0.3012
  223MPD1    H5 3394   3.453   4.503  17.200  1.4955 -0.6943  2.6982
  223MPD1    N1 3395   3.022   4.266  17.236 -0.1045 -0.0861 -0.0928
  223MPD1    H6 3396   2.957   4.215  17.177 -2.3534  0.5927  1.7765
  223MPD1    H7 3397   2.995   4.364  17.230  0.6362  0.1629  0.5922
  224MPD1     C 3398   4.627   1.905   9.037  0.0494 -0.3838 -1.2496
  224MPD1    C1 3399   0.019   1.828   9.047 -0.1547 -0.2695 -0.1403
  224MPD1    C2 3400   0.037   1.748   9.157  0.3550 -0.1776  0.1376
  224MPD1    C3 3401   4.665   1.741   9.255 -0.0637  0.0788 -0.3068
  224MPD1    C4 3402   4.547   1.812   9.243  0.0164  0.3982  0.1864
  224MPD1    C5 3403   4.529   1.896   9.136  0.3888 -0.7064 -0.6158
  224MPD1     H 3404   0.139   1.727   9.187  0.6422 -0.1416 -0.7945
  224MPD1    H1 3405   4.481   1.809   9.329 -0.5484  1.3071 -0.2156
  224MPD1    H2 3406   4.622   1.987   8.966 -1.0000  0.1824 -0.5180
  224MPD1    H3 3407   4.448   1.966   9.118 -1.0741 -2.7414 -2.0650
  224MPD1     N 3408   4.687   1.670   9.378  0.8033  0.1944 -0.0517
  224MPD1    H5 3409   4.611   1.667   9.445 -1.0083  2.6303 -2.0557
  224MPD1    N1 3410   0.132   1.852   8.970  0.5464 -0.1865 -0.4952
  224MPD1    H6 3411   0.098   1.894   8.884  0.4342  1.5372  0.3809
  224MPD1    H7 3412   0.177   1.764   8.946  1.5855 -0.0659  1.0491
  225MPD1     C 3413   1.218   2.945  12.693  0.3883 -0.2673  0.2597
  225MPD1    C1 3414   1.207   2.821  12.637  0.0471  0.4921  0.5207
  225MPD1    C2 3415   1.140   2.803  12.519 -0.6595 -0.6594  0.2393
  225MPD1    C3 3416   1.090   2.911  12.447 -0.3209 -0.0539 -0.0807
  225MPD1    C4 3417   1.093   3.033  12.507 -0.1980 -0.0516 -1.2684
  225MPD1    C5 3418   1.151   3.047  12.628  0.5987  0.2887  0.3212
  225MPD1     H 3419   1.129   2.704  12.477  0.1596 -0.5369 -0.2691
  225MPD1    H1 3420   1.064   3.123  12.454 -0.5520  1.5119  1.5634
  225MPD1    H2 3421   1.264   2.954  12.791  2.6013  0.8239 -0.9116
  225MPD1    H3 3422   1.163   3.148  12.666 -0.8325  0.9048 -0.8417
  225MPD1     N 3423   1.025   2.907  12.325 -0.8702 -0.5186 -0.1722
  225MPD1    H5 3424   0.984   2.994  12.292 -0.2088 -0.8808 -1.9630
  225MPD1    N1 3425   1.247   2.709  12.709  0.5015 -0.2775  0.0263
  225MPD1    H6 3426   1.335   2.733  12.753  0.6985 -1.7656  0.4582
  225MPD1    H7 3427   1.272   2.623  12.659  1.9043  0.9065 -1.3129
  226MPD1     C 3428   3.982   1.457   9.702 -0.5486 -0.6030  0.5239
  226MPD1    C1 3429   3.883   1.556   9.712 -0.4591  0.2203  0.4527
  226MPD1    C2 3430   3.909   1.682   9.659  0.3120  0.1960  0.6454
  226MPD1    C3 3431   4.013   1.698   9.562  0.3735  0.6657  0.2628
  226MPD1    C4 3432   4.097   1.590   9.538  0.3415 -0.1104  0.0029
  226MPD1    C5 3433   4.075   1.471   9.603  0.0153  0.6073  0.6564
  226MPD1     H 3434   3.842   1.760   9.692 -1.6934 -1.7157  1.0657
  226MPD1    H1 3435   4.177   1.591   9.465  1.0277  0.9854  0.7692
  226MPD1    H2 3436   3.964   1.364   9.754 -1.7824 -1.5625 -1.6281
  226MPD1    H3 3437   4.134   1.382   9.585 -0.1541  0.3867  1.2104
  226MPD1     N 3438   4.042   1.832   9.519  0.1877  0.0384 -0.2451
  226MPD1    H5 3439   3.983   1.900   9.566  0.2608 -0.8810  1.1484
  226MPD1    N1 3440   3.785   1.548   9.813  0.2722 -0.5933 -0.3838
  226MPD1    H6 3441   3.763   1.452   9.839  1.2749 -0.6159  0.3935
  226MPD1    H7 3442   3.701   1.598   9.785  0.8950 -0.5280 -2.1276
  227MPD1     C 3443   3.457   2.436   9.625 -0.0713 -0.0192 -0.3030
  227MPD1    C1 3444   3.455   2.319   9.555 -0.2480  0.2805  0.5878
  227MPD1    C2 3445   3.575   2.262   9.514 -0.5254 -0.5908 -0.6224
  227MPD1    C3 3446   3.695   2.325   9.537 -0.0706  0.3077 -0.1356
  227MPD1    C4 3447   3.697   2.436   9.620  0.5451 -0.2027  0.7056
  227MPD1    C5 3448   3.578   2.495   9.653  0.3417  0.1700  0.7613
  227MPD1     H 3449   3.569   2.182   9.441  0.8707  0.0272 -1.4255
  227MPD1    H1 3450   3.794   2.476   9.648 -0.3249  2.5727 -0.3381
  227MPD1    H2 3451   3.370   2.493   9.653 -0.9691 -1.0499 -1.0013
  227MPD1    H3 3452   3.578   2.590   9.706  1.7313 -0.6786  2.2690
  227MPD1     N 3453   3.812   2.253   9.499  0.1975 -0.5225  0.1316
  227MPD1    H5 3454   3.800   2.153   9.488 -0.4511 -0.3011 -1.1510
  227MPD1    N1 3455   3.337   2.290   9.484 -0.4721  0.4975 -0.3616
  227MPD1    H6 3456   3.341   2.190   9.467 -0.4775  0.3762  0.3614
  227MPD1    H7 3457   3.255   2.320   9.537 -0.3981  0.4952 -0.2463
  228MPD1     C 3458   2.201   0.390  12.634 -0.6926 -0.2523  0.5028
  228MPD1    C1 3459   2.087   0.464  12.623 -0.3644 -0.2896 -0.6110
  228MPD1    C2 3460   1.980   0.432  12.706  0.5908  0.1557 -0.0966
  228MPD1    C3 3461   1.997   0.330  12.802 -0.0971 -0.3641  1.1321
  228MPD1    C4 3462   2.120   0.257  12.814  0.2311  0.1804  0.6091
  228MPD1    C5 3463   2.222   0.291  12.728 -0.4966 -0.2214 -0.1961
  228MPD1     H 3464   1.898   0.502  12.694  1.4852  1.3192  0.5406
  228MPD1    H1 3465   2.127   0.179  12.888  4.7430  1.0535  1.0852
  228MPD1    H2 3466   2.284   0.404  12.566 -0.4230  1.5137  1.1989
  228MPD1    H3 3467   2.315   0.240  12.749  0.2421  0.1453 -2.5297
  228MPD1     N 3468   1.892   0.300  12.885  0.4442 -0.1151  0.3289
  228MPD1    H5 3469   1.805   0.349  12.866  0.6205  0.8495  2.0662
  228MPD1    N1 3470   2.077   0.546  12.512  0.1370 -0.5076 -0.0777
  228MPD1    H6 3471   2.168   0.576  12.480  0.4366 -1.0155  0.3067
  228MPD1    H7 3472   2.008   0.621  12.518  1.3240  0.4880  1.0867
  229MPD1     C 3473   3.395   4.027  14.890 -0.5163  0.1574  0.0456
  229MPD1    C1 3474   3.273   4.071  14.940 -0.3739  0.4628  0.8208
  229MPD1    C2 3475   3.158   4.015  14.889 -0.0097  0.7999 -0.0214
  229MPD1    C3 3476   3.161   3.921  14.786 -0.2950 -0.0745  0.5905
  229MPD1    C4 3477   3.284   3.877  14.738  0.6677  0.1589  0.3439
  229MPD1    C5 3478   3.397   3.927  14.795 -0.3036  0.5870  0.4599
  229MPD1     H 3479   3.066   4.040  14.940  0.6348  1.4952  0.8037
  229MPD1    H1 3480   3.301   3.801  14.663 -1.1724  0.8404 -0.7533
  229MPD1    H2 3481   3.489   4.056  14.935 -0.3470  2.4186 -1.7394
  229MPD1    H3 3482   3.489   3.887  14.756 -0.4214  0.8694 -0.1048
  229MPD1     N 3483   3.041   3.868  14.727 -0.8164 -0.3152  0.3793
  229MPD1    H5 3484   3.053   3.797  14.656 -1.3014 -1.5000  1.4928
  229MPD1    N1 3485   3.271   4.184  15.026 -0.6896 -0.3296  0.3360
  229MPD1    H6 3486   3.346   4.165  15.093  1.9621 -0.7398 -2.7665
  229MPD1    H7 3487   3.183   4.189  15.076 -0.3253 -0.3823  0.9905
  230MPD1     C 3488   2.215   3.765  14.112  0.4402  0.5048  0.3394
  230MPD1    C1 3489   2.146   3.724  14.229  0.0638 -0.0840  0.0972
  230MPD1    C2 3490   2.202   3.766  14.346 -0.2199 -0.0897  0.9648
  230MPD1    C3 3491   2.319   3.842  14.348  0.4734 -0.1670  0.3770
  230MPD1    C4 3492   2.368   3.897  14.236  0.0121 -0.7566  0.1718
  230MPD1    C5 3493   2.329   3.844  14.118  0.5669 -0.1020 -0.4912
  230MPD1     H 3494   2.169   3.730  14.443 -3.1024  0.3091  0.1103
  230MPD1    H1 3495   2.459   3.957  14.236 -1.8667  2.1069  1.1177
  230MPD1    H2 3496   2.188   3.725  14.015  0.5005 -3.6082  2.0486
  230MPD1    H3 3497   2.381   3.870  14.027  0.1428 -2.9087 -1.5365
  230MPD1     N 3498   2.389   3.855  14.469  0.3299 -0.6318  0.8471
  230MPD1    H5 3499   2.355   3.808  14.553  0.8097 -0.9793  0.8477
  230MPD1    N1 3500   2.050   3.629  14.236 -0.0094  0.7082 -0.3166
  230MPD1    H6 3501   1.979   3.650  14.306 -1.4294 -0.6909 -1.3436
  230MPD1    H7 3502   2.003   3.626  14.146 -2.3456  1.4371  0.8981
  231MPD1     C 3503   0.331   0.426  15.767  0.9137 -0.1557 -0.4970
  231MPD1    C1 3504   0.351   0.375  15.640 -0.0696  1.1498  0.1692
  231MPD1    C2 3505   0.415   0.459  15.550  0.2418  1.1491  0.0648
  231MPD1    C3 3506   0.436   0.596  15.577 -0.2068  0.0441 -0.0440
  231MPD1    C4 3507   0.419   0.640  15.710 -0.1794  0.2732 -0.0611
  231MPD1    C5 3508   0.370   0.552  15.802  0.0013  0.2394  0.1687
  231MPD1     H 3509   0.418   0.426  15.447  0.4384 -0.9934  0.7684
  231MPD1    H1 3510   0.419   0.746  15.734 -0.2222  0.2193  0.1772
  231MPD1    H2 3511   0.285   0.372  15.849 -1.8931  1.1550 -1.1912
  231MPD1    H3 3512   0.343   0.585  15.902 -4.0522  0.1388 -0.8846
  231MPD1     N 3513   0.480   0.676  15.469 -0.1097 -0.2659 -0.3748
  231MPD1    H5 3514   0.475   0.638  15.375 -2.0198 -1.3067  0.1341
  231MPD1    N1 3515   0.286   0.251  15.607 -0.5040  0.0430  0.1995
  231MPD1    H6 3516   0.314   0.214  15.516 -1.0737  0.4962 -0.1637
  231MPD1    H7 3517   0.298   0.194  15.691 -1.7208 -0.9573 -0.2954
  232MPD1     C 3518   2.568   3.558  17.255  0.6855 -0.3716  0.0891
  232MPD1    C1 3519   2.630   3.463  17.334 -0.3349 -0.1119 -0.4016
  232MPD1    C2 3520   2.615   3.467  17.470 -0.4341  0.0162  0.4594
  232MPD1    C3 3521   2.542   3.566  17.533 -0.0114 -0.5622 -0.6861
  232MPD1    C4 3522   2.478   3.663  17.457 -0.6793  0.2058  1.1556
  232MPD1    C5 3523   2.499   3.659  17.319  0.2999  0.3830 -0.5998
  232MPD1     H 3524   2.662   3.395  17.536 -1.0084 -1.0710 -0.3060
  232MPD1    H1 3525   2.408   3.736  17.497 -2.2162 -0.5785 -0.1171
  232MPD1    H2 3526   2.578   3.570  17.148 -2.0989 -0.8669 -0.2323
  232MPD1    H3 3527   2.439   3.718  17.252 -0.4317  0.0408 -0.2545
  232MPD1     N 3528   2.527   3.564  17.674 -0.1730 -0.8199 -0.0277
  232MPD1    H5 3529   2.558   3.478   0.022  0.3925  0.2372  1.5816
  232MPD1    N1 3530   2.692   3.362  17.261 -0.3463 -0.1920  0.9007
  232MPD1    H6 3531   2.705   3.391  17.165  1.4506  0.0714  1.2213
  232MPD1    H7 3532   2.780   3.345  17.309 -2.1005 -2.3356  3.3534
  233MPD1     C 3533   3.224   0.935   1.502 -0.5854  0.5356  0.1786
  233MPD1    C1 3534   3.308   1.047   1.508  0.2761  0.4322  0.0644
  233MPD1    C2 3535   3.442   1.029   1.472  1.0391 -0.4400 -0.2481
  233MPD1    C3 3536   3.489   0.901   1.441  0.1287  0.4193  0.8426
  233MPD1    C4 3537   3.399   0.801   1.420 -0.0373  0.5897 -0.2086
  233MPD1    C5 3538   3.266   0.826   1.438  0.4395  0.0838 -0.1188
  233MPD1     H 3539   3.508   1.114   1.486  1.3839 -1.1709  2.4786
  233MPD1    H1 3540   3.425   0.702   1.384 -0.1657  0.8723 -1.0935
  233MPD1    H2 3541   3.120   0.937   1.533  0.0273  0.9285  2.2258
  233MPD1    H3 3542   3.196   0.745   1.423  0.5303 -0.2774  1.3558
  233MPD1     N 3543   3.621   0.873   1.422  0.5746  0.0013  0.6465
  233MPD1    H5 3544   3.648   0.776   1.403  1.1297  0.1457  0.7046
  233MPD1    N1 3545   3.260   1.178   1.531 -0.4860  0.2844  0.7124
  233MPD1    H6 3546   3.185   1.182   1.600 -0.5915 -2.0340  0.7380
  233MPD1    H7 3547   3.334   1.234   1.573 -2.6678  1.2584  3.3264
  234MPD1     C 3548   1.143   0.228   9.017  0.3103 -0.1595  1.0303
  234MPD1    C1 3549   1.039   0.300   8.964  0.1609  0.4141  0.1198
  234MPD1    C2 3550   0.981   0.405   9.042 -0.4931  0.0461  0.2024
  234MPD1    C3 3551   1.023   0.424   9.173  0.8013 -0.3595  0.1839
  234MPD1    C4 3552   1.127   0.348   9.222 -0.4366  0.6117 -0.5813
  234MPD1    C5 3553   1.193   0.253   9.139  0.5539 -0.3209 -1.3339
  234MPD1     H 3554   0.901   0.461   8.994  0.8882 -0.8933 -3.2043
  234MPD1    H1 3555   1.173   0.375   9.317 -0.2265  1.9397 -1.0631
  234MPD1    H2 3556   1.202   0.157   8.960 -0.1465 -1.4023  2.1089
  234MPD1    H3 3557   1.288   0.209   9.166  0.2605 -1.2754 -1.8996
  234MPD1     N 3558   0.963   0.526   9.252 -0.0595 -0.3279 -0.3739
  234MPD1    H5 3559   0.889   0.580   9.208 -1.8635 -1.0636  1.7802
  234MPD1    N1 3560   1.007   0.297   8.829  0.5105  0.0431  0.1722
  234MPD1    H6 3561   0.999   0.200   8.798 -1.5008 -0.8104  3.3748
  234MPD1    H7 3562   0.922   0.347   8.804  0.1471 -1.3886 -1.5411
  235MPD1     C 3563   2.444   2.620  10.326 -0.1479  0.0297  0.8917
  235MPD1    C1 3564   2.350   2.665  10.238 -0.5817  0.3237 -0.4325
  235MPD1    C2 3565   2.358   2.797  10.199  0.0794  0.6143  0.2257
  235MPD1    C3 3566   2.465   2.877  10.239  0.0631 -0.3082  0.4519
  235MPD1    C4 3567   2.562   2.825  10.320  0.0582 -0.6123  0.3765
  235MPD1    C5 3568   2.538   2.706  10.380  0.4589  0.6772 -0.2005
  235MPD1     H 3569   2.281   2.836  10.133 -0.3598 -3.5969 -1.7647
  235MPD1    H1 3570   2.653   2.882  10.337  1.1851 -2.0817 -0.6523
  235MPD1    H2 3571   2.429   2.525  10.377 -2.6240  0.0988  0.2829
  235MPD1    H3 3572   2.606   2.666  10.454 -0.0163  0.8386  0.3220
  235MPD1     N 3573   2.461   3.016  10.200 -0.3547 -0.2991 -0.0223
  235MPD1    H5 3574   2.378   3.043  10.147 -1.7468  0.1524  2.3863
  235MPD1    N1 3575   2.247   2.590  10.191 -0.3899  0.6841  0.4944
  235MPD1    H6 3576   2.216   2.626  10.101 -0.6179 -0.1032  0.2611
  235MPD1    H7 3577   2.278   2.496  10.172 -0.8996  0.4760  0.6845
  236MPD1     C 3578   1.562   3.915  10.284 -0.2122  0.1802 -0.5988
  236MPD1    C1 3579   1.562   3.779  10.276  0.5447  0.1803 -0.0236
  236MPD1    C2 3580   1.657   3.711  10.352 -0.1165  0.4357  0.8756
  236MPD1    C3 3581   1.761   3.775  10.422  0.0883  0.3365 -0.5336
  236MPD1    C4 3582   1.753   3.911  10.421  0.0385 -0.2858  0.4748
  236MPD1    C5 3583   1.660   3.982  10.352 -0.4357  0.6327 -0.1533
  236MPD1     H 3584   1.647   3.603  10.356 -1.2411  0.5483  1.2820
  236MPD1    H1 3585   1.836   3.964  10.467  0.9709 -1.1386 -0.2359
  236MPD1    H2 3586   1.482   3.970  10.234 -0.0555  0.8372 -0.1344
  236MPD1    H3 3587   1.666   4.090  10.345 -2.7345  0.6314 -2.5031
  236MPD1     N 3588   1.862   3.703  10.502 -0.2171 -0.3143 -0.2246
  236MPD1    H5 3589   1.938   3.753  10.547 -1.1569  0.3615  0.5999
  236MPD1    N1 3590   1.452   3.715  10.221 -0.2817  0.2989  0.3007
  236MPD1    H6 3591   1.478   3.625  10.179 -0.8603 -0.2811  1.1979
  236MPD1    H7 3592   1.393   3.771  10.159  0.7476 -1.5188 -2.3653
  237MPD1     C 3593   0.830   1.966  15.824  0.1796 -0.0358  0.7186
  237MPD1    C1 3594   0.704   1.998  15.865  0.5707  0.1033 -0.2947
  237MPD1    C2 3595   0.601   2.008  15.773 -0.6049  0.0210 -0.1672
  237MPD1    C3 3596   0.625   1.995  15.642  0.1534  0.2371  0.0605
  237MPD1    C4 3597   0.754   1.995  15.599  0.5618 -1.4177  0.7119
  237MPD1    C5 3598   0.856   1.965  15.688  0.1866 -0.5290 -0.0159
  237MPD1     H 3599   0.501   2.033  15.805 -0.5402  2.9126 -2.2254
  237MPD1    H1 3600   0.776   2.002  15.493  0.0059 -1.0658  0.6252
  237MPD1    H2 3601   0.915   1.945  15.887  1.1281 -3.1894 -1.5911
  237MPD1    H3 3602   0.956   1.953  15.647  0.2965  0.1324  0.0627
  237MPD1     N 3603   0.518   2.013  15.548 -0.0356  0.3927 -0.1729
  237MPD1    H5 3604   0.541   2.030  15.451 -0.0897 -1.8910 -0.5781
  237MPD1    N1 3605   0.667   2.005  16.001 -0.0460 -0.0127 -0.7061
  237MPD1    H6 3606   0.572   2.041  16.005 -0.3642 -0.5897 -2.9019
  237MPD1    H7 3607   0.666   1.918  16.054  1.7100  0.1849 -0.3509
  238MPD1     C 3608   3.163   0.261  14.893  0.2928  0.6299 -0.1413
  238MPD1    C1 3609   3.141   0.369  14.804  0.4165 -0.1515  0.3844
  238MPD1    C2 3610   3.018   0.419  14.804  0.2800 -0.8657 -0.1749
  238MPD1    C3 3611   2.908   0.349  14.857 -0.6821 -0.3637 -0.9015
  238MPD1    C4 3612   2.928   0.230  14.927 -0.5635  0.8293  0.1720
  238MPD1    C5 3613   3.056   0.188  14.937  0.1488 -0.9385 -0.3286
  238MPD1     H 3614   2.996   0.509  14.747  0.8219 -2.4037 -2.7577
  238MPD1    H1 3615   2.848   0.179  14.978 -0.8486  0.8781 -0.2217
  238MPD1    H2 3616   3.265   0.229  14.913 -0.1340  0.5756  2.0073
  238MPD1    H3 3617   3.074   0.099  14.997  2.2954  0.4916  1.1411
  238MPD1     N 3618   2.767   0.381  14.849 -0.3765 -0.3982 -0.4660
  238MPD1    H5 3619   2.706   0.316  14.899 -0.2510 -1.2701 -1.4412
  238MPD1    N1 3620   3.247   0.448  14.756 -0.1066  0.4822  0.1604
  238MPD1    H6 3621   3.337   0.403  14.738  0.2135  1.4122 -0.5685
  238MPD1    H7 3622   3.213   0.502  14.676 -1.9079 -1.4351 -0.3658
  239MPD1     C 3623   2.542   1.524  14.774 -0.4669  0.2300  0.1392
  239MPD1    C1 3624   2.676   1.548  14.745  0.1058 -0.0903 -0.8395
  239MPD1    C2 3625   2.708   1.578  14.614 -0.0316 -0.4570 -0.1282
  239MPD1    C3 3626   2.612   1.585  14.518 -0.6077  0.2199 -0.1459
  239MPD1    C4 3627   2.482   1.567  14.550  0.0388  0.4191  0.5233
  239MPD1    C5 3628   2.445   1.531  14.677 -0.5827 -0.4240 -0.6135
  239MPD1     H 3629   2.813   1.601  14.597  0.0480 -1.5619 -1.0729
  239MPD1    H1 3630   2.410   1.558  14.469  1.2182  0.5410 -0.5208
  239MPD1    H2 3631   2.506   1.515  14.876 -1.5660  1.7312 -0.1124
  239MPD1    H3 3632   2.340   1.512  14.692 -0.7144 -0.5076 -1.6567
  239MPD1     N 3633   2.637   1.608  14.380 -0.7138 -0.1701 -0.2920
  239MPD1    H5 3634   2.556   1.619  14.319 -1.3606  0.7949  0.7366
  239MPD1    N1 3635   2.779   1.549  14.846  0.0431  0.4426 -0.1496
  239MPD1    H6 3636   2.878   1.553  14.825  0.0034 -1.1209 -0.6565
  239MPD1    H7 3637   2.762   1.471  14.909 -0.5689  1.7557  1.2825
  240MPD1     C 3638   1.283   1.563  13.447  0.5208 -0.0737 -0.5441
  240MPD1    C1 3639   1.278   1.481  13.563 -0.2575 -0.2948 -0.0685
  240MPD1    C2 3640   1.398   1.443  13.621 -0.5885 -0.7213  0.4651
  240MPD1    C3 3641   1.519   1.472  13.556  0.0759  0.0342 -0.7215
  240MPD1    C4 3642   1.524   1.541  13.438 -0.2226  0.1917 -0.1295
  240MPD1    C5 3643   1.403   1.587  13.390  0.2142  0.1046  0.3093
  240MPD1     H 3644   1.399   1.369  13.700 -2.8462 -0.2432  0.9599
  240MPD1    H1 3645   1.618   1.557  13.387 -1.0589  1.9623 -1.1341
  240MPD1    H2 3646   1.198   1.612  13.400 -0.1594 -1.0087 -0.2926
  240MPD1    H3 3647   1.408   1.633  13.292 -0.1016 -1.3444 -0.3780
  240MPD1     N 3648   1.641   1.432  13.624 -0.1833  0.2184 -0.2833
  240MPD1    H5 3649   1.632   1.392  13.717  0.5878  0.4551 -0.1002
  240MPD1    N1 3650   1.156   1.430  13.616  0.0257  0.4799  0.3276
  240MPD1    H6 3651   1.076   1.494  13.606 -2.4791 -2.6746  0.2059
  240MPD1    H7 3652   1.162   1.397  13.712  0.2707  0.6867  0.3826
  241MPD1     C 3653   2.412   0.961  13.254 -0.1143 -0.2488  0.3255
  241MPD1    C1 3654   2.381   0.897  13.372  0.4777 -0.2346 -0.0076
  241MPD1    C2 3655   2.287   0.962  13.460 -0.7417 -0.0103 -0.1862
  241MPD1    C3 3656   2.266   1.098  13.446 -0.4271 -0.2073  0.6012
  241MPD1    C4 3657   2.315   1.161  13.334 -0.1230 -0.2448 -0.5706
  241MPD1    C5 3658   2.377   1.088  13.230 -0.0474  0.4526  0.3121
  241MPD1     H 3659   2.233   0.899  13.530  0.0250  0.4291  0.8047
  241MPD1    H1 3660   2.285   1.264  13.314  0.3209 -0.0457 -0.2302
  241MPD1    H2 3661   2.451   0.904  13.171  0.9649  1.7673 -0.5442
  241MPD1    H3 3662   2.402   1.131  13.133 -2.1607  1.2524  0.1328
  241MPD1     N 3663   2.168   1.172  13.521 -0.1926 -0.0567 -0.2299
  241MPD1    H5 3664   2.140   1.263  13.488  0.5284  0.2635  0.0452
  241MPD1    N1 3665   2.409   0.759  13.381  0.2860  0.1021  0.0572
  241MPD1    H6 3666   2.492   0.715  13.341  2.0367  2.0222  1.5658
  241MPD1    H7 3667   2.414   0.723  13.476 -0.7209  0.4473  0.2403
  242MPD1     C 3668   1.775   0.111  15.881 -0.5430  1.1690 -0.5265
  242MPD1    C1 3669   1.662   0.042  15.839 -0.0333 -0.0163 -0.6517
  242MPD1    C2 3670   1.679   4.686  15.736 -1.4841  0.1293 -0.3996
  242MPD1    C3 3671   1.792   4.674  15.664  0.7004  0.1389 -0.2267
  242MPD1    C4 3672   1.906   0.017  15.707  0.5670  0.1115  0.2780
  242MPD1    C5 3673   1.894   0.095  15.811  0.3948 -0.7820 -0.5633
  242MPD1     H 3674   1.593   4.630  15.701 -2.9835  0.0073  3.4338
  242MPD1    H1 3675   2.003   0.015  15.659  0.4039  1.7515 -0.1083
  242MPD1    H2 3676   1.785   0.162  15.976 -1.4572  0.3957 -0.0115
  242MPD1    H3 3677   1.978   0.142  15.860 -0.9778  1.5064 -0.4037
  242MPD1     N 3678   1.802   4.575  15.558 -0.0563  0.4509 -0.5967
  242MPD1    H5 3679   1.893   4.555  15.517 -0.1326 -0.4853 -0.3055
  242MPD1    N1 3680   1.551   0.034  15.920  0.1563 -0.3019 -0.3682
  242MPD1    H6 3681   1.469   0.019  15.862 -0.3499  2.3150 -0.3601
  242MPD1    H7 3682   1.540   0.128  15.957  2.2384 -0.6456  1.0946
  243MPD1     C 3683   3.902   1.816   0.465 -1.2526 -0.1708 -0.0221
  243MPD1    C1 3684   3.952   1.941   0.502 -0.2991  0.0233  0.1407
  243MPD1    C2 3685   3.936   2.039   0.406 -0.7727 -0.6033 -0.5222
  243MPD1    C3 3686   3.894   2.019   0.277  0.2255 -0.1338  0.2300
  243MPD1    C4 3687   3.872   1.891   0.234 -0.3912 -0.5222  0.8249
  243MPD1    C5 3688   3.867   1.796   0.334 -0.3319 -0.0358 -0.4477
  243MPD1     H 3689   3.952   2.141   0.437  1.9153 -0.9181 -0.9463
  243MPD1    H1 3690   3.831   1.868   0.137 -1.0260 -1.0381  1.2160
  243MPD1    H2 3691   3.902   1.726   0.525 -0.5031  0.0068  0.2449
  243MPD1    H3 3692   3.837   1.694   0.313 -0.1137 -0.3203  0.6595
  243MPD1     N 3693   3.867   2.138   0.200 -0.0443 -0.6217  0.2184
  243MPD1    H5 3694   3.886   2.228   0.243 -0.6601  0.7218 -2.3254
  243MPD1    N1 3695   3.971   1.967   0.638 -0.4690 -0.3227  0.6185
  243MPD1    H6 3696   4.011   2.061   0.645 -2.2237  0.5658 -1.4484
  243MPD1    H7 3697   4.032   1.892   0.670  2.0038  1.9757  1.3387
  244MPD1     C 3698   3.172   2.856   0.185 -0.7247  0.0937 -0.4533
  244MPD1    C1 3699   3.147   2.805   0.066  0.5582  0.2460 -0.0296
  244MPD1    C2 3700   3.246   2.724   0.013  0.0323  0.3359 -0.1292
  244MPD1    C3 3701   3.355   2.687   0.100  0.5885 -0.4438 -0.7720
  244MPD1    C4 3702   3.374   2.742   0.224 -0.1742 -0.4919 -0.4207
  244MPD1    C5 3703   3.272   2.823   0.271  0.5630  0.6637 -0.1794
  244MPD1     H 3704   3.252   2.695  17.606  0.8107 -0.6121  0.1786
  244MPD1    H1 3705   3.453   2.711   0.291 -1.0927 -2.3443 -0.2004
  244MPD1    H2 3706   3.096   2.925   0.220 -1.6884 -2.8294  3.2209
  244MPD1    H3 3707   3.281   2.880   0.364 -0.6357 -2.0703  1.6122
  244MPD1     N 3708   3.456   2.602   0.041 -0.5652 -0.6683  0.0552
  244MPD1    H5 3709   3.447   2.569  17.643 -0.7324  1.7141 -0.7633
  244MPD1    N1 3710   3.044   2.851  17.681 -0.0218  0.7058  0.3060
  244MPD1    H6 3711   2.962   2.886   0.034 -0.6001  0.9493 -0.8088
  244MPD1    H7 3712   3.008   2.778  17.620  0.5461 -0.4163  1.3401
  245MPD1     C 3713   0.490   3.497  13.295  0.9982  0.2246  0.3799
  245MPD1    C1 3714   0.471   3.493  13.429 -0.4408 -0.2520  0.1939
  245MPD1    C2 3715   0.503   3.603  13.500 -0.2102 -0.3821  0.2656
  245MPD1    C3 3716   0.548   3.722  13.448  0.0222 -0.2411  0.5978
  245MPD1    C4 3717   0.579   3.718  13.320  0.3710  0.1006  0.5601
  245MPD1    C5 3718   0.545   3.610  13.239 -0.3442  0.5373  0.1161
  245MPD1     H 3719   0.501   3.601  13.609 -1.1653  2.3666  0.3018
  245MPD1    H1 3720   0.628   3.802  13.272 -0.9868  0.3716 -0.3508
  245MPD1    H2 3721   0.449   3.424  13.226  1.3962  0.1838  0.1853
  245MPD1    H3 3722   0.555   3.626  13.132 -1.6867 -0.4697 -0.1636
  245MPD1     N 3723   0.554   3.837  13.529 -0.4381 -0.7657  0.2204
  245MPD1    H5 3724   0.522   3.830  13.625  0.5073  0.7581  0.6477
  245MPD1    N1 3725   0.404   3.387  13.492  0.2154 -0.5621 -0.2682
  245MPD1    H6 3726   0.425   3.379  13.591 -0.9002  2.9493  0.2355
  245MPD1    H7 3727   0.406   3.300  13.439 -1.0421  0.1281 -1.4780
  246MPD1     C 3728   4.595   4.542   8.847  0.2497 -0.2735  0.3383
  246MPD1    C1 3729   4.656   4.548   8.968  0.0535 -0.5629 -0.1960
  246MPD1    C2 3730   0.059   4.597   8.959  0.4658 -0.2166 -0.3719
  246MPD1    C3 3731   0.108   4.665   8.845 -0.5390  0.1066  0.4039
  246MPD1    C4 3732   0.034   4.659   8.724 -0.2330  0.4023  0.6765
  246MPD1    C5 3733   4.647   4.583   8.729  0.0488  0.2171  0.5917
  246MPD1     H 3734   0.117   4.590   9.050  2.7890  2.2075 -1.6723
  246MPD1    H1 3735   0.074   4.675   8.625 -1.1305  0.0483  0.2555
  246MPD1    H2 3736   4.506   4.481   8.835  1.2299 -1.2072 -2.3216
  246MPD1    H3 3737   4.585   4.583   8.640 -0.4374  0.6171  0.9311
  246MPD1     N 3738   0.241   4.723   8.849  0.2297  0.4012 -0.7448
  246MPD1    H5 3739   0.290   4.721   8.938  0.0496 -1.7312 -0.7001
  246MPD1    N1 3740   4.625   4.478   9.091  1.1525 -0.5461  0.0019
  246MPD1    H6 3741   4.673   4.525   9.167 -0.6072  0.5033  0.4634
  246MPD1    H7 3742   4.525   4.464   9.105  1.1977 -3.3466 -2.3708
  247MPD1     C 3743   0.120   2.908  16.840  0.4518 -0.6367 -0.0899
  247MPD1    C1 3744   0.228   2.896  16.753 -0.8289  0.2937  0.5104
  247MPD1    C2 3745   0.219   2.922  16.618  0.1147 -0.3319 -0.0237
  247MPD1    C3 3746   0.107   2.994  16.577 -0.8564 -0.3479  0.1462
  247MPD1    C4 3747   0.011   3.024  16.667  0.0902  0.1553 -0.0757
  247MPD1    C5 3748   0.005   2.974  16.792  0.3108  0.5768  0.4653
  247MPD1     H 3749   0.309   2.911  16.559 -1.5695 -2.3329 -2.1935
  247MPD1    H1 3750   4.648   3.080  16.634  1.2921  1.2738 -1.3479
  247MPD1    H2 3751   0.130   2.874  16.943 -0.8967 -0.7046  0.0287
  247MPD1    H3 3752   4.648   2.998  16.860  0.3841 -2.5449  1.6841
  247MPD1     N 3753   0.101   3.052  16.451 -0.7355 -0.2325  0.0090
  247MPD1    H5 3754   0.027   3.118  16.427 -0.9182  0.1703  1.7137
  247MPD1    N1 3755   0.340   2.815  16.790  0.8807 -0.6233 -0.8929
  247MPD1    H6 3756   0.423   2.839  16.736  0.9424  2.7285  0.7521
  247MPD1    H7 3757   0.362   2.827  16.889 -0.0193 -1.4546 -0.5912
  248MPD1     C 3758   1.123   2.965   0.210 -0.0186 -0.6736  0.2656
  248MPD1    C1 3759   1.038   3.037   0.288  0.8160  0.5276  0.5620
  248MPD1    C2 3760   0.915   2.988   0.328 -0.7130 -0.2193 -0.3607
  248MPD1    C3 3761   0.875   2.861   0.294  1.3094 -0.1015 -0.1143
  248MPD1    C4 3762   0.952   2.797   0.214 -0.4889  0.6498 -0.1156
  248MPD1    C5 3763   1.074   2.845   0.172 -0.2779 -0.4401  0.2684
  248MPD1     H 3764   0.852   3.045   0.395 -1.7719 -0.3359 -1.2590
  248MPD1    H1 3765   0.925   2.700   0.174 -1.2889  0.5642  0.6512
  248MPD1    H2 3766   1.223   2.998   0.183 -0.0016  0.5436  1.7589
  248MPD1    H3 3767   1.136   2.778   0.113  1.7479  3.0765 -1.6189
  248MPD1     N 3768   0.745   2.814   0.333 -0.0829  0.0582  0.1041
  248MPD1    H5 3769   0.699   2.871   0.403 -0.3477 -0.8767  0.7032
  248MPD1    N1 3770   1.096   3.151   0.356  0.0520  0.3330 -0.0919
  248MPD1    H6 3771   1.027   3.225   0.363  1.5308  1.8482 -1.5001
  248MPD1    H7 3772   1.178   3.191   0.311 -0.4181 -0.6209 -1.8317
  249MPD1     C 3773   2.983   1.829  10.469 -0.2309 -1.1271  0.1298
  249MPD1    C1 3774   3.070   1.940  10.440  0.2567 -0.3231  0.0245
  249MPD1    C2 3775   3.042   2.034  10.346  0.1464 -0.2597 -0.5724
  249MPD1    C3 3776   2.918   2.032  10.284  0.5518 -0.8193  0.1232
  249MPD1    C4 3777   2.830   1.933  10.312  0.1376 -0.4762  0.1944
  249MPD1    C5 3778   2.860   1.825  10.396 -0.7509 -0.2944 -0.5125
  249MPD1     H 3779   3.108   2.115  10.317  1.4718 -2.0472 -2.5755
  249MPD1    H1 3780   2.730   1.930  10.271 -0.0374  0.0775  0.5914
  249MPD1    H2 3781   3.022   1.755  10.538 -0.4475 -3.1075 -1.8630
  249MPD1    H3 3782   2.788   1.745  10.408  0.2297 -0.8373  1.7946
  249MPD1     N 3783   2.894   2.138  10.194 -0.2605 -0.2554  0.0665
  249MPD1    H5 3784   2.976   2.194  10.172 -1.2939  1.2859  0.1568
  249MPD1    N1 3785   3.194   1.948  10.510  0.2029  0.5761  0.0055
  249MPD1    H6 3786   3.176   1.936  10.609 -0.9061 -1.9270 -0.4901
  249MPD1    H7 3787   3.232   2.042  10.500  1.3256  0.1018 -0.1449
  250MPD2     C 3788   3.977   1.776  12.780  0.4180 -0.2688 -0.3149
  250MPD2    C1 3789   3.894   1.839  12.866  0.4424  0.6545  0.3947
  250MPD2    C2 3790   3.756   1.810  12.858 -0.1305  0.2521  0.0163
  250MPD2    C3 3791   3.705   1.736  12.754 -0.6385  0.1493  0.3664
  250MPD2    C4 3792   3.788   1.669  12.674 -0.5534 -0.2824  1.3534
  250MPD2    C5 3793   3.920   1.682  12.690 -0.5184 -0.6953 -0.8411
  250MPD2     H 3794   3.688   1.867  12.919 -0.0864 -0.0687  0.3613
  250MPD2    H1 3795   3.752   1.602  12.597 -0.5301  0.6920  0.5010
  250MPD2    H2 3796   4.084   1.795  12.777  0.4811 -0.2964  1.4592
  250MPD2    H3 3797   3.987   1.623  12.630 -0.2436  0.3767 -1.5937
  250MPD2     N 3798   3.570   1.692  12.738  0.0139  0.6535 -0.0992
  250MPD2    H5 3799   3.552   1.626  12.664 -0.5610 -0.3882  0.9731
  250MPD2    N1 3800   3.952   1.929  12.953 -0.2335  0.1505 -0.2079
  250MPD2    H7 3801   4.053   1.925  12.945 -0.1781  0.0306  0.6168
  251TMC3    C1 3802   3.977   2.104  13.111  0.6281 -0.4797 -0.3841
  251TMC3    C2 3803   3.924   2.168  13.217  0.1857 -0.0693  0.2924
  251TMC3    C3 3804   3.994   2.271  13.273  0.3225  0.3557 -0.4030
  251TMC3    C4 3805   4.106   2.140  13.064  0.4772  0.1802  0.2797
  251TMC3    C5 3806   4.170   2.246  13.129 -0.1502 -0.1052 -0.5996
  251TMC3    C6 3807   4.115   2.315  13.234 -0.4571 -0.2846 -0.6496
  251TMC3     C 3808   3.889   2.011  13.040 -0.0958  0.6936 -0.1517
  251TMC3     O 3809   3.768   2.032  13.047  0.3175  0.2370  0.0684
  251TMC3     H 3810   3.822   2.152  13.251 -0.0556  1.8926  0.4944
  251TMC3    H1 3811   4.149   2.109  12.970  1.0474 -0.7341  0.8436
  251TMC3    H2 3812   4.167   2.389  13.293  0.6532 -0.9812 -0.7555
  251TMC3    C7 3813   4.302   2.283  13.086 -0.2653  0.1204 -0.4763
  251TMC3    C8 3814   3.910   2.350  13.361 -0.1194  0.2802 -0.1846
  251TMC3    O1 3815   4.367   2.194  13.031 -0.3044  0.0327 -0.1038
  251TMC3    O2 3816   3.798   2.308  13.392 -0.4357 -0.1967  0.4868
  252TMC3    C1 3817   4.134   3.766  10.073 -0.0036 -0.0329  0.5783
  252TMC3    C2 3818   4.237   3.788   9.988 -0.2652  0.3012  0.1140
  252TMC3    C3 3819   4.320   3.676   9.968  0.2890 -0.5017  0.0060
  252TMC3    C4 3820   4.127   3.647  10.143 -0.0324  0.1390  0.1517
  252TMC3    C5 3821   4.193   3.535  10.102  0.1387 -0.3060 -0.6104
  252TMC3    C6 3822   4.296   3.547  10.008  0.2422 -0.1005 -1.1030
  252TMC3     C 3823   4.035   3.871  10.094  0.5866 -0.1275  0.2820
  252TMC3     O 3824   3.923   3.829  10.117 -0.6645 -0.0121  0.2652
  252TMC3     H 3825   4.270   3.886   9.955 -2.3980  1.0554  0.2158
  252TMC3    H1 3826   4.046   3.622  10.211  1.1892 -1.4816  1.0080
  252TMC3    H2 3827   4.355   3.460   9.982  0.7560 -0.2193  0.4746
  252TMC3    C7 3828   4.117   3.407  10.116 -0.3279  0.1650  0.4314
  252TMC3    C8 3829   4.444   3.701   9.900 -0.2167  0.0299  0.2744
  252TMC3    O1 3830   3.999   3.404  10.149 -0.4318 -0.6753  0.0294
  252TMC3    O2 3831   4.472   3.800   9.829  0.4392 -0.1913  0.0003
  253MPD2     C 3832   0.065   2.463  15.114  0.2882  0.2593 -1.0781
  253MPD2    C1 3833   4.695   2.393  15.178  0.6653  0.6020 -0.2817
  253MPD2    C2 3834   4.654   2.439  15.301 -0.6192 -0.4692 -0.1360
  253MPD2    C3 3835   4.703   2.558  15.356  0.6388  0.5794  0.5017
  253MPD2    C4 3836   0.074   2.629  15.284 -0.0996  0.5220 -0.3152
  253MPD2    C5 3837   0.118   2.581  15.167  0.5443 -0.2715 -0.2297
  253MPD2     H 3838   4.576   2.379  15.348  0.6905 -1.9424  0.1599
  253MPD2    H1 3839   0.099   2.729  15.317 -2.0188  0.5445  1.1113
  253MPD2    H2 3840   0.094   2.444  15.011 -0.7856  0.8261 -1.4848
  253MPD2    H3 3841   0.181   2.644  15.105  0.2009 -0.8806 -1.2147
  253MPD2     N 3842   4.669   2.614  15.479 -0.0001 -0.0716  1.2436
  253MPD2    H5 3843   4.723   2.690  15.518 -0.3647  1.0648 -0.4700
  253MPD2    N1 3844   4.627   2.287  15.107 -0.2166 -0.0360 -0.4559
  253MPD2    H7 3845   4.644   2.279  15.008 -0.2986 -1.3133 -0.3777
  254TMC3    C1 3846   4.538   2.637  15.682 -0.0178 -1.0360 -0.3806
  254TMC3    C2 3847   4.407   2.637  15.726 -0.3063 -0.1573 -0.1514
  254TMC3    C3 3848   4.394   2.605  15.857 -0.2018 -0.5542  0.2580
  254TMC3    C4 3849   4.645   2.612  15.764  0.3847  0.2782  0.2711
  254TMC3    C5 3850   4.617   2.586  15.896 -0.0467  0.2151 -0.3763
  254TMC3    C6 3851   4.490   2.581  15.945 -0.0518 -0.5475 -0.2960
  254TMC3     C 3852   4.561   2.571  15.557 -0.9520 -0.7493 -0.0079
  254TMC3     O 3853   4.486   2.478  15.522  0.2811  0.0785  0.5236
  254TMC3     H 3854   4.320   2.651  15.664 -1.2332  0.8207  1.3986
  254TMC3    H1 3855   0.026   2.624  15.737  0.0253 -0.4305 -1.4123
  254TMC3    H2 3856   4.467   2.561  16.049  0.0607  1.2100  0.0585
  254TMC3    C7 3857   4.714   2.519  15.982 -0.5163 -0.0780  0.2997
  254TMC3    C8 3858   4.256   2.589  15.918  0.1729 -0.0383  1.1567
  254TMC3    O1 3859   4.664   2.454  16.074  0.4259 -0.0687  0.1483
  254TMC3    O2 3860   4.249   2.491  15.992 -0.4150  0.3642 -0.6145
  255MPD2     C 3861   3.573   0.129   8.960  0.7424 -0.4002  0.1890
  255MPD2    C1 3862   3.703   0.123   9.021 -0.1575  0.1988 -0.5192
  255MPD2    C2 3863   3.793   0.211   8.968 -0.0081 -0.8533  0.8027
  255MPD2    C3 3864   3.777   0.293   8.854 -0.0578 -0.0108  0.1000
  255MPD2    C4 3865   3.650   0.290   8.789 -0.1230 -0.4152  0.6438
  255MPD2    C5 3866   3.555   0.210   8.853 -0.8061  0.1698  0.7809
  255MPD2     H 3867   3.893   0.215   9.010  1.2166 -1.8072 -2.0796
  255MPD2    H1 3868   3.635   0.344   8.696  2.0442  0.2649  0.6906
  255MPD2    H2 3869   3.493   0.073   9.006 -0.8709  1.7348 -0.0616
  255MPD2    H3 3870   3.459   0.214   8.803 -2.4976  0.5851  4.1040
  255MPD2     N 3871   3.881   0.380   8.815 -0.5979 -0.5404 -0.2418
  255MPD2    H5 3872   3.969   0.364   8.864 -0.6999 -0.0133  0.1031
  255MPD2    N1 3873   3.722   0.044   9.139  0.6630 -0.4174  0.1629
  255MPD2    H7 3874   3.641   4.723   9.181  0.5798 -1.3320 -0.9850
  256TMC3    C1 3875   3.837   4.700   9.342  0.3344 -0.7109  0.6223
  256TMC3    C2 3876   3.944   4.712   9.427 -0.0963  0.5163  0.3990
  256TMC3    C3 3877   3.924   4.665   9.553 -0.5797 -0.1686 -0.7344
  256TMC3    C4 3878   3.715   4.657   9.386  0.2653 -0.1556 -0.0681
  256TMC3    C5 3879   3.707   4.628   9.512 -0.1804  0.0022 -0.7795
  256TMC3    C6 3880   3.806   4.622   9.602  0.2117 -0.0234  0.4175
  256TMC3     C 3881   3.847   0.034   9.205 -0.2419  0.0135 -0.4777
  256TMC3     O 3882   3.957   0.080   9.171  0.2152 -0.6769 -0.0316
  256TMC3     H 3883   4.046   0.013   9.398 -0.8427  2.0331 -0.9078
  256TMC3    H1 3884   3.626   4.672   9.325 -1.2200 -0.5929  2.0062
  256TMC3    H2 3885   3.797   4.589   9.705  1.6152  1.5681  1.0431
  256TMC3    C7 3886   3.573   4.655   9.565  0.2713  0.3579 -0.3787
  256TMC3    C8 3887   4.026   4.694   9.652  0.0861  0.6635 -0.7499
  256TMC3    O1 3888   3.490   4.690   9.482 -0.2062 -0.1395 -0.1616
  256TMC3    O2 3889   4.053   4.611   9.737  0.5240  0.3386 -0.0392
  257MPD2     C 3890   2.749   1.875  13.064  0.1990  0.0224  0.0743
  257MPD2    C1 3891   2.628   1.939  13.095  0.6169  0.7611  0.5636
  257MPD2    C2 3892   2.565   1.919  13.213  0.4203  0.9905  0.5228
  257MPD2    C3 3893   2.610   1.831  13.307 -0.5390  0.8266  0.4710
  257MPD2    C4 3894   2.716   1.758  13.276  0.2458 -0.1708  0.0715
  257MPD2    C5 3895   2.790   1.791  13.160 -0.3854 -0.7081 -0.2873
  257MPD2     H 3896   2.475   1.972  13.243 -0.8328 -1.2599  0.7424
  257MPD2    H1 3897   2.761   1.682  13.339  1.2216 -1.4321 -2.1327
  257MPD2    H2 3898   2.804   1.882  12.971  1.2157  1.8416  0.8227
  257MPD2    H3 3899   2.880   1.731  13.153  0.1886  0.1153  0.0762
  257MPD2     N 3900   2.532   1.803  13.420 -0.2022  0.0802 -0.0581
  257MPD2    H5 3901   2.444   1.854  13.422  0.1187  0.5960  0.9746
  257MPD2    N1 3902   2.584   2.032  13.006 -0.0574  0.5275  0.1582
  257MPD2    H7 3903   2.638   2.054  12.923  0.5991 -0.0384  0.4376
  258TMC3    C1 3904   2.436   1.689  13.597 -0.2583  0.4352 -0.4092
  258TMC3    C2 3905   2.320   1.743  13.573  0.2580 -0.0853 -1.0611
  258TMC3    C3 3906   2.214   1.708  13.652  0.2505 -0.2090 -0.1732
  258TMC3    C4 3907   2.456   1.605  13.705  0.3364  0.2077  0.0899
  258TMC3    C5 3908   2.352   1.571  13.784  0.2230 -0.0144  0.0468
  258TMC3    C6 3909   2.224   1.623  13.759 -0.9354  0.2083 -0.3288
  258TMC3     C 3910   2.558   1.714  13.512 -0.1402  0.3798 -1.3370
  258TMC3     O 3911   2.654   1.640  13.533  0.8771 -0.2981  0.8079
  258TMC3     H 3912   2.302   1.818  13.496  2.0599 -0.2014 -1.5889
  258TMC3    H1 3913   2.559   1.584  13.729  0.9693  1.5946 -1.4518
  258TMC3    H2 3914   2.138   1.594  13.818  0.7357 -2.8372  0.5926
  258TMC3    C7 3915   2.379   1.502  13.907 -0.2395  0.2423  1.0203
  258TMC3    C8 3916   2.072   1.733  13.617  0.3146  0.1343  0.0814
  258TMC3    O1 3917   2.291   1.508  13.990  0.7785  0.9133 -0.3683
  258TMC3    O2 3918   1.987   1.707  13.702  0.0291  0.2094  0.1593
  259MPD2     C 3919   0.838   3.605   1.281  0.0038  0.5034 -0.0054
  259MPD2    C1 3920   0.948   3.600   1.361 -0.8443  0.1604  0.1934
  259MPD2    C2 3921   1.077   3.597   1.305 -0.2735  0.3446 -0.3658
  259MPD2    C3 3922   1.094   3.606   1.173 -0.3057  0.0392  0.0386
  259MPD2    C4 3923   0.981   3.625   1.095 -0.3771 -0.9177 -0.4720
  259MPD2    C5 3924   0.857   3.628   1.150 -0.7113 -0.1561  0.4749
  259MPD2     H 3925   1.164   3.584   1.369 -0.2354  1.2261 -0.2410
  259MPD2    H1 3926   0.987   3.618   0.987 -1.8749  1.1290 -0.6871
  259MPD2    H2 3927   0.740   3.603   1.327  0.2570 -0.9820  0.4654
  259MPD2    H3 3928   0.775   3.640   1.080  0.1322 -1.2779 -0.6967
  259MPD2     N 3929   1.223   3.594   1.115  0.4764  0.0312  1.1742
  259MPD2    H5 3930   1.301   3.574   1.177  0.4900 -1.5595  0.6373
  259MPD2    N1 3931   0.917   3.596   1.500  0.2557  0.2509 -0.3468
  259MPD2    H7 3932   0.818   3.602   1.523  0.0751 -1.9009 -0.5142
  260TMC3    C1 3933   1.394   3.584   0.958 -0.3745 -0.2569  0.0639
  260TMC3    C2 3934   1.448   3.658   0.859  0.0420 -0.7416 -0.6007
  260TMC3    C3 3935   1.576   3.629   0.823 -0.4494 -0.1141  0.1709
  260TMC3    C4 3936   1.454   3.482   1.027 -0.1542 -0.0078  0.2741
  260TMC3    C5 3937   1.578   3.452   0.985  0.1753 -0.2530  0.3244
  260TMC3    C6 3938   1.644   3.532   0.888  0.0276 -0.1190  0.5393
  260TMC3     C 3939   1.262   3.627   0.987 -0.0135  0.2324  0.0421
  260TMC3     O 3940   1.189   3.691   0.910 -0.3391 -0.2297  0.4775
  260TMC3     H 3941   1.387   3.733   0.811 -2.3861 -0.6276  2.6794
  260TMC3    H1 3942   1.401   3.412   1.091  2.7781 -1.1680  1.4020
  260TMC3    H2 3943   1.747   3.509   0.862 -0.1864  0.7658 -1.0495
  260TMC3    C7 3944   1.606   3.308   0.961 -0.8888  0.4375  0.3013
  260TMC3    C8 3945   1.596   3.639   0.677  0.5093  0.7367 -0.5572
  260TMC3    O1 3946   1.678   3.290   0.865 -0.0792  0.1272  0.3236
  260TMC3    O2 3947   1.500   3.674   0.607 -0.4016  0.5975  0.8131
  261MPD2     C 3948   2.917   1.561  12.361 -0.6423  0.8013  0.5961
  261MPD2    C1 3949   3.048   1.602  12.349 -0.0970  0.2545  1.3047
  261MPD2    C2 3950   3.088   1.677  12.237 -0.2946 -0.3469 -0.4586
  261MPD2    C3 3951   2.991   1.717  12.148  0.1792 -0.0327 -0.1770
  261MPD2    C4 3952   2.867   1.666  12.150  0.0164  0.2837  0.7089
  261MPD2    C5 3953   2.829   1.582  12.251  0.0153  0.5199 -0.3448
  261MPD2     H 3954   3.194   1.697  12.225 -0.0613 -1.4200 -0.2083
  261MPD2    H1 3955   2.796   1.685  12.071 -0.1874  4.4757  1.8804
  261MPD2    H2 3956   2.871   1.520  12.451 -1.3680 -0.4717 -0.3608
  261MPD2    H3 3957   2.726   1.550  12.262 -0.0387  0.2705 -1.5956
  261MPD2     N 3958   3.037   1.811  12.048 -0.4331  0.5146  0.1459
  261MPD2    H5 3959   3.136   1.827  12.032 -0.2945  0.0445  0.5321
  261MPD2    N1 3960   3.149   1.588  12.452  0.2446 -0.4815  0.3015
  261MPD2    H7 3961   3.232   1.640  12.427  0.6644 -1.8062 -1.0978
  262TMC3    C1 3962   3.023   1.992  11.916 -0.1265 -0.9219 -1.1227
  262TMC3    C2 3963   2.985   2.123  11.918  0.1218  0.3198 -0.1262
  262TMC3    C3 3964   3.042   2.200  11.825  0.3397  0.1879  0.8169
  262TMC3    C4 3965   3.101   1.933  11.819  0.7563 -0.4474 -0.6742
  262TMC3    C5 3966   3.161   2.014  11.726 -0.5464 -0.0920 -0.4519
  262TMC3    C6 3967   3.139   2.149  11.735 -0.0399  0.1680  0.1467
  262TMC3     C 3968   2.953   1.909  12.010 -0.0108  0.2418 -0.0469
  262TMC3     O 3969   2.851   1.948  12.063 -1.0034 -0.0026  0.2496
  262TMC3     H 3970   2.938   2.166  12.006  2.3179 -0.5522  1.4512
  262TMC3    H1 3971   3.117   1.826  11.812 -0.2369 -0.4568 -2.9022
  262TMC3    H2 3972   3.187   2.217  11.666  3.4794 -0.5545  1.9233
  262TMC3    C7 3973   3.269   1.965  11.646 -0.4838  0.6676  0.8749
  262TMC3    C8 3974   3.048   2.346  11.829  0.2094  0.0785 -0.1671
  262TMC3    O1 3975   3.288   1.843  11.662  0.4541 -0.2424  0.3580
  262TMC3    O2 3976   3.136   2.412  11.777  0.3495  0.0382 -0.1890
  263MPD2     C 3977   4.300   1.456  11.144  0.5734  0.1962  0.1386
  263MPD2    C1 3978   4.412   1.521  11.179 -0.5885  0.4267  0.4407
  263MPD2    C2 3979   4.453   1.619  11.096  1.0184  0.0127  0.1112
  263MPD2    C3 3980   4.391   1.644  10.978  0.4867  0.5022  0.9449
  263MPD2    C4 3981   4.273   1.579  10.945  0.0489 -0.0123  0.7967
  263MPD2    C5 3982   4.223   1.489  11.033 -0.5586 -0.0876 -0.1842
  263MPD2     H 3983   4.539   1.678  11.126  2.2374 -1.6462 -0.1088
  263MPD2    H1 3984   4.209   1.586  10.857 -1.1739 -1.8858  1.5149
  263MPD2    H2 3985   4.256   1.381  11.209 -0.1387  2.4787  2.2652
  263MPD2    H3 3986   4.134   1.432  11.009 -1.1973  0.6566  0.4634
  263MPD2     N 3987   4.451   1.739  10.897  0.2944 -0.5320 -0.2095
  263MPD2    H5 3988   4.535   1.782  10.935  0.2150  0.3021 -0.9657
  263MPD2    N1 3989   4.482   1.483  11.293 -0.6409 -0.8774  0.4409
  263MPD2    H7 3990   4.433   1.409  11.342 -2.4264 -0.4985 -0.7534
  264TMC3    C1 3991   4.524   1.832  10.697 -1.1999  0.8726  0.3110
  264TMC3    C2 3992   4.608   1.908  10.769 -0.0266 -0.0342  0.0544
  264TMC3    C3 3993   4.713   1.956  10.697  0.5322 -0.0768 -0.7477
  264TMC3    C4 3994   4.548   1.806  10.566 -0.1215  0.8337 -0.5316
  264TMC3    C5 3995   4.665   1.834  10.513 -0.3540  1.1480 -0.3876
  264TMC3    C6 3996   0.030   1.912  10.575  0.0256  0.0534  0.1323
  264TMC3     C 3997   4.414   1.758  10.767  0.0025 -0.1383  0.0016
  264TMC3     O 3998   4.334   1.692  10.700  0.5705 -0.1903  0.5827
  264TMC3     H 3999   4.582   1.933  10.871 -0.3057 -0.7174  0.1515
  264TMC3    H1 4000   4.473   1.753  10.509 -1.3101  0.3156  1.5129
  264TMC3    H2 4001   0.114   1.956  10.524 -0.3231 -3.1023 -3.2194
  264TMC3    C7 4002   4.681   1.827  10.370  0.3552 -0.2850 -0.0087
  264TMC3    C8 4003   0.060   2.070  10.751 -0.2449  0.0646 -0.2591
  264TMC3    O1 4004   4.592   1.878  10.301 -0.2503 -0.1729  0.6268
  264TMC3    O2 4005   0.181   2.073  10.736  0.2884 -0.4994 -0.5158
  265MPD2     C 4006   1.203   2.044  14.798  1.4613  0.3506  0.3274
  265MPD2    C1 4007   1.323   2.088  14.854 -0.0735  0.3948  0.1382
  265MPD2    C2 4008   1.440   2.075  14.783 -0.3900 -0.3680  0.4093
  265MPD2    C3 4009   1.439   1.990  14.673  0.0899 -0.5783 -0.3536
  265MPD2    C4 4010   1.324   1.946  14.623 -0.1919 -0.2931  0.8899
  265MPD2    C5 4011   1.206   1.975  14.686 -0.5199  0.4695 -0.7911
  265MPD2     H 4012   1.533   2.107  14.828 -0.8197  2.9039 -1.0569
  265MPD2    H1 4013   1.328   1.889  14.531 -2.8334 -0.5445  0.9476
  265MPD2    H2 4014   1.107   2.076  14.836  0.6809 -1.6184 -0.0079
  265MPD2    H3 4015   1.112   1.946  14.641  0.1955 -0.1576 -1.8767
  265MPD2     N 4016   1.557   1.953  14.610 -0.1077  0.1420 -0.5064
  265MPD2    H5 4017   1.549   1.876  14.544  0.0140  2.6958 -3.4831
  265MPD2    N1 4018   1.326   2.157  14.980  0.2301  0.3338  0.1382
  265MPD2    H7 4019   1.415   2.194  15.014  1.2535 -1.8536 -0.1834
  266TMC3    C1 4020   1.252   2.211  15.195  0.0878 -0.3897  0.5640
  266TMC3    C2 4021   1.182   2.152  15.296 -0.2452  0.2415 -0.3092
  266TMC3    C3 4022   1.178   2.224  15.415 -0.1113  0.0135 -0.9772
  266TMC3    C4 4023   1.295   2.340  15.186  0.2144 -0.3591 -0.1901
  266TMC3    C5 4024   1.280   2.409  15.302 -0.8116  0.7142  0.0020
  266TMC3    C6 4025   1.232   2.352  15.418  0.5800 -0.2490  0.0238
  266TMC3     C 4026   1.219   2.157  15.066  0.1229  0.1898  0.1122
  266TMC3     O 4027   1.114   2.095  15.065 -0.0110 -0.1280 -0.3194
  266TMC3     H 4028   1.162   2.047  15.282 -0.5601  0.3394 -0.5943
  266TMC3    H1 4029   1.346   2.371  15.095  1.6960  0.8666  1.0570
  266TMC3    H2 4030   1.235   2.412  15.508 -1.0640  0.5891 -0.4801
  266TMC3    C7 4031   1.291   2.553  15.279  0.5068 -0.4626 -0.3321
  266TMC3    C8 4032   1.168   2.139  15.534 -0.7678 -0.0330 -0.3112
  266TMC3    O1 4033   1.367   2.585  15.184 -0.4472  0.0464  0.9421
  266TMC3    O2 4034   1.139   2.022  15.503  0.7195  0.3923 -0.2387
  267MPD2     C 4035   3.425   3.167   0.782 -0.2226 -0.0259  0.0710
  267MPD2    C1 4036   3.453   3.290   0.714 -0.4094  0.7540  0.2998
  267MPD2    C2 4037   3.387   3.319   0.590  0.6290  0.6660 -0.6390
  267MPD2    C3 4038   3.289   3.247   0.533  0.4780  0.4472  0.3223
  267MPD2    C4 4039   3.260   3.136   0.601 -0.2546 -0.4190  0.5898
  267MPD2    C5 4040   3.327   3.100   0.719  0.7038 -0.3900 -0.1034
  267MPD2     H 4041   3.408   3.412   0.539  2.4165  0.1165 -0.9235
  267MPD2    H1 4042   3.183   3.067   0.569  0.2300 -1.0337  0.7410
  267MPD2    H2 4043   3.466   3.124   0.872  0.9439  1.3473  0.1892
  267MPD2    H3 4044   3.302   3.002   0.758 -0.2577 -0.1046 -0.0122
  267MPD2     N 4045   3.212   3.267   0.417 -0.7146 -0.4850 -0.6606
  267MPD2    H5 4046   3.130   3.208   0.414 -0.4093 -0.7967 -2.8216
  267MPD2    N1 4047   3.533   3.387   0.785  0.5559 -0.4953 -0.3105
  267MPD2    H7 4048   3.584   3.358   0.868  1.8822 -2.5084 -1.8308
  268TMC3    C1 4049   3.675   3.573   0.807  0.3680 -0.3912 -0.5931
  268TMC3    C2 4050   3.718   3.686   0.746  0.1976 -0.4399  0.6052
  268TMC3    C3 4051   3.844   3.716   0.713  0.0312  0.1694  0.1022
  268TMC3    C4 4052   3.766   3.474   0.838 -0.4096  0.1292 -0.5714
  268TMC3    C5 4053   3.894   3.501   0.807 -0.0545 -0.1748  0.7941
  268TMC3    C6 4054   3.936   3.619   0.749 -0.3647 -0.3187  0.1667
  268TMC3     C 4055   3.564   3.511   0.735  0.2367  0.0270  0.4664
  268TMC3     O 4056   3.526   3.576   0.639  0.2003 -0.1352  0.1263
  268TMC3     H 4057   3.645   3.764   0.726  2.3642  1.4123 -0.1207
  268TMC3    H1 4058   3.734   3.386   0.892  1.1197  0.8798  1.5280
  268TMC3    H2 4059   4.038   3.632   0.714 -0.3559 -2.3509 -0.5676
  268TMC3    C7 4060   3.984   3.393   0.842  0.7236  0.4075 -0.2607
  268TMC3    C8 4061   3.866   3.742   0.571 -0.7016 -0.7240 -0.1691
  268TMC3    O1 4062   3.960   3.340   0.948  0.4285 -0.4240 -0.7889
  268TMC3    O2 4063   3.967   3.796   0.534  0.2974  0.0767 -0.1714
  269MPD2     C 4064   3.868   2.387  15.791  0.2563  0.7110  0.0099
  269MPD2    C1 4065   3.741   2.433  15.816 -0.2186 -0.1106 -0.0229
  269MPD2    C2 4066   3.702   2.559  15.776  0.2133  0.1999  0.3131
  269MPD2    C3 4067   3.791   2.638  15.708  0.0045  0.2951 -0.0028
  269MPD2    C4 4068   3.921   2.587  15.679 -0.6991 -0.1804 -0.0204
  269MPD2    C5 4069   3.956   2.464  15.725 -0.0009 -0.4105 -0.2528
  269MPD2     H 4070   3.601   2.597  15.785  0.0927 -0.0765  0.1192
  269MPD2    H1 4071   3.993   2.631  15.612 -1.2655  0.4489 -0.2120
  269MPD2    H2 4072   3.904   2.287  15.815  3.0524  1.7233  0.0457
  269MPD2    H3 4073   4.051   2.417  15.703  2.0262  2.9467  1.1994
  269MPD2     N 4074   3.733   2.752  15.650  0.7293 -0.1674  0.5107
  269MPD2    H5 4075   3.644   2.786  15.683  0.5349 -1.2306  1.0742
  269MPD2    N1 4076   3.655   2.334  15.872  0.0429 -0.0260 -0.1424
  269MPD2    H7 4077   3.701   2.245  15.886  1.0077  0.3159 -1.1854
  270TMC3    C1 4078   3.451   2.246  15.954  0.2543 -0.2294 -0.3639
  270TMC3    C2 4079   3.347   2.219  15.871  0.4671 -0.0848 -0.1246
  270TMC3    C3 4080   3.284   2.103  15.883  0.0588  0.5889  0.0443
  270TMC3    C4 4081   3.506   2.150  16.032  0.5753  0.0364  0.4890
  270TMC3    C5 4082   3.441   2.032  16.044 -0.3585 -0.4251 -0.0803
  270TMC3    C6 4083   3.331   2.009  15.970 -0.6002  0.2529  0.1037
  270TMC3     C 4084   3.526   2.359  15.919 -0.0512  0.2367  0.4631
  270TMC3     O 4085   3.462   2.464  15.910 -0.1720  0.3160 -0.0868
  270TMC3     H 4086   3.314   2.290  15.796  1.4375  0.9440  0.3949
  270TMC3    H1 4087   3.594   2.178  16.088  1.5561  0.0310 -1.0592
  270TMC3    H2 4088   3.279   1.914  15.963 -0.6487  0.3073 -0.2670
  270TMC3    C7 4089   3.517   1.920  16.087 -0.3644  0.0803  0.8123
  270TMC3    C8 4090   3.190   2.070  15.776  0.3025  0.2933  0.2660
  270TMC3    O1 4091   3.638   1.940  16.103 -0.5854  0.2631  0.1176
  270TMC3    O2 4092   3.078   2.021  15.803 -0.2552 -0.6582 -0.0517
  271MPD2     C 4093   3.107   1.931  13.957 -0.5395  0.6876 -0.7596
  271MPD2    C1 4094   3.031   1.943  14.071 -0.1897  0.1240  0.6300
  271MPD2    C2 4095   2.921   2.027  14.063  0.1263 -0.7479  0.0661
  271MPD2    C3 4096   2.873   2.088  13.944 -0.0748 -1.5074 -0.5286
  271MPD2    C4 4097   2.950   2.069  13.831  0.1534  0.8867 -0.0367
  271MPD2    C5 4098   3.070   1.994  13.845 -0.2736 -0.6063 -1.2345
  271MPD2     H 4099   2.865   2.041  14.155  0.0198 -0.2731 -0.0716
  271MPD2    H1 4100   2.911   2.105  13.737 -2.5766 -0.6664  0.5021
  271MPD2    H2 4101   3.194   1.867  13.960 -2.3486 -1.7732 -1.2382
  271MPD2    H3 4102   3.143   1.997  13.765  2.0028 -1.5174  0.8249
  271MPD2     N 4103   2.748   2.160  13.942 -0.0399  0.0665  0.0227
  271MPD2    H5 4104   2.716   2.209  13.860 -0.7864  1.7318  1.3070
  271MPD2    N1 4105   3.067   1.896  14.199 -0.8249 -0.0629  0.2246
  271MPD2    H7 4106   3.021   1.948  14.273  1.4170 -1.1443  2.3852
  272TMC3    C1 4107   3.186   1.766  14.368  0.5452  0.3596 -1.0631
  272TMC3    C2 4108   3.312   1.726  14.401  0.5132  0.7451 -0.1630
  272TMC3    C3 4109   3.354   1.751  14.527 -0.1720  0.2885 -0.0487
  272TMC3    C4 4110   3.090   1.804  14.467  0.2656 -0.0901  0.6119
  272TMC3    C5 4111   3.142   1.831  14.592  0.3155  0.6291 -0.2448
  272TMC3    C6 4112   3.272   1.811  14.621  0.1623 -0.2891  0.2574
  272TMC3     C 4113   3.159   1.793  14.227  0.0678  0.0413 -0.7038
  272TMC3     O 4114   3.231   1.733  14.148 -0.3322  0.3867 -0.2816
  272TMC3     H 4115   3.381   1.690  14.326  3.5662  0.5861  2.7066
  272TMC3    H1 4116   2.986   1.829  14.448 -0.4133 -1.7405  2.1782
  272TMC3    H2 4117   3.315   1.850  14.712 -0.5671  0.5706  0.2239
  272TMC3    C7 4118   3.054   1.881  14.693 -0.6887 -0.1105  0.5026
  272TMC3    C8 4119   3.496   1.755  14.540  0.1271  0.3106  0.0754
  272TMC3    O1 4120   2.936   1.870  14.667 -0.1849 -0.2564 -0.3523
  272TMC3    O2 4121   3.548   1.783  14.436 -0.3980  0.6461 -0.1398
  273MPD2     C 4122   4.719   0.676  11.866  0.6829 -0.5995 -0.0165
  273MPD2    C1 4123   0.108   0.739  11.811  0.5145 -0.0316 -0.0108
  273MPD2    C2 4124   0.174   0.685  11.696  0.2908  0.5102 -0.3895
  273MPD2    C3 4125   0.124   0.566  11.640 -0.3546 -0.1494 -0.8349
  273MPD2    C4 4126   0.012   0.509  11.693 -0.4814 -0.7369 -0.4215
  273MPD2    C5 4127   4.673   0.569  11.797  0.2966  0.1680  0.6414
  273MPD2     H 4128   0.251   0.741  11.645 -0.7912  1.1440 -1.3424
  273MPD2    H1 4129   4.684   0.424  11.652 -1.7498  0.3827 -1.1643
  273MPD2    H2 4130   4.667   0.722  11.950  0.4485 -0.8689 -0.0132
  273MPD2    H3 4131   4.583   0.524  11.836  0.3916 -1.4620 -1.0186
  273MPD2     N 4132   0.183   0.509  11.528  0.3121  0.6635 -0.3528
  273MPD2    H5 4133   0.126   0.442  11.476  0.1120 -0.2619  1.0467
  273MPD2    N1 4134   0.158   0.848  11.883  0.3822 -0.4403  0.1811
  273MPD2    H7 4135   0.115   0.877  11.970  1.2814  0.7207  0.2344
  274TMC3    C1 4136   0.321   0.500  11.344 -0.5096  0.7334 -0.2967
  274TMC3    C2 4137   0.211   0.463  11.276 -0.5542 -0.5333 -0.3111
  274TMC3    C3 4138   0.196   0.508  11.148  0.1267 -0.4455  0.4111
  274TMC3    C4 4139   0.422   0.571  11.281 -0.2486 -0.2479 -0.2530
  274TMC3    C5 4140   0.388   0.635  11.165 -0.3533  0.2523  0.6549
  274TMC3    C6 4141   0.272   0.611  11.093  0.3658 -1.1629  0.4974
  274TMC3     C 4142   0.309   0.534  11.483 -0.7074 -0.5436 -0.3255
  274TMC3     O 4143   0.396   0.596  11.545 -0.8447  0.0698 -0.3861
  274TMC3     H 4144   0.133   0.403  11.323 -0.0764 -0.8143  0.1244
  274TMC3    H1 4145   0.523   0.557  11.317 -0.2133 -1.6702 -0.9133
  274TMC3    H2 4146   0.262   0.629  10.987 -1.4492  1.0070  1.0421
  274TMC3    C7 4147   0.431   0.770  11.161 -0.2443 -0.2058  0.0371
  274TMC3    C8 4148   0.056   0.503  11.098 -0.5089 -0.5174 -0.4201
  274TMC3    O1 4149   0.369   0.844  11.086 -0.0794  0.0507  0.4315
  274TMC3    O2 4150   0.015   0.595  11.030 -0.2776  0.3807 -0.1801
  275MPD2     C 4151   4.626   2.965  14.420 -0.1800 -1.0200  0.6465
  275MPD2    C1 4152   4.592   2.916  14.545  0.0317  0.0932 -0.4252
  275MPD2    C2 4153   4.474   2.845  14.548 -0.4674  0.2017 -1.1901
  275MPD2    C3 4154   4.395   2.815  14.441  0.3758  0.1479 -0.9929
  275MPD2    C4 4155   4.440   2.864  14.312  0.0905 -0.3245  0.3329
  275MPD2    C5 4156   4.553   2.937  14.306 -0.1264  0.1481  0.0667
  275MPD2     H 4157   4.432   2.818  14.644 -1.9021 -0.1313 -1.9060
  275MPD2    H1 4158   4.391   2.862  14.216 -2.5533 -0.7856  1.6736
  275MPD2    H2 4159   4.712   3.030  14.414 -1.0732 -0.0300 -1.4233
  275MPD2    H3 4160   4.590   2.983  14.216  0.2551  0.5008  0.4059
  275MPD2     N 4161   4.265   2.765  14.459 -0.4082  0.1548  0.2809
  275MPD2    H5 4162   4.244   2.743  14.556 -3.7776  2.0009 -0.0345
  275MPD2    N1 4163   4.654   2.949  14.669 -0.0686  0.1787  0.6520
  275MPD2    H7 4164   4.612   2.907  14.752  0.1885 -1.0357  0.1636
  276TMC3    C1 4165   0.084   3.025  14.833 -0.9282  0.0867 -0.6526
  276TMC3    C2 4166   4.721   2.986  14.930 -0.7589  0.3195 -0.1675
  276TMC3    C3 4167   0.039   2.990  15.061 -0.4786 -0.1385 -0.1501
  276TMC3    C4 4168   0.210   3.062  14.865  0.8705  0.3890  0.7361
  276TMC3    C5 4169   0.253   3.070  14.998 -0.1878  0.8341 -0.1250
  276TMC3    C6 4170   0.165   3.028  15.093  0.7859  0.3249  0.2738
  276TMC3     C 4171   0.048   3.021  14.691 -0.7223  0.0789  0.0866
  276TMC3     O 4172   0.130   3.063  14.611 -0.7756  0.0842 -0.1268
  276TMC3     H 4173   4.615   2.974  14.909 -1.0567 -2.2799  2.7938
  276TMC3    H1 4174   0.272   3.079  14.778 -1.6090 -0.3093 -1.1798
  276TMC3    H2 4175   0.201   3.028  15.196 -1.8742 -2.5154  1.2000
  276TMC3    C7 4176   0.366   3.152  15.036 -0.3424  1.0717  0.3310
  276TMC3    C8 4177   4.689   2.929  15.169 -0.2793  0.1346  0.9176
  276TMC3    O1 4178   0.423   3.131  15.138 -0.3730 -0.0874  0.2117
  276TMC3    O2 4179   4.717   2.961  15.283 -0.3103  0.2251 -0.1395
  277MPD2     C 4180   1.584   2.141  13.579 -0.0918  0.3637  0.0568
  277MPD2    C1 4181   1.462   2.182  13.552 -0.1880  0.0557 -0.2306
  277MPD2    C2 4182   1.366   2.116  13.631  0.0161 -0.2249 -0.2681
  277MPD2    C3 4183   1.387   2.015  13.720 -0.2963 -0.6414  0.2401
  277MPD2    C4 4184   1.520   1.979  13.754 -0.4261  0.5746 -0.5797
  277MPD2    C5 4185   1.616   2.049  13.682  0.1302 -0.3379 -0.3931
  277MPD2     H 4186   1.261   2.128  13.605  0.1480  3.4450  0.8560
  277MPD2    H1 4187   1.545   1.905  13.828 -0.8614 -0.1322 -1.1377
  277MPD2    H2 4188   1.657   2.181  13.509  1.9321  0.6495  2.3181
  277MPD2    H3 4189   1.721   2.029  13.698 -0.3837 -0.4618  2.8184
  277MPD2     N 4190   1.282   1.952  13.789 -0.1248 -0.2614 -0.0866
  277MPD2    H5 4191   1.188   1.983  13.766  0.6589  3.8454  2.1013
  277MPD2    N1 4192   1.435   2.270  13.448 -0.1425 -0.1381  0.3052
  277MPD2    H7 4193   1.517   2.302  13.396 -0.9603  1.8456  0.2197
  278TMC3    C1 4194   1.151   1.797  13.909  0.1922 -0.4056  0.2653
  278TMC3    C2 4195   1.141   1.659  13.908 -0.6070  0.4215  0.0070
  278TMC3    C3 4196   1.017   1.605  13.939 -0.4344  0.0251 -0.8436
  278TMC3    C4 4197   1.047   1.881  13.926 -0.0378  0.8899 -0.7903
  278TMC3    C5 4198   0.924   1.823  13.945 -0.1678 -0.2880  0.0055
  278TMC3    C6 4199   0.904   1.682  13.959  0.2248  0.1149  0.7593
  278TMC3     C 4200   1.282   1.835  13.864  0.2243 -0.5603  0.7432
  278TMC3     O 4201   1.383   1.773  13.908  0.1659 -0.7500 -0.4523
  278TMC3     H 4202   1.229   1.604  13.877  0.1481  0.8434  1.4249
  278TMC3    H1 4203   1.055   1.988  13.943 -0.3475  0.7240  0.3723
  278TMC3    H2 4204   0.814   1.635  13.995 -1.6066  1.8134 -1.5742
  278TMC3    C7 4205   0.828   1.911  13.999 -0.2494  0.2837 -0.1658
  278TMC3    C8 4206   0.996   1.470  13.902 -0.9552  0.7962  0.6297
  278TMC3    O1 4207   0.865   2.006  14.063  0.2030 -0.0722  0.3387
  278TMC3    O2 4208   1.097   1.402  13.919 -0.3206 -0.0332 -0.4713
  279MPD2     C 4209   1.036   1.582   0.218  0.5447  0.1062 -0.4131
  279MPD2    C1 4210   0.913   1.636   0.228 -0.7052 -0.9075  0.3230
  279MPD2    C2 4211   0.885   1.747   0.152 -0.6175 -0.4756  0.2066
  279MPD2    C3 4212   0.978   1.816   0.080  0.3456 -0.1763  0.9646
  279MPD2    C4 4213   1.103   1.754   0.071 -0.9254 -0.5177 -0.0714
  279MPD2    C5 4214   1.126   1.641   0.139 -0.1698  0.2236 -0.1025
  279MPD2     H 4215   0.788   1.790   0.171 -0.2808  0.6550 -0.5932
  279MPD2    H1 4216   1.181   1.788   0.004  0.6692  0.0153  2.0913
  279MPD2    H2 4217   1.068   1.496   0.275 -0.3805 -0.3452 -0.5795
  279MPD2    H3 4218   1.223   1.594   0.129 -1.6361 -1.7381 -4.7412
  279MPD2     N 4219   0.952   1.926  17.691 -0.4883  0.6172  0.3995
  279MPD2    H5 4220   1.038   1.961  17.650 -0.2440  0.9655  1.1993
  279MPD2    N1 4221   0.830   1.575   0.324 -0.4124  0.2826  0.2269
  279MPD2    H7 4222   0.859   1.482   0.352 -1.5882 -0.4316 -0.8824
  280TMC3    C1 4223   0.646   1.559   0.471  0.5066 -0.0641 -0.1117
  280TMC3    C2 4224   0.616   1.430   0.438 -0.3056 -0.2865 -0.1752
  280TMC3    C3 4225   0.495   1.371   0.482  0.4166  0.2779 -0.1201
  280TMC3    C4 4226   0.557   1.620   0.550  0.8794 -0.3037  0.1946
  280TMC3    C5 4227   0.449   1.560   0.607 -0.6142  0.0608  0.0374
  280TMC3    C6 4228   0.412   1.438   0.566 -1.2337 -0.0103  0.0355
  280TMC3     C 4229   0.724   1.639   0.379 -0.3688  0.5808  0.0297
  280TMC3     O 4230   0.696   1.756   0.372  0.2413 -0.3127  0.0781
  280TMC3     H 4231   0.680   1.371   0.374  0.4366 -1.2014  1.4054
  280TMC3    H1 4232   0.571   1.726   0.566  1.1680 -0.5533  1.5581
  280TMC3    H2 4233   0.315   1.399   0.595  0.2197 -0.7347  3.8712
  280TMC3    C7 4234   0.358   1.654   0.671  0.6483 -0.3179  0.0581
  280TMC3    C8 4235   0.446   1.258   0.404 -0.2358  0.6579 -0.1228
  280TMC3    O1 4236   0.412   1.729   0.755 -0.2443  0.4858 -1.1653
  280TMC3    O2 4237   0.406   1.160   0.469  0.1795  0.3730 -0.5181
  281TMC3    C1 4238   4.630   2.149  13.325  0.1724  0.0727 -0.2873
  281TMC3    C2 4239   4.710   2.227  13.249 -0.1225  0.5444 -0.7935
  281TMC3    C3 4240   0.055   2.175  13.140 -0.2029  0.1203  0.9599
  281TMC3    C4 4241   4.608   2.018  13.287  0.4050  0.2641  0.8003
  281TMC3    C5 4242   4.667   1.972  13.169 -0.3929 -0.0931 -0.3069
  281TMC3    C6 4243   0.031   2.043  13.103  0.0708 -0.2176  0.0072
  281TMC3     C 4244   4.511   2.196  13.400 -0.0067  0.1652  0.3128
  281TMC3     O 4245   4.432   2.116  13.435  0.6126  0.6749 -0.1961
  281TMC3     H 4246   0.007   2.330  13.275 -1.7824  0.7564 -0.3259
  281TMC3    H1 4247   4.532   1.958  13.336  0.5505 -0.4609  0.1453
  281TMC3    H2 4248   0.096   2.002  13.026  2.0983 -0.1608  1.6633
  281TMC3    C7 4249   4.659   1.830  13.131 -0.2062  0.0109 -0.0130
  281TMC3    C8 4250   0.117   2.246  13.023 -0.0973  0.9354  0.2611
  281TMC3    O1 4251   0.031   1.777  13.083  0.3731 -0.0027  0.3170
  281TMC3    O2 4252   0.209   2.188  12.965 -0.4931  0.0674  0.7136
  282MPD2     C 4253   1.674   3.880  15.416  0.0036 -0.0982 -0.0605
  282MPD2    C1 4254   1.558   3.950  15.395 -0.0049  0.0337 -0.0297
  282MPD2    C2 4255   1.502   3.975  15.272  0.4379  0.1191 -0.4310
  282MPD2    C3 4256   1.565   3.928  15.165  0.3287  0.3671  0.0593
  282MPD2    C4 4257   1.690   3.864  15.178 -0.2356 -0.6935 -0.8118
  282MPD2    C5 4258   1.739   3.840  15.302 -0.3746 -0.1555  0.0086
  282MPD2     H 4259   1.405   4.021  15.265  0.6742  0.8890  1.3050
  282MPD2    H1 4260   1.740   3.816  15.095 -2.1125 -1.0420 -1.7389
  282MPD2    H2 4261   1.725   3.869  15.512  0.3186  2.0303  0.0234
  282MPD2    H3 4262   1.836   3.792  15.310  0.6984  1.9729 -0.4079
  282MPD2     N 4263   1.481   3.923  15.052  0.4656  0.4337 -0.2291
  282MPD2    H5 4264   1.399   3.982  15.059 -0.1944 -0.7574  1.8421
  282MPD2    N1 4265   1.479   3.999  15.508 -0.1955  0.4734 -0.0560
  282MPD2    H7 4266   1.384   4.032  15.493 -0.2882  0.1884 -0.0971
  283TMC3    C1 4267   1.370   3.971  15.713 -0.1262  0.2079 -0.1448
  283TMC3    C2 4268   1.304   4.094  15.705  0.6429 -0.7472  0.5959
  283TMC3    C3 4269   1.193   4.111  15.787 -0.5268  0.4602 -0.6233
  283TMC3    C4 4270   1.335   3.877  15.803 -1.2381 -0.1194  0.0933
  283TMC3    C5 4271   1.225   3.894  15.875  0.3668  0.4519  0.2251
  283TMC3    C6 4272   1.161   4.016  15.882  0.6986 -0.0808 -0.5178
  283TMC3     C 4273   1.494   3.951  15.638 -0.0363 -0.0431 -0.4308
  283TMC3     O 4274   1.578   3.878  15.692  0.1523 -0.2040  0.2898
  283TMC3     H 4275   1.347   4.170  15.641 -1.2746  0.5357  0.8137
  283TMC3    H1 4276   1.400   3.792  15.823 -0.9899 -0.2112 -1.0623
  283TMC3    H2 4277   1.080   4.024  15.953 -0.6794 -2.1329 -1.8484
  283TMC3    C7 4278   1.150   3.778  15.934 -0.0668 -0.2043 -0.0497
  283TMC3    C8 4279   1.168   4.249  15.833  0.0343 -0.3756 -0.5402
  283TMC3    O1 4280   1.080   3.799  16.028  0.6207 -0.3804 -0.1138
  283TMC3    O2 4281   1.132   4.271  15.948 -0.3915 -0.4931 -0.1982
  284MPD2     C 4282   4.690   2.942  12.043  0.1076 -0.2526  0.1191
  284MPD2    C1 4283   0.003   2.913  11.915 -0.3226 -0.1746 -0.8178
  284MPD2    C2 4284   4.652   2.820  11.834  0.4604 -0.0403  0.7170
  284MPD2    C3 4285   4.539   2.762  11.891  0.2126 -0.0868 -0.5375
  284MPD2    C4 4286   4.498   2.790  12.023 -0.0796  0.1016  0.6607
  284MPD2    C5 4287   4.581   2.869  12.099 -0.1227  0.3315  0.2190
  284MPD2     H 4288   4.691   2.782  11.740  1.7430  0.6152  0.9721
  284MPD2    H1 4289   4.401   2.763  12.063 -0.8907  2.2389  0.0820
  284MPD2    H2 4290   0.025   3.009  12.105  2.8724  0.2610 -3.0493
  284MPD2    H3 4291   4.558   2.890  12.203 -0.6264 -1.2085  0.4065
  284MPD2     N 4292   4.444   2.677  11.818  0.0145 -0.0143 -0.0167
  284MPD2    H5 4293   4.374   2.627  11.872 -0.5842 -0.1815 -0.9560
  284MPD2    N1 4294   0.120   2.974  11.871  0.3956 -0.0802 -0.8691
  284MPD2    H7 4295   0.169   3.038  11.931 -0.0132  1.3247 -2.0385
  285TMC3    C1 4296   0.308   3.033  11.743  0.0437  0.7594  0.2123
  285TMC3    C2 4297   0.405   2.989  11.655 -0.0501  0.4928 -0.3462
  285TMC3    C3 4298   0.523   3.056  11.631  0.1986 -1.2252 -0.5147
  285TMC3    C4 4299   0.313   3.160  11.785  0.1961  0.7244  0.6058
  285TMC3    C5 4300   0.430   3.228  11.757 -0.4267  0.1541 -0.0158
  285TMC3    C6 4301   0.540   3.185  11.683 -0.0562  0.0891 -0.3776
  285TMC3     C 4302   0.186   2.965  11.752 -0.0006 -0.9085  0.3557
  285TMC3     O 4303   0.164   2.891  11.659 -0.2206  0.6171  0.3840
  285TMC3     H 4304   0.388   2.891  11.612  0.9503 -0.3368  1.1374
  285TMC3    H1 4305   0.223   3.203  11.827 -0.2862  0.4960 -0.1998
  285TMC3    H2 4306   0.617   3.255  11.655 -0.8412  1.3971  0.7381
  285TMC3    C7 4307   0.422   3.375  11.759  0.1932 -0.0978 -0.0842
  285TMC3    C8 4308   0.578   3.027  11.497  0.0454 -0.4795  0.0522
  285TMC3    O1 4309   0.506   3.431  11.688 -0.5318 -0.5587 -0.1973
  285TMC3    O2 4310   0.507   2.979  11.410  0.1842 -0.0621  0.0358
  286MPD2     C 4311   0.283   1.294   1.838  0.8552 -0.1514  0.2169
  286MPD2    C1 4312   0.205   1.234   1.734 -0.7647 -0.2152 -0.3176
  286MPD2    C2 4313   0.242   1.119   1.677 -0.0431 -0.1993 -0.2583
  286MPD2    C3 4314   0.359   1.059   1.713 -0.3577  0.8835  1.2132
  286MPD2    C4 4315   0.434   1.118   1.810  0.2169  0.3081 -0.4862
  286MPD2    C5 4316   0.397   1.233   1.874 -0.1821  0.4635 -0.0460
  286MPD2     H 4317   0.173   1.075   1.605 -1.7365  0.2761  1.0946
  286MPD2    H1 4318   0.537   1.085   1.816  0.0685 -0.1356 -0.3399
  286MPD2    H2 4319   0.253   1.377   1.901 -0.1271  1.8718 -2.9522
  286MPD2    H3 4320   0.467   1.281   1.942 -0.0024  0.7532 -0.4385
  286MPD2     N 4321   0.416   0.946   1.649  0.2908  0.9913 -0.4808
  286MPD2    H5 4322   0.513   0.924   1.672  0.8691  1.8113 -2.0733
  286MPD2    N1 4323   0.075   1.284   1.696  0.9851  0.2085 -0.7734
  286MPD2    H7 4324   0.024   1.220   1.637 -0.6359  0.3668  0.4753
  287TMC3    C1 4325   0.442   0.769   1.492  0.4830  0.8029 -0.4591
  287TMC3    C2 4326   0.431   0.758   1.357 -0.4986 -0.1323  0.0988
  287TMC3    C3 4327   0.548   0.736   1.280  0.0165 -0.6181 -0.1040
  287TMC3    C4 4328   0.568   0.759   1.548 -0.0954  0.4240 -0.1754
  287TMC3    C5 4329   0.678   0.742   1.471  0.1551  0.5851 -0.2843
  287TMC3    C6 4330   0.668   0.725   1.339  0.5166  0.2248 -0.8726
  287TMC3     C 4331   0.354   0.872   1.547 -0.3072 -0.1543 -0.5841
  287TMC3     O 4332   0.246   0.885   1.496  0.2302 -0.0950 -0.2067
  287TMC3     H 4333   0.339   0.779   1.304 -1.3349 -0.1966  1.5146
  287TMC3    H1 4334   0.587   0.754   1.655 -1.2770 -0.0396  0.0111
  287TMC3    H2 4335   0.754   0.716   1.274  2.6595  2.1280  1.6879
  287TMC3    C7 4336   0.800   0.800   1.523  0.3896 -0.2867  0.7256
  287TMC3    C8 4337   0.538   0.730   1.135 -0.1695  0.4429 -0.0736
  287TMC3    O1 4338   0.791   0.869   1.623  0.1292  0.3410 -0.3720
  287TMC3    O2 4339   0.602   0.647   1.073  0.4878 -0.4220 -0.6272
  288TMC3    C1 4340   1.478   1.137  14.655 -0.3208  0.0348 -0.1415
  288TMC3    C2 4341   1.369   1.181  14.724 -0.2097  0.0151 -0.2426
  288TMC3    C3 4342   1.326   1.304  14.682 -0.2323  0.0708 -0.7180
  288TMC3    C4 4343   1.536   1.206  14.551  0.8421 -0.1811  0.0417
  288TMC3    C5 4344   1.481   1.326  14.506  0.3021  0.2769 -0.6104
  288TMC3    C6 4345   1.373   1.378  14.578  0.2401  0.4546  0.1577
  288TMC3     C 4346   1.530   1.003  14.695  0.5667  0.4490  0.1402
  288TMC3     O 4347   1.451   0.931  14.754 -0.4147 -0.1939 -0.1906
  288TMC3     H 4348   1.322   1.130  14.807  1.1693  1.0190  1.1597
  288TMC3    H1 4349   1.608   1.149  14.493  0.2884 -0.9993  0.1610
  288TMC3    H2 4350   1.328   1.473  14.554 -1.3628  0.0594  1.6437
  288TMC3    C7 4351   1.551   1.412  14.409 -0.4668 -0.3148 -0.7811
  288TMC3    C8 4352   1.243   1.376  14.781 -0.1921 -0.6055  0.6898
  288TMC3    O1 4353   1.482   1.510  14.379  0.0821 -0.1159  0.1108
  288TMC3    O2 4354   1.260   1.498  14.793 -0.2976 -0.3738  0.6952
  289MPD2     C 4355   1.828   0.960  14.232 -0.3411 -0.5292  1.1630
  289MPD2    C1 4356   1.748   1.036  14.153 -0.6130 -0.4085  0.2265
  289MPD2    C2 4357   1.609   1.036  14.162  0.4853 -0.2803  0.0726
  289MPD2    C3 4358   1.543   0.977  14.265  0.0660 -0.0511  0.6192
  289MPD2    C4 4359   1.617   0.895  14.345 -0.2551 -0.4962 -0.6567
  289MPD2    C5 4360   1.760   0.895  14.336 -0.3772  0.3745 -0.1650
  289MPD2     H 4361   1.554   1.088  14.084  1.8048  2.4339  0.9419
  289MPD2    H1 4362   1.563   0.845  14.424 -0.3545  0.1512 -0.3190
  289MPD2    H2 4363   1.931   0.951  14.200 -0.0932  4.2875  0.6844
  289MPD2    H3 4364   1.823   0.835  14.402 -0.9255 -1.7475 -1.5680
  289MPD2     N 4365   1.406   0.983  14.289  0.2710  0.6599 -0.7346
  289MPD2    H5 4366   1.360   0.924  14.357  1.9241  0.8830  0.5841
  289MPD2    N1 4367   1.815   1.113  14.053  0.3001 -0.1607  0.2539
  289MPD2    H7 4368   1.916   1.107  14.045  0.1763 -0.2818 -1.1153
  290TMC3    C1 4369   1.180   1.043  14.240  0.6462 -0.6409  0.5409
  290TMC3    C2 4370   1.085   1.136  14.204 -0.7088  0.0933  0.8680
  290TMC3    C3 4371   0.953   1.104  14.210 -0.3186 -0.2585  0.1484
  290TMC3    C4 4372   1.141   0.917  14.272  0.4039 -0.2389 -0.4201
  290TMC3    C5 4373   1.007   0.888  14.277 -0.7658  0.4056 -0.2817
  290TMC3    C6 4374   0.908   0.976  14.244 -0.0971 -0.2432  0.2114
  290TMC3     C 4375   1.324   1.066  14.217  1.2652  0.3711  0.6110
  290TMC3     O 4376   1.347   1.161  14.141  0.4830  0.0070  0.4523
  290TMC3     H 4377   1.108   1.234  14.164  2.4572 -1.1469 -0.3029
  290TMC3    H1 4378   1.214   0.845  14.306 -0.6211 -0.2216  1.7826
  290TMC3    H2 4379   0.805   0.943  14.235 -0.0955 -0.4758  1.0686
  290TMC3    C7 4380   0.958   0.783  14.369  0.1306  0.5928  0.6062
  290TMC3    C8 4381   0.844   1.187  14.155  0.0224  0.4411 -0.1914
  290TMC3    O1 4382   0.861   0.817  14.438  0.7949 -0.1038 -0.3791
  290TMC3    O2 4383   0.740   1.131  14.133 -1.4839  0.3309  0.6553
  291MPD2     C 4384   1.284   0.127   0.530 -0.7910 -0.6642 -0.5576
  291MPD2    C1 4385   1.161   0.087   0.467 -0.0617  0.8096  0.1538
  291MPD2    C2 4386   1.119   0.162   0.353 -0.5430  0.2385  0.2722
  291MPD2    C3 4387   1.196   0.269   0.306 -0.6283  0.0406 -1.0304
  291MPD2    C4 4388   1.311   0.308   0.377 -0.3096  0.2234  0.5446
  291MPD2    C5 4389   1.359   0.232   0.483 -0.7110  0.8699 -0.0393
  291MPD2     H 4390   1.037   0.125   0.292 -0.1586  1.3132 -0.8864
  291MPD2    H1 4391   1.373   0.392   0.350  0.4996 -0.5051  0.1488
  291MPD2    H2 4392   1.326   0.067   0.609 -1.9994  0.5143  0.9692
  291MPD2    H3 4393   1.449   0.266   0.532 -0.7112 -0.1681  0.6886
  291MPD2     N 4394   1.163   0.354   0.198 -0.0648  0.3001  0.4122
  291MPD2    H5 4395   1.228   0.427   0.171  2.6947 -3.2644 -2.5122
  291MPD2    N1 4396   1.078   4.706   0.522 -0.6644  0.7648 -0.3334
  291MPD2    H7 4397   0.992   4.684   0.473 -0.2615 -0.5255 -0.4665
  292TMC3    C1 4398   1.006   4.519   0.654  0.8609 -0.1541 -0.0690
  292TMC3    C2 4399   1.011   4.435   0.760  0.8933 -0.1919 -0.1394
  292TMC3    C3 4400   0.903   4.357   0.777  0.4992  0.0934 -0.3418
  292TMC3    C4 4401   0.910   4.505   0.555 -0.4301  0.3292  0.2512
  292TMC3    C5 4402   0.814   4.414   0.573 -0.4179  0.1840 -0.4874
  292TMC3    C6 4403   0.803   4.344   0.686 -0.3759 -0.3535 -0.6902
  292TMC3     C 4404   1.104   4.627   0.634  0.0897  0.1699  0.1841
  292TMC3     O 4405   1.202   4.631   0.705  0.1464 -0.3753  0.3902
  292TMC3     H 4406   1.088   4.447   0.835 -0.2503  1.8095  0.7213
  292TMC3    H1 4407   0.923   4.558   0.461 -1.3656  0.5920  0.2635
  292TMC3    H2 4408   0.717   4.278   0.698  0.5447 -0.8103  3.4893
  292TMC3    C7 4409   0.748   4.361   0.459  0.1214  0.7683 -0.5932
  292TMC3    C8 4410   0.880   4.341   0.917 -0.8258  0.5226  0.0303
  292TMC3    O1 4411   0.711   4.246   0.470 -0.7887 -0.4789 -0.2244
  292TMC3    O2 4412   0.975   4.350   0.993  0.2264  0.3795 -0.4599
  293MPD2     C 4413   3.053   2.037  12.355  0.9404 -0.5156 -0.2386
  293MPD2    C1 4414   2.963   1.973  12.441 -0.7009 -0.1651 -0.3317
  293MPD2    C2 4415   3.002   1.939  12.568 -1.0623  0.9642  0.4983
  293MPD2    C3 4416   3.121   1.989  12.615  0.2863 -0.0025  0.9107
  293MPD2    C4 4417   3.202   2.065  12.529  0.3046  0.4534  0.1335
  293MPD2    C5 4418   3.168   2.090  12.397  0.0236  0.3252  0.1563
  293MPD2     H 4419   2.940   1.872  12.627  1.5964 -2.2997 -0.4118
  293MPD2    H1 4420   3.300   2.100  12.559 -0.1105  0.8445  1.0509
  293MPD2    H2 4421   3.027   2.059  12.252  0.0102  1.0981  0.3376
  293MPD2    H3 4422   3.237   2.140  12.330 -1.0792 -0.0417 -1.2490
  293MPD2     N 4423   3.150   1.981  12.757 -0.3469  0.0370  0.0709
  293MPD2    H5 4424   3.092   1.921  12.815 -0.9380  2.5303  2.0662
  293MPD2    N1 4425   2.832   1.936  12.387  0.0475  0.8704  0.0219
  293MPD2    H7 4426   2.820   1.943  12.287 -1.8084  1.6280  0.2963
  294TMC3    C1 4427   2.601   1.870  12.373  1.1110  0.5046  1.1648
  294TMC3    C2 4428   2.493   1.804  12.424  0.4956 -0.1091 -0.0040
  294TMC3    C3 4429   2.380   1.800  12.347 -0.8181 -0.7499 -0.3644
  294TMC3    C4 4430   2.605   1.922  12.247 -0.7734 -0.0147  0.4935
  294TMC3    C5 4431   2.489   1.912  12.173  0.5546  0.5304  0.2595
  294TMC3    C6 4432   2.376   1.850  12.219 -0.2097  0.0261  0.2352
  294TMC3     C 4433   2.725   1.877  12.456 -0.1794 -0.4977  0.2121
  294TMC3     O 4434   2.714   1.845  12.578  0.4696  0.2254 -0.0009
  294TMC3     H 4435   2.493   1.744  12.514  1.3538  2.1359  1.4754
  294TMC3    H1 4436   2.680   1.994  12.216 -0.7472 -0.6217 -0.8380
  294TMC3    H2 4437   2.285   1.851  12.160 -0.1215 -0.8298  0.0842
  294TMC3    C7 4438   2.473   2.003  12.064 -0.1279  0.3090  0.4112
  294TMC3    C8 4439   2.270   1.717  12.397 -0.6255  0.8530  0.1254
  294TMC3    O1 4440   2.363   2.062  12.049  0.1992  0.3411  0.0436
  294TMC3    O2 4441   2.250   1.713  12.516 -0.0711  0.0634 -0.1004
  295MPD2     C 4442   2.634   0.168   0.337 -0.5528 -0.2194  0.2261
  295MPD2    C1 4443   2.684   0.291   0.382  0.4907 -0.5917  0.0853
  295MPD2    C2 4444   2.597   0.369   0.459  0.7588  0.1546  0.0902
  295MPD2    C3 4445   2.467   0.330   0.486  0.7777  0.8524 -0.1033
  295MPD2    C4 4446   2.425   0.218   0.426  0.2829  0.3282 -0.7878
  295MPD2    C5 4447   2.505   0.141   0.344 -0.4749 -0.4490 -0.0135
  295MPD2     H 4448   2.655   0.456   0.490 -1.7173  2.5948 -2.0637
  295MPD2    H1 4449   2.321   0.190   0.433 -0.1631  1.7005 -1.9257
  295MPD2    H2 4450   2.686   0.094   0.277  0.2281  0.0582  0.5630
  295MPD2    H3 4451   2.460   0.058   0.291 -1.2946  2.2642 -3.5107
  295MPD2     N 4452   2.369   0.406   0.559 -0.4503 -0.1829 -0.4726
  295MPD2    H5 4453   2.275   0.373   0.577  0.2242 -0.9785  1.6042
  295MPD2    N1 4454   2.822   0.333   0.380 -0.0336 -0.1924 -0.6885
  295MPD2    H7 4455   2.851   0.416   0.430  1.1192 -0.0826 -1.5508
  296TMC3    C1 4456   2.304   0.609   0.672  0.3003 -0.0121 -0.3159
  296TMC3    C2 4457   2.315   0.742   0.699 -0.8516 -0.7709 -0.5140
  296TMC3    C3 4458   2.219   0.802   0.784 -0.0677 -0.2397  0.8725
  296TMC3    C4 4459   2.204   0.542   0.735  0.1269  0.7755  0.1779
  296TMC3    C5 4460   2.114   0.601   0.822  0.2771  0.4123 -0.7580
  296TMC3    C6 4461   2.116   0.737   0.848 -0.0875  0.2270  0.2104
  296TMC3     C 4462   2.404   0.533   0.601 -0.2998 -0.4917 -0.1586
  296TMC3     O 4463   2.507   0.597   0.587 -0.2597 -0.5902  0.0766
  296TMC3     H 4464   2.400   0.792   0.654  0.1030 -0.5935  1.4726
  296TMC3    H1 4465   2.209   0.434   0.742  1.4862  0.7544 -0.9977
  296TMC3    H2 4466   2.046   0.778   0.921 -0.6040 -0.0299 -0.1374
  296TMC3    C7 4467   2.005   0.523   0.877  0.9313 -0.1874  0.1732
  296TMC3    C8 4468   2.239   0.934   0.826 -0.4218  0.1196  0.4651
  296TMC3    O1 4469   1.944   0.454   0.800 -0.6138  0.1159  0.1555
  296TMC3    O2 4470   2.283   1.010   0.746  0.5157  0.1083 -0.1208
  297MPD2     C 4471   0.554   2.464  16.478 -0.1489 -0.6915  0.5601
  297MPD2    C1 4472   0.514   2.588  16.438 -0.7785 -0.0841  0.2105
  297MPD2    C2 4473   0.606   2.679  16.387  0.5101  0.2926  0.8390
  297MPD2    C3 4474   0.741   2.649  16.392 -0.0088 -0.3326 -0.6037
  297MPD2    C4 4475   0.782   2.527  16.445  0.1343  0.6813  0.0403
  297MPD2    C5 4476   0.686   2.434  16.488  0.5120  0.3172 -0.1121
  297MPD2     H 4477   0.569   2.774  16.349  0.7729  0.6664  1.5179
  297MPD2    H1 4478   0.885   2.501  16.467 -0.5803 -0.0485  2.5316
  297MPD2    H2 4479   0.480   2.394  16.514 -1.8411  0.1443 -1.2780
  297MPD2    H3 4480   0.716   2.336  16.525  2.9345  1.1990  0.2523
  297MPD2     N 4481   0.833   2.754  16.359  0.5323 -0.7151  0.6289
  297MPD2    H5 4482   0.795   2.839  16.319  1.5588 -0.9824 -0.8954
  297MPD2    N1 4483   0.376   2.618  16.437 -0.1019  0.6518  0.1652
  297MPD2    H7 4484   0.350   2.710  16.402 -0.6032  0.0699 -0.9707
  298TMC3    C1 4485   0.148   2.582  16.448 -0.0366 -0.8738  0.4107
  298TMC3    C2 4486   0.138   2.643  16.326 -0.0851  0.2755 -0.3096
  298TMC3    C3 4487   0.033   2.726  16.311  0.0290 -0.0684  0.4616
  298TMC3    C4 4488   0.058   2.599  16.546  0.0267  0.4078  0.5084
  298TMC3    C5 4489   4.680   2.683  16.523 -0.2448  0.1838  0.6947
  298TMC3    C6 4490   4.666   2.746  16.402  0.7088  0.6054  0.2681
  298TMC3     C 4491   0.277   2.534  16.488  0.7600 -0.4617 -0.2555
  298TMC3     O 4492   0.277   2.442  16.569  0.0554  0.0780  0.7366
  298TMC3     H 4493   0.202   2.630  16.239 -0.6575 -1.5123 -0.4465
  298TMC3    H1 4494   0.076   2.565  16.648  1.5368  0.4094  0.2398
  298TMC3    H2 4495   4.591   2.822  16.388 -0.3779 -0.4607  0.2730
  298TMC3    C7 4496   4.580   2.700  16.625 -0.7479 -0.1021 -0.1355
  298TMC3    C8 4497   0.022   2.786  16.175  0.0660 -1.0183 -0.0681
  298TMC3    O1 4498   4.604   2.665  16.737 -0.2044  0.2343  0.3544
  298TMC3    O2 4499   0.134   2.804  16.120  0.1074  0.1091 -0.2693
  299MPD2     C 4500   1.752   3.132  10.364  0.1958  0.2786 -0.0795
  299MPD2    C1 4501   1.783   3.002  10.337 -0.2750 -0.3889  0.4941
  299MPD2    C2 4502   1.721   2.935  10.238  0.0284  0.5441 -0.3304
  299MPD2    C3 4503   1.620   2.997  10.167 -0.7172 -1.0331 -0.6206
  299MPD2    C4 4504   1.582   3.124  10.197 -0.3595 -0.3057  0.6325
  299MPD2    C5 4505   1.651   3.192  10.292 -0.1897  0.0547 -0.1498
  299MPD2     H 4506   1.743   2.831  10.217  3.0434  1.4548 -1.6510
  299MPD2    H1 4507   1.493   3.175  10.163  0.1896 -0.0315 -0.3965
  299MPD2    H2 4508   1.807   3.187  10.440  0.1941 -1.0673  0.8857
  299MPD2    H3 4509   1.623   3.294  10.316  0.0298 -0.2575  1.4472
  299MPD2     N 4510   1.541   2.916  10.089  0.0334 -0.2011  0.2565
  299MPD2    H5 4511   1.563   2.817  10.095 -0.0046 -0.2325 -0.1192
  299MPD2    N1 4512   1.890   2.953  10.414  0.1665 -0.3690  0.1915
  299MPD2    H7 4513   1.941   3.026  10.462 -0.6822  1.0999 -1.1005
  300TMC3    C1 4514   1.379   2.833   9.945  0.1755 -0.4367 -0.1495
  300TMC3    C2 4515   1.455   2.720   9.947 -0.1443  0.8709  0.4896
  300TMC3    C3 4516   1.399   2.604   9.970 -0.3782  0.4513  0.5430
  300TMC3    C4 4517   1.241   2.832   9.937  0.2003  0.7276  0.1551
  300TMC3    C5 4518   1.190   2.710   9.957  0.0585  0.5274  0.0408
  300TMC3    C6 4519   1.260   2.600   9.982  0.0387  0.3303 -0.1302
  300TMC3     C 4520   1.430   2.953  10.017  0.2921 -0.3351 -0.3042
  300TMC3     O 4521   1.356   3.050  10.020 -0.0030  0.3721 -0.1642
  300TMC3     H 4522   1.560   2.720   9.921 -0.0799 -0.7624  0.7085
  300TMC3    H1 4523   1.185   2.923   9.919 -2.4875 -0.6983  1.2829
  300TMC3    H2 4524   1.209   2.509  10.012 -0.3385  0.3187 -0.7845
  300TMC3    C7 4525   1.046   2.710   9.979  0.0389 -0.4576 -0.1361
  300TMC3    C8 4526   1.474   2.518  10.061  0.0566  0.7381  0.5904
  300TMC3    O1 4527   0.982   2.772   9.895 -0.0848 -0.3780 -0.3419
  300TMC3    O2 4528   1.563   2.567  10.122 -0.1180  0.2057 -0.3709
  301MPD2     C 4529   2.379   2.857   1.646  0.4972  0.4348  0.0939
  301MPD2    C1 4530   2.464   2.920   1.555  0.5417 -0.7241  0.0924
  301MPD2    C2 4531   2.572   2.847   1.486 -0.1838  1.2567  0.3035
  301MPD2    C3 4532   2.571   2.708   1.505  0.4456 -0.7691  0.1981
  301MPD2    C4 4533   2.471   2.649   1.584 -0.7203  0.2146 -0.6194
  301MPD2    C5 4534   2.386   2.717   1.664  0.4363  0.3989  0.1772
  301MPD2     H 4535   2.629   2.904   1.414 -0.6098 -0.2672 -1.2388
  301MPD2    H1 4536   2.469   2.541   1.597 -2.6551  0.6266  2.6657
  301MPD2    H2 4537   2.324   2.918   1.716 -3.2682  0.0981 -2.5987
  301MPD2    H3 4538   2.316   2.662   1.726  2.0774 -2.8806 -0.8715
  301MPD2     N 4539   2.656   2.620   1.429 -0.4045  0.0414 -0.1038
  301MPD2    H5 4540   2.638   2.522   1.444 -0.9660 -0.0318 -1.2755
  301MPD2    N1 4541   2.463   3.061   1.533 -0.4847  0.4932 -0.4203
  301MPD2    H7 4542   2.537   3.088   1.469 -0.0607  2.4932  0.9091
  302TMC3    C1 4543   2.803   2.549   1.272 -0.8954 -0.5523 -0.1766
  302TMC3    C2 4544   2.818   2.423   1.320 -0.3726 -0.1606  0.2654
  302TMC3    C3 4545   2.850   2.317   1.235 -0.5404  0.3810  0.2507
  302TMC3    C4 4546   2.835   2.567   1.135  0.2523  0.0467 -0.2144
  302TMC3    C5 4547   2.871   2.461   1.057  0.8487  0.2139  0.5771
  302TMC3    C6 4548   2.874   2.329   1.104 -0.0829  0.3651  0.2681
  302TMC3     C 4549   2.756   2.661   1.346 -0.1589 -0.2062  0.1513
  302TMC3     O 4550   2.783   2.774   1.306  0.0711  0.0477 -0.0234
  302TMC3     H 4551   2.805   2.406   1.427 -1.6639 -0.1228  0.1154
  302TMC3    H1 4552   2.831   2.669   1.099 -0.1753  0.1228  0.0446
  302TMC3    H2 4553   2.907   2.246   1.042  2.1515 -0.1891  2.1767
  302TMC3    C7 4554   2.886   2.487   0.917  0.3411 -0.0606  0.1429
  302TMC3    C8 4555   2.934   2.207   1.292 -0.5582 -0.2672 -0.2733
  302TMC3    O1 4556   2.871   2.391   0.840  0.0627  0.3830  0.4479
  302TMC3    O2 4557   3.049   2.215   1.253  0.4165  0.3018 -0.1885
  303MPD2     C 4558   3.616   2.257  10.740 -0.2218 -0.0418 -0.2493
  303MPD2    C1 4559   3.573   2.146  10.679 -0.2899  0.0127 -0.6593
  303MPD2    C2 4560   3.544   2.158  10.545 -0.5340 -0.7703 -0.4400
  303MPD2    C3 4561   3.554   2.278  10.477 -0.2181 -1.2374 -0.9981
  303MPD2    C4 4562   3.613   2.388  10.543 -0.0388  0.1518 -0.4459
  303MPD2    C5 4563   3.639   2.372  10.671  0.4891 -0.1557  0.1509
  303MPD2     H 4564   3.503   2.070  10.497 -1.3600 -1.0539  0.7787
  303MPD2    H1 4565   3.634   2.480  10.491  0.3448  1.1349  1.4646
  303MPD2    H2 4566   3.627   2.260  10.848 -1.3326  0.0626 -0.1420
  303MPD2    H3 4567   3.673   2.462  10.722  5.6201 -2.8566  1.4985
  303MPD2     N 4568   3.527   2.294  10.340  0.4533  0.1694 -0.0965
  303MPD2    H5 4569   3.576   2.372  10.296  1.9476 -1.0592 -0.6441
  303MPD2    N1 4570   3.559   2.025  10.750  0.1599 -0.2139  0.4158
  303MPD2    H7 4571   3.572   2.026  10.851 -1.0232 -0.0599  0.5653
  304TMC3    C1 4572   3.533   1.794  10.774  0.7125  0.2848 -0.0428
  304TMC3    C2 4573   3.450   1.811  10.881 -0.1701  0.0591  0.5752
  304TMC3    C3 4574   3.391   1.706  10.939 -0.3275  0.0996 -0.2186
  304TMC3    C4 4575   3.553   1.672  10.717  0.2167 -0.9557 -0.3685
  304TMC3    C5 4576   3.492   1.566  10.775 -0.0821 -0.0443 -0.6121
  304TMC3    C6 4577   3.420   1.582  10.888  0.2464  0.0925 -0.0600
  304TMC3     C 4578   3.550   1.900  10.688  0.3297  0.2324 -0.5346
  304TMC3     O 4579   3.571   1.877  10.569 -0.5094 -0.0751  0.4462
  304TMC3     H 4580   3.427   1.911  10.915 -1.7224  0.1202 -0.6756
  304TMC3    H1 4581   3.619   1.661  10.632  0.1705  1.6262 -0.7503
  304TMC3    H2 4582   3.384   1.496  10.943  0.9843  0.3910  0.8790
  304TMC3    C7 4583   3.436   1.464  10.698 -0.0154  0.2513 -0.0809
  304TMC3    C8 4584   3.253   1.739  10.930 -0.2946 -0.1104  0.4251
  304TMC3    O1 4585   3.347   1.397  10.750 -0.1963  0.1177 -0.5843
  304TMC3    O2 4586   3.217   1.846  10.979  0.3005  0.1585  0.7106
  305MPD2     C 4587   1.255   4.060  13.932  0.1449 -0.2514  0.4981
  305MPD2    C1 4588   1.377   4.006  13.914 -0.5901  0.1484  0.3907
  305MPD2    C2 4589   1.417   3.981  13.782 -0.2177  0.4852  0.0136
  305MPD2    C3 4590   1.338   4.016  13.675  0.4303 -0.4412  0.2724
  305MPD2    C4 4591   1.217   4.064  13.702  0.3433  0.1184  0.3817
  305MPD2    C5 4592   1.178   4.096  13.822  0.1587  0.4417 -0.7985
  305MPD2     H 4593   1.514   3.934  13.770 -0.2681  0.6455 -1.0255
  305MPD2    H1 4594   1.150   4.083  13.620  0.9591  0.9860  0.0845
  305MPD2    H2 4595   1.208   4.072  14.030 -1.0685  1.2752 -0.2551
  305MPD2    H3 4596   1.078   4.134  13.839 -0.1063 -0.1602 -1.0098
  305MPD2     N 4597   1.366   3.981  13.540  0.9606 -0.3447 -0.1574
  305MPD2    H5 4598   1.300   4.010  13.468  0.9312  0.2392  0.1091
  305MPD2    N1 4599   1.450   3.985  14.034 -0.5452 -0.4920  0.2928
  305MPD2    H7 4600   1.411   4.006  14.125 -0.0247  2.5415 -0.1697
  306TMC3    C1 4601   1.621   3.956  14.183 -0.2479  0.1609  0.1819
  306TMC3    C2 4602   1.706   3.860  14.237  0.0268 -0.0942  0.1219
  306TMC3    C3 4603   1.722   3.864  14.381  0.5709 -0.2520  0.1344
  306TMC3    C4 4604   1.561   4.051  14.262 -0.2995  0.5140 -0.0960
  306TMC3    C5 4605   1.576   4.040  14.398 -0.0364  0.1344 -0.5641
  306TMC3    C6 4606   1.657   3.949  14.462  0.0911  0.1208 -0.2443
  306TMC3     C 4607   1.577   3.943  14.042 -0.1287 -0.4005  0.0445
  306TMC3     O 4608   1.650   3.890  13.961  0.3396 -0.0875 -0.7431
  306TMC3     H 4609   1.750   3.788  14.169 -0.1117  1.0067 -1.1347
  306TMC3    H1 4610   1.506   4.130  14.211 -2.8064 -0.8582  0.4984
  306TMC3    H2 4611   1.656   3.937  14.570  0.5776 -1.5458 -0.4229
  306TMC3    C7 4612   1.479   4.113  14.477 -0.1573 -0.0291  0.0377
  306TMC3    C8 4613   1.799   3.759  14.444  0.4241 -0.5723 -0.7379
  306TMC3    O1 4614   1.395   4.167  14.411 -0.1897 -0.3326  0.2105
  306TMC3    O2 4615   1.817   3.655  14.386  0.6343 -0.0186  0.7358
  307MPD2     C 4616   3.260   0.606   0.992  0.0305  0.7017 -0.7928
  307MPD2    C1 4617   3.234   0.741   1.003 -0.0093 -0.1532 -0.3524
  307MPD2    C2 4618   3.103   0.784   0.986  0.2474  0.3792  0.3751
  307MPD2    C3 4619   2.999   0.691   0.964  0.3046  0.1475 -0.2113
  307MPD2    C4 4620   3.028   0.558   0.956  0.2582 -0.5836  0.3717
  307MPD2    C5 4621   3.161   0.515   0.969  0.2833  0.4005  0.2995
  307MPD2     H 4622   3.086   0.891   0.973  1.2550  0.4145 -0.6604
  307MPD2    H1 4623   2.952   0.480   0.949 -0.4985 -0.0415  2.6445
  307MPD2    H2 4624   3.360   0.566   1.009 -0.6510 -0.5149  0.3954
  307MPD2    H3 4625   3.182   0.409   0.970 -0.2484  0.3091  1.5097
  307MPD2     N 4626   2.873   0.747   0.934 -0.1541  0.6158  0.4888
  307MPD2    H5 4627   2.865   0.848   0.931  0.6554  0.6911  0.8950
  307MPD2    N1 4628   3.338   0.834   1.034 -0.2400  0.2900  0.0597
  307MPD2    H7 4629   3.308   0.930   1.020  1.9859  1.3642  2.4970
  308TMC3    C1 4630   2.625   0.952   0.724 -0.5592  0.8109  0.2067
  308TMC3    C2 4631   2.580   1.031   0.830  0.6199 -0.5591 -0.4703
  308TMC3    C3 4632   2.571   0.976   0.958 -0.1139 -0.2294 -0.0671
  308TMC3    C4 4633   2.672   0.826   0.755 -0.3063 -0.7416  0.1182
  308TMC3    C5 4634   2.652   0.768   0.875 -0.6959  0.3033  0.6507
  308TMC3    C6 4635   2.608   0.844   0.977  0.0612  0.3803 -0.4569
  308TMC3     C 4636   2.597   0.990   0.590 -1.2150 -0.8783  0.0431
  308TMC3     O 4637   2.583   0.904   0.501 -0.0425 -0.2515  0.1432
  308TMC3     H 4638   2.523   1.123   0.827  2.9590  0.8537 -1.6223
  308TMC3    H1 4639   2.699   0.766   0.668 -1.3985 -0.1026 -0.6749
  308TMC3    H2 4640   2.624   0.804   1.077  0.3334  0.2277 -0.5612
  308TMC3    C7 4641   2.753   0.681   0.924  0.4327 -0.6530 -0.0979
  308TMC3    C8 4642   2.572   1.060   1.077  0.6772 -0.1090  0.1427
  308TMC3    O1 4643   2.722   0.560   0.937  0.1919  0.6421  0.8226
  308TMC3    O2 4644   2.554   1.016   1.190  0.0298 -0.7993 -0.1337
  309MPD2     C 4645   2.994   2.277  17.124 -0.0355  0.2288 -0.0971
  309MPD2    C1 4646   2.905   2.283  17.016 -0.1222 -0.2214 -0.6989
  309MPD2    C2 4647   2.764   2.277  17.044 -0.2553 -0.2542 -0.8516
  309MPD2    C3 4648   2.728   2.270  17.182 -0.8110  0.9239 -0.5003
  309MPD2    C4 4649   2.818   2.284  17.286 -0.1353  0.2968 -0.1842
  309MPD2    C5 4650   2.952   2.285  17.256  0.9568  0.8574  0.2521
  309MPD2     H 4651   2.694   2.272  16.962 -2.4737 -0.7807  1.0973
  309MPD2    H1 4652   2.775   2.290  17.385 -2.0132  1.6680 -1.0743
  309MPD2    H2 4653   3.100   2.288  17.108  0.4562 -0.5254  2.5728
  309MPD2    H3 4654   3.026   2.292  17.335  2.7257  1.8167 -1.5073
  309MPD2     N 4655   2.595   2.244  17.215  0.2089 -0.2114  0.3546
  309MPD2    H5 4656   2.570   2.264  17.312  0.6253  0.8109  0.2602
  309MPD2    N1 4657   2.946   2.303  16.881 -0.8120 -0.7695  0.3231
  309MPD2    H7 4658   2.875   2.311  16.808 -0.5308  1.8210  0.3501
  310TMC3    C1 4659   3.104   2.348  16.709 -0.2443  0.2759  0.4137
  310TMC3    C2 4660   3.011   2.391  16.621  0.7913  0.8604  1.1876
  310TMC3    C3 4661   3.060   2.434  16.494  0.4897 -0.6990  0.0789
  310TMC3    C4 4662   3.233   2.327  16.671 -0.7257  0.5313  0.3102
  310TMC3    C5 4663   3.280   2.385  16.558 -0.5194 -0.8264  0.2009
  310TMC3    C6 4664   3.197   2.435  16.460  0.9484 -0.2089 -0.5289
  310TMC3     C 4665   3.077   2.297  16.842 -0.3559  0.3883  0.0500
  310TMC3     O 4666   3.162   2.230  16.897  0.0179  0.5390 -0.2680
  310TMC3     H 4667   2.913   2.419  16.659 -1.8137 -1.1069 -3.9451
  310TMC3    H1 4668   3.296   2.301  16.755  1.2822 -0.1870 -1.3984
  310TMC3    H2 4669   3.232   2.461  16.360 -1.2084 -0.6834 -1.4102
  310TMC3    C7 4670   3.405   2.336  16.517  0.3511 -0.7810 -0.5258
  310TMC3    C8 4671   2.967   2.428  16.382 -0.6624 -1.1612  0.0258
  310TMC3    O1 4672   3.436   2.234  16.583  0.0251  0.0609  0.2714
  310TMC3    O2 4673   3.017   2.455  16.275 -0.0769 -0.2030  0.5019
  311MPD2     C 4674   0.566   3.493  12.669 -0.2839  0.4370  0.6867
  311MPD2    C1 4675   0.573   3.622  12.727  0.0140 -0.0127  0.1398
  311MPD2    C2 4676   0.497   3.645  12.841  0.0689  0.2569 -0.0209
  311MPD2    C3 4677   0.417   3.548  12.902 -0.7154 -0.2225 -0.2445
  311MPD2    C4 4678   0.407   3.423  12.836 -0.2410  0.0026  0.1921
  311MPD2    C5 4679   0.485   3.400  12.726  0.6311  0.2981  0.3613
  311MPD2     H 4680   0.497   3.747  12.878 -1.5620  0.6627 -1.1266
  311MPD2    H1 4681   0.356   3.335  12.875  0.6174 -0.5907 -0.0132
  311MPD2    H2 4682   0.626   3.469  12.583 -0.9370  0.0136  0.3464
  311MPD2    H3 4683   0.470   3.299  12.689 -0.2775  0.7742 -0.5643
  311MPD2     N 4684   0.334   3.591  13.007  0.9239  0.0964 -0.0331
  311MPD2    H5 4685   0.351   3.689  13.026  0.2229  0.3644 -0.7642
  311MPD2    N1 4686   0.660   3.725  12.684  1.1349  0.4021 -0.1485
  311MPD2    H7 4687   0.669   3.803  12.749 -2.2841 -1.3132  2.4300
  312TMC3    C1 4688   0.148   3.602  13.152  0.1173 -0.4126 -0.1817
  312TMC3    C2 4689   0.017   3.561  13.142  0.3308  0.0777  0.3376
  312TMC3    C3 4690   4.646   3.653  13.167 -0.6820  0.3911 -0.1117
  312TMC3    C4 4691   0.175   3.728  13.196 -0.5080 -0.3031 -0.3704
  312TMC3    C5 4692   0.080   3.819  13.222  0.6811 -0.2073 -0.8667
  312TMC3    C6 4693   4.673   3.784  13.210 -0.0463  0.3085  0.6834
  312TMC3     C 4694   0.241   3.518  13.072  0.3450 -0.1334 -0.2206
  312TMC3     O 4695   0.205   3.407  13.038 -0.2148 -0.7516 -0.6898
  312TMC3     H 4696   4.705   3.462  13.116  2.1231 -0.7872  1.2328
  312TMC3    H1 4697   0.279   3.756  13.206 -0.6753  0.5051 -0.8648
  312TMC3    H2 4698   4.599   3.857  13.239  1.6965  1.8505  1.2205
  312TMC3    C7 4699   0.108   3.927  13.311 -0.4678  0.5020 -0.9335
  312TMC3    C8 4700   4.520   3.623  13.105  0.4997 -0.2849 -0.5095
  312TMC3    O1 4701   0.078   4.036  13.265 -0.3608  0.9341 -0.0531
  312TMC3    O2 4702   4.487   3.507  13.098  0.3553  0.6328  0.1440
  313MPD2     C 4703   0.797   3.088  10.773 -0.0291  0.7259  0.2544
  313MPD2    C1 4704   0.691   3.069  10.858 -0.3164  0.2131 -0.1627
  313MPD2    C2 4705   0.576   3.002  10.810 -0.1614 -0.4042  0.3149
  313MPD2    C3 4706   0.565   2.957  10.676  0.8316  0.2701  0.3530
  313MPD2    C4 4707   0.676   2.973  10.596 -0.0758  0.0251 -0.0776
  313MPD2    C5 4708   0.783   3.045  10.645 -0.2599  0.5135  0.5061
  313MPD2     H 4709   0.490   2.994  10.876  0.2399 -0.1995  0.8614
  313MPD2    H1 4710   0.670   2.941  10.493 -1.4200 -2.0838  0.6569
  313MPD2    H2 4711   0.889   3.138  10.801  0.7385 -2.0997  2.7970
  313MPD2    H3 4712   0.861   3.072  10.575  0.6336  0.6260  1.5521
  313MPD2     N 4713   0.448   2.890  10.638  0.2194  0.1502  1.0125
  313MPD2    H5 4714   0.377   2.874  10.709 -0.6502  0.8031  0.2860
  313MPD2    N1 4715   0.675   3.123  10.985  0.4804 -0.3217  0.1654
  313MPD2    H7 4716   0.587   3.113  11.035 -0.4898  1.3723 -1.1912
  314TMC3    C1 4717   0.705   3.242  11.173  0.2482  0.5049 -0.0075
  314TMC3    C2 4718   0.760   3.356  11.229  1.0884 -1.0026  0.7722
  314TMC3    C3 4719   0.677   3.437  11.300 -0.6862 -0.6355  0.2307
  314TMC3    C4 4720   0.577   3.207  11.199  0.4272 -0.1868 -0.7149
  314TMC3    C5 4721   0.502   3.283  11.279  0.1600  0.1004  0.3205
  314TMC3    C6 4722   0.548   3.398  11.341 -0.4258 -0.1444  0.5757
  314TMC3     C 4723   0.765   3.199  11.054 -0.9570 -0.3241 -0.3304
  314TMC3     O 4724   0.862   3.264  11.011  0.0988  0.6270 -0.6411
  314TMC3     H 4725   0.859   3.392  11.206  1.9003 -1.6979  3.1644
  314TMC3    H1 4726   0.531   3.111  11.175 -1.8657  1.0914 -1.4468
  314TMC3    H2 4727   0.479   3.479  11.362 -1.5770 -1.2410  1.0011
  314TMC3    C7 4728   0.366   3.280  11.227 -0.5782  0.0876  0.2173
  314TMC3    C8 4729   0.740   3.548  11.371 -0.5052 -0.2781 -0.3322
  314TMC3    O1 4730   0.274   3.233  11.295  0.4108  0.2255  0.1576
  314TMC3    O2 4731   0.837   3.599  11.320  0.2036  0.9207 -0.7114
  315MPD2     C 4732   4.033   1.380   0.145 -0.2695 -0.0440 -0.0399
  315MPD2    C1 4733   4.082   1.410   0.267  0.0879  0.4044  0.6402
  315MPD2    C2 4734   4.119   1.546   0.289 -0.2364 -0.0550 -0.9462
  315MPD2    C3 4735   4.125   1.630   0.185  0.0898  0.0568 -0.3491
  315MPD2    C4 4736   4.084   1.592   0.054  0.5228 -0.0040 -0.1745
  315MPD2    C5 4737   4.030   1.470   0.042  0.1363 -0.0159 -0.3583
  315MPD2     H 4738   4.171   1.577   0.379 -0.3968 -0.1148 -0.8322
  315MPD2    H1 4739   4.079   1.657  17.665 -0.5264 -0.2045 -0.2677
  315MPD2    H2 4740   3.993   1.281   0.126 -2.2029  0.3749  1.8533
  315MPD2    H3 4741   3.996   1.439  17.641  2.7240  0.1289 -1.3227
  315MPD2     N 4742   4.197   1.756   0.197 -0.2331  0.5740 -0.0478
  315MPD2    H5 4743   4.229   1.779   0.290  0.2354 -0.2435 -0.0070
  315MPD2    N1 4744   4.097   1.301   0.356 -0.5703 -0.2442  0.6863
  315MPD2    H7 4745   4.045   1.217   0.334 -1.2573  0.3467  0.0628
  316TMC3    C1 4746   4.288   1.968   0.155  0.7172  0.8868 -0.1799
  316TMC3    C2 4747   4.299   1.965   0.290 -0.4442  0.1890  0.1993
  316TMC3    C3 4748   4.411   2.026   0.341 -0.6263  0.5201 -0.1167
  316TMC3    C4 4749   4.375   2.036   0.072 -0.3440  0.0233  0.4417
  316TMC3    C5 4750   4.485   2.097   0.127 -0.1016 -0.1143  0.8440
  316TMC3    C6 4751   4.507   2.088   0.264 -0.1400  0.0841 -0.5212
  316TMC3     C 4752   4.201   1.861   0.104  0.2836  0.4453  0.0401
  316TMC3     O 4753   4.175   1.855  17.685  0.6118  0.4008 -0.3703
  316TMC3     H 4754   4.224   1.920   0.355  0.3396  0.0219  0.9904
  316TMC3    H1 4755   4.360   2.032  17.661  0.0037  0.5850  0.3748
  316TMC3    H2 4756   4.598   2.126   0.308  0.1001 -1.4653  0.3163
  316TMC3    C7 4757   4.576   2.184   0.049  0.7131  0.2438  0.0805
  316TMC3    C8 4758   4.462   1.979   0.475 -0.4787 -0.0814  0.7280
  316TMC3    O1 4759   4.673   2.231   0.108  1.0819  0.3398 -0.2681
  316TMC3    O2 4760   4.379   1.982   0.565 -0.4022 -0.4141 -0.0932
  317MPD2     C 4761   1.823   0.769  12.806 -0.1188  1.2737  0.5237
  317MPD2    C1 4762   1.698   0.810  12.849  0.1115 -0.0521  0.5193
  317MPD2    C2 4763   1.657   0.785  12.977  0.2584  0.8308 -0.4747
  317MPD2    C3 4764   1.746   0.711  13.060 -0.3255  0.1358  0.0072
  317MPD2    C4 4765   1.867   0.673  13.020 -0.0256 -0.9641  0.5762
  317MPD2    C5 4766   1.912   0.719  12.896  0.8631 -0.4694 -1.1648
  317MPD2     H 4767   1.557   0.816  13.006  1.3471  3.0478  0.8860
  317MPD2    H1 4768   1.946   0.624  13.076 -1.2421 -2.1524  1.2404
  317MPD2    H2 4769   1.852   0.792  12.704 -0.0298 -1.5899 -0.1163
  317MPD2    H3 4770   2.009   0.683  12.865  1.1869 -1.0867  0.5502
  317MPD2     N 4771   1.694   0.655  13.181 -0.1778  0.0714 -0.1549
  317MPD2    H5 4772   1.749   0.575  13.210 -0.4385 -0.4739 -1.1298
  317MPD2    N1 4773   1.602   0.866  12.762  0.2219  0.2156 -0.0139
  317MPD2    H7 4774   1.509   0.885  12.797  0.5118  1.8846 -0.1428
  318TMC3    C1 4775   1.564   0.628  13.367  0.1873  0.2139  0.3267
  318TMC3    C2 4776   1.490   0.516  13.327  0.3091 -0.6864 -0.3387
  318TMC3    C3 4777   1.524   0.398  13.389 -0.0053  0.0488  0.0232
  318TMC3    C4 4778   1.667   0.619  13.454  0.0155 -0.0325 -0.6109
  318TMC3    C5 4779   1.695   0.496  13.511  0.4093 -0.3294 -0.1115
  318TMC3    C6 4780   1.625   0.380  13.478 -0.0521 -0.3648  0.2861
  318TMC3     C 4781   1.592   0.714  13.253  0.4052 -0.2769 -0.3279
  318TMC3     O 4782   1.537   0.823  13.245 -0.3134  0.0151  0.9262
  318TMC3     H 4783   1.420   0.524  13.245 -2.0210 -1.2955  1.5837
  318TMC3    H1 4784   1.717   0.714  13.463  1.2205 -0.6617 -0.7613
  318TMC3    H2 4785   1.635   0.291  13.540  2.4353 -0.6327 -0.4768
  318TMC3    C7 4786   1.804   0.493  13.609 -0.2714  0.5530  0.3913
  318TMC3    C8 4787   1.439   0.279  13.367  0.3041 -0.1179  0.2906
  318TMC3    O1 4788   1.832   0.600  13.661 -0.1240 -0.0108  0.0610
  318TMC3    O2 4789   1.476   0.171  13.409  0.1779 -0.2643  0.2838
  319MPD2     C 4790   2.619   2.001  16.556  0.5444 -0.0873 -0.0070
  319MPD2    C1 4791   2.527   1.955  16.648  0.6419 -0.3392 -0.5016
  319MPD2    C2 4792   2.389   1.945  16.615 -0.0557  0.1672 -0.4558
  319MPD2    C3 4793   2.346   1.974  16.484  0.0037 -0.5161 -0.3977
  319MPD2    C4 4794   2.444   2.013  16.399  0.0479  0.6602  0.4777
  319MPD2    C5 4795   2.570   2.027  16.431 -1.1248 -0.4478 -0.4004
  319MPD2     H 4796   2.326   1.901  16.692  0.2666  0.9387  0.2521
  319MPD2    H1 4797   2.416   2.026  16.295 -3.9977  1.2119  1.6447
  319MPD2    H2 4798   2.724   2.011  16.582  0.4730  1.1599 -0.2000
  319MPD2    H3 4799   2.640   2.066  16.358 -0.7109  2.4198  1.5594
  319MPD2     N 4800   2.219   1.962  16.427  0.3380  0.0965  0.2617
  319MPD2    H5 4801   2.227   1.985  16.328 -0.1026  1.5405  0.5650
  319MPD2    N1 4802   2.570   1.915  16.777  0.4632  0.9271 -0.3204
  319MPD2    H7 4803   2.502   1.861  16.829  0.3306  2.3013  0.9419
  320TMC3    C1 4804   1.989   1.869  16.409 -0.5374 -0.1598 -0.8948
  320TMC3    C2 4805   1.968   1.946  16.299  0.7609  0.0451 -0.1544
  320TMC3    C3 4806   1.845   1.931  16.231  0.4443  0.0616 -0.4520
  320TMC3    C4 4807   1.904   1.780  16.456 -0.1581  0.4335 -0.6619
  320TMC3    C5 4808   1.787   1.754  16.381 -0.2759  0.2096 -0.0287
  320TMC3    C6 4809   1.755   1.838  16.273  0.6690 -0.2926  0.1404
  320TMC3     C 4810   2.108   1.910  16.489  0.0555 -0.5887  0.8950
  320TMC3     O 4811   2.096   1.871  16.606  0.0789 -0.0147 -0.1845
  320TMC3     H 4812   2.034   2.030  16.280  1.2115 -0.5847 -1.3045
  320TMC3    H1 4813   1.913   1.744  16.557 -3.8017 -0.2814 -0.5831
  320TMC3    H2 4814   1.667   1.810  16.216  0.2628  1.3106 -0.0162
  320TMC3    C7 4815   1.760   1.613  16.367 -0.4465 -0.1235  0.9366
  320TMC3    C8 4816   1.835   1.994  16.103 -0.2766 -0.4635  0.2053
  320TMC3    O1 4817   1.717   1.576  16.259 -0.1652 -0.8706 -0.1508
  320TMC3    O2 4818   1.921   2.076  16.080 -0.2305 -1.0582  0.6726
  321TMC3    C1 4819   2.704   1.873  16.972  0.3248  0.2305 -0.0378
  321TMC3    C2 4820   2.632   1.757  16.990  0.7616 -0.2142  0.1933
  321TMC3    C3 4821   2.621   1.714  17.119  0.3729  0.6715  0.0160
  321TMC3    C4 4822   2.769   1.942  17.072 -0.0330  0.0658  0.3498
  321TMC3    C5 4823   2.761   1.897  17.197  0.0481  0.1079  0.0866
  321TMC3    C6 4824   2.687   1.784  17.223 -0.0749  0.6823  0.2586
  321TMC3     C 4825   2.693   1.940  16.836 -0.5531 -0.7022  1.1393
  321TMC3     O 4826   2.774   2.025  16.799 -0.3776  0.7255  0.6979
  321TMC3     H 4827   2.604   1.685  16.913  1.3027 -0.9954  0.7310
  321TMC3    H1 4828   2.840   2.020  17.048 -0.4925  0.3741 -0.0134
  321TMC3    H2 4829   2.666   1.759  17.326  0.1341  0.3723  0.2230
  321TMC3    C7 4830   2.898   1.873  17.249  0.7492  0.0481  0.5557
  321TMC3    C8 4831   2.618   1.574  17.153 -0.0788 -0.3810 -0.6416
  321TMC3    O1 4832   2.945   1.762  17.219  0.0077 -0.2023  0.2561
  321TMC3    O2 4833   2.548   1.510  17.077 -0.1189 -0.1644 -0.2025
  322MPD2     C 4834   1.343   3.398  13.482  0.6283 -0.2852  0.3288
  322MPD2    C1 4835   1.319   3.333  13.604 -0.0339 -0.8177 -0.1638
  322MPD2    C2 4836   1.309   3.194  13.607 -0.0663  0.0826  0.3703
  322MPD2    C3 4837   1.330   3.120  13.494  0.7838  0.3645 -1.0403
  322MPD2    C4 4838   1.350   3.180  13.376 -0.1479  0.3869 -0.0569
  322MPD2    C5 4839   1.365   3.320  13.370  0.0712 -0.7560 -0.2026
  322MPD2     H 4840   1.285   3.137  13.696  0.7055 -1.0191 -0.1168
  322MPD2    H1 4841   1.380   3.122  13.289 -1.2814  2.3030 -1.7306
  322MPD2    H2 4842   1.366   3.504  13.471  2.9625 -0.8745 -0.4075
  322MPD2    H3 4843   1.408   3.373  13.286  0.0229 -2.1021 -1.0722
  322MPD2     N 4844   1.342   2.979  13.510  0.4484 -0.2516 -0.1219
  322MPD2    H5 4845   1.359   2.945  13.604  1.8015  0.0305 -0.2754
  322MPD2    N1 4846   1.338   3.399  13.729  0.4271 -0.2043 -0.1091
  322MPD2    H7 4847   1.374   3.494  13.723 -1.6921  0.5846 -0.4372
  323TMC3    C1 4848   1.387   3.438  13.951 -0.5214  0.6828  0.5008
  323TMC3    C2 4849   1.513   3.480  13.917  0.4017  0.1510 -0.3665
  323TMC3    C3 4850   1.579   3.545  14.017 -0.3020 -0.0273 -0.5775
  323TMC3    C4 4851   1.338   3.428  14.079  0.3514  0.1139  0.3149
  323TMC3    C5 4852   1.418   3.476  14.183 -0.7427  0.1470  0.4796
  323TMC3    C6 4853   1.537   3.538  14.150 -0.3526  0.6142 -0.2320
  323TMC3     C 4854   1.318   3.353  13.850  0.7744 -0.5324 -0.7398
  323TMC3     O 4855   1.245   3.262  13.887  0.5184  0.0831  0.1789
  323TMC3     H 4856   1.552   3.467  13.817 -1.2682 -1.3420 -0.8176
  323TMC3    H1 4857   1.251   3.366  14.096 -1.9346  2.9506 -1.2146
  323TMC3    H2 4858   1.610   3.568  14.225 -1.1856 -0.8290  1.1649
  323TMC3    C7 4859   1.411   3.398  14.302  0.1288 -0.1513  0.9182
  323TMC3    C8 4860   1.726   3.548  14.001 -0.4225 -0.1111 -0.1722
  323TMC3    O1 4861   1.366   3.285  14.289 -0.6769  0.0076  0.2900
  323TMC3    O2 4862   1.790   3.501  14.095 -0.6135  0.0429  0.3716
  324MPD2     C 4863   2.733   3.896  13.966 -0.7785 -0.2734 -0.6744
  324MPD2    C1 4864   2.681   3.994  14.044  0.1142  0.1617  0.1360
  324MPD2    C2 4865   2.566   4.061  13.991 -0.4307 -0.1740  0.0657
  324MPD2    C3 4866   2.507   4.031  13.875  0.4446 -0.3660 -0.1216
  324MPD2    C4 4867   2.554   3.919  13.814  0.9531 -0.2094  0.4707
  324MPD2    C5 4868   2.662   3.846  13.861  0.7055 -0.1259 -0.2452
  324MPD2     H 4869   2.527   4.154  14.032  2.1405 -0.7065  3.6688
  324MPD2    H1 4870   2.516   3.868  13.726 -0.1692 -0.9586  1.3917
  324MPD2    H2 4871   2.821   3.837  13.992 -0.9087  1.3208  3.3204
  324MPD2    H3 4872   2.691   3.755  13.811 -0.4456  0.9121 -2.8049
  324MPD2     N 4873   2.398   4.095  13.816  0.4080  0.2026  0.4899
  324MPD2    H5 4874   2.372   4.040  13.734 -2.0064  0.2955  1.2052
  324MPD2    N1 4875   2.741   4.044  14.162  0.0870  0.1963 -0.0648
  324MPD2    H7 4876   2.700   4.123  14.209 -2.6385 -0.5025 -1.2746
  325TMC3    C1 4877   2.210   4.229  13.785  0.3701 -0.1766 -0.3483
  325TMC3    C2 4878   2.207   4.180  13.656 -0.5766  0.5951 -0.5095
  325TMC3    C3 4879   2.109   4.237  13.578 -0.2892  0.0468  0.9139
  325TMC3    C4 4880   2.117   4.318  13.830  0.2717  0.1876  0.0649
  325TMC3    C5 4881   2.023   4.371  13.746 -0.0245 -0.5857  0.8399
  325TMC3    C6 4882   2.016   4.327  13.615  0.2972  0.2658 -0.8619
  325TMC3     C 4883   2.324   4.204  13.859 -0.7947  0.5652  0.4487
  325TMC3     O 4884   2.347   4.269  13.963 -0.0322  0.4090 -0.4152
  325TMC3     H 4885   2.266   4.106  13.603  1.0125  1.2292  0.3655
  325TMC3    H1 4886   2.123   4.334  13.937  1.0312  1.2232 -0.1293
  325TMC3    H2 4887   1.956   4.371  13.536 -3.9505 -2.2277  0.9761
  325TMC3    C7 4888   1.931   4.481  13.781  0.5513  0.1311 -0.5762
  325TMC3    C8 4889   2.098   4.194  13.442  0.7339  0.0911  0.7164
  325TMC3    O1 4890   1.829   4.500  13.719 -0.6887 -0.4029  0.3019
  325TMC3    O2 4891   2.119   4.267  13.342 -0.6893 -0.5016 -0.2043
  326MPD2     C 4892   4.163   1.096  10.807 -0.7735 -0.3782  0.2585
  326MPD2    C1 4893   4.235   0.977  10.827 -0.6006  0.2815  0.4383
  326MPD2    C2 4894   4.372   0.984  10.854 -0.2200  0.0882  0.3514
  326MPD2    C3 4895   4.435   1.108  10.869 -0.0672  0.6450 -0.4417
  326MPD2    C4 4896   4.361   1.222  10.862  0.4573  0.0944  0.0368
  326MPD2    C5 4897   4.228   1.221  10.823 -0.6615  0.7108 -0.1790
  326MPD2     H 4898   4.415   0.886  10.865  0.6511  0.4663  0.3061
  326MPD2    H1 4899   4.407   1.320  10.872  2.1232 -0.7505  0.7713
  326MPD2    H2 4900   4.058   1.099  10.778 -0.6279  1.7124 -0.0796
  326MPD2    H3 4901   4.172   1.312  10.807  0.9551  1.6312 -0.5516
  326MPD2     N 4902   4.574   1.128  10.894 -0.2379 -0.1368  0.2875
  326MPD2    H5 4903   4.618   1.217  10.913 -2.6793  1.2934 -0.8224
  326MPD2    N1 4904   4.178   0.845  10.811  0.1996  0.0757  0.1588
  326MPD2    H7 4905   4.239   0.766  10.832  0.0907  0.2333  1.0930
  327TMC3    C1 4906   4.032   0.669  10.768  0.0070 -0.0576  0.3606
  327TMC3    C2 4907   3.956   0.641  10.658 -0.3617 -1.1958 -0.3442
  327TMC3    C3 4908   3.965   0.519  10.598 -0.2957  0.3819 -0.2116
  327TMC3    C4 4909   4.116   0.575  10.820  0.2178  0.0759  1.1331
  327TMC3    C5 4910   4.109   0.451  10.757 -0.9876  0.4953 -0.6377
  327TMC3    C6 4911   4.035   0.410  10.648 -0.2431 -0.1490 -0.3294
  327TMC3     C 4912   4.044   0.811  10.793  0.4820 -0.3131 -0.1908
  327TMC3     O 4913   3.952   0.887  10.757 -0.0580 -0.0554  0.5182
  327TMC3     H 4914   3.870   0.700  10.629  0.7435  0.7341  0.2983
  327TMC3    H1 4915   4.183   0.600  10.902  1.9096 -0.9505  0.0526
  327TMC3    H2 4916   4.022   0.306  10.622  0.6846  0.3672 -2.8370
  327TMC3    C7 4917   4.186   0.346  10.815 -0.2801  0.3363  0.3996
  327TMC3    C8 4918   3.953   0.512  10.454 -0.1378 -0.3634  0.1852
  327TMC3    O1 4919   4.141   0.229  10.812  0.3638 -0.8767  0.6930
  327TMC3    O2 4920   3.978   0.410  10.389  0.1250 -0.3702 -0.2691
  328MPD2     C 4921   1.809   0.210  17.006  0.6207 -0.0487 -0.4593
  328MPD2    C1 4922   1.672   0.225  16.972  0.1995 -0.9815  0.4525
  328MPD2    C2 4923   1.613   0.353  16.979  1.0159  0.3809 -0.2767
  328MPD2    C3 4924   1.696   0.456  17.024 -0.2172  0.6569 -0.2882
  328MPD2    C4 4925   1.837   0.440  17.049 -0.7342  0.4882 -0.6596
  328MPD2    C5 4926   1.890   0.317  17.034  0.4497 -0.3066  0.0248
  328MPD2     H 4927   1.510   0.365  16.946  1.9864  5.2602 -1.4827
  328MPD2    H1 4928   1.903   0.515  17.092  0.1314 -0.9622  0.5403
  328MPD2    H2 4929   1.852   0.111  17.014 -1.0504 -0.5919  1.6904
  328MPD2    H3 4930   1.992   0.299  17.064 -1.3420 -3.1108  4.5140
  328MPD2     N 4931   1.645   0.581  17.057  0.4369 -0.6155  0.7833
  328MPD2    H5 4932   1.699   0.667  17.049  1.1110 -1.0001  1.2260
  328MPD2    N1 4933   1.598   0.103  16.967 -0.2852  0.2385 -0.7139
  328MPD2    H7 4934   1.657   0.020  16.963 -2.6237 -1.4797  0.4044
  329TMC3    C1 4935   1.398   4.687  16.971  0.2394 -0.1313  0.4792
  329TMC3    C2 4936   1.282   4.657  16.904 -0.5380  0.0255 -0.3143
  329TMC3    C3 4937   1.182   4.578  16.959 -0.2879 -0.4314 -0.1059
  329TMC3    C4 4938   1.426   4.626  17.087 -0.0913  0.2243  0.0311
  329TMC3    C5 4939   1.336   4.529  17.126  0.0079 -0.2912  0.4278
  329TMC3    C6 4940   1.212   4.515  17.074  0.3439 -0.3152 -0.2177
  329TMC3     C 4941   1.458   0.096  16.964  0.6597 -0.3004 -0.6894
  329TMC3     O 4942   1.380   0.189  16.975  0.2621 -0.8319 -0.1369
  329TMC3     H 4943   1.252   0.002  16.826 -0.9323  1.2928  0.9350
  329TMC3    H1 4944   1.526   4.635  17.127 -0.9932  2.1699  1.8207
  329TMC3    H2 4945   1.129   4.451  17.101  0.2165  0.8607  2.1406
  329TMC3    C7 4946   1.374   4.468  17.256 -0.7283  0.0056 -0.4854
  329TMC3    C8 4947   1.051   4.646  16.966 -0.7693  0.4135 -0.0421
  329TMC3    O1 4948   1.478   4.504  17.311 -0.4046 -0.5022  0.1650
  329TMC3    O2 4949   1.002   4.682  16.860  0.3103 -0.8849 -0.6634
  330TMC3    C1 4950   0.554   0.289   9.285  0.1525  0.0125 -0.1930
  330TMC3    C2 4951   0.474   0.192   9.235 -0.0231 -0.0395  0.1035
  330TMC3    C3 4952   0.456   0.081   9.312  1.4596 -0.0663  0.5046
  330TMC3    C4 4953   0.616   0.284   9.410  0.2900  0.2878 -1.1496
  330TMC3    C5 4954   0.588   0.172   9.481 -0.2330  0.1664 -0.2528
  330TMC3    C6 4955   0.503   0.071   9.444  1.1070  0.2913  0.0929
  330TMC3     C 4956   0.593   0.405   9.206 -0.4187 -0.1809  0.5700
  330TMC3     O 4957   0.704   0.448   9.211 -0.1426 -0.2279 -0.8003
  330TMC3     H 4958   0.448   0.201   9.131  1.6616  1.5342 -0.1773
  330TMC3    H1 4959   0.677   0.366   9.445  1.7815 -1.1530 -0.4092
  330TMC3    H2 4960   0.470   4.711   9.505 -1.2071  1.6768  0.7450
  330TMC3    C7 4961   0.633   0.172   9.620 -0.0021 -0.4715 -0.0155
  330TMC3    C8 4962   0.399   4.698   9.244  0.4764 -0.2275 -0.4713
  330TMC3    O1 4963   0.685   0.275   9.662 -0.3330 -0.2997 -0.1414
  330TMC3    O2 4964   0.346   0.008   9.142 -0.1791 -0.0006  0.0068
  331MPD2     C 4965   2.504   3.962  12.513 -0.0617 -0.5408 -0.3596
  331MPD2    C1 4966   2.629   3.958  12.451 -0.3837  0.1175  0.0027
  331MPD2    C2 4967   2.675   3.838  12.400  0.5874 -0.8451  0.8112
  331MPD2    C3 4968   2.605   3.718  12.416 -0.2080 -0.2505 -0.2470
  331MPD2    C4 4969   2.490   3.724  12.494 -0.1983  0.1928 -0.2799
  331MPD2    C5 4970   2.439   3.846  12.528  0.0866  0.0280 -0.3685
  331MPD2     H 4971   2.765   3.834  12.339 -0.9161 -1.1380 -1.3967
  331MPD2    H1 4972   2.432   3.636  12.519  0.9805 -1.7717 -4.5022
  331MPD2    H2 4973   2.460   4.051  12.556 -0.6756 -0.8686 -0.3055
  331MPD2    H3 4974   2.342   3.846  12.577 -0.4824  1.3093 -1.4874
  331MPD2     N 4975   2.665   3.599  12.362  0.7891  0.2786 -0.1837
  331MPD2    H5 4976   2.741   3.618  12.298  0.0369 -1.0100 -1.4418
  331MPD2    N1 4977   2.712   4.078  12.458  0.5084 -0.6848  0.2175
  331MPD2    H7 4978   2.666   4.163  12.490  1.3583  0.2213 -0.9602
  332TMC3    C1 4979   2.715   3.370  12.325  0.0202  0.2062 -0.0428
  332TMC3    C2 4980   2.794   3.408  12.217 -0.0452 -0.4674 -0.1064
  332TMC3    C3 4981   2.925   3.376  12.207  0.0961 -0.2874  0.7074
  332TMC3    C4 4982   2.768   3.285  12.420 -1.1500 -0.0334  0.8268
  332TMC3    C5 4983   2.905   3.264  12.413  0.4245  0.1630 -0.9771
  332TMC3    C6 4984   2.988   3.310  12.312  0.2884  0.2896 -0.2754
  332TMC3     C 4985   2.623   3.471  12.382 -0.0625  0.3079  0.6858
  332TMC3     O 4986   2.551   3.427  12.472  0.2757 -0.3014 -0.0488
  332TMC3     H 4987   2.745   3.467  12.140 -2.3967  1.0863  2.5579
  332TMC3    H1 4988   2.721   3.254  12.512 -2.8032 -0.9044 -0.3089
  332TMC3    H2 4989   3.095   3.293  12.313  0.0940 -0.8465  1.0613
  332TMC3    C7 4990   2.949   3.173  12.511  0.5271  0.5645 -0.3746
  332TMC3    C8 4991   3.007   3.447  12.111 -0.0367  0.4173 -0.3101
  332TMC3    O1 4992   2.872   3.080  12.544 -0.4010  0.2483  0.1054
  332TMC3    O2 4993   3.109   3.503  12.144 -0.1906  0.0180 -0.5066
  333MPD2     C 4994   3.758   3.374  11.330  0.4944  0.4321 -0.0477
  333MPD2    C1 4995   3.706   3.266  11.254 -1.0230 -0.3352 -0.1104
  333MPD2    C2 4996   3.578   3.229  11.276  0.0909  0.5984  0.0530
  333MPD2    C3 4997   3.495   3.296  11.364 -0.3556  0.5379  0.4221
  333MPD2    C4 4998   3.550   3.399  11.439 -0.0742 -0.3495  0.1926
  333MPD2    C5 4999   3.677   3.434  11.420  0.1348 -0.5895 -0.3427
  333MPD2     H 5000   3.536   3.154  11.209  0.4277 -0.0320  0.5485
  333MPD2    H1 5001   3.488   3.465  11.499  1.2355  0.1923  0.9342
  333MPD2    H2 5002   3.861   3.407  11.322  0.7128 -0.0127  0.8446
  333MPD2    H3 5003   3.708   3.524  11.471 -1.1184 -1.2072  1.5044
  333MPD2     N 5004   3.368   3.259  11.383  0.0862  0.3422  0.3342
  333MPD2    H5 5005   3.330   3.193  11.316  0.9620 -0.3942  0.5695
  333MPD2    N1 5006   3.799   3.209  11.158 -0.1881  0.7755 -0.0852
  333MPD2    H7 5007   3.895   3.241  11.152 -0.2804  1.1853  0.6341
  334TMC3    C1 5008   3.884   3.061  11.005 -0.0691 -0.2448  0.0401
  334TMC3    C2 5009   4.013   3.073  11.073 -0.6894 -0.1797  0.8212
  334TMC3    C3 5010   4.116   3.142  11.014  0.9227 -0.7534  0.2229
  334TMC3    C4 5011   3.865   3.121  10.884 -0.5171 -0.2306  0.1472
  334TMC3    C5 5012   3.976   3.183  10.828  0.2491 -0.3630  0.2618
  334TMC3    C6 5013   4.100   3.191  10.887  0.1397  0.3888 -0.2862
  334TMC3     C 5014   3.776   3.096  11.090  0.5036 -0.4539  0.9734
  334TMC3     O 5015   3.679   3.028  11.090  0.5828 -0.8799 -0.3113
  334TMC3     H 5016   4.020   3.044  11.177 -0.6998 -0.1059  0.8428
  334TMC3    H1 5017   3.762   3.129  10.851 -0.8449  1.9301  1.7339
  334TMC3    H2 5018   4.184   3.218  10.824  0.8992  0.3874  0.7393
  334TMC3    C7 5019   3.949   3.280  10.719  0.0227  0.7483  0.3241
  334TMC3    C8 5020   4.234   3.173  11.095  0.3952  0.2027  0.0970
  334TMC3    O1 5021   4.038   3.360  10.703  0.0537  0.0151 -0.0441
  334TMC3    O2 5022   4.255   3.105  11.193  0.2192  0.6368 -0.2544
  335TMC3    C1 5023   2.363   0.336  17.583  0.2018 -0.7116 -0.2531
  335TMC3    C2 5024   2.320   0.308  17.455  0.0870 -0.5001  0.0427
  335TMC3    C3 5025   2.396   0.326  17.348  0.1837  0.2114 -0.2760
  335TMC3    C4 5026   2.493   0.380  17.600 -0.7780 -0.6551  0.2493
  335TMC3    C5 5027   2.574   0.401  17.490  0.5700 -0.4491  0.0134
  335TMC3    C6 5028   2.523   0.371  17.363 -0.2144 -0.5465  0.5100
  335TMC3     C 5029   2.258   0.371  17.687  0.1991 -0.4712  0.1292
  335TMC3     O 5030   2.145   0.334  17.665  0.1259 -0.0697 -0.0436
  335TMC3     H 5031   2.221   0.268  17.436  0.2611  0.0092 -2.0123
  335TMC3    H1 5032   2.545   0.394  17.694 -0.2641  0.8080 -0.2519
  335TMC3    H2 5033   2.583   0.379  17.274 -0.4110 -1.4594  0.2965
  335TMC3    C7 5034   2.711   0.457  17.499 -0.6203 -0.5761 -0.2487
  335TMC3    C8 5035   2.352   0.301  17.216 -0.1621 -0.5177 -0.1384
  335TMC3    O1 5036   2.771   0.451  17.396 -0.0818  0.9352 -0.0073
  335TMC3    O2 5037   2.356   0.393  17.133  1.0932 -0.6090  0.2030
  336MPD2     C 5038   2.413   2.911  16.237 -0.1302 -0.3080  0.3004
  336MPD2    C1 5039   2.389   2.930  16.102  0.6618 -0.0488  0.5619
  336MPD2    C2 5040   2.351   2.814  16.032 -0.0329  0.1625 -0.0116
  336MPD2    C3 5041   2.329   2.691  16.103 -0.1445 -0.2633 -0.1271
  336MPD2    C4 5042   2.347   2.689  16.235 -0.3039 -0.5015  0.2543
  336MPD2    C5 5043   2.392   2.793  16.303  0.5724  0.0816  0.3407
  336MPD2     H 5044   2.310   2.828  15.932  1.1688  0.6581 -0.4267
  336MPD2    H1 5045   2.322   2.599  16.290 -2.8368 -0.0338 -0.1109
  336MPD2    H2 5046   2.439   2.997  16.297 -0.8183  1.2990 -1.6938
  336MPD2    H3 5047   2.402   2.787  16.410 -0.8735  4.2582  0.7084
  336MPD2     N 5048   2.275   2.576  16.050  0.0351 -0.4505 -0.2179
  336MPD2    H5 5049   2.229   2.515  16.116  0.3947  0.8452  1.2173
  336MPD2    N1 5050   2.405   3.055  16.042  0.3102  0.4547 -0.1488
  336MPD2    H7 5051   2.427   3.134  16.100  2.1778  1.1386 -1.7725
  337TMC3    C1 5052   2.382   3.224  15.880 -0.1316 -0.5311  1.4963
  337TMC3    C2 5053   2.264   3.286  15.843  0.2345 -0.6809  0.1393
  337TMC3    C3 5054   2.247   3.410  15.895  0.2453 -0.3684  0.8139
  337TMC3    C4 5055   2.484   3.285  15.941  0.7719  0.4356 -0.1888
  337TMC3    C5 5056   2.465   3.418  15.969 -0.7899 -0.5607 -0.1553
  337TMC3    C6 5057   2.344   3.475  15.962 -0.6183  0.9805  0.4165
  337TMC3     C 5058   2.369   3.086  15.909  0.1079  0.0922 -0.0958
  337TMC3     O 5059   2.308   3.021  15.830  0.7905  0.2339 -0.1786
  337TMC3     H 5060   2.184   3.224  15.806 -0.2781  0.5439 -0.8290
  337TMC3    H1 5061   2.561   3.220  15.981  0.3811 -0.2523 -0.5585
  337TMC3    H2 5062   2.326   3.573  16.006  0.4564  0.6973  1.4826
  337TMC3    C7 5063   2.575   3.497  16.025 -0.1651 -0.1986 -1.3544
  337TMC3    C8 5064   2.108   3.469  15.902  0.2641 -0.1760  0.0898
  337TMC3    O1 5065   2.548   3.604  16.081  0.8797  0.4098 -0.0376
  337TMC3    O2 5066   2.087   3.556  15.980 -0.4190 -0.5866 -0.7694
  338MPD2     C 5067   2.553   2.036   0.945 -0.3389 -0.1989  0.1581
  338MPD2    C1 5068   2.532   2.111   0.840 -0.5943  0.4551  0.7736
  338MPD2    C2 5069   2.517   2.244   0.872 -0.9675  0.6300 -0.4818
  338MPD2    C3 5070   2.525   2.297   0.998  0.0251  0.5628 -0.0449
  338MPD2    C4 5071   2.528   2.204   1.101 -0.4209  0.0175  0.4383
  338MPD2    C5 5072   2.558   2.074   1.077  0.0206 -0.3543 -0.3137
  338MPD2     H 5073   2.528   2.299   0.780  0.4030 -1.5992 -1.6629
  338MPD2    H1 5074   2.531   2.233   1.206 -0.7755  2.6226 -0.2816
  338MPD2    H2 5075   2.572   1.929   0.939 -3.5892 -0.7789  0.6951
  338MPD2    H3 5076   2.585   2.001   1.153  0.8879  0.9771  0.6733
  338MPD2     N 5077   2.496   2.438   1.009  0.4487  0.1244  0.1147
  338MPD2    H5 5078   2.482   2.488   0.922  0.8781 -1.8727 -1.1002
  338MPD2    N1 5079   2.542   2.073   0.702  0.4965 -0.1086 -0.4665
  338MPD2    H7 5080   2.536   2.148   0.634  0.0500 -0.4690 -0.8228
  339TMC3    C1 5081   2.440   2.644   1.119 -0.3640  0.0006  0.2501
  339TMC3    C2 5082   2.371   2.698   1.220  0.5259 -0.2686 -1.0640
  339TMC3    C3 5083   2.339   2.832   1.206  0.5418  0.8652  0.4423
  339TMC3    C4 5084   2.487   2.712   1.010 -0.0672 -0.1759  0.0418
  339TMC3    C5 5085   2.448   2.848   1.006  0.0449  0.0584  0.8884
  339TMC3    C6 5086   2.375   2.913   1.102 -0.5160  0.4162  0.1665
  339TMC3     C 5087   2.471   2.503   1.131  0.0755  0.3461  0.4891
  339TMC3     O 5088   2.461   2.458   1.242 -0.0340 -0.5320  0.1748
  339TMC3     H 5089   2.330   2.628   1.291  1.0600  0.7471  0.2445
  339TMC3    H1 5090   2.552   2.670   0.935 -1.8810  1.0785 -2.2289
  339TMC3    H2 5091   2.348   3.017   1.093 -1.7456  0.2134  1.6507
  339TMC3    C7 5092   2.505   2.934   0.900  0.5649  0.0353  0.2554
  339TMC3    C8 5093   2.226   2.890   1.294  0.4643  0.6083 -1.0111
  339TMC3    O1 5094   2.483   3.053   0.913  0.3614  0.1369  0.5500
  339TMC3    O2 5095   2.190   3.006   1.283 -0.0447  0.8147  0.7467
  340MPD2     C 5096   3.249   0.088   9.933  0.2142  0.2450  0.1935
  340MPD2    C1 5097   3.251   0.102   9.796  0.0947  0.5775  0.2556
  340MPD2    C2 5098   3.355   0.044   9.723 -0.3227  0.2993 -0.6337
  340MPD2    C3 5099   3.465   4.701   9.777 -0.5543  0.3218  0.1817
  340MPD2    C4 5100   3.466   4.697   9.917 -0.5162  0.1132 -0.0757
  340MPD2    C5 5101   3.355   0.016   9.992  0.2723 -0.1769 -0.4699
  340MPD2     H 5102   3.348   0.062   9.616 -0.3768  4.2320  0.0313
  340MPD2    H1 5103   3.548   4.639   9.958 -0.1052 -0.2186 -1.3543
  340MPD2    H2 5104   3.181   0.135  10.002  1.1748  1.7939  0.0767
  340MPD2    H3 5105   3.369   0.020  10.099 -1.4231 -0.4357 -0.2400
  340MPD2     N 5106   3.567   4.648   9.700  0.3281 -0.2468 -0.6910
  340MPD2    H5 5107   3.649   4.614   9.750 -0.4915 -1.6064 -0.2798
  340MPD2    N1 5108   3.141   0.171   9.742  0.1793  0.0336 -0.4381
  340MPD2    H7 5109   3.061   0.205   9.795  0.7993 -0.3342  0.7217
  341TMC3    C1 5110   3.015   0.289   9.585  0.9497  0.1033  0.4689
  341TMC3    C2 5111   2.906   0.227   9.644  0.6183  0.0884 -0.6355
  341TMC3    C3 5112   2.785   0.265   9.597  0.4086 -0.1483  0.5725
  341TMC3    C4 5113   3.003   0.397   9.492  0.1085 -0.2596  0.0139
  341TMC3    C5 5114   2.873   0.445   9.466 -0.6147  0.1049 -0.0399
  341TMC3    C6 5115   2.767   0.378   9.510 -0.2713 -0.0862  0.0966
  341TMC3     C 5116   3.144   0.230   9.617  0.4297  1.1835 -0.0011
  341TMC3     O 5117   3.236   0.243   9.539  0.4315  0.0937  0.5673
  341TMC3     H 5118   2.916   0.136   9.701  1.5318 -0.5245 -1.7886
  341TMC3    H1 5119   3.096   0.437   9.455 -0.3933  2.2389  1.4905
  341TMC3    H2 5120   2.664   0.398   9.482 -0.6749 -0.3833  1.3494
  341TMC3    C7 5121   2.859   0.501   9.339 -0.2326 -0.0069 -0.1653
  341TMC3    C8 5122   2.660   0.220   9.660  0.4694 -0.1649 -0.6460
  341TMC3    O1 5123   2.759   0.478   9.269  0.4026  0.5300 -0.1647
  341TMC3    O2 5124   2.556   0.219   9.591 -0.2706  0.0624  0.2001
  342MPD2     C 5125   0.681   3.221   0.203  0.4539 -0.1447  0.0158
  342MPD2    C1 5126   0.749   3.230   0.080  0.6254  0.2084 -0.1426
  342MPD2    C2 5127   0.780   3.349   0.019 -0.0816  0.1254  0.5023
  342MPD2    C3 5128   0.739   3.460   0.072  0.4780 -0.0326  0.4861
  342MPD2    C4 5129   0.669   3.459   0.191  0.3675  0.1468  0.6881
  342MPD2    C5 5130   0.649   3.340   0.260  0.2114 -0.3156 -0.3486
  342MPD2     H 5131   0.847   3.347  17.629 -0.9550 -0.1934 -0.1620
  342MPD2    H1 5132   0.628   3.546   0.241 -1.4784  0.1477 -0.8600
  342MPD2    H2 5133   0.658   3.121   0.237 -1.3249  0.1366 -0.3699
  342MPD2    H3 5134   0.608   3.346   0.361  0.8622  1.0920 -0.1783
  342MPD2     N 5135   0.753   3.579  17.687 -0.0040 -0.7600 -0.0836
  342MPD2    H5 5136   0.809   3.566  17.604  0.0570 -1.6022  0.0807
  342MPD2    N1 5137   0.781   3.115   0.005  0.2357 -0.1314 -0.1314
  342MPD2    H7 5138   0.830   3.124  17.613 -1.6366 -1.5861 -1.3164
  343TMC3    C1 5139   0.768   2.887  17.639 -0.7747 -0.0495 -0.2260
  343TMC3    C2 5140   0.892   2.907  17.578 -0.5996  0.0243  0.5191
  343TMC3    C3 5141   0.937   2.810  17.494  0.3554 -0.4855  0.5761
  343TMC3    C4 5142   0.696   2.773  17.633 -0.3649 -0.4984 -0.5491
  343TMC3    C5 5143   0.745   2.683  17.545 -0.4637  0.1793 -0.4405
  343TMC3    C6 5144   0.860   2.702  17.472 -0.9189 -0.5231 -0.4058
  343TMC3     C 5145   0.710   2.997   0.020 -0.5026  0.1797 -0.3739
  343TMC3     O 5146   0.605   2.978   0.079 -0.0964  0.8216  0.0365
  343TMC3     H 5147   0.945   3.001  17.584  0.1052 -0.3349 -0.0884
  343TMC3    H1 5148   0.604   2.752  17.687 -0.9305  1.1009 -0.8954
  343TMC3    H2 5149   0.899   2.631  17.400  3.5526  0.3816  1.0950
  343TMC3    C7 5150   0.675   2.554  17.534 -0.7089  0.5944 -0.5096
  343TMC3    C8 5151   1.064   2.842  17.431  0.7681 -0.4890  0.4077
  343TMC3    O1 5152   0.673   2.507  17.420 -0.5447  0.4301 -0.4383
  343TMC3    O2 5153   1.137   2.920  17.494 -0.7066 -0.4734  0.6446
  344MPD2     C 5154   2.514   3.243  10.582  0.6392  0.4861 -0.3261
  344MPD2    C1 5155   2.393   3.228  10.519  1.0154 -1.0096  0.0168
  344MPD2    C2 5156   2.346   3.335  10.446 -0.1913  0.2242  0.1389
  344MPD2    C3 5157   2.399   3.456  10.454 -0.4485  0.1812 -0.5509
  344MPD2    C4 5158   2.520   3.472  10.519 -0.3324  0.0497  0.4739
  344MPD2    C5 5159   2.576   3.364  10.576 -0.5705  0.1348 -0.7002
  344MPD2     H 5160   2.254   3.321  10.390 -1.2714  1.5492  1.5767
  344MPD2    H1 5161   2.557   3.574  10.526  1.0088 -0.3479 -0.8148
  344MPD2    H2 5162   2.560   3.162  10.637 -0.6776  0.3832  0.5978
  344MPD2    H3 5163   2.676   3.383  10.613 -0.6724 -2.1898  0.7544
  344MPD2     N 5164   2.344   3.569  10.391 -0.2174 -0.4652  0.0382
  344MPD2    H5 5165   2.393   3.658  10.390 -0.3949 -0.3477  1.5930
  344MPD2    N1 5166   2.318   3.108  10.517  0.2607 -0.5196  0.1886
  344MPD2    H7 5167   2.245   3.098  10.447  0.2243  0.2807  0.1070
  345TMC3    C1 5168   2.186   3.709  10.292  0.5932 -0.4260 -0.5610
  345TMC3    C2 5169   2.219   3.812  10.377  0.3189  0.0066 -0.2294
  345TMC3    C3 5170   2.172   3.939  10.341 -0.2914  0.4784  0.0326
  345TMC3    C4 5171   2.082   3.726  10.201 -0.0677 -0.1878 -0.3308
  345TMC3    C5 5172   2.032   3.851  10.171 -0.6853  0.7010 -0.3180
  345TMC3    C6 5173   2.088   3.961  10.237 -0.3641  0.4944 -0.2522
  345TMC3     C 5174   2.226   3.569  10.317  0.7841 -0.9418  0.3004
  345TMC3     O 5175   2.154   3.482  10.278  0.1678 -0.6842  0.7753
  345TMC3     H 5176   2.280   3.807  10.467  0.1310 -3.9059 -0.3151
  345TMC3    H1 5177   2.048   3.646  10.137 -1.1370  2.4014 -3.0211
  345TMC3    H2 5178   2.062   4.063  10.212  2.5164  1.1135 -0.6765
  345TMC3    C7 5179   1.914   3.875  10.088 -0.0876 -0.8049 -0.4163
  345TMC3    C8 5180   2.223   4.050  10.412  0.2261  0.4080 -0.2470
  345TMC3    O1 5181   1.883   3.990  10.080 -0.1348  0.4192  0.6522
  345TMC3    O2 5182   2.232   4.038  10.536  0.1309 -0.2748 -0.3565
  346MPD2     C 5183   2.027   4.190  14.243 -0.3578  0.2482 -0.6177
  346MPD2    C1 5184   1.940   4.292  14.224  0.2902 -0.5031 -0.7731
  346MPD2    C2 5185   1.967   4.412  14.282 -0.0721  0.2847 -0.2664
  346MPD2    C3 5186   2.075   4.433  14.367 -0.1428 -0.2093  0.3089
  346MPD2    C4 5187   2.162   4.327  14.385  0.2520  0.3393 -0.1871
  346MPD2    C5 5188   2.142   4.212  14.311  0.7641 -0.1459 -0.4255
  346MPD2     H 5189   1.918   4.501  14.242  1.5477  1.4983  0.4667
  346MPD2    H1 5190   2.250   4.332  14.448 -3.1609 -1.2558  4.6464
  346MPD2    H2 5191   2.023   4.092  14.196 -0.5647 -0.0854  0.0826
  346MPD2    H3 5192   2.210   4.128  14.323  0.3770 -0.3422  0.3555
  346MPD2     N 5193   2.100   4.564  14.415  1.2203 -0.3662 -0.0321
  346MPD2    H5 5194   2.047   4.643  14.379  0.2478 -1.3413 -0.7240
  346MPD2    N1 5195   1.832   4.279  14.139  0.3152 -0.5496 -0.2400
  346MPD2    H7 5196   1.835   4.200  14.076  1.2708 -2.1742  1.8473
  347TMC3    C1 5197   2.227   0.031  14.472  0.4967 -0.7446  0.2892
  347TMC3    C2 5198   2.138   0.107  14.399  0.6526  0.3961 -0.5914
  347TMC3    C3 5199   2.186   0.220  14.336 -0.0868 -0.3256 -0.0645
  347TMC3    C4 5200   2.355   0.069  14.495 -0.1715 -0.1118  0.3639
  347TMC3    C5 5201   2.392   0.187  14.438 -0.6237  0.6284  0.2298
  347TMC3    C6 5202   2.313   0.262  14.364 -0.7002  0.8535 -0.1548
  347TMC3     C 5203   2.216   4.609  14.472 -0.7143 -0.0459 -0.0834
  347TMC3     O 5204   2.319   4.546  14.503 -0.3506 -0.3667 -0.2486
  347TMC3     H 5205   2.040   0.070  14.371  1.0321 -1.1054  0.0359
  347TMC3    H1 5206   2.423   0.011  14.557 -0.8862 -1.5306 -0.1745
  347TMC3    H2 5207   2.352   0.343  14.304 -1.9232  1.3330 -0.2994
  347TMC3    C7 5208   2.531   0.234  14.448 -0.0939 -0.7151 -0.3670
  347TMC3    C8 5209   2.157   0.201  14.203 -0.4989 -0.2974 -0.3762
  347TMC3    O1 5210   2.551   0.348  14.406  0.0152  0.5725 -0.2525
  347TMC3    O2 5211   2.240   0.144  14.133 -0.2030 -0.0998  0.5392
  348MPD2     C 5212   0.375   4.356  11.791 -0.6606 -0.2831 -1.1299
  348MPD2    C1 5213   0.503   4.400  11.776  0.5853 -0.8095 -0.3210
  348MPD2    C2 5214   0.541   4.469  11.661  0.1113 -0.0749  0.6813
  348MPD2    C3 5215   0.458   4.486  11.554 -0.7708 -0.6897  0.9840
  348MPD2    C4 5216   0.329   4.437  11.566 -0.3696 -1.1560 -0.0679
  348MPD2    C5 5217   0.286   4.383  11.687  0.2921 -0.0554  0.9342
  348MPD2     H 5218   0.641   4.511  11.657  0.4722 -0.9456  0.5577
  348MPD2    H1 5219   0.250   4.454  11.493 -0.0610 -0.4581 -0.2368
  348MPD2    H2 5220   0.329   4.300  11.872 -1.6261  0.8840 -0.8750
  348MPD2    H3 5221   0.183   4.351  11.693  0.0250  0.7411  0.6260
  348MPD2     N 5222   0.507   4.561  11.442  0.2744  0.0371  0.7023
  348MPD2    H5 5223   0.602   4.594  11.445  0.9396 -1.6782 -1.1091
  348MPD2    N1 5224   0.607   4.382  11.869 -0.2976 -0.3509  0.2377
  348MPD2    H7 5225   0.701   4.415  11.850 -0.5465  0.0805 -0.2537
  349TMC3    C1 5226   0.713   4.309  12.071 -0.1119 -0.0775  0.7125
  349TMC3    C2 5227   0.716   4.195  12.144 -0.2822  0.3232  0.5018
  349TMC3    C3 5228   0.832   4.118  12.118 -0.2919 -0.2865  0.4107
  349TMC3    C4 5229   0.825   4.358  12.010  0.1802  0.3367  0.3959
  349TMC3    C5 5230   0.931   4.279  11.983 -0.5431 -0.2441 -0.5646
  349TMC3    C6 5231   0.940   4.155  12.036  0.5745  0.5007 -0.2601
  349TMC3     C 5232   0.587   4.312  11.987  0.2582 -1.0351 -0.1246
  349TMC3     O 5233   0.482   4.257  12.026 -0.2085  0.2454 -0.0264
  349TMC3     H 5234   0.626   4.156  12.189 -0.5911 -0.0732 -0.4561
  349TMC3    H1 5235   0.818   4.458  11.969  1.3091  0.3340  0.1979
  349TMC3    H2 5236   1.028   4.095  12.016 -1.1207 -1.8669 -0.7895
  349TMC3    C7 5237   0.950   4.256  11.842 -0.0190 -0.3408  0.4515
  349TMC3    C8 5238   0.813   3.979  12.140  0.7872  0.1965  0.3585
  349TMC3    O1 5239   0.976   4.143  11.801 -0.4261 -0.6356  0.1282
  349TMC3    O2 5240   0.723   3.945  12.213  0.6747  0.1861 -0.4237
  350MPD2     C 5241   4.304   2.593  10.210  0.2808 -0.1968  0.1870
  350MPD2    C1 5242   4.369   2.471  10.204  0.4717  0.7464  0.2368
  350MPD2    C2 5243   4.503   2.469  10.209 -0.0681 -0.2715  0.2311
  350MPD2    C3 5244   4.575   2.589  10.207  0.5894  0.0856  0.8819
  350MPD2    C4 5245   4.508   2.712  10.205 -0.2465  0.0384  0.4667
  350MPD2    C5 5246   4.372   2.710  10.207 -0.4900  0.2078  0.5351
  350MPD2     H 5247   4.552   2.372  10.217 -1.1953 -0.6177  2.8255
  350MPD2    H1 5248   4.550   2.812  10.201  0.7569 -0.3877  0.3897
  350MPD2    H2 5249   4.197   2.595  10.225  0.4450 -2.1891  1.5848
  350MPD2    H3 5250   4.323   2.807  10.212 -0.6109  0.2616 -1.6703
  350MPD2     N 5251   4.720   2.580  10.226 -0.3963  0.1605  0.0741
  350MPD2    H5 5252   0.027   2.492  10.266 -0.1671 -0.1169 -0.7275
  350MPD2    N1 5253   4.294   2.345  10.209 -0.2673 -1.0225 -0.2820
  350MPD2    H7 5254   4.353   2.263  10.210 -0.5316 -1.2088 -0.2241
  351TMC3    C1 5255   4.118   2.192  10.163 -0.0990  0.6428  0.0498
  351TMC3    C2 5256   4.221   2.100  10.151  0.3010  0.0067 -0.0224
  351TMC3    C3 5257   4.191   1.970  10.158 -0.2839  0.1196 -0.3021
  351TMC3    C4 5258   3.993   2.147  10.187  0.4162  0.8209  0.0099
  351TMC3    C5 5259   3.964   2.013  10.191  0.4152 -0.1508  0.5921
  351TMC3    C6 5260   4.059   1.926  10.164  0.0208  0.1081 -0.1130
  351TMC3     C 5261   4.161   2.329  10.181  0.2709 -0.5179  0.2452
  351TMC3     O 5262   4.067   2.406  10.168  0.0303 -0.0908  0.4644
  351TMC3     H 5263   4.314   2.127  10.103  0.2346  1.0820  0.4514
  351TMC3    H1 5264   3.915   2.222  10.198  0.5639  0.5286  2.9531
  351TMC3    H2 5265   4.048   1.818  10.155 -2.2497  0.4884 -1.9006
  351TMC3    C7 5266   3.825   1.974  10.201  0.3822  0.0805  0.8972
  351TMC3    C8 5267   4.301   1.876  10.130  0.8298  0.0363  0.5133
  351TMC3    O1 5268   3.747   2.052  10.257 -0.0138 -0.2275 -0.4076
  351TMC3    O2 5269   4.335   1.881  10.009  0.1461 -0.1553  0.1561
  352MPD2     C 5270   1.942   3.971   1.447  0.7503  0.1728  0.1401
  352MPD2    C1 5271   2.033   3.937   1.352  0.6695  0.5864 -0.0250
  352MPD2    C2 5272   2.102   3.813   1.363  0.6212  0.2386 -0.1781
  352MPD2    C3 5273   2.115   3.751   1.487 -0.2496 -0.4076 -0.4957
  352MPD2    C4 5274   2.029   3.798   1.586 -0.4792  0.1546 -0.7173
  352MPD2    C5 5275   1.938   3.898   1.562 -1.2083  0.0557 -0.3756
  352MPD2     H 5276   2.180   3.789   1.291  1.4645 -0.7551  1.0568
  352MPD2    H1 5277   2.027   3.755   1.685 -2.1870  0.6972 -0.5084
  352MPD2    H2 5278   1.880   4.059   1.434 -0.1558 -0.5085 -0.2334
  352MPD2    H3 5279   1.865   3.920   1.639 -1.0355 -2.0311  0.3868
  352MPD2     N 5280   2.191   3.644   1.516 -1.3611 -0.1154  0.1176
  352MPD2    H5 5281   2.185   3.605   1.609  1.8453  2.3268  1.3237
  352MPD2    N1 5282   2.036   4.019   1.230 -0.6802 -1.0619 -0.3110
  352MPD2    H7 5283   1.968   4.094   1.222  0.7577  0.4260  1.2950
  353TMC3    C1 5284   2.376   3.517   1.504  0.4740 -0.0382  0.9386
  353TMC3    C2 5285   2.333   3.393   1.549  0.0574 -0.7617 -0.2213
  353TMC3    C3 5286   2.424   3.288   1.546  0.7147  0.2043  0.7235
  353TMC3    C4 5287   2.504   3.536   1.464  0.8370  0.4438 -0.4309
  353TMC3    C5 5288   2.594   3.434   1.470 -0.6178 -1.2077  0.3448
  353TMC3    C6 5289   2.554   3.304   1.507  0.3657 -0.0492  0.5466
  353TMC3     C 5290   2.283   3.593   1.428  0.4730  0.5663  0.3700
  353TMC3     O 5291   2.313   3.616   1.310 -0.0586  0.2612 -0.0484
  353TMC3     H 5292   2.231   3.375   1.578 -0.4969 -1.3940 -2.5326
  353TMC3    H1 5293   2.522   3.638   1.434 -2.6998  1.3265  0.4253
  353TMC3    H2 5294   2.631   3.235   1.540 -0.0689 -0.6256  0.3683
  353TMC3    C7 5295   2.717   3.446   1.393 -0.1508 -0.4829  0.1522
  353TMC3    C8 5296   2.385   3.155   1.584 -0.1152 -0.1433  0.4020
  353TMC3    O1 5297   2.765   3.348   1.339 -0.3164 -0.0407 -0.3523
  353TMC3    O2 5298   2.282   3.145   1.650  0.1211  0.7094 -0.3313
  354TMC3    C1 5299   4.179   0.762  13.136 -0.5235 -0.8916  0.4490
  354TMC3    C2 5300   4.311   0.747  13.179  0.3484  0.6772  0.6555
  354TMC3    C3 5301   4.381   0.649  13.108  0.4328 -0.1710 -0.5347
  354TMC3    C4 5302   4.134   0.689  13.033  0.6170 -0.2955 -0.1268
  354TMC3    C5 5303   4.202   0.594  12.965  0.5196 -0.2558 -0.4166
  354TMC3    C6 5304   4.329   0.577  13.002 -0.0779 -0.3760  0.4398
  354TMC3     C 5305   4.089   0.820  13.232 -0.4856  0.1576 -0.9883
  354TMC3     O 5306   4.122   0.833  13.349  1.1262 -0.6611 -0.4659
  354TMC3     H 5307   4.350   0.805  13.262  0.3613 -0.0648  1.1655
  354TMC3    H1 5308   4.032   0.695  12.997 -0.4453 -0.5508  2.8646
  354TMC3    H2 5309   4.396   0.499  12.967 -0.2804 -0.0978 -0.5667
  354TMC3    C7 5310   4.195   0.613  12.814  0.0501  0.4687  0.1739
  354TMC3    C8 5311   4.513   0.691  13.075  0.3770  0.6982 -0.2736
  354TMC3    O1 5312   4.088   0.637  12.759  0.5215 -0.1770 -0.1991
  354TMC3    O2 5313   4.566   0.651  12.972  0.6284  0.4448 -0.5740
  355MPD2     C 5314   4.298   1.689  11.695 -0.2502  0.7491 -0.1888
  355MPD2    C1 5315   4.408   1.737  11.623  0.0902 -0.0900 -0.4024
  355MPD2    C2 5316   4.530   1.708  11.673 -0.7713 -0.5769 -0.0814
  355MPD2    C3 5317   4.556   1.661  11.795 -0.4308 -0.4460  0.4486
  355MPD2    C4 5318   4.449   1.634  11.872  0.4275  0.2778 -1.0945
  355MPD2    C5 5319   4.321   1.645  11.825 -0.3104  0.2045 -0.4178
  355MPD2     H 5320   4.611   1.720  11.602 -0.4713 -1.6061  0.0776
  355MPD2    H1 5321   4.463   1.606  11.975  2.8554 -0.4614 -1.6273
  355MPD2    H2 5322   4.195   1.698  11.662  0.5823  1.4196 -2.6167
  355MPD2    H3 5323   4.234   1.623  11.886  0.3067 -0.9927  0.0126
  355MPD2     N 5324   4.688   1.650  11.857 -0.0094 -0.2947 -0.2938
  355MPD2    H5 5325   4.693   1.641  11.958 -0.8633 -0.7484 -0.2915
  355MPD2    N1 5326   4.386   1.793  11.496 -0.8619  0.4107  0.6503
  355MPD2    H7 5327   4.290   1.780  11.466 -0.0966 -1.4873 -0.9671
  356TMC3    C1 5328   0.192   1.707  11.874 -0.0634 -0.0491 -0.1403
  356TMC3    C2 5329   0.313   1.682  11.815  0.7439 -0.5197  0.1125
  356TMC3    C3 5330   0.408   1.779  11.823 -0.1056 -0.6758  0.3349
  356TMC3    C4 5331   0.169   1.830  11.944 -0.1230  0.6920 -0.4190
  356TMC3    C5 5332   0.269   1.924  11.947  0.5755 -0.3833  0.0518
  356TMC3    C6 5333   0.383   1.898  11.885  0.1284 -0.7295  0.3571
  356TMC3     C 5334   0.081   1.670  11.789 -0.4037 -0.0457 -0.0971
  356TMC3     O 5335   0.107   1.657  11.673 -0.0637  0.1858 -0.1149
  356TMC3     H 5336   0.316   1.617  11.728 -0.3194 -0.8735  0.3402
  356TMC3    H1 5337   0.067   1.854  11.969 -1.2033 -3.2714 -0.8957
  356TMC3    H2 5338   0.460   1.975  11.887 -1.1929  0.6434 -1.1072
  356TMC3    C7 5339   0.247   2.049  12.016  1.1405  0.5997  0.2741
  356TMC3    C8 5340   0.534   1.757  11.748 -0.3879  0.3210  0.1531
  356TMC3    O1 5341   0.152   2.047  12.094  0.0602  0.1900  0.3609
  356TMC3    O2 5342   0.543   1.637  11.725  0.1504  0.1751  0.2530
  357MPD2     C 5343   4.485   1.301   1.074 -0.0906  0.6668 -0.4954
  357MPD2    C1 5344   4.487   1.162   1.085 -0.7069  0.7498 -0.1283
  357MPD2    C2 5345   4.393   1.099   1.161  0.0918  0.1163  0.0682
  357MPD2    C3 5346   4.311   1.177   1.235 -0.3222  1.0838  0.0107
  357MPD2    C4 5347   4.308   1.317   1.226 -0.4297  0.1470 -0.3218
  357MPD2    C5 5348   4.399   1.377   1.142 -0.0216  0.0397 -1.3150
  357MPD2     H 5349   4.394   0.991   1.171 -0.3998  0.1506  0.4992
  357MPD2    H1 5350   4.226   1.369   1.273 -1.2073  0.6010 -2.1666
  357MPD2    H2 5351   4.555   1.352   1.009 -0.1249 -0.6357 -1.5520
  357MPD2    H3 5352   4.401   1.484   1.125  0.2043 -0.1994 -2.7935
  357MPD2     N 5353   4.208   1.113   1.313 -0.2981  0.2016  0.5865
  357MPD2    H5 5354   4.130   1.174   1.337 -2.4572 -1.9973 -0.8935
  357MPD2    N1 5355   4.579   1.090   0.996 -0.1080 -0.6603  0.2541
  357MPD2    H7 5356   4.635   1.146   0.932  2.2881 -1.8299  1.3044
  358TMC3    C1 5357   4.694   0.896   0.905  0.6144 -0.3087  0.5534
  358TMC3    C2 5358   4.686   0.940   0.772  0.2579  0.0417 -0.5692
  358TMC3    C3 5359   0.007   0.848   0.672 -0.0987 -0.1098  0.4082
  358TMC3    C4 5360   0.048   0.783   0.938  0.2389 -0.4126  0.3945
  358TMC3    C5 5361   0.085   0.698   0.840  0.3599 -0.5635  0.3568
  358TMC3    C6 5362   0.071   0.727   0.709  0.5763 -0.0196  0.5068
  358TMC3     C 5363   4.621   0.959   1.011  0.7045 -0.0982  0.0917
  358TMC3     O 5364   4.597   0.881   1.104 -0.0423 -0.0219 -0.0551
  358TMC3     H 5365   4.641   1.031   0.733 -0.0440 -0.1058 -0.5645
  358TMC3    H1 5366   0.056   0.743   1.038 -1.3738 -1.8154 -0.0424
  358TMC3    H2 5367   0.064   0.646   0.637 -0.9866 -0.5034  1.2030
  358TMC3    C7 5368   0.137   0.564   0.869  0.3092 -0.2312  0.4592
  358TMC3    C8 5369   4.685   0.888   0.539 -0.5670 -0.0823 -0.0572
  358TMC3    O1 5370   0.153   0.490   0.771 -0.3363  0.0412 -0.4830
  358TMC3    O2 5371   4.646   0.999   0.512  0.6557  0.2392 -0.5209
  359MPD2     C 5372   0.461   0.763  12.516 -0.0181  0.1981  0.1296
  359MPD2    C1 5373   0.408   0.721  12.396 -0.8675  0.3582 -0.4488
  359MPD2    C2 5374   0.360   0.596  12.385  0.3412  0.0932  0.1211
  359MPD2    C3 5375   0.360   0.506  12.499  0.0064  0.2190  0.2569
  359MPD2    C4 5376   0.408   0.552  12.620  0.4568 -0.6758  0.7228
  359MPD2    C5 5377   0.461   0.676  12.624  0.6820  0.1811  0.0567
  359MPD2     H 5378   0.321   0.556  12.292  0.1586  2.2558 -0.7339
  359MPD2    H1 5379   0.408   0.488  12.707  2.3851  0.4636  1.5656
  359MPD2    H2 5380   0.509   0.858  12.536  0.5766 -0.3728  1.3937
  359MPD2    H3 5381   0.500   0.707  12.720 -1.3246 -0.6138  1.1261
  359MPD2     N 5382   0.310   0.369  12.488  0.2920 -0.4712 -0.1109
  359MPD2    H5 5383   0.299   0.321  12.577  0.6620 -0.9759 -0.3343
  359MPD2    N1 5384   0.402   0.807  12.284 -0.3175  0.6332  0.1731
  359MPD2    H7 5385   0.363   0.765  12.200 -0.2078 -0.7086  0.8071
  360TMC3    C1 5386   0.452   0.979  12.132  0.2969 -0.5364 -0.6116
  360TMC3    C2 5387   0.539   1.073  12.089  0.8939 -0.2173  0.1358
  360TMC3    C3 5388   0.520   1.131  11.966  0.5481  0.5948 -0.0131
  360TMC3    C4 5389   0.339   0.954  12.065 -0.5823  0.1962  0.3814
  360TMC3    C5 5390   0.318   1.013  11.939  0.1964 -0.1560  0.0006
  360TMC3    C6 5391   0.413   1.100  11.895 -0.0761 -0.6373 -0.3353
  360TMC3     C 5392   0.463   0.928  12.269  0.0774  0.2543  0.8369
  360TMC3     O 5393   0.498   1.002  12.362  0.2464 -0.1076 -0.0416
  360TMC3     H 5394   0.636   1.091  12.135  0.9811  1.4051 -0.6829
  360TMC3    H1 5395   0.261   0.897  12.115 -1.5268  1.4977  0.3910
  360TMC3    H2 5396   0.403   1.132  11.792  0.2511 -0.3323 -0.2728
  360TMC3    C7 5397   0.262   0.928  11.835  0.3882  0.0086 -0.7670
  360TMC3    C8 5398   0.623   1.210  11.901 -0.3051 -0.1389  0.1314
  360TMC3    O1 5399   0.322   0.924  11.723 -0.1868 -0.0483 -0.1073
  360TMC3    O2 5400   0.582   1.300  11.829 -0.3224 -0.0993 -0.0197
  361MPD2     C 5401   1.146   3.510  16.722 -0.0031 -0.2335  0.0299
  361MPD2    C1 5402   1.222   3.622  16.756 -0.2288 -0.1929  0.0912
  361MPD2    C2 5403   1.360   3.608  16.757  0.0866 -0.3109 -0.0021
  361MPD2    C3 5404   1.423   3.485  16.726  0.0852  0.5371 -0.1976
  361MPD2    C4 5405   1.344   3.396  16.662  0.4561  0.1361 -0.9203
  361MPD2    C5 5406   1.210   3.405  16.665 -0.2291  0.0497  0.9000
  361MPD2     H 5407   1.424   3.692  16.781  0.6534 -0.4745 -0.9428
  361MPD2    H1 5408   1.388   3.304  16.625  0.7545 -0.5505  1.1681
  361MPD2    H2 5409   1.038   3.508  16.725 -0.0075  1.7916  1.4143
  361MPD2    H3 5410   1.144   3.330  16.621 -0.3855  0.5844  0.2280
  361MPD2     N 5411   1.558   3.461  16.728  0.0800 -1.1523  0.4291
  361MPD2    H5 5412   1.591   3.383  16.672 -0.2591 -0.7648 -0.3027
  361MPD2    N1 5413   1.171   3.750  16.797 -0.0677  0.3540  0.3223
  361MPD2    H7 5414   1.236   3.824  16.821 -0.1696  1.2909 -2.3546
  362TMC3    C1 5415   1.001   3.907  16.874  0.5348  1.1663  0.3317
  362TMC3    C2 5416   0.879   3.922  16.941 -0.3343  0.0011 -0.0038
  362TMC3    C3 5417   0.843   4.048  16.972  0.1562 -0.5216  0.9969
  362TMC3    C4 5418   1.074   4.009  16.825  0.3907  0.6531 -0.7639
  362TMC3    C5 5419   1.032   4.132  16.857  0.3470  0.1863 -0.2910
  362TMC3    C6 5420   0.925   4.149  16.937 -0.4105 -0.2346  0.4485
  362TMC3     C 5421   1.039   3.765  16.838 -0.6104  0.1759  0.5072
  362TMC3     O 5422   0.949   3.682  16.848 -0.2347  0.2333  0.6018
  362TMC3     H 5423   0.835   3.831  16.980 -0.6181  0.7592  1.4382
  362TMC3    H1 5424   1.157   3.993  16.757  1.6889 -0.8564  1.1794
  362TMC3    H2 5425   0.901   4.253  16.959  3.1544  0.4482  1.1960
  362TMC3    C7 5426   1.079   4.257  16.791  0.2324  0.3226 -0.0657
  362TMC3    C8 5427   0.703   4.073  17.008  0.2129 -0.6597  0.2506
  362TMC3    O1 5428   1.018   4.361  16.813  0.1011  0.9765 -0.0523
  362TMC3    O2 5429   0.628   3.977  16.996 -0.7936  0.1200  0.1714
  363TMC3    C1 5430   0.599   1.881   9.612  0.3274  0.0848 -0.6189
  363TMC3    C2 5431   0.613   1.744   9.632  0.3241 -0.4920 -0.2410
  363TMC3    C3 5432   0.496   1.670   9.638 -0.0102 -0.3209 -0.1714
  363TMC3    C4 5433   0.477   1.941   9.585  0.1093  0.3021  0.5651
  363TMC3    C5 5434   0.362   1.860   9.581 -0.3893 -0.2949 -0.3348
  363TMC3    C6 5435   0.372   1.727   9.605  1.0132  0.1119 -0.4317
  363TMC3     C 5436   0.714   1.963   9.639 -0.1031  0.5315 -0.5687
  363TMC3     O 5437   0.805   1.906   9.699 -0.1397  0.0927 -0.1114
  363TMC3     H 5438   0.712   1.704   9.652  0.2318 -0.3988  0.3938
  363TMC3    H1 5439   0.465   2.049   9.587  1.1111  0.4399 -1.0521
  363TMC3    H2 5440   0.284   1.663   9.603  0.3217  1.0233  0.9833
  363TMC3    C7 5441   0.233   1.923   9.564 -0.4011 -0.5708 -0.6095
  363TMC3    C8 5442   0.493   1.542   9.705  0.5415 -0.0124  1.4135
  363TMC3    O1 5443   0.135   1.875   9.620  0.0995 -0.4357 -0.1004
  363TMC3    O2 5444   0.396   1.522   9.777 -0.0909  0.2839 -0.2259
  364MPD2     C 5445   3.950   0.772  10.009  0.1559 -0.2338 -0.2475
  364MPD2    C1 5446   3.945   0.866  10.107  0.0804 -0.8940 -0.1926
  364MPD2    C2 5447   3.949   0.815  10.234  0.1316  0.2633 -0.4246
  364MPD2    C3 5448   3.970   0.680  10.263  0.1553  0.1945  0.4462
  364MPD2    C4 5449   3.981   0.593  10.162  0.1049  0.2002 -0.3264
  364MPD2    C5 5450   3.974   0.641  10.038  0.0870 -0.1867 -0.0258
  364MPD2     H 5451   3.947   0.886  10.317 -1.2633  0.1793 -0.3881
  364MPD2    H1 5452   3.988   0.487  10.179  1.4307  0.6509  1.9474
  364MPD2    H2 5453   3.936   0.811   9.909 -1.6114  0.2698  0.1886
  364MPD2    H3 5454   3.967   0.568   9.958  0.3218 -0.3554  0.1091
  364MPD2     N 5455   3.959   0.640  10.405  0.1994 -0.1599  0.3849
  364MPD2    H5 5456   3.958   0.720  10.467 -0.5940  1.0389 -1.1533
  364MPD2    N1 5457   3.951   1.002  10.076 -0.4814 -0.6235  0.1657
  364MPD2    H7 5458   3.971   1.031   9.981 -2.6208  0.0012 -0.0935
  365TMC3    C1 5459   3.969   1.235  10.145  0.3084 -0.0024  0.3460
  365TMC3    C2 5460   4.073   1.268  10.060  0.0931 -0.4267  0.4464
  365TMC3    C3 5461   4.132   1.386  10.068  0.3744  0.0371 -0.0518
  365TMC3    C4 5462   3.924   1.322  10.235  0.2678  0.1472  0.5485
  365TMC3    C5 5463   3.975   1.446  10.234 -0.6471 -0.0824  0.3281
  365TMC3    C6 5464   4.078   1.484  10.151  0.6261 -0.5157 -0.5307
  365TMC3     C 5465   3.925   1.099  10.171 -0.0282  0.6055 -0.5042
  365TMC3     O 5466   3.870   1.089  10.281 -0.3607 -0.3490 -0.4362
  365TMC3     H 5467   4.093   1.189   9.989  2.3065  0.7387 -0.1951
  365TMC3    H1 5468   3.842   1.301  10.303 -0.3447 -1.1761 -0.5779
  365TMC3    H2 5469   4.119   1.584  10.143 -0.7220  0.0514 -0.4791
  365TMC3    C7 5470   3.954   1.534  10.349  0.1738 -1.0809  0.2137
  365TMC3    C8 5471   4.230   1.409   9.972  0.4755  0.2446  0.3657
  365TMC3    O1 5472   4.002   1.646  10.335  0.2427  0.1102 -0.0102
  365TMC3    O2 5473   4.226   1.520   9.913 -0.0934 -0.0863 -0.0394
  366MPD2     C 5474   1.668   1.996  15.042 -0.3026 -0.7308 -0.1294
  366MPD2    C1 5475   1.779   2.074  15.067  0.6127  0.0337  0.3202
  366MPD2    C2 5476   1.903   2.016  15.051  0.0709 -0.2222 -0.2494
  366MPD2    C3 5477   1.920   1.882  15.007  0.1417 -0.0824  0.0694
  366MPD2    C4 5478   1.805   1.808  14.976 -0.1389  0.0643  0.6347
  366MPD2    C5 5479   1.683   1.868  14.995  0.5358  0.4369  0.8740
  366MPD2     H 5480   1.989   2.066  15.093 -0.1872  0.0101  0.0037
  366MPD2    H1 5481   1.814   1.709  14.932 -1.8600  0.7723 -1.3614
  366MPD2    H2 5482   1.569   2.041  15.047  0.9010  1.8707  0.5323
  366MPD2    H3 5483   1.594   1.809  14.980  0.9993 -0.0277 -0.0706
  366MPD2     N 5484   2.054   1.851  14.978  0.5123  0.1749  0.9423
  366MPD2    H5 5485   2.129   1.912  15.008  0.4128  1.5654 -1.6141
  366MPD2    N1 5486   1.776   2.207  15.110  0.3850  0.0562 -0.2661
  366MPD2    H7 5487   1.869   2.246  15.126  0.2170  0.7277 -0.8973
  367TMC3    C1 5488   1.701   2.425  15.175 -0.7106 -0.5599  0.8972
  367TMC3    C2 5489   1.818   2.421  15.242 -0.3921  0.4398 -0.0771
  367TMC3    C3 5490   1.894   2.533  15.234 -0.5922 -0.0008  0.1606
  367TMC3    C4 5491   1.665   2.528  15.087  0.2951  0.0552 -0.1657
  367TMC3    C5 5492   1.748   2.633  15.080  0.2828 -0.5920 -0.4530
  367TMC3    C6 5493   1.864   2.641  15.154 -0.1556 -0.2177 -0.0599
  367TMC3     C 5494   1.673   2.294  15.106 -0.3733 -0.1547  0.0828
  367TMC3     O 5495   1.568   2.276  15.056  0.2555  0.1769 -0.0289
  367TMC3     H 5496   1.843   2.336  15.304  0.8546  0.0804 -1.0922
  367TMC3    H1 5497   1.586   2.519  15.013  0.0124 -1.2822  0.2994
  367TMC3    H2 5498   1.921   2.734  15.149 -0.0364 -0.2827  0.0839
  367TMC3    C7 5499   1.697   2.761  15.035 -0.2489 -0.0607 -0.6058
  367TMC3    C8 5500   2.019   2.526  15.312 -0.0228 -0.4186  0.2475
  367TMC3    O1 5501   1.787   2.836  15.003  0.4094  0.2281  0.0758
  367TMC3    O2 5502   2.057   2.419  15.354 -0.4262 -0.4848 -0.0675
  368MPD2     C 5503   3.486   4.697  13.204  0.1495  0.6112  0.4660
  368MPD2    C1 5504   3.469   0.031  13.080  0.6705  0.3429  0.5149
  368MPD2    C2 5505   3.573   0.014  12.992  0.0517  0.2038 -0.1123
  368MPD2    C3 5506   3.691   4.674  13.027 -0.9357 -0.9049 -0.0774
  368MPD2    C4 5507   3.705   4.631  13.152  0.2912 -0.6793 -0.2319
  368MPD2    C5 5508   3.601   4.637  13.241  0.2633  0.2951  0.2944
  368MPD2     H 5509   3.565   0.035  12.886  0.1964 -0.9429 -0.3523
  368MPD2    H1 5510   3.796   4.580  13.180  0.6546  0.8348  1.3859
  368MPD2    H2 5511   3.417   4.718  13.285  0.9228  0.2308  1.2234
  368MPD2    H3 5512   3.615   4.597  13.341 -2.5185  1.4018  1.1206
  368MPD2     N 5513   3.795   4.651  12.936 -0.4355 -0.5506 -0.0745
  368MPD2    H5 5514   3.873   4.603  12.980  1.2552  2.7177  0.5384
  368MPD2    N1 5515   3.350   0.096  13.038  0.1816 -0.6617  0.4169
  368MPD2    H7 5516   3.272   0.085  13.101 -0.8614  1.2535 -0.5463
  369TMC3    C1 5517   3.194   0.186  12.885 -0.1407 -0.0807 -0.3049
  369TMC3    C2 5518   3.178   0.280  12.782  0.1579  1.3143 -0.8789
  369TMC3    C3 5519   3.052   0.292  12.726  0.7826 -0.2086  0.3028
  369TMC3    C4 5520   3.092   0.111  12.931  0.1463 -0.4256 -0.0861
  369TMC3    C5 5521   2.972   0.132  12.871  0.2042  0.3127 -0.1272
  369TMC3    C6 5522   2.945   0.223  12.774 -0.2235 -0.3309  0.2210
  369TMC3     C 5523   3.336   0.164  12.919  1.0302  0.3412  0.6365
  369TMC3     O 5524   3.423   0.205  12.842  0.3975  0.4610  0.3074
  369TMC3     H 5525   3.265   0.328  12.740  0.4422  1.4937 -0.0894
  369TMC3    H1 5526   3.110   0.019  12.985 -2.8076  0.1792  1.9064
  369TMC3    H2 5527   2.854   0.222  12.716 -1.2269 -0.1504  1.7962
  369TMC3    C7 5528   2.866   0.042  12.906 -0.0581  0.2731  0.2593
  369TMC3    C8 5529   3.052   0.345  12.596  0.1352 -0.3967 -1.0164
  369TMC3    O1 5530   2.885   4.669  12.979 -0.4783 -0.1180  0.3671
  369TMC3    O2 5531   3.156   0.370  12.540 -0.2695  0.3372 -0.5565
  370TMC3    C1 5532   2.664   0.058  16.474 -0.7463  0.1051 -0.6591
  370TMC3    C2 5533   2.612   4.677  16.541 -0.1694  0.3825  0.8813
  370TMC3    C3 5534   2.548   4.576  16.475  0.4742  0.0184  0.4639
  370TMC3    C4 5535   2.656   0.068  16.342 -0.3267  0.7387  0.2055
  370TMC3    C5 5536   2.596   4.686  16.282 -0.0944  0.3028 -0.3687
  370TMC3    C6 5537   2.532   4.578  16.338  0.8794  0.7603  0.5521
  370TMC3     C 5538   2.776   0.116  16.544  0.4303 -0.6290 -0.5846
  370TMC3     O 5539   2.829   0.035  16.618 -0.2444  0.5075 -0.4088
  370TMC3     H 5540   2.624   4.673  16.648 -0.4023  0.6787  0.9181
  370TMC3    H1 5541   2.712   0.143  16.287  1.5357  0.3536  1.5449
  370TMC3    H2 5542   2.492   4.499  16.277  0.2707  0.1624  1.7263
  370TMC3    C7 5543   2.617   4.686  16.135 -0.4877  0.1305 -0.5592
  370TMC3    C8 5544   2.502   4.459  16.547 -0.0004 -0.2612  0.0903
  370TMC3    O1 5545   2.609   0.065  16.069  0.2459  0.1031  0.3966
  370TMC3    O2 5546   2.468   4.363  16.474  0.4128 -0.2750 -0.4384
  371TMC3    C1 5547   3.728   2.970  15.548  0.2674  0.3672  0.7580
  371TMC3    C2 5548   3.594   2.982  15.580 -0.1323 -0.4175  0.3310
  371TMC3    C3 5549   3.541   3.112  15.567  0.1720 -0.0898 -0.6020
  371TMC3    C4 5550   3.800   3.081  15.503  0.2140 -0.9096 -0.2465
  371TMC3    C5 5551   3.736   3.200  15.485 -0.1555  0.3830 -0.3912
  371TMC3    C6 5552   3.606   3.215  15.523 -0.4742 -0.5618  0.9195
  371TMC3     C 5553   3.796   2.844  15.570  0.0342  0.0255  0.0597
  371TMC3     O 5554   3.904   2.835  15.517 -0.2060 -0.1606  0.1678
  371TMC3     H 5555   3.534   2.895  15.605 -1.0537 -0.0110 -0.4812
  371TMC3    H1 5556   3.906   3.075  15.486  0.2750 -2.2407  0.5691
  371TMC3    H2 5557   3.553   3.310  15.523  0.8463  0.1865 -0.5363
  371TMC3    C7 5558   3.797   3.302  15.395 -0.0916  0.2068  0.6042
  371TMC3    C8 5559   3.400   3.118  15.582 -0.1426  0.4790  0.7710
  371TMC3    O1 5560   3.748   3.416  15.400  1.1613  0.2733  0.9035
  371TMC3    O2 5561   3.338   3.014  15.547  0.0543 -0.1555 -0.1520
  372MPD2     C 5562   3.689   4.371  13.562  0.1768 -0.4845 -0.2974
  372MPD2    C1 5563   3.781   4.276  13.593 -0.4151  0.3770  0.3490
  372MPD2    C2 5564   3.736   4.149  13.602  0.3980 -0.0072 -0.0812
  372MPD2    C3 5565   3.602   4.119  13.586  0.3342  0.1454  0.2071
  372MPD2    C4 5566   3.514   4.218  13.553 -0.1662  0.3657 -0.1142
  372MPD2    C5 5567   3.555   4.349  13.543 -0.4756  0.4319  0.3418
  372MPD2     H 5568   3.807   4.071  13.627  2.5719  1.1869 -2.4519
  372MPD2    H1 5569   3.408   4.196  13.547 -0.5887  2.3891 -0.0695
  372MPD2    H2 5570   3.713   4.477  13.566 -0.7850 -0.1941 -1.7744
  372MPD2    H3 5571   3.498   4.434  13.508 -0.9928 -0.9117 -2.0690
  372MPD2     N 5572   3.578   3.980  13.595 -0.6024  0.1352  0.2444
  372MPD2    H5 5573   3.658   3.917  13.600 -0.7655 -0.0732  0.1961
  372MPD2    N1 5574   3.914   4.311  13.617 -1.1388 -0.1221  0.3384
  372MPD2    H7 5575   3.973   4.233  13.644  0.2824  1.1549  0.9808
  373TMC3    C1 5576   3.453   3.773  13.574 -0.2010  0.2100  0.1136
  373TMC3    C2 5577   3.331   3.712  13.611  0.3152  0.1576  0.3561
  373TMC3    C3 5578   3.313   3.577  13.588  0.0544  0.0385 -0.7461
  373TMC3    C4 5579   3.553   3.697  13.512  0.2926 -0.2251 -0.8466
  373TMC3    C5 5580   3.538   3.559  13.510  0.5848 -0.1305  0.4457
  373TMC3    C6 5581   3.412   3.501  13.519  0.0200  0.4736 -0.2884
  373TMC3     C 5582   3.458   3.917  13.582 -0.2027  0.1890 -0.0262
  373TMC3     O 5583   3.344   3.967  13.598 -0.0032  0.1987 -0.3843
  373TMC3     H 5584   3.252   3.770  13.657  0.9331  0.8880  0.4915
  373TMC3    H1 5585   3.648   3.735  13.475  0.2885  0.5310 -0.0907
  373TMC3    H2 5586   3.404   3.395  13.497 -1.1462  0.1968  1.5453
  373TMC3    C7 5587   3.655   3.471  13.532 -0.2739 -0.5069  0.3312
  373TMC3    C8 5588   3.287   3.504  13.706 -0.2009  0.3086 -0.1311
  373TMC3    O1 5589   3.774   3.507  13.512  1.0008  0.6756 -0.9699
  373TMC3    O2 5590   3.345   3.396  13.724  0.2604  0.0709 -0.0392
  374TMC3    C1 5591   4.551   0.111   9.204  0.7369 -0.0454 -0.1917
  374TMC3    C2 5592   4.666   0.150   9.259  0.6280  0.2095 -0.0383
  374TMC3    C3 5593   0.034   0.207   9.170  0.5672 -0.2262  0.5887
  374TMC3    C4 5594   4.512   0.129   9.074  0.3875 -0.1048  0.7173
  374TMC3    C5 5595   4.610   0.174   8.991  0.7841  1.2130 -0.2052
  374TMC3    C6 5596   0.010   0.206   9.038 -0.1568  0.5330  0.7111
  374TMC3     C 5597   4.468   0.024   9.287  0.8425 -0.6367 -0.9465
  374TMC3     O 5598   4.502   0.020   9.406  0.2294 -0.0697 -0.8246
  374TMC3     H 5599   4.690   0.121   9.360  0.8804 -0.5515 -0.3209
  374TMC3    H1 5600   4.410   0.111   9.042  1.1137 -0.5695 -1.3281
  374TMC3    H2 5601   0.079   0.256   8.972 -1.0675  1.9556  0.8397
  374TMC3    C7 5602   4.577   0.219   8.851 -0.2922 -0.7511 -0.4809
  374TMC3    C8 5603   0.152   0.288   9.212 -0.1680 -0.2253  0.2559
  374TMC3    O1 5604   4.660   0.281   8.795  0.1373 -0.2826 -0.5281
  374TMC3    O2 5605   0.203   0.360   9.127  0.0562  0.0349  0.1563
  375MPD2     C 5606   4.064   0.261  17.514  0.1254 -0.0929  0.2951
  375MPD2    C1 5607   3.987   0.249  17.403  0.1918  0.1793 -0.0597
  375MPD2    C2 5608   4.041   0.208  17.286  0.0832  0.1686  0.1281
  375MPD2    C3 5609   4.177   0.195  17.273  0.0535 -0.2986 -1.1045
  375MPD2    C4 5610   4.258   0.211  17.382 -0.2217  0.2424  0.6723
  375MPD2    C5 5611   4.203   0.243  17.505  0.0199  0.1532  0.5495
  375MPD2     H 5612   3.973   0.200  17.202  0.8984 -0.2717 -0.5005
  375MPD2    H1 5613   4.367   0.210  17.377 -0.1586 -1.0494  2.1162
  375MPD2    H2 5614   4.020   0.289  17.609 -0.7368  0.7492 -0.3546
  375MPD2    H3 5615   4.269   0.265  17.589 -0.1881  1.2424  0.4377
  375MPD2     N 5616   4.248   0.166  17.147 -0.4467  0.4067 -0.4120
  375MPD2    H5 5617   4.349   0.182  17.143 -0.3988 -0.0880 -1.2464
  375MPD2    N1 5618   3.854   0.275  17.405 -0.5640  0.0628  0.3943
  375MPD2    H7 5619   3.802   0.243  17.324 -0.2623  4.6032 -1.6082
  376TMC3    C1 5620   4.280   0.111  16.924  0.2531 -0.1817 -0.4099
  376TMC3    C2 5621   4.415   0.143  16.938 -0.1312  0.6732 -0.3485
  376TMC3    C3 5622   4.484   0.174  16.825 -0.1972 -0.0547 -1.1038
  376TMC3    C4 5623   4.219   0.113  16.802 -0.2020  0.3718 -0.1066
  376TMC3    C5 5624   4.289   0.162  16.696  0.1424  0.3733 -0.3352
  376TMC3    C6 5625   4.421   0.189  16.709 -0.7976 -0.2369 -0.6764
  376TMC3     C 5626   4.183   0.136  17.027  0.0564 -0.2696 -0.0782
  376TMC3     O 5627   4.063   0.140  17.010  0.2947  0.3002  0.4267
  376TMC3     H 5628   4.464   0.124  17.032  0.2799  0.6593 -0.5632
  376TMC3    H1 5629   4.113   0.094  16.793 -0.0664 -0.6867  0.5341
  376TMC3    H2 5630   4.463   0.229  16.618  0.4544 -1.5290 -0.6698
  376TMC3    C7 5631   4.215   0.208  16.583  0.5444 -0.2063 -0.3759
  376TMC3    C8 5632   4.623   0.227  16.828  0.1426 -0.1861 -0.2350
  376TMC3    O1 5633   4.263   0.301  16.523 -0.5205 -0.6882  0.1922
  376TMC3    O2 5634   4.647   0.295  16.730 -0.2527  0.1263 -0.3495
  377MPD2     C 5635   2.385   0.315  12.201  0.4640 -1.1012  0.2257
  377MPD2    C1 5636   2.431   0.225  12.302  0.8011 -0.3721 -0.0224
  377MPD2    C2 5637   2.330   0.160  12.376 -0.1037 -0.2218  0.6113
  377MPD2    C3 5638   2.192   0.186  12.359  0.2628 -0.1808  0.3631
  377MPD2    C4 5639   2.157   0.271  12.252  0.1376 -0.1040  0.1494
  377MPD2    C5 5640   2.252   0.317  12.170 -0.3462 -0.7619 -0.0529
  377MPD2     H 5641   2.361   0.088  12.451 -0.4558  2.3689  3.2158
  377MPD2    H1 5642   2.055   0.298  12.229 -0.3073  0.2773  2.5829
  377MPD2    H2 5643   2.457   0.363  12.136  0.6539 -1.8656 -0.1313
  377MPD2    H3 5644   2.219   0.381  12.090  0.0200  1.0823  1.2692
  377MPD2     N 5645   2.100   0.129  12.437 -0.6700 -0.0836 -0.5830
  377MPD2    H5 5646   2.006   0.163  12.418 -0.3414 -1.2207 -4.2473
  377MPD2    N1 5647   2.566   0.201  12.312  0.3105  0.0744 -0.3629
  377MPD2    H7 5648   2.630   0.261  12.261 -0.4534  0.9541 -0.2926
  378TMC3    C1 5649   2.939   0.132  12.180 -0.2619  0.3090  0.5892
  378TMC3    C2 5650   2.806   0.142  12.214  0.2863  0.2568  0.2430
  378TMC3    C3 5651   2.769   0.097  12.341  0.2784  0.3866  0.3920
  378TMC3    C4 5652   3.034   0.089  12.267  1.1578  0.2925  0.5938
  378TMC3    C5 5653   2.993   0.050  12.397 -0.1237  0.8975  0.3228
  378TMC3    C6 5654   2.861   0.061  12.437  0.8223  0.1608  0.6119
  378TMC3     C 5655   2.970   0.184  12.048 -0.0860 -0.3360 -0.1001
  378TMC3     O 5656   2.876   0.245  11.993 -0.0736 -0.2625  0.4875
  378TMC3     H 5657   2.731   0.162  12.139  1.4484 -1.4681 -1.3767
  378TMC3    H1 5658   3.137   0.077  12.235  0.9033  0.3979 -0.2725
  378TMC3    H2 5659   2.833   0.041  12.540 -3.1434  1.6678 -0.1898
  378TMC3    C7 5660   3.094   0.003  12.491  0.4831  0.3127 -0.2954
  378TMC3    C8 5661   2.630   0.109  12.389 -0.6150  0.0990  0.6699
  378TMC3    O1 5662   3.053   4.703  12.602  0.0281 -0.7481 -0.0151
  378TMC3    O2 5663   2.593   0.041  12.482  0.2599  0.7125 -0.0478
  379MPD2     C 5664   2.524   2.297  16.152 -0.1290 -0.3235 -0.0932
  379MPD2    C1 5665   2.657   2.297  16.102 -0.3428  0.3934  0.4837
  379MPD2    C2 5666   2.767   2.334  16.178  0.4067  0.0344 -0.1179
  379MPD2    C3 5667   2.736   2.370  16.309  0.0194 -1.2202  0.0270
  379MPD2    C4 5668   2.602   2.363  16.360  0.3584  0.5653 -0.0653
  379MPD2    C5 5669   2.500   2.331  16.285 -0.0582  0.2464  0.0010
  379MPD2     H 5670   2.867   2.319  16.139  0.4227 -0.4408  0.0991
  379MPD2    H1 5671   2.580   2.381  16.465  0.7089 -2.2231  0.4931
  379MPD2    H2 5672   2.436   2.282  16.090 -1.6067 -0.0959  1.9644
  379MPD2    H3 5673   2.401   2.330  16.328 -0.7316 -0.5230 -1.5499
  379MPD2     N 5674   2.836   2.401  16.409  0.6567 -0.3536 -0.2860
  379MPD2    H5 5675   2.814   2.407  16.507  0.9432  1.1145 -0.3035
  379MPD2    N1 5676   2.672   2.263  15.970 -0.1774  0.6760 -0.6244
  379MPD2    H7 5677   2.590   2.216  15.932  0.3149 -0.8949  0.2735
  380TMC3    C1 5678   2.750   2.263  15.743  0.0764 -0.4929  0.6052
  380TMC3    C2 5679   2.859   2.236  15.670  0.1210  0.0589  0.1607
  380TMC3    C3 5680   2.858   2.246  15.536  0.3081 -0.6784  0.0073
  380TMC3    C4 5681   2.645   2.334  15.692 -0.2330  0.4685 -0.2114
  380TMC3    C5 5682   2.643   2.351  15.561  0.4661 -0.5767  0.5330
  380TMC3    C6 5683   2.745   2.299  15.483 -0.1715  0.4049 -0.0279
  380TMC3     C 5684   2.778   2.279  15.888  0.6397  0.1533  0.1493
  380TMC3     O 5685   2.896   2.313  15.907 -0.0141  0.3900  0.5802
  380TMC3     H 5686   2.948   2.186  15.706  0.0628  0.7029  1.1929
  380TMC3    H1 5687   2.565   2.355  15.762 -1.3843 -0.3279 -1.2923
  380TMC3    H2 5688   2.740   2.326  15.378  1.0116 -0.1015 -0.2092
  380TMC3    C7 5689   2.532   2.409  15.496 -0.3637  0.4373  0.2868
  380TMC3    C8 5690   2.972   2.330  15.494  0.2914  0.6091 -0.6387
  380TMC3    O1 5691   2.489   2.354  15.398 -0.1741 -0.2482  0.7738
  380TMC3    O2 5692   2.999   2.349  15.376 -0.5621  0.3668 -0.2849
  381TMC3    C1 5693   2.427   3.882  15.914  0.1448 -0.1222  0.5450
  381TMC3    C2 5694   2.553   3.901  15.947 -0.3332  0.8502  0.1560
  381TMC3    C3 5695   2.582   3.913  16.082 -0.3543  0.7486 -0.1693
  381TMC3    C4 5696   2.325   3.875  16.004  0.7666  0.8639 -0.4153
  381TMC3    C5 5697   2.360   3.885  16.131  0.1242  0.1383  0.2013
  381TMC3    C6 5698   2.488   3.906  16.180 -0.1636 -0.4003  0.1489
  381TMC3     C 5699   2.390   3.812  15.784 -0.2968 -0.6098 -0.1089
  381TMC3     O 5700   2.271   3.824  15.752 -0.4906  0.6647  0.0591
  381TMC3     H 5701   2.627   3.918  15.870 -2.2749  2.5274 -1.3631
  381TMC3    H1 5702   2.230   3.838  15.969 -0.4120  2.3428  1.2246
  381TMC3    H2 5703   2.503   3.920  16.286 -1.8088  2.0297  0.0907
  381TMC3    C7 5704   2.267   3.831  16.228  0.1833  0.8226 -0.0936
  381TMC3    C8 5705   2.708   3.986  16.120 -0.2681 -0.0244  0.0272
  381TMC3    O1 5706   2.202   3.731  16.198  0.4664  0.2673 -0.2154
  381TMC3    O2 5707   2.800   3.982  16.042 -0.0953  0.2246  0.4846
  382MPD2     C 5708   2.003   1.703  17.358  0.2781  0.6328 -0.1385
  382MPD2    C1 5709   1.936   1.713  17.481  0.1903 -0.3803 -0.0731
  382MPD2    C2 5710   1.856   1.605  17.518  0.3001  0.1657 -0.0174
  382MPD2    C3 5711   1.842   1.493  17.438  0.4687 -0.1014 -0.0203
  382MPD2    C4 5712   1.905   1.489  17.314 -0.1406  0.2448  0.5995
  382MPD2    C5 5713   1.982   1.593  17.274 -0.1194 -1.3128  0.4913
  382MPD2     H 5714   1.799   1.608  17.611 -0.7883  1.7954 -0.7410
  382MPD2    H1 5715   1.891   1.405  17.247 -0.1752 -0.4469  1.4865
  382MPD2    H2 5716   2.076   1.778  17.330 -1.5044  2.1037 -0.8534
  382MPD2    H3 5717   2.035   1.577  17.180  1.5929  4.2451  0.5308
  382MPD2     N 5718   1.766   1.378  17.472 -0.0862 -0.5062  0.0381
  382MPD2    H5 5719   1.766   1.304  17.403  1.0376 -2.0384  1.7000
  382MPD2    N1 5720   1.943   1.825  17.567 -0.4399 -0.2940 -0.1427
  382MPD2    H7 5721   1.886   1.825  17.651  1.9615  1.0191  1.4787
  383TMC3    C1 5722   1.651   1.224  17.605 -0.2024  1.1412 -0.2351
  383TMC3    C2 5723   1.587   1.177  17.500  0.3268  0.0550  0.4088
  383TMC3    C3 5724   1.505   1.069  17.514 -0.4498  0.6235 -0.4914
  383TMC3    C4 5725   1.629   1.184   0.036  0.0267  1.0455 -0.0713
  383TMC3    C5 5726   1.528   1.090   0.042  0.0180  0.1144  0.4315
  383TMC3    C6 5727   1.467   1.028  17.635 -0.2722  0.1604  0.0467
  383TMC3     C 5728   1.726   1.349  17.597  0.5765 -0.5264 -0.2685
  383TMC3     O 5729   1.731   1.418   0.001 -0.2643 -0.7625 -0.0729
  383TMC3     H 5730   1.618   1.209  17.401 -0.0539  3.6655  1.4585
  383TMC3    H1 5731   1.670   1.237   0.121 -0.3692  0.7134  0.3296
  383TMC3    H2 5732   1.392   0.952  17.652  0.1161 -0.7009 -2.1323
  383TMC3    C7 5733   1.488   1.060   0.177 -0.3468  0.0486 -0.5741
  383TMC3    C8 5734   1.411   1.030  17.403  0.2208  0.3018  0.0654
  383TMC3    O1 5735   1.497   1.153   0.253 -0.9424 -0.1742 -0.4969
  383TMC3    O2 5736   1.385   1.112  17.317  0.0929  0.2954 -0.0014
  384MPD2     C 5737   3.428   2.758  11.908  0.3067  0.4090 -0.0957
  384MPD2    C1 5738   3.442   2.657  12.004  0.3609  0.1684 -0.1075
  384MPD2    C2 5739   3.477   2.534  11.957 -0.4232  0.1058  0.3363
  384MPD2    C3 5740   3.506   2.505  11.822 -0.3389 -0.1776  0.1087
  384MPD2    C4 5741   3.490   2.603  11.728  0.0528 -0.2527  0.2035
  384MPD2    C5 5742   3.440   2.723  11.774  1.2785 -0.1857  0.6334
  384MPD2     H 5743   3.488   2.456  12.032 -0.2052  0.5426  0.7635
  384MPD2    H1 5744   3.522   2.579  11.628 -1.3061  0.5392 -0.4275
  384MPD2    H2 5745   3.411   2.858  11.945 -0.4187  0.5670 -0.8515
  384MPD2    H3 5746   3.430   2.797  11.695 -2.6951 -0.7572  0.6106
  384MPD2     N 5747   3.543   2.373  11.787  0.0758 -0.6903 -0.5338
  384MPD2    H5 5748   3.558   2.354  11.689 -0.2830 -1.8433 -0.3691
  384MPD2    N1 5749   3.441   2.670  12.141 -0.1602  1.0446 -0.3936
  384MPD2    H7 5750   3.459   2.589  12.199 -0.2888  0.1446 -1.5935
  385TMC3    C1 5751   3.578   2.149  11.824  0.2845  0.0245  0.0323
  385TMC3    C2 5752   3.708   2.163  11.789 -0.5556 -0.5161  1.0359
  385TMC3    C3 5753   3.799   2.064  11.817  0.3331  1.2076  0.3831
  385TMC3    C4 5754   3.549   2.054  11.914 -0.1922 -0.3291 -1.1622
  385TMC3    C5 5755   3.640   1.957  11.941  0.5088  0.6071  0.5320
  385TMC3    C6 5756   3.763   1.960  11.886 -0.5145 -0.1544 -0.3087
  385TMC3     C 5757   3.509   2.259  11.863  0.4010 -0.5300 -0.9835
  385TMC3     O 5758   3.460   2.250  11.977  0.4436  1.1386  0.3394
  385TMC3     H 5759   3.735   2.216  11.698 -2.5550  0.3097  0.9157
  385TMC3    H1 5760   3.443   2.034  11.927 -0.5842  1.9664 -0.7523
  385TMC3    H2 5761   3.838   1.892  11.923  0.1006  1.0053  0.5934
  385TMC3    C7 5762   3.660   1.944  12.081  0.0228  0.1237  0.1846
  385TMC3    C8 5763   3.900   2.036  11.713  0.3217  0.4637  0.6472
  385TMC3    O1 5764   3.749   1.864  12.117 -0.1671 -0.0027 -0.3250
  385TMC3    O2 5765   3.957   2.134  11.671 -0.2243  0.4345 -0.5649
  386TMC3    C1 5766   4.023   4.518  11.626  0.2810 -0.5064 -0.2094
  386TMC3    C2 5767   4.073   4.466  11.506 -0.3456  0.3653 -0.7531
  386TMC3    C3 5768   4.010   4.512  11.391  0.2045  0.2157 -0.3721
  386TMC3    C4 5769   3.933   4.614  11.635  0.3067 -0.0985 -0.4421
  386TMC3    C5 5770   3.869   4.653  11.520  1.1484 -0.4465  0.0804
  386TMC3    C6 5771   3.899   4.593  11.398 -0.1448 -0.0506  0.1869
  386TMC3     C 5772   4.129   4.521  11.730  0.1080 -0.5919  0.2801
  386TMC3     O 5773   4.170   4.630  11.769  0.1572  0.9809  0.3171
  386TMC3     H 5774   4.163   4.406  11.507 -1.1078 -0.8335 -2.9431
  386TMC3    H1 5775   3.902   4.656  11.730  0.9457 -0.1603 -0.2070
  386TMC3    H2 5776   3.843   4.626  11.311  0.6200  0.3078 -0.1702
  386TMC3    C7 5777   3.760   0.028  11.531  0.0048 -0.3853  0.4116
  386TMC3    C8 5778   4.029   4.440  11.266  0.9334 -0.0151 -0.2974
  386TMC3    O1 5779   3.713   0.031  11.641  0.0306 -0.1006  0.0643
  386TMC3    O2 5780   3.960   4.477  11.169 -0.2039  0.4333 -0.4884
  387MPD2     C 5781   1.403   0.033   9.363  0.0029  0.0095 -0.2490
  387MPD2    C1 5782   1.363   0.067   9.495 -0.6610  0.5671  0.0548
  387MPD2    C2 5783   1.284   4.703   9.567 -0.7338  0.0362  0.3638
  387MPD2    C3 5784   1.249   4.584   9.508 -0.6102  0.4998  0.4751
  387MPD2    C4 5785   1.281   4.558   9.377 -0.6080  0.2765 -0.2847
  387MPD2    C5 5786   1.346   4.650   9.304  0.0764  0.1101  0.2805
  387MPD2     H 5787   1.264   0.002   9.671  0.0416 -1.4632  0.8361
  387MPD2    H1 5788   1.243   4.467   9.332  1.7268  0.1398 -1.9789
  387MPD2    H2 5789   1.466   0.099   9.304  1.0104 -0.9617 -0.2559
  387MPD2    H3 5790   1.359   4.633   9.197  0.1267  1.1806  0.1173
  387MPD2     N 5791   1.194   4.487   9.597 -0.7641 -0.1203  0.1800
  387MPD2    H5 5792   1.183   4.529   9.689  2.5488  0.4024  0.3061
  387MPD2    N1 5793   1.419   0.177   9.566 -0.1859  0.0475  0.0934
  387MPD2    H7 5794   1.386   0.193   9.660 -1.3257 -0.9481 -0.1425
  388TMC3    C1 5795   1.517   0.376   9.636  0.4032  0.1385  0.4196
  388TMC3    C2 5796   1.531   0.508   9.618  0.4500 -0.1046 -0.5185
  388TMC3    C3 5797   1.567   0.581   9.728  0.5350 -0.0405 -0.0369
  388TMC3    C4 5798   1.543   0.314   9.753 -0.1753  0.1169  0.5256
  388TMC3    C5 5799   1.570   0.397   9.858 -0.3998 -0.1285  0.1198
  388TMC3    C6 5800   1.587   0.529   9.851 -0.2595 -0.2759  0.1551
  388TMC3     C 5801   1.493   0.286   9.522  0.2996 -0.0783  0.4465
  388TMC3     O 5802   1.502   0.331   9.408  0.0986 -0.0950 -0.2574
  388TMC3     H 5803   1.490   0.550   9.526  2.6326  1.8742 -0.5710
  388TMC3    H1 5804   1.549   0.207   9.772 -0.6992  0.0371  0.2642
  388TMC3    H2 5805   1.592   0.588   9.942 -2.5018  3.1288 -1.9111
  388TMC3    C7 5806   1.588   0.329   9.987 -0.0371  0.0883  0.2414
  388TMC3    C8 5807   1.583   0.726   9.722  0.4074 -0.3907 -0.1113
  388TMC3    O1 5808   1.674   0.364  10.063  0.3864  0.1764  0.4590
  388TMC3    O2 5809   1.577   0.783   9.835 -0.2525 -0.2488  0.4168
  389MPD2     C 5810   1.361   2.839  11.379 -0.1811  0.1351  0.1562
  389MPD2    C1 5811   1.316   2.731  11.306  0.3031 -0.0365 -0.0707
  389MPD2    C2 5812   1.191   2.673  11.326  0.0998 -0.1778  0.5109
  389MPD2    C3 5813   1.115   2.716  11.432  0.2684 -0.0075  0.4690
  389MPD2    C4 5814   1.170   2.812  11.515  0.1073  0.2388  0.0489
  389MPD2    C5 5815   1.287   2.876  11.488 -0.3565  0.3436  0.4225
  389MPD2     H 5816   1.150   2.592  11.267 -0.6240  0.2036  0.4854
  389MPD2    H1 5817   1.101   2.853  11.587 -0.1421 -0.9837  0.5074
  389MPD2    H2 5818   1.450   2.895  11.356  0.2596 -1.9124 -3.2385
  389MPD2    H3 5819   1.326   2.960  11.544  0.1504  0.9466 -0.8227
  389MPD2     N 5820   0.985   2.672  11.467 -0.1671 -0.5508 -0.0789
  389MPD2    H5 5821   0.937   2.726  11.539 -2.3429 -3.7159  0.8528
  389MPD2    N1 5822   1.389   2.706  11.181  0.2916 -0.6157 -0.5965
  389MPD2    H7 5823   1.467   2.769  11.161 -0.9247  0.7972 -0.8558
  390TMC3    C1 5824   0.775   2.564  11.438 -0.0370 -0.2896  0.1157
  390TMC3    C2 5825   0.737   2.625  11.555  0.6236 -0.3684  0.1859
  390TMC3    C3 5826   0.603   2.663  11.551 -0.2299  0.3646  0.1758
  390TMC3    C4 5827   0.690   2.541  11.339 -0.2302  0.5142 -0.0275
  390TMC3    C5 5828   0.562   2.582  11.342 -0.1929  0.2822  0.1603
  390TMC3    C6 5829   0.518   2.643  11.453 -0.5030 -0.9432  0.3668
  390TMC3     C 5830   0.911   2.580  11.393 -0.3498 -1.2539  1.0967
  390TMC3     O 5831   0.946   2.511  11.300  0.4181 -0.9672 -0.0867
  390TMC3     H 5832   0.798   2.625  11.644 -0.2833 -1.1643  0.8045
  390TMC3    H1 5833   0.721   2.484  11.251 -0.2274  1.3215 -0.5488
  390TMC3    H2 5834   0.417   2.683  11.461  0.5907  2.3704 -2.3424
  390TMC3    C7 5835   0.471   2.490  11.276  0.6850  0.0342 -0.0646
  390TMC3    C8 5836   0.535   2.635  11.673 -0.3926  0.1168  0.8950
  390TMC3    O1 5837   0.526   2.404  11.206 -0.4451  0.5246  0.0410
  390TMC3    O2 5838   0.516   2.713  11.765  0.1525  1.1106 -0.1130
  391MPD2     C 5839   0.473   4.410  10.652 -0.6925  0.0537 -0.8743
  391MPD2    C1 5840   0.523   4.533  10.687  0.3498 -0.1648  0.1628
  391MPD2    C2 5841   0.509   4.645  10.605  0.2921  0.8515  0.2319
  391MPD2    C3 5842   0.465   4.625  10.472 -0.4490  0.0866  0.5307
  391MPD2    C4 5843   0.437   4.500  10.434  0.1383  0.2614  0.1792
  391MPD2    C5 5844   0.429   4.391  10.525  0.5726 -0.0928  0.1770
  391MPD2     H 5845   0.544   0.019  10.636  0.4466  0.5804  0.9145
  391MPD2    H1 5846   0.402   4.480  10.333  2.2093 -2.2474 -0.0462
  391MPD2    H2 5847   0.490   4.325  10.717  2.9004  0.2824 -1.4788
  391MPD2    H3 5848   0.402   4.291  10.494 -0.1072  0.4342 -0.9480
  391MPD2     N 5849   0.468   0.009  10.375 -0.2456  0.6213  0.2935
  391MPD2    H5 5850   0.521   0.092  10.397 -1.7065  1.1454  1.8263
  391MPD2    N1 5851   0.562   4.541  10.823  0.2662  0.2915 -0.2644
  391MPD2    H7 5852   0.549   4.454  10.875 -2.0106  0.3992 -0.6499
  392TMC3    C1 5853   0.405   0.138  10.189 -0.4650  0.5395  0.0741
  392TMC3    C2 5854   0.363   0.153  10.054  0.2305  0.5090  0.0765
  392TMC3    C3 5855   0.399   0.264   9.979 -0.0885  0.2177 -0.2988
  392TMC3    C4 5856   0.456   0.248  10.248 -0.0595 -0.9233 -0.1155
  392TMC3    C5 5857   0.480   0.361  10.178 -0.2780  0.3327  0.4195
  392TMC3    C6 5858   0.445   0.371  10.047  0.0087  0.1130  0.9506
  392TMC3     C 5859   0.404   0.006  10.254 -0.1004 -0.0947  1.1624
  392TMC3     O 5860   0.344   4.638  10.193  0.3774  0.2064  0.1904
  392TMC3     H 5861   0.333   0.062  10.004  0.4819 -0.1094  1.0524
  392TMC3    H1 5862   0.480   0.250  10.353  0.9650  0.4289 -0.3804
  392TMC3    H2 5863   0.439   0.468   9.999  0.7567 -0.6873 -0.7643
  392TMC3    C7 5864   0.554   0.463  10.246 -0.2784 -0.0498 -0.7743
  392TMC3    C8 5865   0.348   0.271   9.845 -0.6977 -0.1908  0.1176
  392TMC3    O1 5866   0.532   0.492  10.361  0.2022 -0.0497  0.5585
  392TMC3    O2 5867   0.266   0.187   9.810  0.5678  0.2599 -0.1587
  393TMC3    C1 5868   4.137   3.149  10.476 -0.0559  0.2034  0.7426
  393TMC3    C2 5869   4.021   3.170  10.405 -0.6037 -0.7393  0.2770
  393TMC3    C3 5870   3.939   3.061  10.391 -0.6148 -0.3734 -0.0936
  393TMC3    C4 5871   4.172   3.027  10.525 -0.1121  0.2909 -0.1048
  393TMC3    C5 5872   4.081   2.925  10.514 -0.4648 -0.0617  0.5325
  393TMC3    C6 5873   3.961   2.942  10.457  0.4827  0.0306  0.5746
  393TMC3     C 5874   4.226   3.261  10.485  0.2759  0.2680 -0.1879
  393TMC3     O 5875   4.188   3.359  10.425  0.2625  0.6846  1.0803
  393TMC3     H 5876   3.994   3.268  10.368  1.5305 -0.5255 -0.6892
  393TMC3    H1 5877   4.264   3.010  10.579  1.7917  0.4188 -3.3232
  393TMC3    H2 5878   3.891   2.860  10.449 -2.4875  2.3646  2.3675
  393TMC3    C7 5879   4.117   2.792  10.558  0.1883  0.3191 -0.1703
  393TMC3    C8 5880   3.814   3.063  10.326  0.1366  0.7355  0.2528
  393TMC3    O1 5881   4.029   2.706  10.554 -0.0677  0.0795 -0.7432
  393TMC3    O2 5882   3.737   2.967  10.319 -0.2945  0.7302  0.1372
  394TMC3    C1 5883   1.459   2.568  11.008 -0.5800  0.5759  0.4363
  394TMC3    C2 5884   1.407   2.488  10.900 -0.5855 -0.5117  0.2080
  394TMC3    C3 5885   1.466   2.495  10.775  0.4326  1.8350 -0.2621
  394TMC3    C4 5886   1.573   2.640  10.989 -0.3391  1.0610 -0.0819
  394TMC3    C5 5887   1.632   2.639  10.863 -0.4970  0.7015  0.0356
  394TMC3    C6 5888   1.575   2.577  10.755 -0.0173 -0.3109 -0.6250
  394TMC3     C 5889   1.367   2.594  11.111 -0.6057 -0.5708  0.2582
  394TMC3     O 5890   1.256   2.534  11.099  0.2335  0.4627 -0.0489
  394TMC3     H 5891   1.321   2.423  10.912 -0.7003 -0.2409  0.9017
  394TMC3    H1 5892   1.612   2.708  11.064 -1.0759  0.3971  0.9003
  394TMC3    H2 5893   1.630   2.586  10.662 -0.2734  4.0946 -0.3504
  394TMC3    C7 5894   1.722   2.749  10.838  0.5959  0.1124 -0.6184
  394TMC3    C8 5895   1.426   2.394  10.678  0.1015  0.6546 -0.5936
  394TMC3    O1 5896   1.699   2.817  10.741 -0.5142 -0.1883  0.0619
  394TMC3    O2 5897   1.358   2.303  10.726 -0.3112  0.0026  0.2935
  395TMC3    C1 5898   4.476   0.184  14.956 -0.3528 -0.1737 -0.9279
  395TMC3    C2 5899   4.536   0.070  14.919 -0.1061 -0.2165  0.5368
  395TMC3    C3 5900   4.628   0.081  14.826 -0.4644 -0.3830  0.4908
  395TMC3    C4 5901   4.507   0.307  14.918 -0.3848  0.4198  0.1402
  395TMC3    C5 5902   4.611   0.318  14.827 -1.4818  0.1381  0.7461
  395TMC3    C6 5903   4.670   0.202  14.781 -0.5127 -0.1794  0.7629
  395TMC3     C 5904   4.423   0.192  15.088 -0.0898  0.0311  0.2067
  395TMC3     O 5905   4.499   0.239  15.171 -0.1916  0.4967 -0.3930
  395TMC3     H 5906   4.518   4.704  14.977 -1.4379 -0.4195 -0.2031
  395TMC3    H1 5907   4.459   0.394  14.960  0.2202  0.1821  1.3478
  395TMC3    H2 5908   0.022   0.222  14.705 -2.5077  0.4896 -1.0514
  395TMC3    C7 5909   4.696   0.433  14.848 -1.4962 -0.2071 -0.5346
  395TMC3    C8 5910   4.715   4.697  14.792 -0.3206  0.6076  0.0773
  395TMC3    O1 5911   0.097   0.419  14.851  0.2225 -0.0911  0.1253
  395TMC3    O2 5912   0.085   4.717  14.719  0.3126  0.2841  0.0108
  396MPD2     C 5913   4.623   1.386  16.886 -0.2807 -0.1472 -0.2726
  396MPD2    C1 5914   0.022   1.430  16.933 -0.3668 -0.3193  0.1952
  396MPD2    C2 5915   0.081   1.549  16.885  0.6274 -0.4171  0.2854
  396MPD2    C3 5916   0.024   1.622  16.779  0.1457  0.1010  0.1236
  396MPD2    C4 5917   4.632   1.572  16.732  0.1811 -0.5312  0.3414
  396MPD2    C5 5918   4.568   1.457  16.786 -0.4528 -0.1252  0.6672
  396MPD2     H 5919   0.177   1.580  16.924 -0.6399  0.3657  2.7711
  396MPD2    H1 5920   4.576   1.622  16.654  0.2069 -0.4974  0.3442
  396MPD2    H2 5921   4.570   1.305  16.935  2.2104 -0.6583  1.6145
  396MPD2    H3 5922   4.467   1.429  16.760  0.1472 -0.1646 -1.6294
  396MPD2     N 5923   0.091   1.735  16.730 -0.4193  0.2378  0.0760
  396MPD2    H5 5924   0.183   1.754  16.768  0.5624  0.3438 -2.3537
  396MPD2    N1 5925   0.080   1.353  17.033  0.0378 -0.0559 -0.5298
  396MPD2    H7 5926   0.029   1.276  17.075 -0.2166 -1.6013 -3.6101
  397TMC3    C1 5927   0.239   1.281  17.205 -0.1146 -0.3859  0.3988
  397TMC3    C2 5928   0.365   1.299  17.263 -0.5680 -0.4115  0.4801
  397TMC3    C3 5929   0.444   1.192  17.292  0.6775 -0.5706 -0.0427
  397TMC3    C4 5930   0.197   1.152  17.180  1.2345  0.3450  0.2112
  397TMC3    C5 5931   0.272   1.054  17.245 -0.0897 -0.6433 -0.1702
  397TMC3    C6 5932   0.398   1.069  17.304 -1.1849  0.6467  0.0133
  397TMC3     C 5933   0.206   1.371  17.091  0.4101 -0.1486 -0.1022
  397TMC3     O 5934   0.284   1.464  17.081  0.1079  0.2685  0.3367
  397TMC3     H 5935   0.414   1.395  17.250  0.0307 -0.7897 -0.0525
  397TMC3    H1 5936   0.099   1.136  17.136  0.6852 -0.1593  1.6009
  397TMC3    H2 5937   0.462   0.987  17.337 -1.4273 -0.1576 -1.4966
  397TMC3    C7 5938   0.186   0.938  17.285  0.3367 -0.3403  0.5765
  397TMC3    C8 5939   0.586   1.205  17.323  0.6299 -0.1662  0.4926
  397TMC3    O1 5940   0.074   0.928  17.237 -0.1132  0.0744  0.4212
  397TMC3    O2 5941   0.632   1.130  17.408  0.4354  0.1195  0.1724
  398MPD2     C 5942   2.922   1.920   0.210 -0.5716 -0.7359  0.4889
  398MPD2    C1 5943   2.917   1.803   0.286 -0.1346  0.3383  0.5694
  398MPD2    C2 5944   2.926   1.807   0.423 -0.3783 -0.2938  0.0488
  398MPD2    C3 5945   2.945   1.920   0.485 -0.2371 -0.1645 -0.0705
  398MPD2    C4 5946   2.946   2.042   0.410 -0.0527 -0.7459  0.0970
  398MPD2    C5 5947   2.940   2.040   0.273 -0.3638  0.8377 -0.3212
  398MPD2     H 5948   2.917   1.715   0.479 -0.1580 -0.5380 -0.3136
  398MPD2    H1 5949   2.954   2.141   0.454  2.1234 -0.5073 -0.8321
  398MPD2    H2 5950   2.921   1.930   0.102 -0.9671 -1.9664  0.3731
  398MPD2    H3 5951   2.942   2.130   0.213  4.5772 -0.0785 -1.4739
  398MPD2     N 5952   2.934   1.903   0.622  0.3130  0.0685 -1.0538
  398MPD2    H5 5953   2.920   1.809   0.658 -0.0913  1.8029  3.2848
  398MPD2    N1 5954   2.918   1.676   0.222 -0.2082  0.5648 -0.2694
  398MPD2    H7 5955   2.935   1.603   0.290  0.3111  0.4459 -0.5276
  399TMC3    C1 5956   2.875   1.503   0.079 -0.0274  0.3986  0.1812
  399TMC3    C2 5957   2.923   1.427   0.182 -0.1401  0.0393  0.1359
  399TMC3    C3 5958   2.876   1.299   0.200  0.4308 -1.1834  0.6290
  399TMC3    C4 5959   2.778   1.454  17.686 -0.0105  0.4551 -0.0052
  399TMC3    C5 5960   2.728   1.328   0.024  0.4364  0.4049  0.2665
  399TMC3    C6 5961   2.783   1.243   0.120 -0.3330 -0.2217  0.2188
  399TMC3     C 5962   2.892   1.645   0.090  0.6328 -0.4124 -0.5822
  399TMC3     O 5963   2.858   1.711  17.687 -0.5855 -0.2798 -0.6902
  399TMC3     H 5964   3.016   1.451   0.233  0.1473  0.1433 -0.4412
  399TMC3    H1 5965   2.733   1.529  17.623 -0.4163  1.7671  1.8460
  399TMC3    H2 5966   2.725   1.157   0.152 -2.2668  0.4225 -1.4829
  399TMC3    C7 5967   2.611   1.282  17.655  0.3945  0.3771 -0.1868
  399TMC3    C8 5968   2.914   1.232   0.325 -0.8712 -1.4952 -0.2536
  399TMC3    O1 5969   2.584   1.163  17.668 -0.3313 -0.2662  0.4233
  399TMC3    O2 5970   2.968   1.309   0.401  0.4395 -0.8912  0.2116
  400TMC3    C1 5971   1.470   0.732  17.059 -0.3261 -0.5537 -0.0574
  400TMC3    C2 5972   1.353   0.738  16.995  0.4443  0.4370 -0.3899
  400TMC3    C3 5973   1.314   0.858  16.946  0.2845  0.5157  0.2049
  400TMC3    C4 5974   1.554   0.833  17.083 -0.9589 -0.4817 -0.3343
  400TMC3    C5 5975   1.507   0.957  17.039 -0.2396 -0.0784 -0.4808
  400TMC3    C6 5976   1.390   0.966  16.966 -0.5327 -0.2506 -0.2205
  400TMC3     C 5977   1.514   0.603  17.092  0.0296  0.0778  0.3423
  400TMC3     O 5978   1.426   0.518  17.106 -0.4975  0.0797 -0.2680
  400TMC3     H 5979   1.291   0.649  16.992  1.0902 -0.0073 -0.4830
  400TMC3    H1 5980   1.635   0.830  17.155 -0.5729 -1.4779 -0.8168
  400TMC3    H2 5981   1.356   1.062  16.928  0.2365 -0.6122 -1.8548
  400TMC3    C7 5982   1.600   1.067  17.028 -0.5067 -0.2877  0.7723
  400TMC3    C8 5983   1.198   0.869  16.865  1.0006 -0.0169  0.5745
  400TMC3    O1 5984   1.721   1.049  17.039 -0.6429 -0.3820 -0.1772
  400TMC3    O2 5985   1.152   0.984  16.849 -0.9644  0.0356 -0.2919
  401MPD2     C 5986   4.338   4.084   1.102  0.1418 -0.1771  0.2561
  401MPD2    C1 5987   4.454   4.017   1.096  0.5147 -0.2217 -0.3541
  401MPD2    C2 5988   4.466   3.895   1.040 -0.4679 -0.4849 -0.0383
  401MPD2    C3 5989   4.351   3.827   1.001 -0.4038  0.4966  0.1430
  401MPD2    C4 5990   4.231   3.884   1.027 -0.2793 -0.1155 -0.2576
  401MPD2    C5 5991   4.224   4.018   1.068  0.2756 -0.4753 -0.6218
  401MPD2     H 5992   4.555   3.833   1.036  2.3133  3.5349 -0.4591
  401MPD2    H1 5993   4.138   3.828   1.030  1.2566 -2.7328 -1.7597
  401MPD2    H2 5994   4.315   4.183   1.141  1.0975 -0.1851  0.8474
  401MPD2    H3 5995   4.128   4.060   1.094 -0.0688 -1.8203  0.2771
  401MPD2     N 5996   4.362   3.695   0.949  0.2687  0.3290 -0.1467
  401MPD2    H5 5997   4.451   3.659   0.918 -0.5046 -0.9339 -0.9129
  401MPD2    N1 5998   4.573   4.059   1.164 -0.1598 -0.3155 -0.0890
  401MPD2    H7 5999   4.645   3.987   1.162 -0.5274 -0.5703 -3.7120
  402TMC3    C1 6000   4.332   3.474   0.938  0.1631 -0.3397 -0.7156
  402TMC3    C2 6001   4.308   3.370   1.028 -0.2429  0.0304  0.0751
  402TMC3    C3 6002   4.386   3.258   1.022  0.7718  0.6415 -0.1308
  402TMC3    C4 6003   4.435   3.465   0.847  0.0746 -0.2580  0.0545
  402TMC3    C5 6004   4.510   3.348   0.847  0.4667 -0.2642  0.1626
  402TMC3    C6 6005   4.490   3.247   0.935 -0.4352 -0.0586 -0.3729
  402TMC3     C 6006   4.271   3.594   0.966  0.2888 -0.5034 -0.5474
  402TMC3     O 6007   4.169   3.593   1.036  0.3387 -0.4165 -0.3171
  402TMC3     H 6008   4.229   3.387   1.101 -0.0487 -0.3572  0.3738
  402TMC3    H1 6009   4.443   3.533   0.763 -0.0281  1.2874  1.2887
  402TMC3    H2 6010   4.559   3.164   0.935  0.0828  0.3775  0.0812
  402TMC3    C7 6011   4.637   3.361   0.774  0.1632 -0.4497 -0.1908
  402TMC3    C8 6012   4.388   3.164   1.133  0.7155  0.0674  0.0652
  402TMC3    O1 6013   4.666   3.471   0.733  0.3050  0.3282 -0.6028
  402TMC3    O2 6014   4.476   3.079   1.136  0.2473  0.0410 -0.1059
  403MPD2     C 6015   3.049   2.363  13.571  0.0396 -0.4828 -0.2548
  403MPD2    C1 6016   3.159   2.335  13.491  0.4237 -0.2369 -0.3118
  403MPD2    C2 6017   3.283   2.364  13.548 -0.0415 -0.1013  0.6480
  403MPD2    C3 6018   3.293   2.431  13.673  0.3804  0.4814 -0.0064
  403MPD2    C4 6019   3.181   2.451  13.747 -0.4562 -0.1392 -0.4547
  403MPD2    C5 6020   3.059   2.412  13.701 -0.3163  0.3347 -0.2511
  403MPD2     H 6021   3.367   2.333  13.487  1.3442  0.3743  2.3086
  403MPD2    H1 6022   3.195   2.485  13.849  0.3757 -1.9132  0.0388
  403MPD2    H2 6023   2.953   2.324  13.539 -0.7626 -0.5322  2.1908
  403MPD2    H3 6024   2.964   2.432  13.748 -0.9694  0.5924 -1.6786
  403MPD2     N 6025   3.420   2.453  13.731  0.1202  0.2872  0.9427
  403MPD2    H5 6026   3.496   2.404  13.686  1.0425  1.1299  1.6064
  403MPD2    N1 6027   3.135   2.276  13.368 -1.0740 -0.1121  0.6099
  403MPD2    H7 6028   3.043   2.241  13.343 -1.3994  1.0257  0.2245
  404TMC3    C1 6029   3.185   2.160  13.171  0.4921  0.1894 -0.1741
  404TMC3    C2 6030   3.140   2.049  13.225  0.3715 -0.5696  0.3033
  404TMC3    C3 6031   3.144   1.934  13.151  0.1049  0.4884  0.3537
  404TMC3    C4 6032   3.231   2.166  13.046 -0.5277  0.3476  0.0408
  404TMC3    C5 6033   3.229   2.053  12.971 -1.0462  0.0970 -0.4439
  404TMC3    C6 6034   3.183   1.936  13.021  0.4830 -0.4176  0.1619
  404TMC3     C 6035   3.226   2.259  13.268 -0.7283  0.6854 -0.4255
  404TMC3     O 6036   3.345   2.282  13.258 -0.3417 -0.5145 -0.2591
  404TMC3     H 6037   3.130   2.048  13.333 -1.2877  1.9363  0.1849
  404TMC3    H1 6038   3.274   2.255  13.003  0.8352  0.0371  0.7445
  404TMC3    H2 6039   3.187   1.841  12.968 -0.7010 -0.5516  0.3164
  404TMC3    C7 6040   3.235   2.070  12.825  0.3255  0.5637  0.1476
  404TMC3    C8 6041   3.178   1.812  13.225 -1.0242 -0.6391  0.6454
  404TMC3    O1 6042   3.278   2.174  12.778 -0.3336  0.1919  0.4573
  404TMC3    O2 6043   3.237   1.722  13.173 -0.7346 -0.6818 -0.0948
  405MPD2     C 6044   3.469   2.988  14.732  0.1709 -1.0013 -0.1541
  405MPD2    C1 6045   3.436   2.886  14.643  0.2253 -0.0104  0.8397
  405MPD2    C2 6046   3.435   2.930  14.510 -0.5891  0.6106 -0.0233
  405MPD2    C3 6047   3.447   3.059  14.471  0.5863  0.3954  0.6582
  405MPD2    C4 6048   3.483   3.152  14.566  0.1747 -0.2091 -0.9948
  405MPD2    C5 6049   3.490   3.121  14.697  0.4855 -0.3677  0.3738
  405MPD2     H 6050   3.394   2.871  14.428  1.0572 -0.8268  0.1910
  405MPD2    H1 6051   3.511   3.254  14.545  2.8293 -0.7848 -0.2534
  405MPD2    H2 6052   3.474   2.965  14.838  1.0059  1.9872  0.4677
  405MPD2    H3 6053   3.507   3.196  14.772 -1.4552  1.2654 -0.8035
  405MPD2     N 6054   3.410   3.089  14.341 -0.0424  0.1712 -0.1435
  405MPD2    H5 6055   3.379   3.014  14.279  1.6830 -0.4248 -0.2673
  405MPD2    N1 6056   3.425   2.751  14.682  0.0706  0.1571  0.1937
  405MPD2    H7 6057   3.434   2.732  14.781  3.0774 -1.2116 -0.3250
  406TMC3    C1 6058   3.091   3.200  14.106  0.5247  0.6780 -0.3272
  406TMC3    C2 6059   3.109   3.081  14.040 -0.5404  0.4262  0.4717
  406TMC3    C3 6060   3.234   3.022  14.041  0.5464  0.0676 -0.3621
  406TMC3    C4 6061   3.190   3.265  14.178  0.0234  0.4411  0.2759
  406TMC3    C5 6062   3.315   3.211  14.167  0.6151  0.9949 -0.0702
  406TMC3    C6 6063   3.340   3.101  14.089 -0.3764  0.5528  0.1774
  406TMC3     C 6064   2.954   3.232  14.139  0.2106 -0.0545  0.9624
  406TMC3     O 6065   2.875   3.140  14.156  0.2925  0.2516 -0.1767
  406TMC3     H 6066   3.023   3.034  13.993  1.4082 -1.4378 -1.2342
  406TMC3    H1 6067   3.168   3.357  14.230 -1.4328 -0.5186  1.3541
  406TMC3    H2 6068   3.445   3.074  14.086 -0.1373  1.4851  0.1473
  406TMC3    C7 6069   3.381   3.211  14.296 -0.6911 -0.0358  0.1975
  406TMC3    C8 6070   3.242   2.890  14.100 -0.1974  0.0520  0.2051
  406TMC3    O1 6071   3.375   3.317  14.361  0.2305 -0.2446  0.4474
  406TMC3    O2 6072   3.347   2.864  14.156 -0.0814  0.5135  0.2089
  407MPD2     C 6073   0.888   4.012   9.962  0.2405 -0.3353  0.6640
  407MPD2    C1 6074   0.900   4.129   9.892  0.1645 -0.1704 -0.5693
  407MPD2    C2 6075   0.930   4.251   9.961 -0.0490  0.1863  0.1489
  407MPD2    C3 6076   0.970   4.245  10.094 -0.0410 -0.3065  0.0788
  407MPD2    C4 6077   0.952   4.123  10.160  0.0135 -0.6992  0.8027
  407MPD2    C5 6078   0.917   4.007  10.093  0.0451  0.0417  0.0749
  407MPD2     H 6079   0.938   4.343   9.905  0.5968 -0.3238 -0.5975
  407MPD2    H1 6080   0.967   4.135  10.267 -2.1371  0.7573  0.9187
  407MPD2    H2 6081   0.864   3.918   9.913  3.7204 -1.0973  0.3789
  407MPD2    H3 6082   0.905   3.913  10.145 -0.8937 -1.6304 -3.1754
  407MPD2     N 6083   1.011   4.355  10.176  0.1168  0.4365 -0.2762
  407MPD2    H5 6084   1.033   4.345  10.274 -0.8164 -0.8992 -0.1916
  407MPD2    N1 6085   0.891   4.134   9.748  0.1690  0.6514 -0.0483
  407MPD2    H7 6086   0.889   4.225   9.703  0.6048 -0.3396 -2.0718
  408TMC3    C1 6087   0.897   4.049   9.528  0.8021 -0.3577 -0.5819
  408TMC3    C2 6088   0.958   3.943   9.459 -0.1360  0.4979 -0.1226
  408TMC3    C3 6089   1.012   3.973   9.335 -0.1513 -1.1001 -0.0240
  408TMC3    C4 6090   0.890   4.181   9.487 -0.2184 -0.3729 -0.0944
  408TMC3    C5 6091   0.927   4.191   9.358  0.7152 -0.8855  0.4212
  408TMC3    C6 6092   0.991   4.098   9.280 -0.5137 -0.2238 -0.5422
  408TMC3     C 6093   0.891   4.021   9.668  0.0610  0.6386 -0.5327
  408TMC3     O 6094   0.908   3.905   9.693 -0.1968 -0.0204  0.0247
  408TMC3     H 6095   0.958   3.839   9.488  2.2153  1.2561  2.6007
  408TMC3    H1 6096   0.831   4.254   9.542  1.2194 -0.0339  0.9879
  408TMC3    H2 6097   1.028   4.130   9.184 -1.3343  0.7591 -0.5345
  408TMC3    C7 6098   0.915   4.316   9.284 -0.1540  0.0574  0.1488
  408TMC3    C8 6099   1.146   3.919   9.334 -0.6908  0.4909  0.1087
  408TMC3    O1 6100   0.886   4.307   9.165 -0.2788 -0.2823  0.0401
  408TMC3    O2 6101   1.144   3.795   9.331  0.3824  0.4136  0.4343
  409MPD2     C 6102   0.145   0.506  17.052 -0.4799  0.5572 -0.1199
  409MPD2    C1 6103   0.269   0.494  17.116  0.2235 -0.2850 -0.1111
  409MPD2    C2 6104   0.354   0.592  17.106 -0.6896  0.9695 -0.9846
  409MPD2    C3 6105   0.332   0.702  17.024  1.1206  0.0101 -0.2449
  409MPD2    C4 6106   0.216   0.703  16.948  0.0897  0.4067  0.2833
  409MPD2    C5 6107   0.114   0.610  16.968 -0.3672  0.3523 -0.1713
  409MPD2     H 6108   0.448   0.587  17.158 -2.1481  2.7237  1.8359
  409MPD2    H1 6109   0.198   0.784  16.879 -1.0276  0.2148  0.3494
  409MPD2    H2 6110   0.066   0.433  17.067  0.4697 -0.6672 -1.1742
  409MPD2    H3 6111   0.018   0.611  16.917 -0.0868  2.4158 -0.6740
  409MPD2     N 6112   0.423   0.810  17.016 -0.0728  0.2984  0.0976
  409MPD2    H5 6113   0.411   0.880  16.944  2.5341  2.0616  1.3656
  409MPD2    N1 6114   0.300   0.396  17.211  0.2080  0.0587  0.1540
  409MPD2    H7 6115   0.391   0.408  17.253  0.0131  1.1538  0.2401
  410TMC3    C1 6116   0.620   0.912  17.041 -0.6471  0.1738  0.3527
  410TMC3    C2 6117   0.717   0.954  17.126  0.0425  0.1912 -0.2592
  410TMC3    C3 6118   0.817   1.028  17.071  0.2245  0.0023 -0.7773
  410TMC3    C4 6119   0.622   0.938  16.904  0.3213  0.7360  0.4156
  410TMC3    C5 6120   0.728   1.013  16.852 -0.1512  0.2354 -0.5584
  410TMC3    C6 6121   0.823   1.062  16.937 -0.1446 -0.5168 -0.2798
  410TMC3     C 6122   0.530   0.815  17.095  0.2337 -0.3399 -0.3068
  410TMC3     O 6123   0.553   0.771  17.204  0.1653 -0.1826  0.0842
  410TMC3     H 6124   0.724   0.932  17.232 -1.7008 -3.3373 -0.8578
  410TMC3    H1 6125   0.549   0.896  16.836 -1.4740 -1.1066  3.5002
  410TMC3    H2 6126   0.913   1.114  16.903 -0.1191  0.8917  1.9019
  410TMC3    C7 6127   0.721   1.050  16.715  0.1501  0.1749  0.6384
  410TMC3    C8 6128   0.944   1.008  17.138  0.2092 -0.2379  1.0157
  410TMC3    O1 6129   0.649   0.983  16.645 -0.3276 -1.0297 -0.3519
  410TMC3    O2 6130   1.012   1.107  17.151 -0.4490  0.1229 -0.1973
  411MPD2     C 6131   0.858   1.348  14.618 -0.5045  0.7076 -0.1194
  411MPD2    C1 6132   0.757   1.362  14.714  0.0363 -0.5561 -0.6452
  411MPD2    C2 6133   0.656   1.272  14.707  0.3294 -0.0484 -0.0631
  411MPD2    C3 6134   0.655   1.171  14.612 -0.1491  0.2713  1.0817
  411MPD2    C4 6135   0.756   1.157  14.517 -0.7360 -0.6985 -1.3310
  411MPD2    C5 6136   0.854   1.250  14.525  0.5258 -0.2602 -0.7503
  411MPD2     H 6137   0.571   1.287  14.772 -1.7700 -1.1412 -2.5623
  411MPD2    H1 6138   0.758   1.068  14.455 -0.2898 -3.4594  2.7056
  411MPD2    H2 6139   0.941   1.417  14.619  0.1451 -0.0618 -2.1849
  411MPD2    H3 6140   0.944   1.244  14.464 -0.5015 -0.2721 -2.2426
  411MPD2     N 6141   0.545   1.080  14.597  0.0701 -0.3187  0.4976
  411MPD2    H5 6142   0.551   1.021  14.514 -0.4077 -1.5701  1.3533
  411MPD2    N1 6143   0.754   1.478  14.800 -0.1256  0.4281 -0.5230
  411MPD2    H7 6144   0.834   1.539  14.788 -0.5140  0.5414 -2.5062
  412TMC3    C1 6145   0.330   0.981  14.640 -0.4404  0.4071  0.3324
  412TMC3    C2 6146   0.207   1.027  14.603 -1.1403  0.5569 -0.0860
  412TMC3    C3 6147   0.138   0.949  14.516 -0.4433  0.7002 -0.4895
  412TMC3    C4 6148   0.382   0.864  14.585 -0.1339 -0.4297  0.8774
  412TMC3    C5 6149   0.311   0.790  14.498  0.1441  1.0010  1.0675
  412TMC3    C6 6150   0.188   0.834  14.462  0.0074  0.1871 -0.0074
  412TMC3     C 6151   0.427   1.086  14.673  0.2060  0.0219 -0.3419
  412TMC3     O 6152   0.385   1.168  14.754 -0.0592  0.2015  0.2349
  412TMC3     H 6153   0.189   1.131  14.629  1.6856  1.3037 -1.1802
  412TMC3    H1 6154   0.481   0.830  14.611  1.0397  2.8713  0.7253
  412TMC3    H2 6155   0.129   0.783  14.385  2.3266 -3.9281  0.9298
  412TMC3    C7 6156   0.374   0.730  14.384  0.5996  0.8895  0.1181
  412TMC3    C8 6157   0.076   1.028  14.412  0.8665  0.9022 -0.2955
  412TMC3    O1 6158   0.327   0.757  14.272 -0.3319  0.3156 -0.2909
  412TMC3    O2 6159   0.000   1.124  14.433  0.0902 -0.2405 -0.0042
  413MPD2     C 6160   2.312   4.258  15.549  0.1177  0.5293  0.2699
  413MPD2    C1 6161   2.218   4.168  15.496  0.3588 -0.0768  0.0547
  413MPD2    C2 6162   2.266   4.045  15.452  0.0571 -0.6966  0.0993
  413MPD2    C3 6163   2.398   4.009  15.464 -0.0344  0.7304 -0.3378
  413MPD2    C4 6164   2.481   4.099  15.524  0.4749 -0.2670  0.3402
  413MPD2    C5 6165   2.433   4.214  15.573  0.9398 -0.0060  0.5171
  413MPD2     H 6166   2.199   3.966  15.421 -0.4406  0.1435 -0.9428
  413MPD2    H1 6167   2.585   4.079  15.549  0.6006  0.0689  0.0852
  413MPD2    H2 6168   2.275   4.356  15.578  2.2435  2.4646 -3.6380
  413MPD2    H3 6169   2.499   4.279  15.631 -1.5702  0.9207  2.3460
  413MPD2     N 6170   2.425   3.882  15.411 -0.0867 -0.1638 -0.2689
  413MPD2    H5 6171   2.351   3.820  15.380  0.6798 -0.2807 -1.8746
  413MPD2    N1 6172   2.089   4.215  15.480  0.0944 -0.3646 -0.3225
  413MPD2    H7 6173   2.071   4.309  15.516  1.7887 -0.6812  1.3406
  414TMC3    C1 6174   2.562   3.704  15.343  0.8215  0.4911 -0.4522
  414TMC3    C2 6175   2.682   3.638  15.349 -0.5983 -0.1260 -0.4870
  414TMC3    C3 6176   2.695   3.523  15.278  0.2788 -0.7961 -0.4518
  414TMC3    C4 6177   2.466   3.665  15.250  0.3094 -0.3549 -0.0950
  414TMC3    C5 6178   2.496   3.561  15.168 -0.1833 -0.4706 -0.5531
  414TMC3    C6 6179   2.610   3.477  15.184 -0.1719 -0.1748  0.1376
  414TMC3     C 6180   2.549   3.827  15.416  0.3487 -0.5077  0.4206
  414TMC3     O 6181   2.654   3.881  15.447  0.0709 -0.3888 -0.2066
  414TMC3     H 6182   2.757   3.683  15.413  1.5172 -0.5725 -2.6442
  414TMC3    H1 6183   2.374   3.721  15.243 -0.6329 -1.5634  2.7298
  414TMC3    H2 6184   2.626   3.402  15.107  1.1378 -0.0851  0.3229
  414TMC3    C7 6185   2.431   3.567  15.031  0.2312  0.3187 -0.4861
  414TMC3    C8 6186   2.829   3.462  15.273  0.7987  1.1390  0.7155
  414TMC3    O1 6187   2.370   3.467  15.000 -0.0826 -0.3096 -0.1483
  414TMC3    O2 6188   2.823   3.352  15.219  0.6615  0.3492 -0.2637
  415TMC3    C1 6189   3.429   2.224  10.131  0.6168 -0.5734 -0.3632
  415TMC3    C2 6190   3.545   2.233  10.062  0.8586 -0.3160  0.2177
  415TMC3    C3 6191   3.547   2.204   9.927  0.2531  0.0926 -0.0335
  415TMC3    C4 6192   3.322   2.160  10.072  0.3029 -0.8882 -0.3979
  415TMC3    C5 6193   3.330   2.132   9.938  0.5433  0.8671 -0.1851
  415TMC3    C6 6194   3.442   2.140   9.862 -0.4602 -0.0388 -0.6532
  415TMC3     C 6195   3.431   2.226  10.275 -0.0985  0.6929 -0.4589
  415TMC3     O 6196   3.351   2.150  10.332  0.1902 -0.0989  0.4825
  415TMC3     H 6197   3.639   2.266  10.105  0.0428 -0.7366  2.3384
  415TMC3    H1 6198   3.231   2.152  10.130  1.1963  0.0277  1.1427
  415TMC3    H2 6199   3.447   2.121   9.756  1.1712 -0.8189 -0.4330
  415TMC3    C7 6200   3.209   2.076   9.883  0.2387  0.0369 -0.4761
  415TMC3    C8 6201   3.674   2.150   9.898 -0.3608  0.2571  0.7213
  415TMC3    O1 6202   3.184   2.087   9.762  0.5709  0.0097  0.5217
  415TMC3    O2 6203   3.662   2.034   9.857 -0.2625 -0.4826 -0.5305
  416MPD2     C 6204   0.567   1.114  11.510  0.4774 -0.2612  0.9915
  416MPD2    C1 6205   0.462   1.114  11.423 -0.2208 -0.3391 -0.4249
  416MPD2    C2 6206   0.457   1.018  11.320 -0.8376 -0.4367 -0.3346
  416MPD2    C3 6207   0.539   0.902  11.334 -0.0938  0.2782 -0.4054
  416MPD2    C4 6208   0.641   0.900  11.431  0.5220  0.4375  0.8998
  416MPD2    C5 6209   0.657   1.010  11.514 -0.0818  0.2812  0.2558
  416MPD2     H 6210   0.379   1.020  11.245 -0.1804  0.9417 -0.9955
  416MPD2    H1 6211   0.707   0.813  11.427  0.2342  0.0625  3.7387
  416MPD2    H2 6212   0.567   1.205  11.570 -1.9140 -0.0391  0.6507
  416MPD2    H3 6213   0.754   1.013  11.561 -0.8315  0.2416  1.8068
  416MPD2     N 6214   0.531   0.795  11.248 -0.2535  0.2466  0.4199
  416MPD2    H5 6215   0.588   0.715  11.274  1.1250  0.2027 -2.8445
  416MPD2    N1 6216   0.356   1.203  11.446  0.3006 -0.5299 -0.2301
  416MPD2    H7 6217   0.363   1.270  11.522 -0.3638  0.3176 -0.9120
  417TMC3    C1 6218   0.162   1.315  11.434  0.0561  0.2959  0.0161
  417TMC3    C2 6219   0.113   1.270  11.552  0.1788  0.2944  0.1793
  417TMC3    C3 6220   4.718   1.311  11.600  0.1602 -0.4630 -0.0164
  417TMC3    C4 6221   0.079   1.384  11.351 -0.5202  0.0544  0.7876
  417TMC3    C5 6222   4.679   1.418  11.399 -0.0845  0.0901 -0.2521
  417TMC3    C6 6223   4.633   1.388  11.524 -0.4208 -0.2145 -0.5104
  417TMC3     C 6224   0.241   1.213  11.376  0.0429  0.1333  0.1342
  417TMC3     O 6225   0.200   1.146  11.284 -0.2626 -0.7973 -0.2019
  417TMC3     H 6226   0.167   1.196  11.609  0.4963  0.3137 -0.0967
  417TMC3    H1 6227   0.094   1.385  11.244 -0.2856 -0.6286  0.8136
  417TMC3    H2 6228   4.545   1.433  11.567 -0.4743 -0.4162 -0.4043
  417TMC3    C7 6229   4.610   1.521  11.327  0.3489 -0.2263 -0.7674
  417TMC3    C8 6230   4.716   1.324  11.747 -0.1009 -0.4076 -0.2828
  417TMC3    O1 6231   4.681   1.605  11.269  0.4135  0.6106 -0.0796
  417TMC3    O2 6232   4.610   1.326  11.806  0.0631 -0.3070 -0.3095
  418TMC3    C1 6233   3.080   1.914   1.057  0.2106 -0.3121  0.6688
  418TMC3    C2 6234   3.057   1.998   0.948 -0.4179  0.1641 -0.3263
  418TMC3    C3 6235   2.968   1.954   0.856 -0.3514 -0.5259  0.1422
  418TMC3    C4 6236   2.996   1.809   1.078  0.1710  0.2816 -0.5513
  418TMC3    C5 6237   2.893   1.787   0.990 -0.4236  0.1649  0.0712
  418TMC3    C6 6238   2.877   1.862   0.880 -0.6045  0.2708  0.0844
  418TMC3     C 6239   3.221   1.890   1.073 -0.3760  0.1486  0.1036
  418TMC3     O 6240   3.287   1.990   1.073 -0.7945  0.6750 -0.2295
  418TMC3     H 6241   3.125   2.078   0.920  0.1113  0.6630  2.3645
  418TMC3    H1 6242   3.023   1.745   1.162 -0.0563  2.2643  1.0361
  418TMC3    H2 6243   2.794   1.833   0.816 -0.0404 -0.5294 -0.2884
  418TMC3    C7 6244   2.829   1.653   0.993 -0.5088 -0.2271  0.0502
  418TMC3    C8 6245   2.983   1.990   0.714 -0.4065  0.5950 -0.2196
  418TMC3    O1 6246   2.793   1.599   0.889 -0.3671  0.0625 -0.0122
  418TMC3    O2 6247   3.016   2.105   0.697 -0.1436  0.0813  0.0217
  419MPD2     C 6248   2.408   0.701  12.455  0.4380  0.7384  0.4264
  419MPD2    C1 6249   2.310   0.793  12.428 -0.2547 -0.0201  0.0475
  419MPD2    C2 6250   2.238   0.847  12.529 -0.1545 -0.3357 -0.1909
  419MPD2    C3 6251   2.257   0.802  12.660 -0.1423 -0.0786  0.2990
  419MPD2    C4 6252   2.362   0.721  12.683 -0.2921  0.4893 -0.9661
  419MPD2    C5 6253   2.423   0.655  12.583  0.7770 -0.6082 -0.4627
  419MPD2     H 6254   2.167   0.928  12.517  1.8362  1.2838 -1.0138
  419MPD2    H1 6255   2.386   0.693  12.785  0.4123 -1.3460 -1.6373
  419MPD2    H2 6256   2.452   0.643  12.374  0.4630  0.2130  0.8133
  419MPD2    H3 6257   2.505   0.588  12.608  1.4010 -0.3417 -1.8170
  419MPD2     N 6258   2.186   0.869  12.758  0.1582 -0.4597  0.0724
  419MPD2    H5 6259   2.104   0.924  12.736  0.9412 -0.4852 -2.8975
  419MPD2    N1 6260   2.293   0.849  12.295 -0.3640 -0.0050  0.1417
  419MPD2    H7 6261   2.220   0.920  12.297  1.0154  1.4168  0.8895
  420TMC3    C1 6262   2.126   0.952  12.969 -0.2678 -0.4404  0.4009
  420TMC3    C2 6263   2.066   1.056  12.901 -0.2761 -0.3500  0.2350
  420TMC3    C3 6264   1.949   1.112  12.953 -0.1958 -0.0081 -0.3144
  420TMC3    C4 6265   2.089   0.928  13.101  0.1910  0.2532  0.0585
  420TMC3    C5 6266   1.996   1.011  13.158 -0.1920 -0.2658  0.0347
  420TMC3    C6 6267   1.919   1.093  13.086  0.6142 -0.0901  0.0709
  420TMC3     C 6268   2.209   0.871  12.894  0.0325  0.4222  0.0061
  420TMC3     O 6269   2.287   0.810  12.966  0.1402  0.2299 -0.1669
  420TMC3     H 6270   2.096   1.078  12.799 -1.1050 -0.7954 -0.1036
  420TMC3    H1 6271   2.146   0.860  13.163 -0.0305  0.2419  0.2485
  420TMC3    H2 6272   1.832   1.144  13.126  1.0605  0.5409  0.2333
  420TMC3    C7 6273   1.956   0.971  13.295  0.2216  0.5392 -0.7623
  420TMC3    C8 6274   1.862   1.183  12.861 -0.3527  0.2776 -0.2955
  420TMC3    O1 6275   1.992   0.863  13.340 -0.0005 -0.2926 -0.5617
  420TMC3    O2 6276   1.903   1.209  12.749 -0.3043  0.3657  0.1255
  421TMC3    C1 6277   3.590   2.523  13.876 -0.0845 -0.5150 -0.1108
  421TMC3    C2 6278   3.651   2.630  13.931  0.6866  0.2369  0.2632
  421TMC3    C3 6279   3.785   2.634  13.931  0.7069 -0.2520 -0.2401
  421TMC3    C4 6280   3.659   2.408  13.843 -0.4862 -0.0918 -0.1869
  421TMC3    C5 6281   3.798   2.421  13.850  0.2023  0.3293 -0.0039
  421TMC3    C6 6282   3.866   2.533  13.890 -0.0445  0.1298 -0.0159
  421TMC3     C 6283   3.450   2.534  13.839  0.3869  0.0277  0.3325
  421TMC3     O 6284   3.384   2.621  13.894 -0.5465 -0.2848  0.3805
  421TMC3     H 6285   3.593   2.722  13.934  0.4441  0.1648 -1.9551
  421TMC3    H1 6286   3.609   2.315  13.818 -1.2827  0.5493 -0.9797
  421TMC3    H2 6287   3.974   2.528  13.905 -0.0389 -2.7122 -1.0115
  421TMC3    C7 6288   3.879   2.299  13.833  0.8750  0.4401 -0.1667
  421TMC3    C8 6289   3.858   2.750  13.985  0.5111 -0.0779 -0.3611
  421TMC3    O1 6290   3.988   2.297  13.885  0.6852 -0.2176  0.2665
  421TMC3    O2 6291   3.975   2.764  13.949  0.0622  0.2204 -0.0360
  422TMC3    C1 6292   1.024   3.891  12.429 -0.4388 -0.2521  0.2747
  422TMC3    C2 6293   1.008   4.017  12.475  0.4190  0.7768  0.9561
  422TMC3    C3 6294   0.896   4.041  12.544 -0.1505 -0.7805 -0.2063
  422TMC3    C4 6295   0.944   3.787  12.461 -0.0730 -0.0986 -0.3830
  422TMC3    C5 6296   0.842   3.821  12.550  0.3266 -0.1480 -0.0356
  422TMC3    C6 6297   0.808   3.945  12.584 -0.1562  0.4020  0.9045
  422TMC3     C 6298   1.113   3.880  12.308  0.5545 -0.1233 -0.0576
  422TMC3     O 6299   1.158   3.986  12.258  0.3129 -0.0365 -0.0778
  422TMC3     H 6300   1.066   4.094  12.426 -1.5465  1.2113 -0.6973
  422TMC3    H1 6301   0.953   3.689  12.415 -0.3645 -0.2035 -0.2138
  422TMC3    H2 6302   0.723   3.959  12.649 -0.4225  3.6607 -0.1274
  422TMC3    C7 6303   0.740   3.716  12.572  1.0021 -0.2397  0.5513
  422TMC3    C8 6304   0.852   4.184  12.538  0.0186  0.2405 -0.2832
  422TMC3    O1 6305   0.747   3.637  12.476  0.5826 -0.2509  0.3922
  422TMC3    O2 6306   0.934   4.270  12.513 -0.9481 -0.3718  0.3181
  423MPD2     C 6307   2.472   4.395   0.577 -0.1214 -0.4911 -0.2777
  423MPD2    C1 6308   2.367   4.328   0.532 -0.3954 -0.1794 -0.3002
  423MPD2    C2 6309   2.351   4.314   0.397  0.4199 -0.6035 -0.3118
  423MPD2    C3 6310   2.443   4.357   0.297  1.2800  0.0493  0.2306
  423MPD2    C4 6311   2.544   4.425   0.350  0.0340 -0.3432 -0.6966
  423MPD2    C5 6312   2.560   4.448   0.485  0.5485 -0.0846 -0.3810
  423MPD2     H 6313   2.274   4.245   0.364 -0.8103  0.1219  1.0239
  423MPD2    H1 6314   2.612   4.478   0.283  1.3509  0.7348  1.4888
  423MPD2    H2 6315   2.475   4.433   0.678  0.8239 -0.1739 -0.4217
  423MPD2    H3 6316   2.642   4.514   0.510 -1.6540  1.7081  2.1686
  423MPD2     N 6317   2.429   4.332   0.155 -1.6235  0.5574 -0.6806
  423MPD2    H5 6318   2.484   4.393   0.095  0.4427 -0.9284 -0.3361
  423MPD2    N1 6319   2.269   4.282   0.620  0.6425 -0.4759  0.0772
  423MPD2    H7 6320   2.172   4.281   0.590  0.2850 -1.1291  1.2572
  424TMC3    C1 6321   2.167   4.201   0.816  0.3729  0.2687 -0.3665
  424TMC3    C2 6322   2.187   4.126   0.931 -0.6799  0.0819  0.5425
  424TMC3    C3 6323   2.085   4.094   1.018 -0.2135  0.6094 -0.6212
  424TMC3    C4 6324   2.040   4.253   0.798  0.2591  0.5577  0.0625
  424TMC3    C5 6325   1.941   4.215   0.887  0.7784 -0.6074 -0.2787
  424TMC3    C6 6326   1.954   4.136   0.999 -0.0358 -0.0303 -0.1330
  424TMC3     C 6327   2.286   4.261   0.757  0.6542  0.5047 -0.3565
  424TMC3     O 6328   2.383   4.262   0.825 -0.4893 -0.3277  0.0161
  424TMC3     H 6329   2.290   4.094   0.946 -1.1329 -1.8316 -0.3494
  424TMC3    H1 6330   2.023   4.329   0.722 -0.0311  1.1311  0.6963
  424TMC3    H2 6331   1.878   4.086   1.056 -0.5786  0.8039 -0.1209
  424TMC3    C7 6332   1.816   4.285   0.879  0.0853 -0.5241 -0.2613
  424TMC3    C8 6333   2.116   3.999   1.121  0.9656  0.0931  0.1340
  424TMC3    O1 6334   1.779   4.321   0.769  0.5934  0.1220  0.1634
  424TMC3    O2 6335   2.223   3.940   1.121 -0.1460  0.1043  0.1097
  425MPD2     C 6336   1.337   3.840  17.133 -1.0305 -0.4269  0.0453
  425MPD2    C1 6337   1.266   3.720  17.138  0.4060 -0.0325 -0.2402
  425MPD2    C2 6338   1.137   3.711  17.192  0.4840  0.4371 -0.1900
  425MPD2    C3 6339   1.077   3.833  17.217  0.1003  0.1260  0.1851
  425MPD2    C4 6340   1.140   3.955  17.200  0.7629  0.3511 -0.2083
  425MPD2    C5 6341   1.273   3.958  17.162 -0.2463 -1.1033  0.0146
  425MPD2     H 6342   1.071   3.624  17.195 -0.3935  1.1967  2.2577
  425MPD2    H1 6343   1.084   4.045  17.224 -0.6390 -0.4742 -0.3728
  425MPD2    H2 6344   1.433   3.847  17.082 -1.1415  0.8864  0.0246
  425MPD2    H3 6345   1.325   4.052  17.148  1.3378 -2.2122 -1.4473
  425MPD2     N 6346   0.949   3.820  17.271  0.3205  0.2847 -0.6106
  425MPD2    H5 6347   0.908   3.727  17.272  0.1509  0.3618 -0.3144
  425MPD2    N1 6348   1.340   3.604  17.091  0.1672  0.3455  0.0521
  425MPD2    H7 6349   1.439   3.607  17.068  0.1089 -1.0225 -0.3503
  426TMC3    C1 6350   1.391   3.375  17.048 -0.2752 -0.4203  0.0616
  426TMC3    C2 6351   1.353   3.265  16.973  0.3330 -0.8000 -0.1226
  426TMC3    C3 6352   1.440   3.161  16.948 -0.6300 -0.3436  0.4695
  426TMC3    C4 6353   1.519   3.380  17.102  0.0894 -0.7031  0.3111
  426TMC3    C5 6354   1.601   3.272  17.079  0.3409 -0.8010 -0.7723
  426TMC3    C6 6355   1.564   3.168  16.997 -0.4075 -0.0406 -0.2146
  426TMC3     C 6356   1.295   3.476  17.088 -0.2517  0.7041  1.2122
  426TMC3     O 6357   1.182   3.440  17.113 -0.1953 -0.0010 -0.6228
  426TMC3     H 6358   1.252   3.260  16.935  0.5429 -0.1451 -0.7821
  426TMC3    H1 6359   1.552   3.456  17.173  0.5675  0.2653 -0.9452
  426TMC3    H2 6360   1.623   3.078  16.984 -0.3112  0.3531 -2.5933
  426TMC3    C7 6361   1.695   3.244  17.184 -0.1258  0.5539 -0.4689
  426TMC3    C8 6362   1.401   3.045  16.865 -0.8293 -0.1503  0.1632
  426TMC3    O1 6363   1.767   3.152  17.156 -0.0699  0.1366  0.1507
  426TMC3    O2 6364   1.489   2.972  16.827 -0.0980  0.1436 -0.1600
  427MPD2     C 6365   4.715   1.276  14.949  0.1523 -0.2385 -0.7674
  427MPD2    C1 6366   4.681   1.253  15.079 -0.7006  0.0554  0.1316
  427MPD2    C2 6367   4.559   1.305  15.125  0.2149  0.4115  0.1536
  427MPD2    C3 6368   4.470   1.374  15.044  0.8833 -0.6574  0.6331
  427MPD2    C4 6369   4.506   1.388  14.912  0.6316 -0.4567 -0.0480
  427MPD2    C5 6370   4.624   1.343  14.865 -0.2613  0.4964  0.4601
  427MPD2     H 6371   4.528   1.303  15.229  1.1453  0.9396  0.4392
  427MPD2    H1 6372   4.437   1.436  14.844  1.6852  2.2521  0.7947
  427MPD2    H2 6373   0.086   1.244  14.906 -0.4189 -0.2193 -2.0237
  427MPD2    H3 6374   4.653   1.351  14.761 -2.3226  1.0817 -0.0628
  427MPD2     N 6375   4.340   1.411  15.095  0.0659  0.0728 -0.6182
  427MPD2    H5 6376   4.269   1.440  15.029  0.5199 -0.2984 -1.2636
  427MPD2    N1 6377   0.050   1.178  15.152 -0.1952 -0.1945 -0.3068
  427MPD2    H7 6378   0.132   1.140  15.105  0.2808  1.1172 -0.5090
  428TMC3    C1 6379   0.160   1.097  15.332  0.0363  0.6697 -0.6000
  428TMC3    C2 6380   0.131   0.995  15.416 -1.1349 -0.7878 -0.4865
  428TMC3    C3 6381   0.186   0.987  15.543  0.2089  0.1777  1.2469
  428TMC3    C4 6382   0.247   1.193  15.372  0.2944  0.0902 -1.4016
  428TMC3    C5 6383   0.308   1.182  15.496 -0.0002  0.2283  0.1284
  428TMC3    C6 6384   0.269   1.089  15.584  0.3370 -0.6279 -0.2031
  428TMC3     C 6385   0.040   1.159  15.284 -0.2292  0.2748  0.2381
  428TMC3     O 6386   4.671   1.177  15.364  0.7176 -0.3230  0.0693
  428TMC3     H 6387   0.048   0.933  15.385 -1.2543 -1.0865  0.4292
  428TMC3    H1 6388   0.254   1.284  15.315 -0.9981 -0.3024 -2.2006
  428TMC3    H2 6389   0.329   1.074  15.673  1.2198 -0.3622 -0.7541
  428TMC3    C7 6390   0.422   1.263  15.530 -0.2510  0.3198  0.5962
  428TMC3    C8 6391   0.151   0.872  15.616  0.4064 -0.7954  0.8863
  428TMC3    O1 6392   0.461   1.250  15.645  0.2320 -0.4015  0.1941
  428TMC3    O2 6393   0.094   0.785  15.555  0.2810  0.6871  0.7577
  429MPD2     C 6394   0.722   1.582  17.464  0.4025  0.6366 -0.3646
  429MPD2    C1 6395   0.834   1.533  17.527  0.5398  0.1154 -0.2007
  429MPD2    C2 6396   0.955   1.587  17.500  0.1760  0.2115  0.3937
  429MPD2    C3 6397   0.970   1.691  17.414 -0.9832 -0.3676 -0.4654
  429MPD2    C4 6398   0.853   1.737  17.352 -0.0822 -0.0342 -0.5305
  429MPD2    C5 6399   0.732   1.682  17.379  0.4099 -0.2119 -0.2869
  429MPD2     H 6400   1.042   1.550  17.552 -0.2118  0.5779  1.3095
  429MPD2    H1 6401   0.848   1.826  17.292  2.2524  0.9947  0.8074
  429MPD2    H2 6402   0.621   1.548  17.484 -0.0487  1.5663 -1.1131
  429MPD2    H3 6403   0.639   1.719  17.336 -2.7075 -2.8426  4.1189
  429MPD2     N 6404   1.091   1.751  17.395  0.0364 -0.4854  0.1023
  429MPD2    H5 6405   1.165   1.699  17.440 -0.7039 -1.4412  0.1991
  429MPD2    N1 6406   0.825   1.421  17.619 -0.4055 -0.0123 -0.1894
  429MPD2    H7 6407   0.910   1.383  17.660 -0.6986 -1.0958 -0.5950
  430TMC3    C1 6408   1.237   1.920  17.325 -0.4241  0.4574 -0.4431
  430TMC3    C2 6409   1.241   2.046  17.282  0.2600  0.4919 -0.1451
  430TMC3    C3 6410   1.349   2.089  17.195  0.0752  0.1281  0.1593
  430TMC3    C4 6411   1.329   1.828  17.285  0.1238  0.3478 -0.4235
  430TMC3    C5 6412   1.424   1.868  17.204 -0.3756  0.1971  0.0993
  430TMC3    C6 6413   1.437   1.996  17.156 -0.6708  0.8487  0.0271
  430TMC3     C 6414   1.102   1.876  17.330  0.0515  0.7404 -0.7692
  430TMC3     O 6415   1.022   1.953  17.279 -0.5096 -0.5340 -0.2380
  430TMC3     H 6416   1.165   2.121  17.304 -0.0039  0.4037 -0.7527
  430TMC3    H1 6417   1.346   1.731  17.331 -0.1754  0.6228  0.2701
  430TMC3    H2 6418   1.524   2.024  17.099  0.7432 -1.4575  1.0584
  430TMC3    C7 6419   1.533   1.779  17.173 -0.0284  0.5648  0.3807
  430TMC3    C8 6420   1.295   2.144  17.075  0.8227 -0.7757  0.0805
  430TMC3    O1 6421   1.629   1.833  17.125 -0.0657 -0.1268 -0.1289
  430TMC3    O2 6422   1.335   2.097  16.968  0.5530 -0.2074  0.1556
  431MPD2     C 6423   2.057   1.497  12.414  0.2178 -0.3390  0.0327
  431MPD2    C1 6424   2.139   1.524  12.304 -0.0288 -0.1784  0.2219
  431MPD2    C2 6425   2.137   1.439  12.200 -0.1199 -0.1065 -0.7226
  431MPD2    C3 6426   2.070   1.321  12.211 -0.1634  0.8705  1.2945
  431MPD2    C4 6427   1.983   1.294  12.313 -0.2447 -0.5967  0.1311
  431MPD2    C5 6428   1.974   1.389  12.409 -0.0108 -0.5818  0.1211
  431MPD2     H 6429   2.214   1.453  12.125 -0.8192  1.8152 -1.0761
  431MPD2    H1 6430   1.925   1.203  12.318 -0.3442 -0.5524 -0.2045
  431MPD2    H2 6431   2.042   1.568  12.495  3.2184  1.5979 -1.1098
  431MPD2    H3 6432   1.902   1.387  12.490  1.3152  0.4034  1.3239
  431MPD2     N 6433   2.091   1.224  12.117  0.2143  0.0221 -0.2220
  431MPD2    H5 6434   2.055   1.132  12.141  2.8808 -1.5397 -2.2707
  431MPD2    N1 6435   2.229   1.637  12.296 -0.0809 -0.7189  0.0798
  431MPD2    H7 6436   2.289   1.637  12.214 -0.4447  1.2698 -0.1909
  432TMC3    C1 6437   2.233   1.098  11.977  0.0348 -0.6417 -0.3006
  432TMC3    C2 6438   2.288   1.081  11.857 -0.8498 -0.0742  0.6260
  432TMC3    C3 6439   2.369   0.972  11.846 -0.2630  0.0199 -0.2940
  432TMC3    C4 6440   2.267   1.030  12.090  0.5038 -0.3051  0.2095
  432TMC3    C5 6441   2.334   0.914  12.064  0.4578  0.3441  0.1199
  432TMC3    C6 6442   2.390   0.881  11.947  0.1252 -0.0264 -0.2230
  432TMC3     C 6443   2.185   1.231  12.016 -0.2807 -0.5786 -0.2153
  432TMC3     O 6444   2.242   1.317  11.950  0.7222 -0.2942 -0.1885
  432TMC3     H 6445   2.273   1.141  11.769  1.0977 -1.1324 -0.4296
  432TMC3    H1 6446   2.237   1.059  12.190  0.1437  1.5532 -0.4471
  432TMC3    H2 6447   2.443   0.788  11.935  1.5301  0.8546 -0.8362
  432TMC3    C7 6448   2.350   0.816  12.176 -0.0351  0.0878  0.2700
  432TMC3    C8 6449   2.472   0.985  11.754  1.0011  0.0399  0.0159
  432TMC3    O1 6450   2.419   0.717  12.152  0.3654 -0.3345  0.0082
  432TMC3    O2 6451   2.584   0.974  11.805  0.3856  0.0243 -0.0118
  433MPD2     C 6452   1.086   0.386  10.879  0.1621 -0.0284  0.3663
  433MPD2    C1 6453   1.121   0.306  10.981  0.6721  0.4692 -0.0610
  433MPD2    C2 6454   1.166   0.364  11.101 -0.7668  0.2803  0.1967
  433MPD2    C3 6455   1.165   0.500  11.119 -0.2380 -0.6482 -0.1107
  433MPD2    C4 6456   1.124   0.576  11.013 -0.2533 -0.0519 -0.0960
  433MPD2    C5 6457   1.098   0.520  10.895  0.5347  0.4124 -0.2120
  433MPD2     H 6458   1.208   0.301  11.178 -0.9100  1.9243  1.6040
  433MPD2    H1 6459   1.129   0.684  11.010 -0.4760 -0.0230  0.8361
  433MPD2    H2 6460   1.052   0.338  10.788  1.0333  0.6180 -0.2906
  433MPD2    H3 6461   1.063   0.592  10.823  1.2148  1.7831  0.8272
  433MPD2     N 6462   1.212   0.554  11.243 -0.0453 -0.3799 -0.3956
  433MPD2    H5 6463   1.239   0.484  11.312 -0.7684  0.6580  0.9416
  433MPD2    N1 6464   1.110   0.167  10.955 -0.5045  0.2504 -0.5287
  433MPD2    H7 6465   1.092   0.139  10.859  0.1827 -2.1203  0.0328
  434TMC3    C1 6466   1.141   4.653  11.004 -0.0198  0.7945  0.1148
  434TMC3    C2 6467   1.234   4.590  11.075 -0.0907  0.1530  0.5293
  434TMC3    C3 6468   1.286   4.479  11.025  0.5471  0.0721 -0.5704
  434TMC3    C4 6469   1.103   4.614  10.878  0.4286 -0.1981 -0.7532
  434TMC3    C5 6470   1.168   4.495  10.828 -0.3854 -0.2669 -0.6941
  434TMC3    C6 6471   1.258   4.430  10.903 -0.6921 -0.0381 -0.7056
  434TMC3     C 6472   1.129   0.069  11.048  0.8616  0.3966  0.2968
  434TMC3     O 6473   1.130   0.084  11.170 -0.2747  0.1457  0.3989
  434TMC3     H 6474   1.260   4.627  11.173  0.0205 -1.5609  1.1556
  434TMC3    H1 6475   1.010   4.649  10.836  1.1645  2.2793 -0.2890
  434TMC3    H2 6476   1.297   4.334  10.871 -2.6563 -2.0853  3.0275
  434TMC3    C7 6477   1.118   4.433  10.706  0.4643  0.2998  0.2585
  434TMC3    C8 6478   1.388   4.421  11.115 -0.3081  0.7665 -0.5778
  434TMC3    O1 6479   1.014   4.483  10.669 -0.0938 -0.7012 -0.4905
  434TMC3    O2 6480   1.370   4.420  11.238 -0.0629 -0.9161 -0.3058
  435MPD2     C 6481   2.913   0.274  15.670  0.1837  0.4529  0.6612
  435MPD2    C1 6482   2.873   0.228  15.799  0.4998  0.3506  0.0021
  435MPD2    C2 6483   2.952   0.125  15.850 -0.3355 -0.4282 -0.0086
  435MPD2    C3 6484   3.067   0.077  15.782 -0.3741 -0.2186 -0.3340
  435MPD2    C4 6485   3.116   0.146  15.672 -0.0850 -0.0779  0.0927
  435MPD2    C5 6486   3.032   0.231  15.612  0.7805  0.0823  0.4434
  435MPD2     H 6487   2.928   0.081  15.946 -0.2321 -1.5958 -0.5061
  435MPD2    H1 6488   3.203   0.108  15.619 -0.0925 -0.2115  0.1754
  435MPD2    H2 6489   2.860   0.350  15.613 -2.3486  0.1243  2.5718
  435MPD2    H3 6490   3.061   0.266  15.514  0.6798 -0.4628  0.2244
  435MPD2     N 6491   3.130   4.683  15.833  0.8405 -0.1413  0.3018
  435MPD2    H5 6492   3.085   4.633  15.909  0.6772 -0.6342 -0.1130
  435MPD2    N1 6493   2.772   0.281  15.880  0.4866  0.3851  0.0622
  435MPD2    H7 6494   2.759   0.245  15.974  1.8756  0.5858  0.3176
  436TMC3    C1 6495   2.506   0.413  16.169 -0.5101 -0.6084  0.5809
  436TMC3    C2 6496   2.607   0.384  16.081 -0.8401  1.0892 -0.0006
  436TMC3    C3 6497   2.570   0.390  15.944 -0.2567 -0.3821  0.2896
  436TMC3    C4 6498   2.385   0.463  16.124 -0.0998 -0.1185  1.2350
  436TMC3    C5 6499   2.350   0.460  15.990  0.5450 -0.4271  0.4482
  436TMC3    C6 6500   2.445   0.423  15.900  0.4857  0.2817 -0.5120
  436TMC3     C 6501   2.537   0.408  16.314  0.0830 -0.1598  0.5719
  436TMC3     O 6502   2.652   0.390  16.349 -0.2493 -0.2207 -0.3860
  436TMC3     H 6503   2.700   0.338  16.113  0.1187  0.9875 -2.8784
  436TMC3    H1 6504   2.313   0.501  16.195 -1.3192 -0.6465  0.2753
  436TMC3    H2 6505   2.428   0.434  15.794  0.7301 -0.8521 -0.6742
  436TMC3    C7 6506   2.212   0.465  15.942 -0.3896 -0.5245 -0.0229
  436TMC3    C8 6507   2.669   0.369  15.836  0.1831 -0.2745  0.0941
  436TMC3    O1 6508   2.190   0.445  15.822  0.4819  0.3444 -0.4015
  436TMC3    O2 6509   2.643   0.399  15.722  0.0293 -0.2288  0.1199
  437TMC3    C1 6510   1.292   2.253  12.900 -0.8413 -0.3910 -0.8833
  437TMC3    C2 6511   1.164   2.272  12.859  0.2791  0.1044 -0.2147
  437TMC3    C3 6512   1.140   2.336  12.739 -0.1762  0.6960  0.0717
  437TMC3    C4 6513   1.400   2.310  12.838  0.0928  0.8276  0.0659
  437TMC3    C5 6514   1.373   2.373  12.722  0.4593  0.0255 -0.0528
  437TMC3    C6 6515   1.247   2.395  12.676  0.5422  0.5281  0.2409
  437TMC3     C 6516   1.319   2.170  13.017 -0.5881  0.1373 -1.0529
  437TMC3     O 6517   1.439   2.155  13.048 -0.3678  0.0495  0.0199
  437TMC3     H 6518   1.084   2.210  12.897  1.1522 -0.5035  0.6501
  437TMC3    H1 6519   1.500   2.312  12.877 -0.8969  0.1034  2.5959
  437TMC3    H2 6520   1.234   2.448  12.582 -1.4227 -0.9642 -0.2991
  437TMC3    C7 6521   1.482   2.427  12.640  0.6059  0.5016 -0.1851
  437TMC3    C8 6522   1.000   2.346  12.696 -0.9742  0.3216 -0.2030
  437TMC3    O1 6523   1.445   2.515  12.559  0.0144 -0.0202 -0.1630
  437TMC3    O2 6524   0.923   2.261  12.728 -0.4557 -0.2849  0.2701
  438MPD2     C 6525   3.512   2.477  16.885 -0.2287  0.4996  0.0071
  438MPD2    C1 6526   3.614   2.389  16.914 -0.5533  0.0589 -0.3846
  438MPD2    C2 6527   3.602   2.312  17.031 -0.0874  0.4369  0.0993
  438MPD2    C3 6528   3.492   2.309  17.123 -0.0353  0.0186  0.7923
  438MPD2    C4 6529   3.391   2.401  17.083  0.0284  0.2118 -0.1817
  438MPD2    C5 6530   3.398   2.472  16.965  0.3166  0.0460  0.3248
  438MPD2     H 6531   3.684   2.252  17.068 -0.9874 -0.3660  0.7936
  438MPD2    H1 6532   3.292   2.398  17.128 -0.0431 -2.2168 -0.5101
  438MPD2    H2 6533   3.519   2.537  16.795  0.9701  0.9388  0.3879
  438MPD2    H3 6534   3.312   2.527  16.930  0.7365  0.2897 -0.3395
  438MPD2     N 6535   3.486   2.230  17.242  0.3362  0.6976  0.5030
  438MPD2    H5 6536   3.410   2.254  17.305  0.5607  1.4877  0.4709
  438MPD2    N1 6537   3.728   2.369  16.839  0.8235  0.9207 -0.3611
  438MPD2    H7 6538   3.794   2.302  16.878 -1.4689 -0.2359  1.5371
  439TMC3    C1 6539   3.890   2.448  16.687  0.1526 -0.3540 -0.1707
  439TMC3    C2 6540   3.913   2.521  16.573 -0.6095 -0.3160  0.2117
  439TMC3    C3 6541   4.044   2.547  16.549  0.2174  0.2960  0.5830
  439TMC3    C4 6542   3.993   2.429  16.784  0.2046  0.1785 -0.2225
  439TMC3    C5 6543   4.124   2.461  16.753  0.9337 -0.3153 -0.0824
  439TMC3    C6 6544   4.151   2.516  16.633 -0.1425 -0.0708 -0.4714
  439TMC3     C 6545   3.751   2.443  16.725 -0.1197  0.1235 -0.2457
  439TMC3     O 6546   3.683   2.514  16.656  0.6868  0.0934  0.1974
  439TMC3     H 6547   3.831   2.534  16.503  0.1942  1.6657 -0.3709
  439TMC3    H1 6548   3.979   2.384  16.881  0.0583 -0.8709 -0.7401
  439TMC3    H2 6549   4.255   2.539  16.612  0.6556 -0.5153  2.8961
  439TMC3    C7 6550   4.234   2.403  16.821 -0.1596  0.0707 -0.0468
  439TMC3    C8 6551   4.076   2.584  16.414 -0.2538  0.2148 -0.0165
  439TMC3    O1 6552   4.207   2.356  16.926 -0.7805 -0.2174  0.4072
  439TMC3    O2 6553   4.193   2.580  16.375  0.0836 -0.0339 -0.0528
  440MPD2     C 6554   2.610   3.282  14.833  0.3354  0.3483  0.2444
  440MPD2    C1 6555   2.730   3.348  14.825 -0.3461 -0.4765  0.0787
  440MPD2    C2 6556   2.848   3.282  14.860  0.0669  0.3621  0.4445
  440MPD2    C3 6557   2.840   3.147  14.902  0.1101 -0.3353  0.7592
  440MPD2    C4 6558   2.718   3.080  14.905 -0.3250  0.0708  0.3591
  440MPD2    C5 6559   2.610   3.153  14.876  0.3940 -0.4360 -0.2809
  440MPD2     H 6560   2.944   3.331  14.873  0.9666 -1.0818 -0.6999
  440MPD2    H1 6561   2.708   2.974  14.926 -0.3001 -0.1607 -0.8399
  440MPD2    H2 6562   2.513   3.328  14.818 -0.9900 -2.4860  0.1075
  440MPD2    H3 6563   2.518   3.097  14.880  0.3096 -0.1698  1.1990
  440MPD2     N 6564   2.960   3.068  14.927 -0.5677 -0.5731 -0.7271
  440MPD2    H5 6565   2.943   2.968  14.934  1.8330 -0.9919 -0.8821
  440MPD2    N1 6566   2.735   3.488  14.796  0.2910 -0.8676  0.9038
  440MPD2    H7 6567   2.813   3.543  14.831 -0.8885  1.4395 -0.0791
  441TMC3    C1 6568   3.181   3.010  14.979 -0.1322 -1.0510 -0.6438
  441TMC3    C2 6569   3.303   3.071  14.997 -0.0597 -0.3863 -0.3031
  441TMC3    C3 6570   3.381   3.043  15.104 -0.9990 -0.6254  0.2504
  441TMC3    C4 6571   3.131   2.926  15.071 -0.3766 -0.0207 -0.1889
  441TMC3    C5 6572   3.206   2.899  15.177 -0.1493  0.0340  0.1297
  441TMC3    C6 6573   3.332   2.954  15.195 -0.3886 -0.7544  0.5949
  441TMC3     C 6574   3.090   3.104  14.917 -0.3104  0.1087  0.4844
  441TMC3     O 6575   3.134   3.209  14.886  0.9199 -0.1909  0.9135
  441TMC3     H 6576   3.343   3.157  14.946 -0.0778  1.5936  3.0424
  441TMC3    H1 6577   3.037   2.873  15.063 -0.6382  0.1538  1.6665
  441TMC3    H2 6578   3.378   2.963  15.293 -1.4326 -0.4318  1.0548
  441TMC3    C7 6579   3.151   2.814  15.277 -0.4514  0.0181  0.0662
  441TMC3    C8 6580   3.403   3.160  15.182 -0.9699  0.2311 -0.4220
  441TMC3    O1 6581   3.048   2.755  15.244 -0.9256 -0.2346 -0.2830
  441TMC3    O2 6582   3.505   3.164  15.245  0.4142  0.1241 -0.6500
  442MPD2     C 6583   0.968   3.723  16.441  0.5304 -0.3686  0.8894
  442MPD2    C1 6584   0.891   3.621  16.483 -0.1355 -0.3867 -0.1652
  442MPD2    C2 6585   0.921   3.491  16.451  0.1706  0.2438  0.4938
  442MPD2    C3 6586   1.036   3.460  16.372  0.1499 -0.3522 -0.0699
  442MPD2    C4 6587   1.114   3.562  16.320  0.3717 -0.0424 -0.4905
  442MPD2    C5 6588   1.079   3.690  16.358 -0.7215 -0.0966 -0.6073
  442MPD2     H 6589   0.858   3.411  16.489 -0.6118 -0.8066 -2.9226
  442MPD2    H1 6590   1.199   3.545  16.255  0.8672 -2.2401  0.7017
  442MPD2    H2 6591   0.956   3.830  16.459 -1.1638 -0.5080  0.6104
  442MPD2    H3 6592   1.152   3.764  16.329  2.6357 -3.2057 -0.1292
  442MPD2     N 6593   1.063   3.331  16.323 -1.2876 -0.0351 -0.0252
  442MPD2    H5 6594   1.145   3.318  16.264 -0.2213 -0.0988  1.4841
  442MPD2    N1 6595   0.760   3.643  16.547 -0.5409  0.2117 -0.4309
  442MPD2    H7 6596   0.719   3.559  16.586 -1.4059  1.7797  2.0102
  443TMC3    C1 6597   0.590   3.753  16.676 -0.2440  0.2529  0.2051
  443TMC3    C2 6598   0.494   3.845  16.660  0.0322  0.0404 -0.4010
  443TMC3    C3 6599   0.389   3.846  16.751  0.3498 -0.4856 -0.6049
  443TMC3    C4 6600   0.604   3.675  16.779  0.1620  0.7119  0.2307
  443TMC3    C5 6601   0.498   3.674  16.874 -0.1372  0.1539 -0.4048
  443TMC3    C6 6602   0.400   3.770  16.866 -0.2088  0.5214 -0.2978
  443TMC3     C 6603   0.703   3.763  16.584  0.3563  0.0866 -0.3634
  443TMC3     O 6604   0.734   3.872  16.544  0.2839 -0.3362 -0.2450
  443TMC3     H 6605   0.504   3.922  16.584  0.2911  0.8983  0.5108
  443TMC3    H1 6606   0.686   3.604  16.788 -1.5304 -1.3189 -0.5044
  443TMC3    H2 6607   0.301   3.762  16.910  0.3346 -1.0324  0.6655
  443TMC3    C7 6608   0.531   3.630  17.003  0.4501  0.1959 -0.3554
  443TMC3    C8 6609   0.283   3.945  16.762  0.4134 -0.5658 -0.6917
  443TMC3    O1 6610   0.609   3.536  17.022  0.7308  0.4112 -0.2776
  443TMC3    O2 6611   0.246   3.976  16.873  0.5396 -0.0238 -0.0970
  444MPD2     C 6612   1.314   2.856  17.270  0.1262 -0.1269 -0.6210
  444MPD2    C1 6613   1.207   2.781  17.239  0.9647 -1.0875 -0.5431
  444MPD2    C2 6614   1.225   2.694  17.133 -0.8140  0.7837 -0.4744
  444MPD2    C3 6615   1.353   2.679  17.074 -0.4577 -0.1992 -0.1559
  444MPD2    C4 6616   1.460   2.761  17.105 -0.1623  0.5173  0.3623
  444MPD2    C5 6617   1.428   2.858  17.196 -0.5431  0.0010  0.1000
  444MPD2     H 6618   1.151   2.620  17.105 -0.1629  0.0919 -0.3860
  444MPD2    H1 6619   1.560   2.746  17.065 -0.2857  2.4464 -0.6676
  444MPD2    H2 6620   1.310   2.925  17.353 -0.5176 -3.2167  1.9335
  444MPD2    H3 6621   1.506   2.929  17.222 -2.3773  2.3816 -0.8614
  444MPD2     N 6622   1.361   2.576  16.984 -0.1519  0.1509 -0.3010
  444MPD2    H5 6623   1.279   2.517  16.977  0.4391 -0.7700  0.5869
  444MPD2    N1 6624   1.085   2.775  17.310 -0.2001  0.3362  0.2116
  444MPD2    H7 6625   1.008   2.730  17.261 -0.3870  0.3218  0.5215
  445TMC3    C1 6626   1.451   2.425  16.829 -0.1391 -0.7737  0.1891
  445TMC3    C2 6627   1.329   2.396  16.775 -0.5989 -0.0728 -0.7671
  445TMC3    C3 6628   1.318   2.289  16.690  1.1897 -0.3319  0.0608
  445TMC3    C4 6629   1.560   2.362  16.774 -0.1749 -0.3714  0.2968
  445TMC3    C5 6630   1.543   2.253  16.691  0.2123 -0.1328  0.1076
  445TMC3    C6 6631   1.420   2.217  16.642  0.1043  0.6969  0.0229
  445TMC3     C 6632   1.471   2.541  16.914  0.2999  0.2261 -0.4241
  445TMC3     O 6633   1.585   2.570  16.931 -0.0415  0.2205  0.4032
  445TMC3     H 6634   1.248   2.468  16.781  1.2962  2.0385 -0.4001
  445TMC3    H1 6635   1.659   2.393  16.804  0.0510  2.4670 -3.3380
  445TMC3    H2 6636   1.419   2.143  16.563 -2.3402  0.9763 -0.2094
  445TMC3    C7 6637   1.646   2.201  16.604 -0.0301 -0.2454  0.6003
  445TMC3    C8 6638   1.209   2.302  16.592  0.3410 -0.2907  0.6652
  445TMC3    O1 6639   1.620   2.167  16.487  0.3591  1.1020 -0.0277
  445TMC3    O2 6640   1.146   2.404  16.581 -0.2481 -0.0741  0.2721
  446MPD2     C 6641   1.385   4.626  11.660  0.2135 -0.3303 -0.0794
  446MPD2    C1 6642   1.383   4.571  11.535 -0.6279  0.3539 -0.0510
  446MPD2    C2 6643   1.460   4.633  11.440  0.2090  0.5065 -0.3778
  446MPD2    C3 6644   1.544   0.014  11.460  0.3661  0.2943 -0.1722
  446MPD2    C4 6645   1.536   0.069  11.581  0.5963  0.1271 -0.4889
  446MPD2    C5 6646   1.464   0.010  11.680 -0.3492  0.1830 -0.4088
  446MPD2     H 6647   1.456   4.594  11.339  3.5857  1.8922 -1.0649
  446MPD2    H1 6648   1.583   0.161  11.615 -1.0385 -0.0233  2.1913
  446MPD2    H2 6649   1.325   4.593  11.744  1.0955  2.9371  1.8240
  446MPD2    H3 6650   1.461   0.066  11.772 -2.0875 -0.7363  0.0934
  446MPD2     N 6651   1.621   0.062  11.359 -0.5246  0.4682  0.0028
  446MPD2    H5 6652   1.608   0.032  11.263  0.2400 -1.6299  0.5542
  446MPD2    N1 6653   1.294   4.468  11.496 -0.2536  0.4144 -0.3927
  446MPD2    H7 6654   1.294   4.450  11.396  1.9458 -1.0761 -0.1404
  447TMC3    C1 6655   1.795   0.172  11.252  0.4233 -0.1463  0.2996
  447TMC3    C2 6656   1.730   0.131  11.139  0.4436 -0.2717 -1.1766
  447TMC3    C3 6657   1.803   0.070  11.046 -0.7179  0.3084  0.6201
  447TMC3    C4 6658   1.927   0.157  11.277  0.1897  0.0531  0.5093
  447TMC3    C5 6659   1.994   0.099  11.170 -0.0674  0.3363 -0.6870
  447TMC3    C6 6660   1.937   0.053  11.051  1.2273 -0.4046 -0.9602
  447TMC3     C 6661   1.724   0.149  11.379 -0.8592  0.3020 -0.3553
  447TMC3     O 6662   1.783   0.192  11.477  0.0537  0.2335  0.0490
  447TMC3     H 6663   1.624   0.155  11.128  0.4200  0.3852  0.5579
  447TMC3    H1 6664   1.971   0.166  11.375 -1.5751  1.9533  1.1185
  447TMC3    H2 6665   1.984   4.722  10.970  0.7627 -1.1552 -0.7214
  447TMC3    C7 6666   2.139   0.081  11.191  0.3177  0.0638 -0.1225
  447TMC3    C8 6667   1.726   0.028  10.928 -0.2047  0.4099  0.0949
  447TMC3    O1 6668   2.197   0.014  11.107  0.4134  0.0356  0.2749
  447TMC3    O2 6669   1.605   0.014  10.940  0.8109  0.4399  0.0238
  448TMC3    C1 6670   3.264   3.200  17.568 -0.5005  0.0974 -0.3904
  448TMC3    C2 6671   3.303   3.098  17.648  0.2667  0.0534  0.0027
  448TMC3    C3 6672   3.403   3.118   0.044 -0.5821 -0.0214  0.3931
  448TMC3    C4 6673   3.315   3.321  17.589 -1.0821  0.6737 -0.7106
  448TMC3    C5 6674   3.395   3.344  17.695  0.4046 -0.0838  0.7067
  448TMC3    C6 6675   3.443   3.246   0.073  0.8213  0.1248 -0.3374
  448TMC3     C 6676   3.176   3.185  17.449  0.0620  0.0906 -0.5087
  448TMC3     O 6677   3.163   3.284  17.380 -0.5643 -0.2668  0.7909
  448TMC3     H 6678   3.274   2.995  17.633 -0.8529  0.0242  2.3846
  448TMC3    H1 6679   3.278   3.403  17.529 -1.2146  1.4832  0.4951
  448TMC3    H2 6680   3.530   3.252   0.138  0.8086  0.1956 -0.3263
  448TMC3    C7 6681   3.473   3.470   0.007  0.7266 -0.3496 -0.2226
  448TMC3    C8 6682   3.510   3.029   0.010 -0.4031 -0.1978 -0.5052
  448TMC3    O1 6683   3.494   3.549  17.612  0.1747 -0.0026 -0.2527
  448TMC3    O2 6684   3.531   3.030  17.589  0.3254 -0.2687  0.0216
  449MPD2     C 6685   0.800   3.118  14.327  0.1309  0.1537  0.4732
  449MPD2    C1 6686   0.729   3.036  14.234 -0.0884  0.7312  0.1561
  449MPD2    C2 6687   0.681   2.916  14.277  0.0367 -0.4614  0.2461
  449MPD2    C3 6688   0.697   2.867  14.405 -0.0265 -0.0723  0.3456
  449MPD2    C4 6689   0.773   2.942  14.491  0.5450  0.7578  0.0904
  449MPD2    C5 6690   0.821   3.061  14.451  0.2797 -0.7425 -0.4576
  449MPD2     H 6691   0.628   2.853  14.206  0.3083 -1.6755  1.1293
  449MPD2    H1 6692   0.800   2.907  14.591  0.0900  1.2180  0.3733
  449MPD2    H2 6693   0.822   3.221  14.300 -0.9989  0.0021 -1.0671
  449MPD2    H3 6694   0.876   3.120  14.523  0.3590  0.4147 -1.4691
  449MPD2     N 6695   0.646   2.737  14.425 -0.4200 -0.3611  0.4053
  449MPD2    H5 6696   0.574   2.708  14.359  1.7488 -1.5368 -1.4269
  449MPD2    N1 6697   0.693   3.070  14.106  0.0799 -0.4198  0.0820
  449MPD2    H7 6698   0.606   3.030  14.075  0.7718 -0.7669 -1.3921
  450TMC3    C1 6699   0.674   3.170  13.905  0.0935  0.0218 -0.1085
  450TMC3    C2 6700   0.750   3.149  13.805 -0.5502 -0.4044  0.2673
  450TMC3    C3 6701   0.707   3.059  13.716 -0.1306 -0.4198 -0.0080
  450TMC3    C4 6702   0.548   3.128  13.913  0.5019 -0.7517 -0.1856
  450TMC3    C5 6703   0.503   3.042  13.822 -0.0290  0.2379  0.2145
  450TMC3    C6 6704   0.587   2.998  13.722  0.1741 -0.7892  0.0208
  450TMC3     C 6705   0.745   3.165  14.032  0.2725 -1.0335 -1.0298
  450TMC3     O 6706   0.845   3.235  14.053 -0.1198 -0.0027  0.7378
  450TMC3     H 6707   0.853   3.180  13.813 -1.3409  1.5602  2.9388
  450TMC3    H1 6708   0.493   3.156  14.002 -0.0941  1.6527 -1.3119
  450TMC3    H2 6709   0.576   2.908  13.663 -1.4293  1.0901 -2.5686
  450TMC3    C7 6710   0.438   2.921  13.881  0.1764  0.4733  0.1805
  450TMC3    C8 6711   0.804   2.999  13.624  0.7710  0.2778  1.1777
  450TMC3    O1 6712   0.474   2.913  13.998 -0.6532  0.1771  0.0675
  450TMC3    O2 6713   0.773   2.893  13.572  0.0935  0.0471 -0.2243
  451MPD2     C 6714   1.922   1.678   1.093 -0.2697  0.4168 -1.0621
  451MPD2    C1 6715   1.821   1.626   1.165  0.1425  0.1283  0.2501
  451MPD2    C2 6716   1.797   1.495   1.154  0.2514  0.1218 -0.2007
  451MPD2    C3 6717   1.862   1.404   1.069 -0.3492 -0.0747 -1.1874
  451MPD2    C4 6718   1.956   1.467   0.987 -1.0270  0.3016 -0.1872
  451MPD2    C5 6719   1.977   1.601   0.993 -0.5272 -0.0643  0.4408
  451MPD2     H 6720   1.719   1.445   1.211  1.5334 -0.9936  0.5935
  451MPD2    H1 6721   2.013   1.409   0.916  0.6021 -0.9382  2.1205
  451MPD2    H2 6722   1.962   1.778   1.109  2.4136 -0.7873 -0.2558
  451MPD2    H3 6723   2.057   1.635   0.928  0.3286 -2.4155  0.2740
  451MPD2     N 6724   1.842   1.263   1.063  0.2062 -0.2832 -0.2080
  451MPD2    H5 6725   1.885   1.219   0.983  0.0637 -0.5021 -0.1645
  451MPD2    N1 6726   1.747   1.712   1.252 -0.0396 -0.7826  0.0870
  451MPD2    H7 6727   1.762   1.811   1.237  1.4820 -0.9273  0.7177
  452TMC3    C1 6728   1.753   1.054   1.115  0.4857 -0.1560  0.5032
  452TMC3    C2 6729   1.727   0.962   1.217 -1.0330  0.2656  0.6120
  452TMC3    C3 6730   1.701   0.835   1.180  0.2882 -0.6030 -0.2734
  452TMC3    C4 6731   1.757   1.020   0.979  0.5310 -0.4682 -0.0434
  452TMC3    C5 6732   1.721   0.888   0.954 -0.3384 -0.2799 -0.4682
  452TMC3    C6 6733   1.693   0.793   1.051  0.0677 -0.1078 -0.0346
  452TMC3     C 6734   1.770   1.192   1.155 -0.3242 -0.3001 -0.2505
  452TMC3     O 6735   1.748   1.209   1.274  0.2021  0.2370  0.0737
  452TMC3     H 6736   1.725   0.988   1.322  0.8467  2.4193  0.1301
  452TMC3    H1 6737   1.764   1.099   0.906  1.2570  0.7782  1.3813
  452TMC3    H2 6738   1.686   0.688   1.023 -1.4303 -0.1619  0.5200
  452TMC3    C7 6739   1.723   0.864   0.814 -0.2106 -0.0088 -0.0035
  452TMC3    C8 6740   1.653   0.745   1.282 -0.1893  0.1376  0.5171
  452TMC3    O1 6741   1.794   0.934   0.743 -0.6583 -0.0002 -0.3790
  452TMC3    O2 6742   1.663   0.798   1.394 -0.0424  0.0630 -0.3538
  453TMC3    C1 6743   3.340   3.240  12.069 -0.5889 -0.2680  0.6394
  453TMC3    C2 6744   3.239   3.155  12.117 -0.3922 -0.1820 -0.4883
  453TMC3    C3 6745   3.192   3.059  12.030  0.3368  0.2576 -0.2471
  453TMC3    C4 6746   3.397   3.229  11.950 -0.3230 -0.6574  0.5404
  453TMC3    C5 6747   3.346   3.133  11.869 -0.2989 -1.0555 -0.5117
  453TMC3    C6 6748   3.245   3.046  11.903 -0.2192  0.1810 -0.6104
  453TMC3     C 6749   3.430   3.288  12.166 -0.1422 -0.6091 -0.7305
  453TMC3     O 6750   3.487   3.395  12.143  0.2488  0.5809  0.0749
  453TMC3     H 6751   3.207   3.162  12.220  0.5073 -0.9154 -0.1549
  453TMC3    H1 6752   3.459   3.313  11.922  1.1748 -2.0059 -0.2052
  453TMC3    H2 6753   3.218   2.958  11.844  0.0072 -1.0508  1.1353
  453TMC3    C7 6754   3.429   3.101  11.746  0.4047 -0.4676  0.4798
  453TMC3    C8 6755   3.092   2.962  12.080 -0.3054  0.0722  0.4189
  453TMC3    O1 6756   3.364   3.026  11.676 -0.2863 -0.1882 -0.0910
  453TMC3    O2 6757   3.040   2.973  12.188  0.1036 -0.3540 -0.4532
  454MPD2     C 6758   2.018   2.837  16.058  0.4318 -0.0287  0.5249
  454MPD2    C1 6759   1.955   2.729  15.995 -0.3800 -0.3629  0.5787
  454MPD2    C2 6760   1.883   2.642  16.076 -0.0123 -0.0831  0.8651
  454MPD2    C3 6761   1.875   2.663  16.212  0.2855 -0.6601  0.1572
  454MPD2    C4 6762   1.945   2.765  16.272 -0.3573  0.2714  0.6320
  454MPD2    C5 6763   2.013   2.852  16.194 -0.3577  0.4675  0.1003
  454MPD2     H 6764   1.814   2.575  16.027  1.6890  0.1745 -1.8346
  454MPD2    H1 6765   1.939   2.781  16.379  0.1583 -0.2573  0.7371
  454MPD2    H2 6766   2.079   2.909  16.004 -0.9407  0.7596  0.0125
  454MPD2    H3 6767   2.070   2.932  16.240 -0.6014 -0.3718  1.8762
  454MPD2     N 6768   1.793   2.580  16.292  0.3189  0.4009  0.0873
  454MPD2    H5 6769   1.755   2.619  16.378 -0.2770  0.0060  0.0053
  454MPD2    N1 6770   1.954   2.718  15.851  0.0281  0.1343  0.3010
  454MPD2    H7 6771   2.007   2.785  15.797 -1.0158  1.0021  0.3420
  455TMC3    C1 6772   1.616   2.428  16.324 -0.0353 -0.0778  1.1128
  455TMC3    C2 6773   1.567   2.517  16.415 -0.1058 -0.7986  0.5426
  455TMC3    C3 6774   1.440   2.554  16.408 -0.8635 -0.5737 -0.1978
  455TMC3    C4 6775   1.528   2.361  16.245  0.2214  0.0530  0.2481
  455TMC3    C5 6776   1.397   2.384  16.260  0.1801 -0.0751 -0.1250
  455TMC3    C6 6777   1.351   2.492  16.327  0.6749  0.0605 -0.7658
  455TMC3     C 6778   1.742   2.453  16.258  0.7022 -0.1787  0.1803
  455TMC3     O 6779   1.783   2.372  16.175  0.6292  0.1868 -0.3611
  455TMC3     H 6780   1.633   2.558  16.491 -0.0866  0.6117 -0.2348
  455TMC3    H1 6781   1.564   2.288  16.174 -0.6211 -1.6897  1.5838
  455TMC3    H2 6782   1.248   2.514  16.305  0.1919  0.4856  1.9553
  455TMC3    C7 6783   1.322   2.352  16.144  0.1491 -0.1626  0.5865
  455TMC3    C8 6784   1.402   2.661  16.497 -0.2478  0.0177  0.1302
  455TMC3    O1 6785   1.260   2.434  16.080  0.4273  0.0163  0.5766
  455TMC3    O2 6786   1.494   2.716  16.555  0.0228 -0.2032  0.0401
  456MPD2     C 6787   4.240   2.834  16.555  0.4456 -0.3503  0.6015
  456MPD2    C1 6788   4.347   2.793  16.633  0.1581 -0.3542  0.1741
  456MPD2    C2 6789   4.333   2.813  16.772  0.1799  0.0064  1.1434
  456MPD2    C3 6790   4.233   2.883  16.824  0.8045 -0.2523  0.9385
  456MPD2    C4 6791   4.136   2.937  16.744 -0.7641  0.1597 -0.2950
  456MPD2    C5 6792   4.142   2.911  16.610 -0.5793 -0.7485 -0.7581
  456MPD2     H 6793   4.403   2.771  16.843  1.8960  0.8090 -0.0792
  456MPD2    H1 6794   4.049   2.991  16.780 -0.4981  0.5321 -0.2100
  456MPD2    H2 6795   4.232   2.807  16.450 -4.1190  1.8032  0.3471
  456MPD2    H3 6796   4.062   2.952  16.550  1.1018  1.7701 -1.2769
  456MPD2     N 6797   4.238   2.885  16.963 -0.1105  0.2315 -0.2814
  456MPD2    H5 6798   4.302   2.822  17.011  1.0152  1.7666  0.2474
  456MPD2    N1 6799   4.460   2.734  16.571  0.2386  0.5245  0.4655
  456MPD2    H7 6800   4.460   2.739  16.470  1.3345 -0.9846  0.3984
  457TMC3    C1 6801   4.175   2.946  17.170  0.1059 -0.4235  0.3537
  457TMC3    C2 6802   4.061   2.917  17.246  0.1267  0.1324 -0.6758
  457TMC3    C3 6803   4.069   2.851  17.368  0.2525 -0.4068  0.5950
  457TMC3    C4 6804   4.290   2.893  17.218  0.0442 -0.4829  0.1982
  457TMC3    C5 6805   4.296   2.845  17.345  0.3749  0.1414 -0.3940
  457TMC3    C6 6806   4.189   2.816  17.427  0.0974  0.3848 -0.4873
  457TMC3     C 6807   4.152   2.960  17.033 -0.4502 -0.2428 -0.4286
  457TMC3     O 6808   4.049   3.014  17.004 -0.5121  0.2841 -0.2431
  457TMC3     H 6809   3.962   2.922  17.203 -0.0549 -3.3206 -0.6422
  457TMC3    H1 6810   4.382   2.921  17.168 -0.3649 -0.6499 -0.6446
  457TMC3    H2 6811   4.204   2.782  17.529  0.0519 -2.1617 -1.3451
  457TMC3    C7 6812   4.417   2.779  17.366 -0.0104 -0.0286 -0.4413
  457TMC3    C8 6813   3.949   2.857  17.454  0.1796  0.3088  0.5068
  457TMC3    O1 6814   4.526   2.822  17.322 -0.2246 -0.3795 -0.4776
  457TMC3    O2 6815   3.846   2.897  17.400 -0.3870  0.5389 -0.0306
  458MPD2     C 6816   1.967   2.425  12.462  0.0761  0.5487 -0.5128
  458MPD2    C1 6817   1.973   2.382  12.591  0.0103 -0.5520 -0.3237
  458MPD2    C2 6818   1.851   2.366  12.655 -0.4407  0.1548 -0.3472
  458MPD2    C3 6819   1.725   2.399  12.600  0.3998  0.1839 -0.5532
  458MPD2    C4 6820   1.728   2.451  12.470 -0.1453  0.7368  0.5265
  458MPD2    C5 6821   1.849   2.462  12.413 -0.8342 -0.0142 -0.0690
  458MPD2     H 6822   1.859   2.328  12.756 -0.4990  3.8612  1.0272
  458MPD2    H1 6823   1.640   2.497  12.426 -0.9034 -0.3009  0.9522
  458MPD2    H2 6824   2.058   2.443  12.406  0.1031 -0.0557 -0.6715
  458MPD2    H3 6825   1.839   2.513  12.317  0.4303  1.0107  0.3468
  458MPD2     N 6826   1.605   2.379  12.673 -0.2388  0.0843 -0.3242
  458MPD2    H5 6827   1.611   2.313  12.750 -0.7071  0.7472  0.2729
  458MPD2    N1 6828   2.101   2.375  12.656  0.8429  0.2425 -0.0249
  458MPD2    H7 6829   2.182   2.403  12.602  0.8594 -0.0886 -0.1714
  459TMC3    C1 6830   2.263   2.319  12.815 -0.2788 -0.0823  0.2166
  459TMC3    C2 6831   2.354   2.391  12.739  0.4342 -0.4119  0.3058
  459TMC3    C3 6832   2.490   2.351  12.747 -0.8673  0.6684 -0.2992
  459TMC3    C4 6833   2.303   2.207  12.887  0.1394 -0.2376  0.0684
  459TMC3    C5 6834   2.436   2.182  12.906  0.2739  0.5315 -0.4561
  459TMC3    C6 6835   2.530   2.250  12.838  0.0879  1.0100  0.2809
  459TMC3     C 6836   2.122   2.330  12.785  0.0104  0.1038 -0.1313
  459TMC3     O 6837   2.039   2.265  12.852 -0.0406 -0.6056 -0.2567
  459TMC3     H 6838   2.327   2.487  12.696 -0.7531 -0.6346  0.5431
  459TMC3    H1 6839   2.227   2.140  12.924  1.3943 -1.9898 -0.5231
  459TMC3    H2 6840   2.636   2.227  12.847  0.1041  0.3764 -1.5041
  459TMC3    C7 6841   2.468   2.107  13.022 -0.2150 -0.4073 -0.6495
  459TMC3    C8 6842   2.593   2.436  12.693 -0.4015  0.0490  0.2900
  459TMC3    O1 6843   2.370   2.086  13.094  0.2188  0.2020 -0.3400
  459TMC3    O2 6844   2.702   2.410  12.738  0.8775  0.6198  0.2317
  460MPD2     C 6845   1.829   4.573  10.632 -0.0377  0.3653 -0.5142
  460MPD2    C1 6846   1.747   4.649  10.706  0.4712 -0.2169 -0.0856
  460MPD2    C2 6847   1.617   4.666  10.669 -0.6015 -0.7333  0.4961
  460MPD2    C3 6848   1.565   4.592  10.559  0.5473  0.9598 -0.7060
  460MPD2    C4 6849   1.646   4.499  10.499 -0.0197  0.5465  0.5480
  460MPD2    C5 6850   1.780   4.502  10.527 -0.4825  0.4157 -0.3590
  460MPD2     H 6851   1.550   0.009  10.722  0.7229  1.5919 -0.7585
  460MPD2    H1 6852   1.618   4.459  10.402 -0.3469  0.7631  0.5552
  460MPD2    H2 6853   1.937   4.569  10.643 -0.0196  1.6766 -0.1992
  460MPD2    H3 6854   1.853   4.447  10.470  2.3233  2.0834  1.6288
  460MPD2     N 6855   1.435   4.623  10.524 -0.0421  0.0656 -0.3736
  460MPD2    H5 6856   1.391   4.704  10.567 -1.3442 -0.0993 -1.3693
  460MPD2    N1 6857   1.798   4.713  10.822  0.0223 -0.2150 -0.0408
  460MPD2    H7 6858   1.898   0.005  10.825 -0.2665  0.8897  2.8615
  461TMC3    C1 6859   1.231   4.612  10.388 -0.4975  0.2314 -0.0025
  461TMC3    C2 6860   1.147   4.528  10.326  0.1372 -0.8100  0.1492
  461TMC3    C3 6861   1.073   4.577  10.230  0.4002  0.3122 -0.2496
  461TMC3    C4 6862   1.249   0.024  10.357  0.6033 -0.3117 -0.0072
  461TMC3    C5 6863   1.174   0.070  10.257  0.0844  0.1782  0.3313
  461TMC3    C6 6864   1.084   4.708  10.191  0.1510 -0.3568 -0.6521
  461TMC3     C 6865   1.353   4.548  10.438  0.8080 -0.2366  0.2278
  461TMC3     O 6866   1.377   4.437  10.390 -0.4221 -0.2269  0.0139
  461TMC3     H 6867   1.143   4.423  10.350 -0.2437 -0.9967 -0.7369
  461TMC3    H1 6868   1.333   0.083  10.392  0.9484 -1.3257  0.8793
  461TMC3    H2 6869   1.007   0.017  10.122  1.8816  1.3742 -1.7812
  461TMC3    C7 6870   1.192   0.203  10.202 -0.2020 -0.0672  0.2605
  461TMC3    C8 6871   1.022   4.483  10.128 -0.2065 -0.4134 -0.3128
  461TMC3    O1 6872   1.158   0.219  10.082 -0.5114 -0.2962 -0.0869
  461TMC3    O2 6873   0.994   4.532  10.017 -0.4180 -0.2160 -0.3333
  462TMC3    C1 6874   1.032   0.668  17.662  0.0275  0.0704 -0.3643
  462TMC3    C2 6875   0.945   0.642  17.552 -0.3944 -0.3700 -0.3357
  462TMC3    C3 6876   0.901   0.510  17.533 -0.2654  0.2043 -0.7878
  462TMC3    C4 6877   1.072   0.567   0.044 -0.1323 -0.7001  0.0089
  462TMC3    C5 6878   1.027   0.440   0.021  0.4922 -0.2532 -0.2191
  462TMC3    C6 6879   0.936   0.410  17.619  0.3990  0.0496 -0.3678
  462TMC3     C 6880   1.072   0.803   0.002  0.0866  0.2209 -0.2758
  462TMC3     O 6881   1.123   0.806   0.113  0.3973  0.0470 -0.2279
  462TMC3     H 6882   0.924   0.718  17.478  1.7519  2.0596  1.5475
  462TMC3    H1 6883   1.144   0.585   0.122  0.4633 -0.8485 -0.5051
  462TMC3    H2 6884   0.908   0.309  17.594 -1.1307  0.2976  0.3264
  462TMC3    C7 6885   1.056   0.337   0.113  0.0384  0.0638 -0.4629
  462TMC3    C8 6886   0.857   0.473  17.401 -0.6140 -0.2189  0.4542
  462TMC3    O1 6887   0.996   0.233   0.108  0.2695 -0.2460  0.8607
  462TMC3    O2 6888   0.766   0.537  17.346  0.5365 -0.0800 -0.3298
  463MPD2     C 6889   1.713   0.137   2.520  0.1261  0.3822  0.4623
  463MPD2    C1 6890   1.688   0.065   2.405 -0.7737 -0.1202 -0.0619
  463MPD2    C2 6891   1.701   0.131   2.287  0.0762  0.1428  0.4765
  463MPD2    C3 6892   1.758   0.256   2.285  0.0093  0.1802  0.6287
  463MPD2    C4 6893   1.788   0.321   2.396 -0.4354  0.4242 -0.4724
  463MPD2    C5 6894   1.762   0.263   2.516 -0.5799  0.3682 -0.1531
  463MPD2     H 6895   1.666   0.081   2.198 -0.2359  1.1717  0.0174
  463MPD2    H1 6896   1.830   0.421   2.399  2.9663 -1.0599  1.9235
  463MPD2    H2 6897   1.707   0.088   2.617  0.5993  0.3126  0.4546
  463MPD2    H3 6898   1.791   0.314   2.607 -0.6945  1.6270 -0.8267
  463MPD2     N 6899   1.789   0.321   2.162 -0.0719 -0.8852  0.2421
  463MPD2    H5 6900   1.826   0.415   2.167  1.6503 -1.5954  0.6561
  463MPD2    N1 6901   1.645   4.654   2.398 -0.2150 -0.4082  0.1591
  463MPD2    H7 6902   1.637   4.612   2.306 -0.3221 -2.3941  1.0867
  464TMC3    C1 6903   1.569   4.446   2.448  0.4543 -0.0913 -0.3574
  464TMC3    C2 6904   1.636   4.388   2.350  0.0102 -0.1402 -0.4072
  464TMC3    C3 6905   1.593   4.264   2.306  0.2702  0.5389 -0.2300
  464TMC3    C4 6906   1.445   4.405   2.486  0.1493 -0.1737  0.6856
  464TMC3    C5 6907   1.397   4.284   2.449  0.8727 -0.3227 -0.6769
  464TMC3    C6 6908   1.478   4.215   2.361  0.4865  0.1111  0.2953
  464TMC3     C 6909   1.615   4.568   2.501 -0.4974  0.2925  0.6067
  464TMC3     O 6910   1.607   4.589   2.620 -0.2791  0.1163 -0.5808
  464TMC3     H 6911   1.720   4.441   2.306 -0.6520  0.5156 -0.8765
  464TMC3    H1 6912   1.388   4.468   2.554  0.6347 -0.2499  1.1647
  464TMC3    H2 6913   1.449   4.112   2.344 -0.2677 -0.0178  2.3640
  464TMC3    C7 6914   1.252   4.264   2.453 -0.2333  0.6214 -0.4010
  464TMC3    C8 6915   1.623   4.212   2.178 -0.3562 -0.1470  0.0037
  464TMC3    O1 6916   1.190   4.344   2.518 -0.1978 -0.0531 -0.4845
  464TMC3    O2 6917   1.580   4.102   2.148 -0.1614 -0.0768  0.0568
  465MPD2     C 6918   3.873   2.589  17.147  0.2154  0.0434  0.2568
  465MPD2    C1 6919   3.746   2.603  17.209  0.1165  0.8413  0.2037
  465MPD2    C2 6920   3.650   2.674  17.148 -0.1400 -0.1629  0.1652
  465MPD2    C3 6921   3.679   2.745  17.033  0.5931 -0.2945 -1.1891
  465MPD2    C4 6922   3.799   2.731  16.971 -0.1902  1.2270  0.3478
  465MPD2    C5 6923   3.901   2.654  17.023 -0.1690 -0.1594  0.1207
  465MPD2     H 6924   3.550   2.690  17.185  0.1044  0.9574  0.3337
  465MPD2    H1 6925   3.835   2.795  16.891  1.8275 -2.3374 -1.5388
  465MPD2    H2 6926   3.957   2.531  17.186 -0.6738 -1.4444 -0.0424
  465MPD2    H3 6927   3.996   2.650  16.971 -0.9812 -0.0289 -1.3719
  465MPD2     N 6928   3.572   2.813  16.973  0.7300 -0.0127 -0.2088
  465MPD2    H5 6929   3.477   2.797  17.005 -0.4557  0.7872 -3.2539
  465MPD2    N1 6930   3.715   2.536  17.335  0.3264  0.1445 -0.3223
  465MPD2    H7 6931   3.624   2.545  17.378  0.1811  1.8240 -0.9703
  466TMC3    C1 6932   3.244   2.838  16.694 -0.4347  0.2424 -0.2767
  466TMC3    C2 6933   3.217   2.962  16.637 -0.4654 -0.2935 -0.5360
  466TMC3    C3 6934   3.318   3.049  16.659 -1.0737 -0.2452  0.2966
  466TMC3    C4 6935   3.356   2.809  16.770 -0.0422 -0.3954 -0.8924
  466TMC3    C5 6936   3.449   2.903  16.787  0.0646  0.5647 -1.1908
  466TMC3    C6 6937   3.438   3.019  16.715 -0.4210  0.1540  0.0956
  466TMC3     C 6938   3.132   2.738  16.693 -0.6502  0.7772  0.0083
  466TMC3     O 6939   3.126   2.660  16.782  0.5516  0.0377 -0.0814
  466TMC3     H 6940   3.118   2.992  16.604 -1.6165 -1.0651  2.1528
  466TMC3    H1 6941   3.359   2.718  16.829  1.2445  0.6260  0.6252
  466TMC3    H2 6942   3.513   3.095  16.734 -1.0535  0.7799  0.0448
  466TMC3    C7 6943   3.577   2.878  16.848 -0.2736  0.0168  0.4211
  466TMC3    C8 6944   3.304   3.186  16.617 -0.8141  0.4146  0.0094
  466TMC3    O1 6945   3.671   2.934  16.797 -0.2281  0.5483 -0.0605
  466TMC3    O2 6946   3.406   3.238  16.575 -0.3304  0.0286 -0.4853
  467TMC3    C1 6947   3.946   1.309  13.421  0.4620 -0.2791 -0.4383
  467TMC3    C2 6948   4.001   1.337  13.306 -0.3407  1.0890  0.3105
  467TMC3    C3 6949   3.980   1.461  13.250 -0.0579  0.4855 -0.5645
  467TMC3    C4 6950   3.847   1.386  13.472 -0.8050  0.7682  0.2853
  467TMC3    C5 6951   3.833   1.516  13.423 -0.2349 -0.1400  0.1576
  467TMC3    C6 6952   3.892   1.554  13.308  0.6941 -0.5754 -0.0152
  467TMC3     C 6953   4.026   1.235  13.525  0.0028 -0.0325 -0.4972
  467TMC3     O 6954   4.022   1.268  13.646  0.1061 -0.4647  0.2404
  467TMC3     H 6955   4.085   1.285  13.262 -0.8920 -0.1022  0.6766
  467TMC3    H1 6956   3.789   1.351  13.557 -0.5005 -1.9224 -0.6153
  467TMC3    H2 6957   3.862   1.645  13.258  1.9617 -0.4053 -0.4783
  467TMC3    C7 6958   3.725   1.602  13.468 -0.0380  0.0572  0.0689
  467TMC3    C8 6959   4.092   1.529  13.186  0.2689  0.3342  0.1676
  467TMC3    O1 6960   3.716   1.707  13.412  0.0477  0.4954 -0.5916
  467TMC3    O2 6961   4.083   1.652  13.173  0.2269 -0.0990  0.3120
  468MPD2     C 6962   3.626   3.567  10.454 -0.4466 -0.0683  0.0754
  468MPD2    C1 6963   3.752   3.600  10.499  0.3971 -0.5507  0.3077
  468MPD2    C2 6964   3.816   3.499  10.569 -0.4823 -0.5482 -0.4137
  468MPD2    C3 6965   3.762   3.368  10.589  0.6973 -1.0432  0.0332
  468MPD2    C4 6966   3.641   3.341  10.531  0.1193 -0.0859  0.3019
  468MPD2    C5 6967   3.568   3.439  10.468 -0.4499 -0.3112 -0.3725
  468MPD2     H 6968   3.912   3.518  10.614 -1.0676  0.9922  0.1857
  468MPD2    H1 6969   3.583   3.250  10.543 -0.7908  0.5506  0.6911
  468MPD2    H2 6970   3.567   3.637  10.395 -0.2807  0.1245  0.1365
  468MPD2    H3 6971   3.470   3.417  10.427 -0.1160 -1.4532 -0.5511
  468MPD2     N 6972   3.823   3.265  10.665 -0.0860 -0.4674  0.3876
  468MPD2    H5 6973   3.772   3.182  10.693 -0.7319 -0.0944  0.3291
  468MPD2    N1 6974   3.819   3.720  10.472  0.5243 -0.2799 -0.1933
  468MPD2    H7 6975   3.916   3.723  10.501  0.9740  2.8358 -2.0163
  469TMC3    C1 6976   3.850   3.955  10.441 -0.5071 -0.1336 -0.7716
  469TMC3    C2 6977   3.943   3.948  10.552  0.7379 -0.7957  0.2067
  469TMC3    C3 6978   3.964   4.050  10.637 -0.1329  0.0767  0.1639
  469TMC3    C4 6979   3.788   4.073  10.417  0.1798  0.3052  0.1286
  469TMC3    C5 6980   3.805   4.172  10.511 -0.0550 -0.2243 -0.9099
  469TMC3    C6 6981   3.891   4.160  10.621 -0.0505  0.0573  0.5672
  469TMC3     C 6982   3.771   3.836  10.420  0.2680  0.0647 -0.3439
  469TMC3     O 6983   3.664   3.852  10.359 -0.1535 -0.2809 -0.1596
  469TMC3     H 6984   3.987   3.855  10.584 -1.2101 -1.5881  0.6023
  469TMC3    H1 6985   3.736   4.092  10.324  1.7813  0.6844 -0.6954
  469TMC3    H2 6986   3.899   4.248  10.683 -0.3412  0.0053  0.6782
  469TMC3    C7 6987   3.737   4.303  10.494  0.5739 -0.2475  0.4378
  469TMC3    C8 6988   4.054   4.033  10.746 -0.1271 -0.1518  0.8561
  469TMC3    O1 6989   3.737   4.389  10.584 -0.2029 -0.8390  0.0456
  469TMC3    O2 6990   4.126   3.935  10.735  0.1429 -0.0025  0.2157
  470TMC3    C1 6991   1.113   0.325   0.796  0.4034  0.2595 -0.0146
  470TMC3    C2 6992   1.163   0.453   0.809 -0.1087 -0.0810 -0.5799
  470TMC3    C3 6993   1.289   0.480   0.868  0.5927  0.3473  0.3731
  470TMC3    C4 6994   1.201   0.220   0.829 -0.0988 -0.3950 -0.4377
  470TMC3    C5 6995   1.321   0.249   0.878 -0.6502  0.2508  0.2842
  470TMC3    C6 6996   1.370   0.375   0.892 -0.3268  0.7833 -0.0550
  470TMC3     C 6997   0.972   0.297   0.741  0.1031 -0.6243  0.3886
  470TMC3     O 6998   0.920   0.370   0.651 -0.4492 -0.0688 -0.3069
  470TMC3     H 6999   1.106   0.539   0.774  0.5922  1.4623  2.0829
  470TMC3    H1 7000   1.172   0.116   0.832 -1.4945  0.0086 -0.0282
  470TMC3    H2 7001   1.465   0.385   0.942 -0.5540 -0.4782  0.6385
  470TMC3    C7 7002   1.386   0.146   0.956  0.6810 -0.2587  0.1852
  470TMC3    C8 7003   1.331   0.610   0.922  0.8957 -0.5697 -0.2807
  470TMC3    O1 7004   1.506   0.143   0.939 -0.5712  0.0252  0.0127
  470TMC3    O2 7005   1.449   0.625   0.949 -0.4451 -0.0436 -0.1745
  471MPD2     C 7006   0.885   2.319  16.837 -0.1570  0.1432  0.1785
  471MPD2    C1 7007   0.968   2.209  16.816 -0.4446 -0.9864 -1.2250
  471MPD2    C2 7008   1.078   2.190  16.888 -0.3121 -0.3513 -0.3559
  471MPD2    C3 7009   1.096   2.273  17.000 -0.6139 -0.0655 -0.5348
  471MPD2    C4 7010   0.995   2.371  17.033 -0.1893 -0.1036 -0.4354
  471MPD2    C5 7011   0.896   2.401  16.949 -0.1008  0.1026  0.3510
  471MPD2     H 7012   1.139   2.104  16.864 -0.6757 -0.7094 -0.0019
  471MPD2    H1 7013   1.003   2.436  17.119 -0.1349 -0.7436  0.0498
  471MPD2    H2 7014   0.810   2.335  16.762  1.4455 -1.4193 -1.7795
  471MPD2    H3 7015   0.839   2.489  16.977 -0.8909 -0.4764  0.5807
  471MPD2     N 7016   1.197   2.238  17.094  0.3319  0.0485 -0.0429
  471MPD2    H5 7017   1.194   2.283  17.185 -0.4285  0.5494 -0.3172
  471MPD2    N1 7018   0.952   2.117  16.712 -0.2495 -0.2643 -0.2954
  471MPD2    H7 7019   1.031   2.067  16.673  0.1248 -0.4383  0.7018
  472TMC3    C1 7020   0.832   2.010  16.544 -0.6226  0.1826 -0.2938
  472TMC3    C2 7021   0.755   2.043  16.445  0.4127  0.0894  0.1875
  472TMC3    C3 7022   0.730   1.939  16.355 -0.0211  0.0525  0.2262
  472TMC3    C4 7023   0.908   1.895  16.556 -0.2356 -0.6073 -0.6261
  472TMC3    C5 7024   0.885   1.798  16.456 -0.2847 -0.1441  0.1668
  472TMC3    C6 7025   0.794   1.821  16.363  0.1658  0.1811 -0.2199
  472TMC3     C 7026   0.827   2.103  16.652 -0.1547  0.5107 -0.4217
  472TMC3     O 7027   0.719   2.156  16.669  0.6790 -0.6315  0.1395
  472TMC3     H 7028   0.692   2.131  16.436  0.8557  0.5059  1.1160
  472TMC3    H1 7029   0.950   1.868  16.652 -0.8695 -0.1441 -0.2239
  472TMC3    H2 7030   0.781   1.753  16.279 -2.7394  0.1806  0.2582
  472TMC3    C7 7031   0.885   1.660  16.512  0.2233 -0.3234 -0.2252
  472TMC3    C8 7032   0.594   1.938  16.314 -0.0148 -0.5701  0.9608
  472TMC3    O1 7033   0.885   1.651  16.638  0.4459  0.4899 -0.2457
  472TMC3    O2 7034   0.534   2.043  16.313  0.2417 -0.0157  0.0322
  473MPD2     C 7035   0.918   4.068  14.177  0.0775 -0.0593  0.4640
  473MPD2    C1 7036   0.924   4.173  14.099  0.6741  0.2375 -0.2178
  473MPD2    C2 7037   1.011   4.278  14.138 -0.0723  0.0914  0.4479
  473MPD2    C3 7038   1.093   4.263  14.244 -0.2320  0.2356 -0.0579
  473MPD2    C4 7039   1.088   4.145  14.327 -0.1936  0.1276 -0.2298
  473MPD2    C5 7040   0.995   4.048  14.291 -0.4198  0.3043 -0.1781
  473MPD2     H 7041   1.017   4.368  14.078 -4.9543  1.1129  1.4352
  473MPD2    H1 7042   1.151   4.117  14.411  1.2583 -1.0510 -1.7079
  473MPD2    H2 7043   0.841   3.996  14.150  0.2851  0.1952 -0.7983
  473MPD2    H3 7044   0.987   3.952  14.339 -0.4688 -0.4889 -1.7481
  473MPD2     N 7045   1.187   4.356  14.291  0.0569  0.3162 -0.0739
  473MPD2    H5 7046   1.249   4.330  14.368 -0.2380 -2.8582 -0.9183
  473MPD2    N1 7047   0.850   4.184  13.978 -0.3490 -0.0865 -0.6270
  473MPD2    H7 7048   0.862   4.272  13.928  0.9844  0.6009  0.8976
  474TMC3    C1 7049   1.288   4.563  14.343  1.1046  0.3826 -0.2361
  474TMC3    C2 7050   1.254   4.691  14.366 -0.5145  0.0740 -0.4986
  474TMC3    C3 7051   1.317   0.036  14.469 -0.3583 -0.6577  0.8615
  474TMC3    C4 7052   1.400   4.508  14.393  0.3532  0.2740  0.1555
  474TMC3    C5 7053   1.461   4.578  14.487  0.1945 -0.6671 -0.2015
  474TMC3    C6 7054   1.417   4.696  14.534 -0.1945 -0.5273  0.7043
  474TMC3     C 7055   1.185   4.484  14.268  0.6356  0.4459  0.7014
  474TMC3     O 7056   1.117   4.539  14.181  0.2618  0.7348  0.2237
  474TMC3     H 7057   1.174   0.014  14.311 -0.0689 -1.1124 -2.1452
  474TMC3    H1 7058   1.431   4.407  14.369  0.3347  0.3120 -0.0302
  474TMC3    H2 7059   1.471   0.016  14.617 -0.4357 -1.7668  1.5177
  474TMC3    C7 7060   1.558   4.503  14.569  0.4628 -0.4273  0.3490
  474TMC3    C8 7061   1.237   0.133  14.539  0.1805  0.4064 -0.1866
  474TMC3    O1 7062   1.641   4.439  14.508  0.4802  0.1562 -0.4121
  474TMC3    O2 7063   1.242   0.118  14.660 -0.1421 -0.3323 -0.3086
  475MPD2     C 7064   4.460   2.410  10.585 -0.3637 -0.3943 -0.2577
  475MPD2    C1 7065   4.528   2.529  10.608 -0.6665 -0.3938  0.6860
  475MPD2    C2 7066   4.454   2.647  10.600 -0.3265 -0.3087  0.3475
  475MPD2    C3 7067   4.321   2.646  10.565 -0.3412 -0.5538  0.1852
  475MPD2    C4 7068   4.257   2.523  10.542 -0.1536 -0.5351  0.0564
  475MPD2    C5 7069   4.325   2.408  10.554  0.2958 -0.1883  0.3644
  475MPD2     H 7070   4.503   2.744  10.605  0.2033 -0.5458 -0.2158
  475MPD2    H1 7071   4.151   2.514  10.522  0.1083  1.8685 -2.4314
  475MPD2    H2 7072   4.525   2.323  10.576  0.6003  0.2282  0.8087
  475MPD2    H3 7073   4.271   2.319  10.523  0.8232 -0.5265  0.4165
  475MPD2     N 7074   4.254   2.769  10.562  0.4507 -0.0293 -0.4859
  475MPD2    H5 7075   4.306   2.856  10.565  1.2435 -0.5251  0.1543
  475MPD2    N1 7076   4.668   2.531  10.610 -0.5690 -0.6301 -0.6090
  475MPD2    H7 7077   4.717   2.445  10.589  0.0472 -0.1996 -0.9356
  476TMC3    C1 7078   0.151   2.618  10.562 -0.8281 -0.9004 -0.0108
  476TMC3    C2 7079   0.142   2.568  10.435  0.3465 -0.7191  0.6704
  476TMC3    C3 7080   0.194   2.645  10.327  0.1047 -0.5332  0.2725
  476TMC3    C4 7081   0.241   2.720  10.590 -0.3756 -0.3939  0.5912
  476TMC3    C5 7082   0.302   2.786  10.488  0.9850 -0.5058  0.7085
  476TMC3    C6 7083   0.278   2.748  10.356 -0.3038  0.2857 -0.5777
  476TMC3     C 7084   0.025   2.643  10.627  0.2709  0.1983 -0.4544
  476TMC3     O 7085   0.005   2.744  10.687  0.4987 -0.0571 -0.3337
  476TMC3     H 7086   0.097   2.470  10.424 -1.1000 -0.2111  2.1045
  476TMC3    H1 7087   0.254   2.749  10.693  0.9266 -0.4616  0.4384
  476TMC3    H2 7088   0.314   2.799  10.268 -0.2993 -2.3122 -2.1072
  476TMC3    C7 7089   0.420   2.866  10.502  0.4215 -0.1728  0.0926
  476TMC3    C8 7090   0.094   2.676  10.224  0.0740  0.4029 -0.8158
  476TMC3    O1 7091   0.465   2.918  10.400 -0.4415  0.1073 -0.1751
  476TMC3    O2 7092   0.087   2.791  10.196  0.5130 -0.7695  0.2466
  477MPD2     C 7093   2.423   4.356  12.006 -0.1636 -0.2720  0.1210
  477MPD2    C1 7094   2.289   4.314  11.998  0.0190 -0.0451  0.8849
  477MPD2    C2 7095   2.257   4.191  12.051 -0.3831 -0.6687  0.2944
  477MPD2    C3 7096   2.346   4.105  12.104  0.7020 -0.4184 -0.6115
  477MPD2    C4 7097   2.479   4.145  12.101 -0.1559 -0.3829  0.9432
  477MPD2    C5 7098   2.517   4.273  12.064 -0.1243  0.4523  0.3917
  477MPD2     H 7099   2.155   4.155  12.059 -0.8001  0.2850 -0.8114
  477MPD2    H1 7100   2.558   4.083  12.140  0.8097  0.2007 -0.0889
  477MPD2    H2 7101   2.452   4.454  11.970  2.7868 -1.0915  0.2454
  477MPD2    H3 7102   2.617   4.314  12.058 -0.1981  0.2332 -2.5393
  477MPD2     N 7103   2.291   3.982  12.148  0.0876  0.0091 -0.7192
  477MPD2    H5 7104   2.193   3.958  12.162  0.3110  0.5817  1.9456
  477MPD2    N1 7105   2.202   4.403  11.939 -0.9486 -0.6968  0.0398
  477MPD2    H7 7106   2.228   4.500  11.925  0.7391 -1.0492  0.7587
  478TMC3    C1 7107   2.016   4.472  11.806  0.5291 -0.5495 -0.0661
  478TMC3    C2 7108   2.036   4.607  11.841  0.0911 -1.0112 -0.2378
  478TMC3    C3 7109   2.001   4.704  11.751  0.0190 -0.8056 -0.6152
  478TMC3    C4 7110   1.963   4.439  11.685 -0.1552  0.2731  0.3796
  478TMC3    C5 7111   1.926   4.542  11.596 -0.6762 -0.1794  0.1937
  478TMC3    C6 7112   1.943   4.674  11.634 -0.0809  0.2425  0.4898
  478TMC3     C 7113   2.083   4.365  11.883 -0.3912  0.4017  0.6652
  478TMC3     O 7114   2.054   4.248  11.852  0.2502 -0.1239  0.1233
  478TMC3     H 7115   2.083   4.637  11.934 -0.2120  1.0407 -0.7291
  478TMC3    H1 7116   1.947   4.335  11.658 -2.1257 -0.3010  3.8516
  478TMC3    H2 7117   1.930   0.027  11.558  0.2056  0.1634  0.3624
  478TMC3    C7 7118   1.935   4.518  11.456 -0.2588 -0.4334 -0.1919
  478TMC3    C8 7119   1.976   0.103  11.815  0.0203  1.2283 -1.1073
  478TMC3    O1 7120   2.020   4.582  11.399  0.1047 -0.8817 -0.0582
  478TMC3    O2 7121   2.061   0.123  11.905 -0.1081  0.0830  0.2800
  479MPD2     C 7122   0.606   1.529  15.348  0.0542 -0.4805  0.4447
  479MPD2    C1 7123   0.548   1.462  15.456  0.6023  0.0189 -0.0017
  479MPD2    C2 7124   0.577   1.514  15.583  0.2000  0.3212  0.9924
  479MPD2    C3 7125   0.660   1.618  15.607  0.2704  0.4187 -0.9245
  479MPD2    C4 7126   0.721   1.676  15.497 -0.6845  0.4747  0.2319
  479MPD2    C5 7127   0.694   1.631  15.375 -0.1621 -0.1028 -0.0091
  479MPD2     H 7128   0.510   1.474  15.658  0.5849 -0.8432  0.7093
  479MPD2    H1 7129   0.804   1.744  15.511 -1.6914  1.9726 -1.0226
  479MPD2    H2 7130   0.585   1.493  15.248  2.4367 -0.2484 -0.1430
  479MPD2    H3 7131   0.739   1.676  15.288  0.7993 -1.9840 -0.4886
  479MPD2     N 7132   0.685   1.692  15.727 -0.6864 -0.6055 -1.0286
  479MPD2    H5 7133   0.746   1.771  15.709  2.1175 -2.5761 -0.1685
  479MPD2    N1 7134   0.467   1.349  15.429  0.7020 -0.2083 -0.2089
  479MPD2    H7 7135   0.461   1.323  15.331  0.2941  3.5092 -1.1995
  480TMC3    C1 7136   0.385   1.452  16.006 -0.3823 -0.7747 -0.0362
  480TMC3    C2 7137   0.268   1.476  15.927 -0.0693  0.1488  0.2622
  480TMC3    C3 7138   0.288   1.577  15.832 -0.6720  0.2490 -0.0036
  480TMC3    C4 7139   0.506   1.512  15.988 -0.3675 -0.3058 -0.6638
  480TMC3    C5 7140   0.521   1.599  15.881 -0.0705  0.2731 -0.0382
  480TMC3    C6 7141   0.412   1.641  15.812  0.7550  0.4480  0.6973
  480TMC3     C 7142   0.377   1.327  16.084  0.2698 -0.0470 -0.3649
  480TMC3     O 7143   0.479   1.259  16.075 -0.2826 -0.5151 -0.1225
  480TMC3     H 7144   0.175   1.421  15.931  1.1046 -1.8109  0.1929
  480TMC3    H1 7145   0.584   1.473  16.051  2.1640  1.3265 -2.7694
  480TMC3    H2 7146   0.425   1.724  15.743  0.7188  1.1053  1.4734
  480TMC3    C7 7147   0.657   1.652  15.853 -0.3737  1.0918  0.0114
  480TMC3    C8 7148   0.195   1.575  15.724  0.1957  0.0855 -0.0071
  480TMC3    O1 7149   0.718   1.681  15.952  0.4434  0.5936  0.3070
  480TMC3    O2 7150   0.089   1.520  15.742  0.0063 -0.3928 -1.0025
  481MPD2     C 7151   2.244   0.693  14.052  0.0194 -0.5909  0.1828
  481MPD2    C1 7152   2.153   0.651  14.148 -0.2390 -0.9212 -0.1049
  481MPD2    C2 7153   2.199   0.604  14.268  0.0903  0.0627  0.0596
  481MPD2    C3 7154   2.332   0.616  14.309  0.5431  0.2655  0.5450
  481MPD2    C4 7155   2.417   0.669  14.216 -0.8229  0.0267 -0.6545
  481MPD2    C5 7156   2.375   0.705  14.087 -0.2856 -0.2177  0.1622
  481MPD2     H 7157   2.129   0.560  14.339 -0.8941 -0.4014 -1.2078
  481MPD2    H1 7158   2.523   0.678  14.237 -1.5044  1.3402  2.1587
  481MPD2    H2 7159   2.218   0.715  13.949 -1.5074  0.7474  0.8429
  481MPD2    H3 7160   2.440   0.750  14.013 -0.9242  1.2841  0.5091
  481MPD2     N 7161   2.377   0.595  14.442  0.1595 -0.3968  0.2564
  481MPD2    H5 7162   2.467   0.635  14.469  1.0703 -0.8180 -2.1155
  481MPD2    N1 7163   2.018   0.654  14.110  0.1814 -0.2561 -0.1535
  481MPD2    H7 7164   1.995   0.704  14.025  1.6118  0.5015 -0.1003
  482TMC3    C1 7165   1.786   0.604  14.102 -0.0613 -0.1868 -0.1909
  482TMC3    C2 7166   1.690   0.509  14.131 -0.8258 -0.2009  0.2811
  482TMC3    C3 7167   1.571   0.508  14.054 -0.3791 -0.0560  0.6133
  482TMC3    C4 7168   1.759   0.710  14.011 -0.1030 -0.9361  0.5018
  482TMC3    C5 7169   1.645   0.704  13.947 -0.7724 -0.2010  0.2436
  482TMC3    C6 7170   1.546   0.612  13.969 -0.6243 -0.1771 -0.1905
  482TMC3     C 7171   1.911   0.591  14.173  0.0032 -0.7608 -0.0084
  482TMC3     O 7172   1.917   0.501  14.257 -0.0331 -0.0163 -0.0481
  482TMC3     H 7173   1.702   0.429  14.203 -3.2661 -1.5351 -0.7865
  482TMC3    H1 7174   1.833   0.780  13.974  1.5609 -2.9238  0.0810
  482TMC3    H2 7175   1.447   0.620  13.924 -1.0127 -0.0700  0.6767
  482TMC3    C7 7176   1.610   0.803  13.845 -0.2425  1.0574  0.0692
  482TMC3    C8 7177   1.503   0.378  14.035 -0.2658  0.0851  0.9422
  482TMC3    O1 7178   1.494   0.804  13.807  0.3339  0.7061 -0.3098
  482TMC3    O2 7179   1.503   0.296  14.125  0.2713  0.4809 -1.0013
  483TMC3    C1 7180   4.702   4.166   1.310 -0.1207  0.0393 -0.0226
  483TMC3    C2 7181   0.083   4.216   1.256 -0.8637 -0.0260  0.5371
  483TMC3    C3 7182   0.203   4.164   1.282  0.6602 -0.2259 -0.3198
  483TMC3    C4 7183   4.712   4.047   1.377  0.1604 -0.2520  0.1550
  483TMC3    C5 7184   0.108   3.982   1.387 -0.4182  0.1685  0.4773
  483TMC3    C6 7185   0.223   4.043   1.351  0.3044 -0.1202 -0.1635
  483TMC3     C 7186   4.595   4.179   1.221 -0.2836 -0.4194 -0.1827
  483TMC3     O 7187   4.538   4.288   1.200 -0.5822  0.0010 -0.2630
  483TMC3     H 7188   0.070   4.302   1.191 -2.9410 -0.6010  0.1739
  483TMC3    H1 7189   4.619   4.003   1.412 -1.1230  1.0907 -1.5436
  483TMC3    H2 7190   0.318   3.992   1.360  0.4184  0.1221 -0.0197
  483TMC3    C7 7191   0.113   3.838   1.371 -0.0664 -0.5380 -0.3373
  483TMC3    C8 7192   0.317   4.231   1.221  0.2258 -0.2916  0.0986
  483TMC3    O1 7193   0.221   3.780   1.360  0.1286  0.3783  0.1708
  483TMC3    O2 7194   0.300   4.322   1.145  0.1898 -0.1955 -0.1091
  484MPD2     C 7195   2.574   2.721  12.480 -0.3260  0.4830 -0.1513
  484MPD2    C1 7196   2.639   2.611  12.538  0.8366 -0.9735  0.3026
  484MPD2    C2 7197   2.776   2.614  12.538 -0.3411 -0.0392 -0.8656
  484MPD2    C3 7198   2.848   2.717  12.476 -0.2390  0.2707  0.3624
  484MPD2    C4 7199   2.779   2.814  12.406 -0.3852 -0.4907  0.5684
  484MPD2    C5 7200   2.642   2.814  12.405 -0.3472 -0.9074 -0.2030
  484MPD2     H 7201   2.843   2.549  12.594  1.0446 -0.0682 -2.5579
  484MPD2    H1 7202   2.833   2.896  12.361 -2.0154  1.0609  1.4810
  484MPD2    H2 7203   2.466   2.727  12.484 -0.3828 -0.0629 -1.0329
  484MPD2    H3 7204   2.579   2.891  12.361 -1.0854 -2.0901 -1.2252
  484MPD2     N 7205   2.988   2.732  12.485  0.0558  0.3202  0.6585
  484MPD2    H5 7206   3.025   2.819  12.449  0.6114 -0.1541  0.0983
  484MPD2    N1 7207   2.545   2.523  12.601 -0.6841  0.3143 -1.5136
  484MPD2    H7 7208   2.445   2.534  12.588 -0.8401  0.7356 -0.0338
  485TMC3    C1 7209   3.219   2.657  12.505  0.0351  0.2035 -0.0016
  485TMC3    C2 7210   3.311   2.567  12.555  0.8616 -0.0735  0.0951
  485TMC3    C3 7211   3.441   2.564  12.497 -0.6000  0.0744  0.1274
  485TMC3    C4 7212   3.251   2.748  12.402  0.0911 -0.3720  0.3636
  485TMC3    C5 7213   3.379   2.746  12.353 -0.5143  0.1220  0.0037
  485TMC3    C6 7214   3.471   2.652  12.391  0.2807  0.2296 -0.0806
  485TMC3     C 7215   3.078   2.638  12.533 -0.6041 -0.4067 -0.9158
  485TMC3     O 7216   3.054   2.523  12.582 -0.0427 -0.2842 -0.0892
  485TMC3     H 7217   3.287   2.478  12.612  0.9776  1.2565  2.2271
  485TMC3    H1 7218   3.186   2.830  12.374 -0.2417 -0.1759  1.7113
  485TMC3    H2 7219   3.567   2.665  12.343 -0.0797 -2.0779 -1.4022
  485TMC3    C7 7220   3.403   2.780  12.216 -0.4554 -0.2267  0.8151
  485TMC3    C8 7221   3.463   2.435  12.436  0.2953  0.1044 -0.5273
  485TMC3    O1 7222   3.388   2.895  12.187 -0.6605 -0.2446 -0.1913
  485TMC3    O2 7223   3.457   2.445  12.316  0.4958 -0.0225 -0.2642
  486MPD2     C 7224   0.593   1.520  12.566  0.1307 -0.0677  0.9770
  486MPD2    C1 7225   0.464   1.481  12.554  1.0883  0.0868 -0.4260
  486MPD2    C2 7226   0.361   1.571  12.527 -0.5144 -0.2063  0.2289
  486MPD2    C3 7227   0.388   1.700  12.495 -0.6150  0.7518  0.1426
  486MPD2    C4 7228   0.522   1.744  12.508 -0.7925  0.4433  0.8103
  486MPD2    C5 7229   0.621   1.656  12.540 -0.0057  0.5257 -0.3075
  486MPD2     H 7230   0.256   1.546  12.530 -0.8154  1.0346  0.1620
  486MPD2    H1 7231   0.552   1.847  12.492  1.4541 -0.2740  0.4518
  486MPD2    H2 7232   0.675   1.452  12.586  0.3831 -0.6758 -2.0907
  486MPD2    H3 7233   0.723   1.693  12.543  0.4210 -0.6669  0.2231
  486MPD2     N 7234   0.276   1.783  12.463 -0.4981  0.2713 -0.1875
  486MPD2    H5 7235   0.187   1.736  12.476  0.2557 -0.7436  1.2144
  486MPD2    N1 7236   0.435   1.342  12.584 -0.3671  0.7720  0.2789
  486MPD2    H7 7237   0.518   1.285  12.601 -0.2209  0.9593  0.1986
  487TMC3    C1 7238   0.318   1.137  12.557 -0.1564  0.1936  0.2585
  487TMC3    C2 7239   0.221   1.070  12.485  0.3540  0.2359 -0.0376
  487TMC3    C3 7240   0.171   0.956  12.540  0.9275 -0.3026  0.4838
  487TMC3    C4 7241   0.380   1.091  12.669  0.6259  0.4147 -0.2283
  487TMC3    C5 7242   0.325   0.978  12.728  0.0280 -0.6736  0.3518
  487TMC3    C6 7243   0.224   0.911  12.662 -0.3137 -0.0736  0.1717
  487TMC3     C 7244   0.316   1.282  12.553  0.2420  0.5199 -0.1369
  487TMC3     O 7245   0.216   1.323  12.503 -0.6681 -0.1064  0.1884
  487TMC3     H 7246   0.202   1.118  12.389  1.2385  1.8269  0.5749
  487TMC3    H1 7247   0.440   1.154  12.732  2.5464  0.1115 -1.7460
  487TMC3    H2 7248   0.207   0.807  12.688  1.3388 -0.0774  1.2346
  487TMC3    C7 7249   0.353   0.968  12.871 -0.4130 -0.1049  0.0570
  487TMC3    C8 7250   0.047   0.892  12.488  0.0532  0.6493 -0.4543
  487TMC3    O1 7251   0.421   1.054  12.918 -0.8927 -0.0892  0.2333
  487TMC3    O2 7252   0.020   0.944  12.377  0.4730  0.3112 -0.2605
  488MPD2     C 7253   0.671   2.900  16.646 -0.7073 -0.9796 -0.1193
  488MPD2    C1 7254   0.621   3.025  16.677  0.3018 -0.1430 -0.2141
  488MPD2    C2 7255   0.608   3.054  16.813 -0.1567  0.2189  0.3337
  488MPD2    C3 7256   0.618   2.961  16.912 -0.0351  0.0203 -0.1178
  488MPD2    C4 7257   0.655   2.835  16.874  0.1958 -0.1955 -0.2809
  488MPD2    C5 7258   0.679   2.806  16.737  0.5440  0.3502 -0.5133
  488MPD2     H 7259   0.578   3.153  16.844 -0.8665  1.1172 -3.2301
  488MPD2    H1 7260   0.672   2.757  16.947 -0.8505 -0.0458  0.1199
  488MPD2    H2 7261   0.692   2.866  16.545  2.3023 -0.5685  0.3803
  488MPD2    H3 7262   0.715   2.707  16.712  0.1484  0.3350 -1.0178
  488MPD2     N 7263   0.584   3.003  17.042 -0.2235  0.5926  0.3041
  488MPD2    H5 7264   0.556   3.100  17.050  0.3691  0.8176 -0.3807
  488MPD2    N1 7265   0.598   3.128  16.580  0.5916  0.0091  0.4468
  488MPD2    H7 7266   0.547   3.214  16.599  0.9525  0.3157  0.0082
  489TMC3    C1 7267   0.545   2.982  17.275 -0.7903  0.6370  0.5256
  489TMC3    C2 7268   0.612   3.097  17.303  0.2056 -0.3441  0.2691
  489TMC3    C3 7269   0.592   3.163  17.423 -0.3289  0.6133 -0.1038
  489TMC3    C4 7270   0.469   2.923  17.372  0.1495  0.0646 -0.2122
  489TMC3    C5 7271   0.438   2.991  17.484 -0.1804  0.2221  0.1179
  489TMC3    C6 7272   0.495   3.111  17.511  0.1336 -0.0783 -0.0173
  489TMC3     C 7273   0.565   2.918  17.150  0.4782  0.3345  0.1671
  489TMC3     O 7274   0.590   2.793  17.158 -0.0373  0.5100  0.7335
  489TMC3     H 7275   0.672   3.148  17.229 -1.2755  0.4349 -0.4088
  489TMC3    H1 7276   0.412   2.836  17.340  1.0850 -0.0003 -1.7173
  489TMC3    H2 7277   0.473   3.171  17.599  0.9547  0.1148  0.0526
  489TMC3    C7 7278   0.345   2.936  17.578  0.1090  0.4741  0.2213
  489TMC3    C8 7279   0.606   3.312  17.410 -0.1193  1.1735 -0.2682
  489TMC3    O1 7280   0.268   3.009  17.639 -0.4854 -0.0581 -1.1449
  489TMC3    O2 7281   0.704   3.352  17.348  0.2327  0.0648 -0.2116
  490MPD2     C 7282   1.301   2.520  17.475  0.3914 -0.3798 -0.3065
  490MPD2    C1 7283   1.220   2.485  17.587 -0.4288 -0.8394  0.1917
  490MPD2    C2 7284   1.247   2.540   0.015  0.0600  0.0841  0.3711
  490MPD2    C3 7285   1.352   2.624   0.026  0.2398  0.2541 -0.0913
  490MPD2    C4 7286   1.429   2.661  17.615  0.6087 -0.0991 -0.0839
  490MPD2    C5 7287   1.405   2.609  17.489  0.1626  0.0583 -0.1921
  490MPD2     H 7288   1.186   2.532   0.105  1.4896 -2.2387  1.1488
  490MPD2    H1 7289   1.509   2.732  17.634 -0.6766  0.8778  1.7493
  490MPD2    H2 7290   1.288   2.486  17.373 -1.7277 -2.8001  0.7718
  490MPD2    H3 7291   1.470   2.630  17.405  0.2925 -0.3909 -0.2072
  490MPD2     N 7292   1.396   2.688   0.146  0.0236 -0.2630  1.0693
  490MPD2    H5 7293   1.471   2.754   0.128 -0.9634  0.2326 -1.3051
  490MPD2    N1 7294   1.108   2.399  17.579  0.4231 -0.0835  0.0964
  490MPD2    H7 7295   1.046   2.389  17.659  0.1620  0.5278 -0.0325
  491TMC3    C1 7296   0.929   2.274  17.478 -0.2974 -0.3637 -0.0605
  491TMC3    C2 7297   0.927   2.173  17.572  0.8223  0.2990 -1.1356
  491TMC3    C3 7298   0.833   2.077  17.548 -0.6200 -0.1960  0.2361
  491TMC3    C4 7299   0.844   2.279  17.371  0.2988  0.7202  0.4246
  491TMC3    C5 7300   0.750   2.181  17.357  0.0126 -0.8195 -0.1507
  491TMC3    C6 7301   0.748   2.079  17.444 -0.1491  0.4633  0.0534
  491TMC3     C 7302   1.057   2.340  17.462 -0.3916 -0.3749  1.0837
  491TMC3     O 7303   1.093   2.357  17.344 -0.3288  0.6793  0.4493
  491TMC3     H 7304   0.999   2.164  17.653 -0.3163  2.1928  0.1121
  491TMC3    H1 7305   0.867   2.361  17.303 -0.3403  1.4458  1.0887
  491TMC3    H2 7306   0.677   1.998  17.441 -2.2430  2.2375  1.3207
  491TMC3    C7 7307   0.653   2.193  17.248 -1.1622 -0.3458  0.0471
  491TMC3    C8 7308   0.827   1.963  17.638  0.7067  0.0427  0.1545
  491TMC3    O1 7309   0.596   2.092  17.209  0.0395 -0.2685 -0.0567
  491TMC3    O2 7310   0.717   1.929  17.681 -0.0864  0.2842 -0.5418
  492MPD2     C 7311   2.448   2.472  10.986 -0.1744  0.0873 -0.7071
  492MPD2    C1 7312   2.319   2.471  10.934  0.0637  0.4071 -0.0164
  492MPD2    C2 7313   2.208   2.434  11.015 -0.2712 -0.5598 -1.3044
  492MPD2    C3 7314   2.230   2.387  11.144  0.6997 -0.3246  0.5943
  492MPD2    C4 7315   2.356   2.406  11.198  0.5334 -0.0672  0.3753
  492MPD2    C5 7316   2.463   2.440  11.119 -0.1345 -0.3400  0.7026
  492MPD2     H 7317   2.107   2.441  10.979 -0.8491  0.6008  0.5407
  492MPD2    H1 7318   2.368   2.387  11.304 -0.5326  2.0555  0.8839
  492MPD2    H2 7319   2.528   2.513  10.925  0.0437 -0.0006 -0.4783
  492MPD2    H3 7320   2.558   2.449  11.169  1.5727  4.2200 -3.3504
  492MPD2     N 7321   2.124   2.343  11.226  0.4074 -0.2297  0.0725
  492MPD2    H5 7322   2.144   2.334  11.325 -2.0977 -1.2676  0.4788
  492MPD2    N1 7323   2.298   2.535  10.809 -0.3014 -0.3480  0.2865
  492MPD2    H7 7324   2.377   2.575  10.760 -0.9256 -0.3277 -0.7029
  493TMC3    C1 7325   2.178   2.677  10.647  1.0249 -0.4152  0.3132
  493TMC3    C2 7326   2.271   2.773  10.649  0.6228 -0.1903 -0.5506
  493TMC3    C3 7327   2.250   2.883  10.575  0.0847 -0.3287  0.3866
  493TMC3    C4 7328   2.059   2.688  10.580 -0.9021 -0.1889  0.0424
  493TMC3    C5 7329   2.045   2.794  10.497 -0.1970 -0.4926  0.0758
  493TMC3    C6 7330   2.150   2.883  10.485 -0.7846 -0.3939  0.4883
  493TMC3     C 7331   2.178   2.577  10.751  0.9682 -0.1141  0.3507
  493TMC3     O 7332   2.067   2.536  10.787  0.2238  0.1493  0.4986
  493TMC3     H 7333   2.353   2.767  10.720  0.1881 -0.1397 -0.0428
  493TMC3    H1 7334   1.986   2.607  10.580 -0.8887 -0.2012  0.0593
  493TMC3    H2 7335   2.136   2.965  10.415 -2.6587 -0.6082  0.6024
  493TMC3    C7 7336   1.912   2.824  10.438 -0.1152 -0.1701  0.3500
  493TMC3    C8 7337   2.351   2.996  10.588  1.0369  0.0433  0.5152
  493TMC3    O1 7338   1.835   2.730  10.423 -0.6338  0.1889  0.2015
  493TMC3    O2 7339   2.436   2.979  10.674  0.0798  0.1844 -0.2611
  494TMC3    C1 7340   1.937   3.999   0.528  0.5448 -0.0572  0.2792
  494TMC3    C2 7341   2.071   3.987   0.562  0.2794  0.3264 -0.2861
  494TMC3    C3 7342   2.166   3.978   0.462 -0.0029  0.4134 -0.0639
  494TMC3    C4 7343   1.897   3.984   0.395  0.3188  0.8975 -0.3840
  494TMC3    C5 7344   1.997   3.952   0.297  0.2020 -0.5596 -0.3396
  494TMC3    C6 7345   2.132   3.954   0.331 -0.7752 -0.2828 -0.1712
  494TMC3     C 7346   1.846   3.994   0.642 -0.1531  0.5633  0.2680
  494TMC3     O 7347   1.886   3.961   0.751  0.0671 -0.4761 -0.2868
  494TMC3     H 7348   2.103   4.002   0.665 -1.1969 -0.6188  0.2983
  494TMC3    H1 7349   1.792   3.981   0.369  0.7222  1.5820 -2.0892
  494TMC3    H2 7350   2.206   3.930   0.255 -1.7449 -0.9232 -0.9145
  494TMC3    C7 7351   1.969   3.961   0.158  0.3127 -0.3266 -0.7933
  494TMC3    C8 7352   2.300   3.945   0.498  0.2772  0.1511 -0.1894
  494TMC3    O1 7353   2.063   3.994   0.084  0.1228  0.1800 -0.3383
  494TMC3    O2 7354   2.321   3.898   0.609  0.1107  0.1153 -0.0586
  495TMC3    C1 7355   0.637   1.655  14.888  0.0964 -0.2032  0.1761
  495TMC3    C2 7356   0.582   1.688  14.763 -0.8916  0.5348  0.2350
  495TMC3    C3 7357   0.461   1.751  14.760 -0.3666 -0.5720 -0.1019
  495TMC3    C4 7358   0.588   1.698  15.004 -0.0637 -0.5372  0.0978
  495TMC3    C5 7359   0.470   1.763  14.996  0.5175  0.2977  0.2308
  495TMC3    C6 7360   0.403   1.793  14.875  0.4872 -0.4191  0.5144
  495TMC3     C 7361   0.654   1.512  14.885 -0.6515  0.4848 -0.1189
  495TMC3     O 7362   0.566   1.448  14.939 -0.0991 -0.2396  0.3553
  495TMC3     H 7363   0.647   1.668  14.679 -1.1279 -0.3006  0.2466
  495TMC3    H1 7364   0.632   1.671  15.099  1.1045 -0.5709 -0.4507
  495TMC3    H2 7365   0.322   1.864  14.871  0.2877 -0.5687  1.9619
  495TMC3    C7 7366   0.402   1.771  15.126 -0.0417  0.9971 -0.0200
  495TMC3    C8 7367   0.368   1.723  14.652  0.2796  0.0201  0.0878
  495TMC3    O1 7368   0.460   1.810  15.220 -0.2500 -0.7273  0.0878
  495TMC3    O2 7369   0.257   1.775  14.648 -0.2228 -0.5093  0.0056
  496MPD2     C 7370   2.502   1.483  15.157 -0.3024  0.0530  0.3831
  496MPD2    C1 7371   2.569   1.529  15.265  0.0782  0.2341 -0.2022
  496MPD2    C2 7372   2.494   1.569  15.376 -0.6035 -0.4672 -0.2831
  496MPD2    C3 7373   2.355   1.571  15.371 -0.4483  0.1754 -1.5772
  496MPD2    C4 7374   2.296   1.533  15.252  0.2268 -0.3686 -0.5527
  496MPD2    C5 7375   2.369   1.473  15.151  0.4850  0.1725 -1.1239
  496MPD2     H 7376   2.532   1.613  15.467 -2.3793 -2.0062  1.1938
  496MPD2    H1 7377   2.188   1.529  15.244  0.1380  0.2610  0.4048
  496MPD2    H2 7378   2.557   1.459  15.067 -2.2551 -0.1200 -0.7612
  496MPD2    H3 7379   2.319   1.427  15.066 -0.6935 -0.6609  0.0073
  496MPD2     N 7380   2.279   1.628  15.469  0.3685  0.4881  0.1543
  496MPD2    H5 7381   2.184   1.649  15.439  0.8221  0.8169 -1.0549
  496MPD2    N1 7382   2.711   1.526  15.266 -0.2026 -0.1108  0.2351
  496MPD2    H7 7383   2.766   1.504  15.184 -0.9891 -0.1198 -0.2888
  497TMC3    C1 7384   2.225   1.744  15.678 -0.2424 -0.2879  0.1981
  497TMC3    C2 7385   2.097   1.773  15.631 -0.0840 -0.1363  0.1790
  497TMC3    C3 7386   2.002   1.793  15.726  0.5635  0.2166 -0.2604
  497TMC3    C4 7387   2.259   1.765  15.808  0.2897 -0.1608  0.0577
  497TMC3    C5 7388   2.164   1.787  15.899  0.2756  0.0544 -0.4388
  497TMC3    C6 7389   2.035   1.794  15.853  0.2829 -0.0079  0.4098
  497TMC3     C 7390   2.316   1.667  15.597  0.2180  0.1064  0.6381
  497TMC3     O 7391   2.410   1.636  15.663 -0.0217 -0.2827  0.5299
  497TMC3     H 7392   2.074   1.764  15.526  0.6685 -0.8414  0.0779
  497TMC3    H1 7393   2.360   1.747  15.842  0.7257  2.4796  0.1691
  497TMC3    H2 7394   1.958   1.837  15.917  0.2107 -1.7925  1.5154
  497TMC3    C7 7395   2.170   1.735  16.031 -0.1307  0.3624  0.5608
  497TMC3    C8 7396   1.871   1.754  15.689 -0.2382 -0.6292  0.0411
  497TMC3    O1 7397   2.060   1.706  16.075 -0.2793  0.2969 -0.6255
  497TMC3    O2 7398   1.828   1.770  15.575 -0.9702  0.1370  0.4659
  498MPD2     C 7399   4.172   2.149   9.819 -0.0604  0.4888  0.1367
  498MPD2    C1 7400   4.132   2.280   9.827  0.6575 -0.0997  0.4467
  498MPD2    C2 7401   4.000   2.310   9.843  0.1060 -0.4183  0.0356
  498MPD2    C3 7402   3.907   2.210   9.849 -0.0468  0.2162  0.2371
  498MPD2    C4 7403   3.944   2.079   9.848 -0.7069  0.1238 -0.2486
  498MPD2    C5 7404   4.079   2.049   9.823  0.1954 -0.2498 -0.7397
  498MPD2     H 7405   3.973   2.414   9.856  1.8389  0.0156  0.1354
  498MPD2    H1 7406   3.881   1.994   9.871  0.8635 -1.3642 -1.3668
  498MPD2    H2 7407   4.274   2.119   9.796  0.6608  1.8219  1.5254
  498MPD2    H3 7408   4.108   1.945   9.818 -1.8394 -0.9524  2.0314
  498MPD2     N 7409   3.772   2.240   9.883 -0.6919 -0.0684  0.5332
  498MPD2    H5 7410   3.750   2.335   9.909  2.0231  1.2995 -2.1668
  498MPD2    N1 7411   4.226   2.380   9.813 -0.3079  0.7332  0.4927
  498MPD2    H7 7412   4.185   2.473   9.804 -0.6539  0.5322  0.0231
  499TMC3    C1 7413   4.423   2.501   9.800  0.8076 -0.1003 -0.3620
  499TMC3    C2 7414   4.555   2.498   9.771 -0.4675  0.2270 -0.2732
  499TMC3    C3 7415   4.624   2.613   9.797  0.0258  0.2821  0.4755
  499TMC3    C4 7416   4.376   2.609   9.872  0.1549  0.2417  0.4362
  499TMC3    C5 7417   4.442   2.727   9.874  0.0153 -0.3364 -0.2508
  499TMC3    C6 7418   4.573   2.730   9.838 -0.3823  0.9930  0.6818
  499TMC3     C 7419   4.365   2.375   9.819 -1.0399  0.7090 -0.0241
  499TMC3     O 7420   4.440   2.278   9.832  0.8228 -0.2294  0.0650
  499TMC3     H 7421   4.599   2.413   9.720  0.0816 -1.0132  2.2496
  499TMC3    H1 7422   4.278   2.600   9.918 -0.0510  0.6837  0.0870
  499TMC3    H2 7423   4.626   2.824   9.840 -2.0042  1.9094  1.0064
  499TMC3    C7 7424   4.383   2.851   9.895  0.5582  1.0912 -0.5077
  499TMC3    C8 7425   0.040   2.614   9.776  0.7761 -0.5180 -0.3009
  499TMC3    O1 7426   4.461   2.944   9.920 -0.2035  0.0860 -0.0903
  499TMC3    O2 7427   0.094   2.724   9.785 -0.1308 -0.2083 -0.2816
  500MPD2     C 7428   1.190   3.177  10.320  0.1381  0.2865 -0.3859
  500MPD2    C1 7429   1.130   3.281  10.387  0.3014 -0.2685 -0.9591
  500MPD2    C2 7430   0.993   3.296  10.382 -0.3106 -0.0363  1.6394
  500MPD2    C3 7431   0.907   3.206  10.314 -1.0702  0.2180 -0.2538
  500MPD2    C4 7432   0.968   3.097  10.252 -0.4612  1.1456 -0.8751
  500MPD2    C5 7433   1.109   3.087  10.255 -0.0800  0.2119 -0.2452
  500MPD2     H 7434   0.944   3.387  10.417  1.7127  2.2813 -1.5041
  500MPD2    H1 7435   0.912   3.017  10.205 -0.1335 -0.0637  0.7904
  500MPD2    H2 7436   1.296   3.161  10.300  0.5954 -0.6002  2.6732
  500MPD2    H3 7437   1.145   3.013  10.185  0.2860  0.5398 -0.4049
  500MPD2     N 7438   0.769   3.219  10.295 -0.5532 -0.0513 -0.1192
  500MPD2    H5 7439   0.730   3.162  10.221  0.2014 -2.2483  1.1718
  500MPD2    N1 7440   1.209   3.380  10.447 -0.1781  0.0928 -0.0536
  500MPD2    H7 7441   1.155   3.454  10.489 -0.0291  0.7149 -0.9558
  501TMC3    C1 7442   1.402   3.474  10.551  0.1978  0.1135 -0.3180
  501TMC3    C2 7443   1.351   3.605  10.540 -0.4099  0.3025  0.0543
  501TMC3    C3 7444   1.417   3.700  10.613  0.2082  0.2647 -0.4976
  501TMC3    C4 7445   1.513   3.445  10.623 -0.0048  0.2032 -0.6500
  501TMC3    C5 7446   1.575   3.545  10.687 -0.0349  0.0906 -0.4543
  501TMC3    C6 7447   1.529   3.669  10.688 -0.1832 -0.3244  0.0222
  501TMC3     C 7448   1.346   3.367  10.470 -0.7106 -0.9540 -0.4857
  501TMC3     O 7449   1.426   3.273  10.453  0.4921  0.6476  0.2027
  501TMC3     H 7450   1.266   3.619  10.475 -2.3718 -0.0701  2.5242
  501TMC3    H1 7451   1.545   3.342  10.627  1.6291  0.7775  1.1742
  501TMC3    H2 7452   1.570   3.742  10.757  0.5119 -0.6243 -0.0724
  501TMC3    C7 7453   1.653   3.503  10.797  0.0616  0.0241 -0.5933
  501TMC3    C8 7454   1.370   3.836  10.611  0.3448 -0.4779  0.9297
  501TMC3    O1 7455   1.642   3.388  10.836  0.3552  0.0284 -0.7719
  501TMC3    O2 7456   1.437   3.911  10.680 -0.8417 -0.0373 -0.4638
  502TMC3    C1 7457   4.438   2.162  15.067 -0.5222 -0.6168 -0.0758
  502TMC3    C2 7458   4.397   2.262  14.979 -0.4516  0.5659 -0.3512
  502TMC3    C3 7459   4.279   2.313  15.002 -0.3078 -0.9080  0.2783
  502TMC3    C4 7460   4.344   2.083  15.122  0.1113 -0.2393 -0.3293
  502TMC3    C5 7461   4.224   2.137  15.145 -0.3411  0.6708 -0.1292
  502TMC3    C6 7462   4.184   2.253  15.084  0.9020 -0.2787 -0.5674
  502TMC3     C 7463   4.530   2.208  15.163  0.5475 -0.7691 -0.6947
  502TMC3     O 7464   4.495   2.197  15.281  0.3491  0.3746 -0.1264
  502TMC3     H 7465   4.468   2.312  14.914  0.4463  1.7116  1.5045
  502TMC3    H1 7466   4.378   1.995  15.175 -0.3006 -0.4342 -0.3920
  502TMC3    H2 7467   4.096   2.314  15.101  1.9070  1.1835 -0.5581
  502TMC3    C7 7468   4.153   2.079  15.253 -0.4098  0.4769 -0.5375
  502TMC3    C8 7469   4.275   2.455  14.995 -0.5422 -1.0197  0.9770
  502TMC3    O1 7470   4.203   1.986  15.317 -0.0794 -0.2127  0.3113
  502TMC3    O2 7471   4.341   2.505  14.902  0.3148  0.3147  0.5185
  503MPD2     C 7472   2.012   2.841  16.683  0.0456 -0.1570  0.1989
  503MPD2    C1 7473   2.016   2.896  16.814 -0.2456 -0.0613 -0.0107
  503MPD2    C2 7474   2.053   2.817  16.922 -0.0630 -0.7524  0.0280
  503MPD2    C3 7475   2.070   2.677  16.913 -0.2710 -0.6330 -0.6165
  503MPD2    C4 7476   2.045   2.623  16.791 -0.1238  0.1563  0.0472
  503MPD2    C5 7477   2.024   2.702  16.678 -0.3109  0.4314 -0.0591
  503MPD2     H 7478   2.069   2.869  17.016 -0.4579  0.3276 -0.5034
  503MPD2    H1 7479   2.040   2.516  16.779  0.7877  0.1511 -0.3053
  503MPD2    H2 7480   1.985   2.902  16.598  0.8410  1.0692  0.8226
  503MPD2    H3 7481   2.003   2.659  16.581 -0.7729 -2.6229  1.3806
  503MPD2     N 7482   2.110   2.600  17.026  0.2389 -0.3492  0.6938
  503MPD2    H5 7483   2.107   2.655  17.111 -0.4995  1.4888 -0.5245
  503MPD2    N1 7484   1.991   3.032  16.835 -0.2588 -0.3875  0.7049
  503MPD2    H7 7485   1.992   3.067  16.930 -0.5963 -1.4688  1.1093
  504TMC3    C1 7486   2.177   2.410  17.148  0.1577  0.6645 -0.3441
  504TMC3    C2 7487   2.193   2.496  17.253 -0.1770 -0.4880  0.0893
  504TMC3    C3 7488   2.298   2.464  17.337 -0.2138  0.1223 -0.2027
  504TMC3    C4 7489   2.269   2.308  17.128 -0.0925 -0.0102  0.2529
  504TMC3    C5 7490   2.375   2.288  17.205  0.0759  0.3472 -0.4077
  504TMC3    C6 7491   2.392   2.355  17.318 -0.0141 -0.0232 -0.0082
  504TMC3     C 7492   2.146   2.466  17.018 -0.3878  0.1590  0.1940
  504TMC3     O 7493   2.185   2.399  16.920 -0.5247  0.4663  0.4941
  504TMC3     H 7494   2.119   2.569  17.283  0.4119 -0.8524  2.4247
  504TMC3    H1 7495   2.246   2.238  17.049  1.2566 -2.2386  1.8405
  504TMC3    H2 7496   2.478   2.348  17.384 -0.3642 -0.8719  0.3674
  504TMC3    C7 7497   2.490   2.250  17.130  0.8524 -0.3187  0.2004
  504TMC3    C8 7498   2.313   2.532  17.466  0.5226  0.7316 -0.5062
  504TMC3    O1 7499   2.470   2.240  17.011  0.0175 -0.6095 -0.0559
  504TMC3    O2 7500   2.295   2.651  17.473  0.1530 -0.0635 -0.1546
  505MPD2     C 7501   2.784   1.604  10.777 -0.0485  0.0529 -0.3282
  505MPD2    C1 7502   2.874   1.521  10.711  0.1161 -0.4579  0.7248
  505MPD2    C2 7503   3.009   1.545  10.739 -0.2518  1.1289 -0.2505
  505MPD2    C3 7504   3.048   1.635  10.835 -0.2825 -0.6242  0.2034
  505MPD2    C4 7505   2.960   1.698  10.909  0.1694  0.3894 -0.6306
  505MPD2    C5 7506   2.823   1.686  10.883  0.0526 -0.0754 -0.7988
  505MPD2     H 7507   3.085   1.478  10.700 -1.9015  0.4604 -2.3227
  505MPD2    H1 7508   3.000   1.770  10.980 -1.2384 -0.4454  0.9990
  505MPD2    H2 7509   2.683   1.603  10.740 -0.8739  3.0997  1.8772
  505MPD2    H3 7510   2.748   1.753  10.923  1.0628  0.9014 -0.5566
  505MPD2     N 7511   3.185   1.649  10.853  0.2903 -0.4150  0.1805
  505MPD2    H5 7512   3.240   1.575  10.810  0.5776 -1.4334  2.2533
  505MPD2    N1 7513   2.818   1.443  10.606  0.0486 -0.1676 -0.4830
  505MPD2    H7 7514   2.716   1.439  10.605  0.0450 -0.5244  1.6708
  506TMC3    C1 7515   2.808   1.307  10.419  0.1088 -0.7255  0.1796
  506TMC3    C2 7516   2.745   1.411  10.351  0.2204 -0.0480 -0.4113
  506TMC3    C3 7517   2.783   1.435  10.224  0.3486 -0.6580 -0.2542
  506TMC3    C4 7518   2.898   1.227  10.354 -0.2598  0.5396  0.4368
  506TMC3    C5 7519   2.935   1.265  10.228  0.3329 -0.0403  0.4640
  506TMC3    C6 7520   2.883   1.368  10.159 -0.1065  0.6932 -0.2412
  506TMC3     C 7521   2.885   1.349  10.532 -0.0941  0.9132 -0.8813
  506TMC3     O 7522   3.001   1.311  10.539 -0.8677 -0.1498  0.1219
  506TMC3     H 7523   2.674   1.478  10.398 -0.1322  0.0078 -1.0357
  506TMC3    H1 7524   2.948   1.144  10.401 -1.1763 -0.6650 -0.7258
  506TMC3    H2 7525   2.907   1.395  10.057  1.0188  0.7853  0.0555
  506TMC3    C7 7526   3.073   1.241  10.197 -0.7493 -0.4739 -0.0450
  506TMC3    C8 7527   2.748   1.562  10.160 -0.2473  0.2715 -1.4546
  506TMC3    O1 7528   3.092   1.204  10.079 -0.1852 -0.0980  0.2444
  506TMC3    O2 7529   2.627   1.578  10.142 -0.3316  0.7938  0.1486
  507TMC3    C1 7530   3.173   2.482  14.796 -0.6188  0.3423  0.0134
  507TMC3    C2 7531   3.137   2.382  14.702  0.9418 -0.8641 -0.2507
  507TMC3    C3 7532   3.221   2.360  14.600  0.0933 -0.2597 -0.3556
  507TMC3    C4 7533   3.282   2.557  14.782  0.1111 -0.7987  0.1040
  507TMC3    C5 7534   3.366   2.531  14.673 -0.6502  0.1149 -0.5769
  507TMC3    C6 7535   3.342   2.426  14.595  0.3331 -0.9411 -1.1022
  507TMC3     C 7536   3.094   2.520  14.905  0.0132  0.0133  0.0150
  507TMC3     O 7537   3.138   2.575  15.007  0.8213  0.3906  0.4792
  507TMC3     H 7538   3.049   2.321  14.719  0.5840  0.5042  2.9802
  507TMC3    H1 7539   3.294   2.635  14.856 -1.8077 -0.5442  0.1350
  507TMC3    H2 7540   3.412   2.385  14.523 -1.2912  1.4145 -4.0487
  507TMC3    C7 7541   3.421   2.639  14.606  0.4874  0.2618  0.5017
  507TMC3    C8 7542   3.163   2.341  14.476 -0.4716  0.2172 -0.0499
  507TMC3    O1 7543   3.427   2.630  14.483 -0.7711 -0.4085 -0.5281
  507TMC3    O2 7544   3.061   2.273  14.468 -0.6213  0.1531  0.3667
  508MPD2     C 7545   3.906   0.054  16.434 -0.2109 -0.3463 -0.0288
  508MPD2    C1 7546   4.025   0.126  16.433 -0.3055 -0.1930 -0.3316
  508MPD2    C2 7547   4.058   0.209  16.322 -0.3633 -0.1938 -0.4256
  508MPD2    C3 7548   3.966   0.222  16.215 -0.2092 -0.0469 -0.7888
  508MPD2    C4 7549   3.841   0.164  16.227 -0.1997 -0.2062 -0.2541
  508MPD2    C5 7550   3.814   0.079  16.331  1.1320 -0.3145  0.8633
  508MPD2     H 7551   4.153   0.262  16.316 -0.6861  0.4189 -0.0597
  508MPD2    H1 7552   3.762   0.177  16.154 -1.3055  1.6378  1.2790
  508MPD2    H2 7553   3.884   4.706  16.512  0.9801 -0.9470 -0.2497
  508MPD2    H3 7554   3.714   0.038  16.344  0.8936 -0.0825 -0.2099
  508MPD2     N 7555   4.010   0.300  16.107 -0.0600 -0.5079  0.2282
  508MPD2    H5 7556   4.092   0.356  16.128  0.3190 -0.2339 -1.9498
  508MPD2    N1 7557   4.109   0.124  16.551 -0.1730 -0.1871 -0.6211
  508MPD2    H7 7558   4.072   0.067  16.627 -0.2984  0.7707  0.0411
  509TMC3    C1 7559   3.945   0.600  15.766 -1.1786 -0.0111  0.1450
  509TMC3    C2 7560   4.074   0.655  15.777  0.1945 -0.2617  0.1662
  509TMC3    C3 7561   4.151   0.593  15.868  0.2691 -0.4210  0.0327
  509TMC3    C4 7562   3.905   0.486  15.826  0.3403 -0.3554 -0.4776
  509TMC3    C5 7563   3.989   0.429  15.914  0.3509  0.3088 -0.4364
  509TMC3    C6 7564   4.119   0.474  15.931 -0.5060 -1.1179  0.6122
  509TMC3     C 7565   3.845   0.675  15.684  0.0702 -0.0519 -0.4761
  509TMC3     O 7566   3.739   0.616  15.660  0.5900 -0.5206 -0.7570
  509TMC3     H 7567   4.107   0.740  15.717 -1.7948 -0.4273 -1.1695
  509TMC3    H1 7568   3.806   0.443  15.814  0.1595  0.7847 -3.0690
  509TMC3    H2 7569   4.186   0.423  16.000 -0.1548 -0.9831  0.3702
  509TMC3    C7 7570   3.953   0.311  15.984  0.4852  0.0856 -0.3082
  509TMC3    C8 7571   4.280   0.649  15.897  0.2906 -0.0991  0.0908
  509TMC3    O1 7572   3.851   0.259  15.944  0.1347  0.7476  0.0141
  509TMC3    O2 7573   4.348   0.582  15.977  0.0521 -0.5089  0.4523
  510MPD2     C 7574   2.063   2.002  14.028 -0.3755 -0.2412 -0.7787
  510MPD2    C1 7575   2.108   1.943  14.145 -0.2037 -0.0597  0.8038
  510MPD2    C2 7576   2.237   1.905  14.145 -0.6438  0.0167  0.0970
  510MPD2    C3 7577   2.314   1.913  14.031  0.4169 -0.3193 -0.1185
  510MPD2    C4 7578   2.262   1.965  13.917 -0.1263  0.2979  0.3320
  510MPD2    C5 7579   2.134   2.006  13.916 -0.5474 -0.0711  0.7156
  510MPD2     H 7580   2.280   1.865  14.236  0.1509  0.4366 -0.0897
  510MPD2    H1 7581   2.325   1.958  13.829 -2.0219 -2.2823 -0.8244
  510MPD2    H2 7582   1.961   2.039  14.027  0.0154  0.9072  1.0219
  510MPD2    H3 7583   2.093   2.052  13.827 -0.8793 -1.5668  0.1006
  510MPD2     N 7584   2.443   1.852  14.042 -0.2741 -0.6208 -0.1869
  510MPD2    H5 7585   2.452   1.811  14.135 -1.6960 -0.3718  0.0644
  510MPD2    N1 7586   2.019   1.932  14.254  0.5952 -0.0123  0.0669
  510MPD2    H7 7587   1.923   1.966  14.248  0.6088 -0.4835 -2.7637
  511TMC3    C1 7588   1.932   1.818  14.447 -0.7577 -0.7000  0.1750
  511TMC3    C2 7589   1.874   1.925  14.506 -0.0241 -0.3108  0.1794
  511TMC3    C3 7590   1.786   1.902  14.606  0.6308 -0.6272  0.2863
  511TMC3    C4 7591   1.915   1.692  14.486  0.4166  0.0029  0.1987
  511TMC3    C5 7592   1.825   1.666  14.586  0.9603 -0.0456 -0.2314
  511TMC3    C6 7593   1.757   1.769  14.641  0.2284 -0.3353  0.4403
  511TMC3     C 7594   2.039   1.835  14.347  0.4317  0.8574 -1.0281
  511TMC3     O 7595   2.125   1.746  14.340 -0.5659 -0.5913  0.2081
  511TMC3     H 7596   1.894   2.028  14.482 -2.6198  0.3414  0.8287
  511TMC3    H1 7597   1.964   1.611  14.434 -1.2148 -1.7825  1.4436
  511TMC3    H2 7598   1.692   1.747  14.726 -0.2918 -1.5203 -0.2711
  511TMC3    C7 7599   1.825   1.536  14.643  0.1108  0.2209  0.3295
  511TMC3    C8 7600   1.681   2.001  14.646 -0.0438 -0.2843 -0.1220
  511TMC3    O1 7601   1.904   1.456  14.596  0.1759 -0.2054  0.4651
  511TMC3    O2 7602   1.712   2.119  14.655  0.0121  0.0249  0.6946
  512TMC3    C1 7603   0.642   1.474  13.046 -0.8809  0.7815  0.1378
  512TMC3    C2 7604   0.605   1.415  13.166  0.0758  0.0028 -0.5210
  512TMC3    C3 7605   0.615   1.277  13.174  0.2858  0.3324  0.4739
  512TMC3    C4 7606   0.658   1.396  12.934  0.3200 -0.4569  0.1569
  512TMC3    C5 7607   0.659   1.258  12.942  0.5279  0.0260 -0.1619
  512TMC3    C6 7608   0.639   1.193  13.067 -0.1509 -0.2812  1.0492
  512TMC3     C 7609   0.619   1.613  13.024  0.6190 -0.1629 -0.3132
  512TMC3     O 7610   0.519   1.660  13.071 -0.5467 -0.1838 -0.5552
  512TMC3     H 7611   0.582   1.464  13.260  1.3597 -0.2975 -0.0523
  512TMC3    H1 7612   0.678   1.439  12.837  0.6856  0.1205  0.4874
  512TMC3    H2 7613   0.629   1.085  13.069  1.2062 -0.4500 -1.2584
  512TMC3    C7 7614   0.720   1.184  12.831  0.0179 -0.2655  0.7409
  512TMC3    C8 7615   0.664   1.214  13.294  0.0754  0.2295 -0.3555
  512TMC3    O1 7616   0.742   1.250  12.728  0.0583 -0.0851  0.1074
  512TMC3    O2 7617   0.671   1.095  13.288  0.2846  0.1620  0.7875
  513MPD2     C 7618   2.163   1.425  12.743  0.2864 -0.0055 -0.1664
  513MPD2    C1 7619   2.287   1.385  12.714 -0.6950  0.5967  0.4337
  513MPD2    C2 7620   2.382   1.405  12.809  0.0546  0.0216 -0.2395
  513MPD2    C3 7621   2.349   1.456  12.934 -0.5473  0.2576 -0.4503
  513MPD2    C4 7622   2.217   1.472  12.971  0.1536  0.3374  0.0363
  513MPD2    C5 7623   2.128   1.461  12.873  0.6120  0.6282 -0.5516
  513MPD2     H 7624   2.485   1.372  12.797  0.3082 -0.0710  2.2770
  513MPD2    H1 7625   2.184   1.508  13.068 -0.8273 -1.7127  0.4518
  513MPD2    H2 7626   2.077   1.398  12.683  0.5967 -1.5889  0.0884
  513MPD2    H3 7627   2.030   1.503  12.891 -0.8333 -1.5889 -3.1729
  513MPD2     N 7628   2.462   1.457  13.024 -0.0017  0.3905 -0.2801
  513MPD2    H5 7629   2.543   1.425  12.971 -0.3593 -0.5719 -0.2624
  513MPD2    N1 7630   2.308   1.323  12.589  0.0766 -0.2713 -0.1494
  513MPD2    H7 7631   2.235   1.317  12.518 -1.0035  0.4353  0.9151
  514TMC3    C1 7632   2.433   1.202  12.420 -0.1641 -0.0259 -0.1994
  514TMC3    C2 7633   2.435   1.308  12.325 -0.1594 -0.4310 -0.2903
  514TMC3    C3 7634   2.531   1.306  12.227  0.4135 -0.7600 -0.6026
  514TMC3    C4 7635   2.528   1.105  12.416 -0.1520 -0.3027  0.5777
  514TMC3    C5 7636   2.643   1.124  12.330  0.0663  0.6266  0.2926
  514TMC3    C6 7637   2.646   1.227  12.236 -0.1799 -0.2861 -0.0985
  514TMC3     C 7638   2.431   1.255  12.560  0.9643 -0.0638 -0.4052
  514TMC3     O 7639   2.521   1.206  12.630 -0.4416 -0.0790 -0.0262
  514TMC3     H 7640   2.364   1.389  12.338 -1.7067 -1.7960 -0.2079
  514TMC3    H1 7641   2.533   1.018  12.481 -0.8528 -2.3453 -2.1165
  514TMC3    H2 7642   2.733   1.238  12.172  0.2120  0.3186  0.5428
  514TMC3    C7 7643   2.782   1.100  12.385  0.7359  0.3950  0.3713
  514TMC3    C8 7644   2.517   1.413  12.127  0.3976 -0.3184  0.3841
  514TMC3    O1 7645   2.877   1.091  12.305  0.3351  0.2073  0.0857
  514TMC3    O2 7646   2.442   1.505  12.166  0.0119  0.1955 -0.6108
  515MPD2     C 7647   0.992   3.195  15.380 -1.2864 -0.7021  0.6742
  515MPD2    C1 7648   0.991   3.219  15.240  0.0036  0.8417 -0.4078
  515MPD2    C2 7649   1.085   3.297  15.181  0.0256 -0.4954  0.5895
  515MPD2    C3 7650   1.168   3.368  15.262 -0.3698  0.4146  0.2555
  515MPD2    C4 7651   1.166   3.350  15.402  0.2526 -0.1756  0.2755
  515MPD2    C5 7652   1.078   3.268  15.458 -0.6357 -0.3186 -0.1594
  515MPD2     H 7653   1.073   3.325  15.076 -0.4469  0.2419  0.8375
  515MPD2    H1 7654   1.235   3.407  15.464  1.6319 -1.0959 -0.4072
  515MPD2    H2 7655   0.906   3.144  15.423 -1.7039  0.4844  1.2543
  515MPD2    H3 7656   1.065   3.269  15.566  1.6994 -1.9263  0.1264
  515MPD2     N 7657   1.263   3.459  15.212 -0.0317 -0.0055  0.7095
  515MPD2    H5 7658   1.324   3.500  15.283  0.7645  0.9516 -0.5260
  515MPD2    N1 7659   0.880   3.161  15.175  0.0297 -0.0364 -0.3179
  515MPD2    H7 7660   0.803   3.118  15.224  1.8156 -2.9317 -0.0717
  516TMC3    C1 7661   0.755   3.076  14.988 -0.0605  0.2491  0.2915
  516TMC3    C2 7662   0.711   3.094  14.859 -0.5738 -0.3655 -0.1632
  516TMC3    C3 7663   0.614   3.006  14.805  0.6031  0.0545 -0.0979
  516TMC3    C4 7664   0.726   2.961  15.058  0.0217  0.0860 -0.4111
  516TMC3    C5 7665   0.649   2.872  14.985 -0.0795  0.1440  0.0721
  516TMC3    C6 7666   0.580   2.892  14.868 -0.0693 -0.0776  0.1814
  516TMC3     C 7667   0.862   3.159  15.036 -0.2948  0.0117 -0.0060
  516TMC3     O 7668   0.934   3.205  14.947 -0.5866  0.3204 -0.4133
  516TMC3     H 7669   0.755   3.178  14.807 -2.4697 -0.7390 -2.3578
  516TMC3    H1 7670   0.772   2.935  15.153 -0.6013 -3.1389 -0.9704
  516TMC3    H2 7671   0.504   2.828  14.826 -0.6075  0.3471  0.5103
  516TMC3    C7 7672   0.628   2.741  15.044 -0.3408 -0.1628  0.5285
  516TMC3    C8 7673   0.547   3.029  14.681 -0.6602  0.4179  0.2865
  516TMC3    O1 7674   0.604   2.740  15.163 -0.1670 -0.3900 -0.3588
  516TMC3    O2 7675   0.458   2.955  14.648 -0.4808 -0.1069 -0.7578
  517MPD2     C 7676   0.530   4.404   0.010  0.3297  0.6054 -0.4546
  517MPD2    C1 7677   0.596   4.295   0.065 -0.1423  0.1988 -0.7621
  517MPD2    C2 7678   0.648   4.305   0.194  0.2547  0.6674  1.4446
  517MPD2    C3 7679   0.642   4.431   0.254  0.4926 -0.1616  0.4170
  517MPD2    C4 7680   0.607   4.546   0.188 -0.0862  0.3216 -0.4425
  517MPD2    C5 7681   0.548   4.524   0.063  0.1640  0.0935 -0.8506
  517MPD2     H 7682   0.691   4.217   0.239 -1.2294 -1.3594 -1.0810
  517MPD2    H1 7683   0.633   4.645   0.224  2.5026 -0.1935 -0.8325
  517MPD2    H2 7684   0.471   4.403  17.616 -1.2564  1.2847  0.5773
  517MPD2    H3 7685   0.524   4.610   0.002  2.0521  0.7500 -0.6673
  517MPD2     N 7686   0.706   4.456   0.370 -0.1605 -0.0997  0.3590
  517MPD2    H5 7687   0.732   4.553   0.382  4.1889 -1.8420  5.1204
  517MPD2    N1 7688   0.609   4.170   0.005 -0.3221 -0.2327  0.3057
  517MPD2    H7 7689   0.660   4.108   0.068  0.7723 -1.7546 -2.0821
  518TMC3    C1 7690   0.602   4.006  17.530 -1.0150 -0.3229 -1.0977
  518TMC3    C2 7691   0.625   3.923  17.632 -0.1724 -0.6033  0.2621
  518TMC3    C3 7692   0.697   3.807  17.606  0.1442  0.7258 -0.3619
  518TMC3    C4 7693   0.656   3.984  17.406  0.5719  0.1016  0.2251
  518TMC3    C5 7694   0.741   3.876  17.387  0.0688  0.2254  0.2523
  518TMC3    C6 7695   0.753   3.780  17.485 -0.2897  0.0966 -0.1504
  518TMC3     C 7696   0.574   4.142  17.568 -0.0399 -0.5334 -0.3349
  518TMC3     O 7697   0.557   4.232  17.485 -0.1018  0.1821  0.2556
  518TMC3     H 7698   0.569   3.933   0.028  0.0767 -1.8804  0.5427
  518TMC3    H1 7699   0.646   4.057  17.326  0.5374 -2.3420 -2.0097
  518TMC3    H2 7700   0.827   3.702  17.472 -1.4569 -0.8582 -1.0473
  518TMC3    C7 7701   0.870   3.920  17.324  0.4249  0.3617  0.2971
  518TMC3    C8 7702   0.687   3.699   0.010  0.2486  0.2685  0.1176
  518TMC3    O1 7703   0.888   4.045  17.339 -0.2556 -0.1881 -0.5208
  518TMC3    O2 7704   0.619   3.734   0.103  0.3197 -0.1614 -0.3923
  519MPD2     C 7705   2.051   2.833  14.465  0.2882 -0.0750 -0.0384
  519MPD2    C1 7706   2.058   2.871  14.334  0.0366 -0.4442 -0.0736
  519MPD2    C2 7707   2.139   2.790  14.253 -0.3602  0.5537 -0.5000
  519MPD2    C3 7708   2.198   2.677  14.299 -0.2462 -0.7480  0.3048
  519MPD2    C4 7709   2.204   2.656  14.436 -0.1317  0.2325  0.2671
  519MPD2    C5 7710   2.127   2.734  14.516 -0.5986  0.1973 -0.2643
  519MPD2     H 7711   2.140   2.810  14.147 -0.4399  0.6857 -0.4763
  519MPD2    H1 7712   2.239   2.567  14.488  0.8261  0.8475  0.6814
  519MPD2    H2 7713   2.005   2.899  14.536 -0.9425 -0.2365 -0.6893
  519MPD2    H3 7714   2.141   2.711  14.621 -3.1852  1.7044  0.4165
  519MPD2     N 7715   2.245   2.590  14.198 -0.2077 -0.2377  0.2862
  519MPD2    H5 7716   2.230   2.605  14.098 -1.6863 -0.1956  0.5184
  519MPD2    N1 7717   1.978   2.981  14.293 -0.2700  0.0276  0.0188
  519MPD2    H7 7718   1.942   3.033  14.373  1.3742  0.6873  0.3396
  520TMC3    C1 7719   2.373   2.394  14.120 -0.8006  0.2833  0.3246
  520TMC3    C2 7720   2.300   2.396  14.009  0.2384  0.3221  0.2462
  520TMC3    C3 7721   2.358   2.325  13.910  0.5872 -0.3848  0.1149
  520TMC3    C4 7722   2.498   2.333  14.135  0.1360 -0.3124 -0.5930
  520TMC3    C5 7723   2.554   2.266  14.027  0.4858 -0.2856 -0.4102
  520TMC3    C6 7724   2.479   2.263  13.906  0.8804 -0.2672 -0.3997
  520TMC3     C 7725   2.330   2.481  14.229 -0.7038  0.2504  0.6346
  520TMC3     O 7726   2.390   2.465  14.336  0.9319  0.3376  0.4360
  520TMC3     H 7727   2.193   2.415  14.012  0.3720  0.9895  0.6125
  520TMC3    H1 7728   2.550   2.335  14.231  2.6196 -0.7612 -1.9236
  520TMC3    H2 7729   2.519   2.207  13.822 -0.6500  0.9372 -1.9342
  520TMC3    C7 7730   2.670   2.180  14.049  0.1294  0.0919  0.5113
  520TMC3    C8 7731   2.294   2.316  13.781 -0.5772  0.7345 -0.3819
  520TMC3    O1 7732   2.670   2.149  14.166 -0.1303 -0.2460 -0.1259
  520TMC3    O2 7733   2.348   2.262  13.686 -0.4638 -0.0234 -0.1842
  521MPD2     C 7734   2.874   0.590   0.105 -0.0743  0.2913 -0.5399
  521MPD2    C1 7735   2.862   0.519  17.686 -0.4936  0.2763 -0.1688
  521MPD2    C2 7736   2.975   0.488  17.616  0.2663 -0.1201  0.3636
  521MPD2    C3 7737   3.103   0.518  17.663  0.1919  0.4634  0.2917
  521MPD2    C4 7738   3.109   0.580   0.090 -0.1067  0.6306  0.1419
  521MPD2    C5 7739   2.999   0.622   0.156 -0.4303  0.4180  0.1037
  521MPD2     H 7740   2.980   0.442  17.517 -1.1439 -1.0857  0.7455
  521MPD2    H1 7741   3.204   0.605   0.136  0.0645 -0.2018  0.2351
  521MPD2    H2 7742   2.787   0.608   0.166 -1.0444  1.2560 -2.2203
  521MPD2    H3 7743   3.015   0.663   0.255 -1.7684  0.1663  0.4313
  521MPD2     N 7744   3.215   0.487  17.578 -0.1814 -0.1215  0.3712
  521MPD2    H5 7745   3.201   0.445  17.487 -1.2101  1.8878 -0.4081
  521MPD2    N1 7746   2.733   0.505  17.623 -0.1402  0.7688  0.0162
  521MPD2    H7 7747   2.650   0.530  17.675 -0.3063 -0.0383  0.1494
  522TMC3    C1 7748   3.443   0.468  17.516  0.2648  0.4090  0.1046
  522TMC3    C2 7749   3.557   0.404  17.554 -0.8069  0.0061  0.6835
  522TMC3    C3 7750   3.647   0.365  17.458 -0.4140 -0.3006 -0.4152
  522TMC3    C4 7751   3.411   0.484  17.384 -0.2290  0.0930  0.5788
  522TMC3    C5 7752   3.504   0.450  17.289 -0.1847 -0.6635  0.1399
  522TMC3    C6 7753   3.634   0.401  17.324 -0.2274  0.6316 -0.0567
  522TMC3     C 7754   3.348   0.487  17.622 -0.2317 -0.1541  0.5130
  522TMC3     O 7755   3.396   0.490   0.037 -0.7728  0.1253 -0.1160
  522TMC3     H 7756   3.579   0.381  17.658  3.0889  0.5583 -0.0109
  522TMC3    H1 7757   3.319   0.533  17.354  0.1201  0.6999  0.5079
  522TMC3    H2 7758   3.703   0.367  17.247 -1.3171 -2.1186  0.1891
  522TMC3    C7 7759   3.484   0.464  17.144 -0.3912 -0.6237  0.7568
  522TMC3    C8 7760   3.781   0.341  17.499 -0.2677 -0.0889  0.4664
  522TMC3    O1 7761   3.581   0.425  17.077  0.5044 -0.2969  0.4058
  522TMC3    O2 7762   3.808   0.389  17.609 -0.5522  0.4341  0.4346
  523MPD2     C 7763   1.409   0.459  10.335 -0.1717  0.7869 -0.0580
  523MPD2    C1 7764   1.327   0.405  10.239  0.4615  0.4560  0.0373
  523MPD2    C2 7765   1.302   0.479  10.125  0.1794  0.2979 -0.6067
  523MPD2    C3 7766   1.356   0.602  10.107  0.7335 -0.5263 -1.4326
  523MPD2    C4 7767   1.438   0.656  10.206  0.0382 -0.3426 -0.0729
  523MPD2    C5 7768   1.461   0.583  10.319 -0.4437  0.2312 -0.0679
  523MPD2     H 7769   1.227   0.440  10.058  1.1021  0.3122 -1.6322
  523MPD2    H1 7770   1.487   0.752  10.193  0.3137 -0.3181  1.1438
  523MPD2    H2 7771   1.448   0.411  10.424  1.3613  0.7232 -0.7539
  523MPD2    H3 7772   1.532   0.617  10.393  1.1235  0.7898 -1.8281
  523MPD2     N 7773   1.326   0.687   9.998 -0.3508 -0.2025 -0.0079
  523MPD2    H5 7774   1.379   0.773  10.003 -0.3669 -0.2807  1.4557
  523MPD2    N1 7775   1.284   0.271  10.274 -0.4727 -0.0980  0.4101
  523MPD2    H7 7776   1.307   0.232  10.364 -1.6407 -0.1187  0.7054
  524TMC3    C1 7777   1.230   0.758   9.804  0.8107  0.8174  0.0404
  524TMC3    C2 7778   1.229   0.738   9.672  0.5098  0.3048 -0.1842
  524TMC3    C3 7779   1.204   0.852   9.598  0.6617  0.1344 -0.1488
  524TMC3    C4 7780   1.162   0.859   9.863  1.0453 -0.0329 -0.8152
  524TMC3    C5 7781   1.100   0.945   9.778 -0.6500 -0.4626 -0.2095
  524TMC3    C6 7782   1.123   0.952   9.642  0.4341  0.3668  0.1638
  524TMC3     C 7783   1.270   0.645   9.885  0.7896 -0.4756 -0.6602
  524TMC3     O 7784   1.234   0.534   9.849 -0.6127 -0.3961 -0.3003
  524TMC3     H 7785   1.302   0.671   9.626  0.3812  0.9366 -1.3189
  524TMC3    H1 7786   1.145   0.855   9.970  1.0674 -2.3203 -0.8959
  524TMC3    H2 7787   1.069   1.023   9.580  1.4090  1.1410  0.2018
  524TMC3    C7 7788   0.986   1.010   9.841 -0.3314  0.6266  0.4528
  524TMC3    C8 7789   1.230   0.842   9.455 -0.0600  0.0522  0.5722
  524TMC3    O1 7790   0.958   0.966   9.951 -0.3444 -0.1228  0.2608
  524TMC3    O2 7791   1.246   0.733   9.408 -0.3129  0.5297 -0.3323
  525MPD2     C 7792   3.440   2.123  14.483  0.2808 -0.2581  0.2154
  525MPD2    C1 7793   3.564   2.149  14.533  0.0765 -0.0403  0.2262
  525MPD2    C2 7794   3.652   2.224  14.465  0.2919  0.3743  0.5435
  525MPD2    C3 7795   3.619   2.298  14.350  0.1142  0.6124  0.7931
  525MPD2    C4 7796   3.492   2.270  14.298 -0.3599 -0.5049 -0.7682
  525MPD2    C5 7797   3.413   2.181  14.354 -0.1636 -0.1509 -0.6510
  525MPD2     H 7798   3.742   2.243  14.522  0.2882  1.2822  0.2490
  525MPD2    H1 7799   3.462   2.318  14.205  1.0241 -0.5258 -1.2245
  525MPD2    H2 7800   3.377   2.050  14.531 -2.1758  0.7823 -1.4348
  525MPD2    H3 7801   3.320   2.156  14.304 -1.0824  0.5542  0.6966
  525MPD2     N 7802   3.698   2.399  14.295  0.1191 -0.1226  0.6193
  525MPD2    H5 7803   3.652   2.475  14.247  0.4026 -0.3311  0.0136
  525MPD2    N1 7804   3.600   2.096  14.655  0.4435  0.0576 -0.1624
  525MPD2    H7 7805   3.696   2.103  14.687  0.4416  1.4110 -0.4831
  526TMC3    C1 7806   3.570   1.984  14.857  0.2733 -0.1856  0.3340
  526TMC3    C2 7807   3.504   1.979  14.973  0.5127 -0.7863 -0.2653
  526TMC3    C3 7808   3.569   1.955  15.087 -0.0562  1.0393 -0.5675
  526TMC3    C4 7809   3.705   1.969  14.864  0.1925 -0.0757 -0.3126
  526TMC3    C5 7810   3.772   1.954  14.983  0.1528  0.4906 -0.4399
  526TMC3    C6 7811   3.703   1.952  15.098  0.2282  0.1588 -0.0842
  526TMC3     C 7812   3.507   2.065  14.753 -0.1956 -0.2751  0.3086
  526TMC3     O 7813   3.388   2.081  14.760 -0.0556 -0.1683  0.5907
  526TMC3     H 7814   3.397   1.999  14.977  1.2011  2.3270  1.6644
  526TMC3    H1 7815   3.759   1.968  14.770  0.1275  2.5460 -0.3785
  526TMC3    H2 7816   3.754   1.943  15.194  1.1023 -0.4048 -0.5986
  526TMC3    C7 7817   3.915   1.910  14.987 -0.6339 -1.4613 -0.6044
  526TMC3    C8 7818   3.495   1.975  15.209 -0.0099  0.7257 -0.2630
  526TMC3    O1 7819   3.955   1.863  15.091 -0.3129 -0.0760  0.2088
  526TMC3    O2 7820   3.557   2.031  15.296  0.1087 -0.3667 -0.4943
  527MPD2     C 7821   1.348   4.346   1.084 -0.2689  0.6970 -0.0714
  527MPD2    C1 7822   1.439   4.323   1.186  0.1811  0.4837  0.4688
  527MPD2    C2 7823   1.576   4.313   1.154 -0.9994 -0.0971 -0.7406
  527MPD2    C3 7824   1.620   4.331   1.028 -0.3045  0.3793  0.6300
  527MPD2    C4 7825   1.531   4.353   0.931 -0.1611 -0.1737 -0.3856
  527MPD2    C5 7826   1.396   4.355   0.954 -0.3826 -0.3254 -0.0771
  527MPD2     H 7827   1.650   4.293   1.230 -1.0149  1.0266 -0.4332
  527MPD2    H1 7828   1.565   4.344   0.828  0.8145  2.8991 -0.3240
  527MPD2    H2 7829   1.240   4.342   1.094 -0.3066  0.6051 -0.4955
  527MPD2    H3 7830   1.324   4.379   0.877  0.0424  0.2019 -0.3071
  527MPD2     N 7831   1.754   4.294   1.002 -0.3689  0.6727 -0.3477
  527MPD2    H5 7832   1.818   4.268   1.076 -2.7035 -0.1637  1.3279
  527MPD2    N1 7833   1.393   4.289   1.316 -0.5196 -0.1337 -0.8005
  527MPD2    H7 7834   1.455   4.268   1.394 -1.2120  1.9309  0.2993
  528TMC3    C1 7835   1.237   4.257   1.487 -0.8239  0.3789 -0.7670
  528TMC3    C2 7836   1.323   4.309   1.578 -0.0687  0.1513  0.5181
  528TMC3    C3 7837   1.297   4.287   1.711 -0.2138  0.2074 -0.6560
  528TMC3    C4 7838   1.113   4.207   1.527 -0.2906  0.2534  0.8170
  528TMC3    C5 7839   1.098   4.180   1.658 -0.3437 -0.3204  0.3127
  528TMC3    C6 7840   1.186   4.226   1.754  0.0953  0.1232  0.1044
  528TMC3     C 7841   1.264   4.269   1.340 -0.9184 -0.7179 -0.5050
  528TMC3     O 7842   1.171   4.235   1.269  0.4914 -0.4718  0.1245
  528TMC3     H 7843   1.419   4.352   1.554  0.9066 -3.5148 -2.0381
  528TMC3    H1 7844   1.032   4.180   1.460 -0.4616 -0.3321  1.2630
  528TMC3    H2 7845   1.184   4.183   1.853 -0.9721  0.5771  0.2785
  528TMC3    C7 7846   0.986   4.101   1.711  0.1832 -0.0058  0.6425
  528TMC3    C8 7847   1.336   4.404   1.780  0.1287 -0.4270  0.0509
  528TMC3    O1 7848   0.942   4.121   1.822 -0.0196 -0.2253  0.0653
  528TMC3    O2 7849   1.346   4.505   1.710  0.0837 -0.3365  0.0030
  529MPD2     C 7850   4.318   3.024   0.713  0.5336 -0.0429  0.4632
  529MPD2    C1 7851   4.221   3.035   0.810  0.4934 -0.8098 -0.0433
  529MPD2    C2 7852   4.139   3.149   0.823  0.1756 -0.2317  0.1259
  529MPD2    C3 7853   4.156   3.255   0.740  0.7643 -0.9231 -0.0818
  529MPD2    C4 7854   4.264   3.247   0.650 -0.2808 -0.3483  0.1764
  529MPD2    C5 7855   4.348   3.135   0.639 -0.6971  0.3856  0.0158
  529MPD2     H 7856   4.068   3.156   0.905  0.2381  0.3720  0.1231
  529MPD2    H1 7857   4.284   3.337   0.594  2.1611 -1.2450 -0.3963
  529MPD2    H2 7858   4.369   2.930   0.695  1.5392  0.8546 -1.4329
  529MPD2    H3 7859   4.436   3.144   0.576 -1.4498 -0.5390 -1.1705
  529MPD2     N 7860   4.084   3.368   0.745 -0.0433 -0.3734  0.1999
  529MPD2    H5 7861   4.097   3.440   0.675  0.9018 -0.7270  0.0184
  529MPD2    N1 7862   4.212   2.919   0.892  0.0563 -0.2277 -0.0829
  529MPD2    H7 7863   4.274   2.842   0.867 -0.2826 -0.1551 -1.1709
  530TMC3    C1 7864   4.213   2.805   1.082 -0.2772  0.5209  0.7586
  530TMC3    C2 7865   4.215   2.806   1.217  0.3616 -0.3287 -0.5039
  530TMC3    C3 7866   4.239   2.685   1.282  0.3194 -0.1091 -0.1982
  530TMC3    C4 7867   4.227   2.690   1.010  0.2297 -0.4829  0.2599
  530TMC3    C5 7868   4.255   2.572   1.076  0.6551  0.4717  0.3997
  530TMC3    C6 7869   4.250   2.568   1.212 -0.1172 -0.0284  0.1286
  530TMC3     C 7870   4.152   2.915   1.010 -0.2192 -0.1171 -0.7851
  530TMC3     O 7871   4.107   3.008   1.070  0.0083  0.4882  0.2645
  530TMC3     H 7872   4.177   2.887   1.279 -0.0137 -0.9214  0.0479
  530TMC3    H1 7873   4.214   2.690   0.902 -1.6743 -0.8065  0.4852
  530TMC3    H2 7874   4.280   2.477   1.263  0.2614 -0.7533 -1.3990
  530TMC3    C7 7875   4.217   2.453   1.013 -0.3657  0.3492  0.5671
  530TMC3    C8 7876   4.252   2.686   1.426 -0.5264 -0.2316  0.1742
  530TMC3    O1 7877   4.223   2.445   0.890 -0.1392 -0.2122 -0.1198
  530TMC3    O2 7878   4.177   2.765   1.485 -0.4095 -0.1088 -0.4183
  531MPD2     C 7879   3.062   1.123  12.813 -0.2998  0.6950  0.2313
  531MPD2    C1 7880   2.942   1.195  12.823  0.2252 -0.8704 -0.8170
  531MPD2    C2 7881   2.845   1.183  12.724  0.4585 -0.2708  0.2191
  531MPD2    C3 7882   2.877   1.109  12.618  0.1077  0.1470  0.2895
  531MPD2    C4 7883   3.006   1.065  12.601  1.1673  0.3808 -0.3241
  531MPD2    C5 7884   3.098   1.057  12.699  0.1567  0.2614  0.1116
  531MPD2     H 7885   2.746   1.226  12.721 -0.0423 -1.1870  2.9016
  531MPD2    H1 7886   3.040   1.032  12.504  1.4184 -0.6011  0.1016
  531MPD2    H2 7887   3.131   1.128  12.897 -0.5128  0.7464  0.4037
  531MPD2    H3 7888   3.191   1.001  12.706  0.3433  0.5119 -0.3152
  531MPD2     N 7889   2.781   1.100  12.522  0.2620 -0.2021 -0.3476
  531MPD2    H5 7890   2.688   1.132  12.549 -0.4875  0.1585 -3.3766
  531MPD2    N1 7891   2.910   1.253  12.944 -0.6450 -0.7704  0.2802
  531MPD2    H7 7892   2.982   1.255  13.014 -0.7057 -0.3378  0.3311
  532TMC3    C1 7893   2.787   1.362  13.113 -1.0532 -0.6463 -0.0865
  532TMC3    C2 7894   2.698   1.461  13.115 -0.1757 -0.4230  0.1358
  532TMC3    C3 7895   2.598   1.455  13.210 -0.9628 -0.1672 -0.0694
  532TMC3    C4 7896   2.781   1.256  13.199  0.6660  1.2416  0.4956
  532TMC3    C5 7897   2.689   1.260  13.302 -0.5138  0.7730 -0.9727
  532TMC3    C6 7898   2.600   1.366  13.309  0.7062  0.2443 -0.3318
  532TMC3     C 7899   2.791   1.317  12.973  0.9331  0.0399 -0.2845
  532TMC3     O 7900   2.686   1.319  12.913 -0.6452 -0.4837  0.0357
  532TMC3     H 7901   2.695   1.529  13.030  3.6321 -0.0361  0.2891
  532TMC3    H1 7902   2.856   1.178  13.187 -0.6800  0.0792 -0.3701
  532TMC3    H2 7903   2.523   1.369  13.385  2.0973 -2.2806  1.1655
  532TMC3    C7 7904   2.712   1.188  13.422  0.4294 -0.2856  0.9305
  532TMC3    C8 7905   2.466   1.477  13.165  0.4574  0.1684 -0.1869
  532TMC3    O1 7906   2.654   1.234  13.522  0.4691 -0.1284 -0.1015
  532TMC3    O2 7907   2.369   1.493  13.239 -0.3985 -0.1032 -0.6621
  533TMC3    C1 7908   3.864   2.550  14.335  0.4285  0.1417 -0.5025
  533TMC3    C2 7909   3.993   2.581  14.324 -0.7388 -0.0973 -0.2237
  533TMC3    C3 7910   4.050   2.685  14.394 -1.1897 -0.2149 -0.3438
  533TMC3    C4 7911   3.789   2.618  14.429 -0.4579 -0.0506 -0.2976
  533TMC3    C5 7912   3.850   2.710  14.515 -0.0853 -0.2200  0.5412
  533TMC3    C6 7913   3.985   2.745  14.499  0.3572  0.0974  0.7331
  533TMC3     C 7914   3.828   2.415  14.318  0.2959 -0.2233  1.1874
  533TMC3     O 7915   3.909   2.327  14.361 -0.6412  0.1949  0.5379
  533TMC3     H 7916   4.057   2.513  14.268 -0.1046 -2.0170  2.8087
  533TMC3    H1 7917   3.683   2.600  14.448 -0.2710  1.0570  1.8340
  533TMC3    H2 7918   4.035   2.811  14.569 -1.2103  0.4166  1.5539
  533TMC3    C7 7919   3.786   2.709  14.645  0.2712 -0.2746  0.2954
  533TMC3    C8 7920   4.183   2.726  14.356  0.2817  0.6399  0.4655
  533TMC3    O1 7921   3.744   2.602  14.679 -0.2726  0.3199 -0.0283
  533TMC3    O2 7922   4.208   2.710  14.239  0.6567  0.1797  0.1883
  534MPD2     C 7923   0.957   4.209   2.383  0.1361  0.0436 -0.0277
  534MPD2    C1 7924   1.070   4.141   2.329 -1.0264 -0.0170  0.1114
  534MPD2    C2 7925   1.047   4.035   2.240 -0.3463 -0.0061  0.6253
  534MPD2    C3 7926   0.910   4.003   2.200 -0.3537 -0.0161 -0.2313
  534MPD2    C4 7927   0.809   4.065   2.262  0.5224  0.1964 -0.2356
  534MPD2    C5 7928   0.829   4.164   2.349 -0.9422  0.1020 -0.4742
  534MPD2     H 7929   1.130   3.981   2.197  1.4421  2.1832  1.3168
  534MPD2    H1 7930   0.705   4.047   2.240  0.2672  1.2079  0.1565
  534MPD2    H2 7931   0.965   4.285   2.460 -1.9643  1.2907 -1.0403
  534MPD2    H3 7932   0.741   4.212   2.391 -0.7113  2.1135 -2.3328
  534MPD2     N 7933   0.874   3.913   2.091  0.3680  0.2376 -0.4001
  534MPD2    H5 7934   0.774   3.907   2.074  0.7289 -0.0248 -2.4041
  534MPD2    N1 7935   1.201   4.169   2.363 -0.5979 -0.0310 -0.9175
  534MPD2    H7 7936   1.272   4.118   2.311 -1.1869 -0.9381 -0.8334
  535TMC3    C1 7937   0.907   3.750   1.912 -0.1752  0.2309 -0.2978
  535TMC3    C2 7938   0.772   3.713   1.923  0.7990  0.4285 -0.3256
  535TMC3    C3 7939   0.731   3.620   1.835  0.3813  0.5168 -0.3238
  535TMC3    C4 7940   0.990   3.695   1.816 -0.1699 -0.2108  0.7715
  535TMC3    C5 7941   0.940   3.608   1.728 -0.2003  0.2598 -0.4214
  535TMC3    C6 7942   0.804   3.573   1.727  0.5074  0.0356 -0.5352
  535TMC3     C 7943   0.963   3.851   2.003 -0.6714  0.5640  0.4503
  535TMC3     O 7944   1.078   3.880   1.983 -0.0948 -0.5333  0.0634
  535TMC3     H 7945   0.711   3.749   2.005 -0.1807 -1.1632 -0.3606
  535TMC3    H1 7946   1.095   3.721   1.805  0.1743 -0.9418  2.3604
  535TMC3    H2 7947   0.755   3.504   1.659  1.5743 -0.6774 -0.5997
  535TMC3    C7 7948   1.006   3.597   1.599 -0.5372 -0.3277  0.0939
  535TMC3    C8 7949   0.604   3.552   1.854  0.1078  0.7028 -0.7827
  535TMC3    O1 7950   1.128   3.593   1.600  0.0819  0.0482 -1.1555
  535TMC3    O2 7951   0.540   3.506   1.758  0.5503  0.7755 -0.0081
  536MPD2     C 7952   0.440   2.337  16.131  0.0325 -0.4843  0.1154
  536MPD2    C1 7953   0.320   2.322  16.186  0.2976  0.2207  0.1024
  536MPD2    C2 7954   0.210   2.385  16.122  0.0268 -0.6098 -0.0024
  536MPD2    C3 7955   0.228   2.463  16.008  1.1091 -0.2801 -0.0513
  536MPD2    C4 7956   0.352   2.463  15.948  1.2250  0.8679 -0.2014
  536MPD2    C5 7957   0.460   2.410  16.018 -0.3836  0.1059  0.4740
  536MPD2     H 7958   0.114   2.360  16.166 -1.3172 -0.3615 -2.7942
  536MPD2    H1 7959   0.381   2.519  15.861  1.9712 -1.6685 -1.5826
  536MPD2    H2 7960   0.525   2.292  16.182 -2.0876 -3.0090  1.4499
  536MPD2    H3 7961   0.558   2.413  15.973  0.2839 -1.2850  1.8228
  536MPD2     N 7962   0.121   2.525  15.936 -0.3653  0.1986 -0.8854
  536MPD2    H5 7963   0.158   2.585  15.863  1.2130  0.5708  0.2256
  536MPD2    N1 7964   0.302   2.227  16.295  0.4747 -0.5281  0.1495
  536MPD2    H7 7965   0.385   2.180  16.329  1.7107  0.6791 -1.1916
  537TMC3    C1 7966   0.207   2.097  16.463 -0.1050 -0.3279 -0.4275
  537TMC3    C2 7967   0.308   2.139  16.555 -0.6898 -0.1352  0.0495
  537TMC3    C3 7968   0.316   2.077  16.676  0.2944 -0.0213  0.4496
  537TMC3    C4 7969   0.123   1.996  16.490 -0.3325  0.7766  0.2776
  537TMC3    C5 7970   0.141   1.928  16.605 -0.3988 -0.3199 -0.0196
  537TMC3    C6 7971   0.239   1.964  16.702  0.5949  0.3697 -0.0115
  537TMC3     C 7972   0.186   2.185  16.349  0.1457  0.9949 -0.0743
  537TMC3     O 7973   0.072   2.198  16.304 -0.0527 -0.3309 -0.7177
  537TMC3     H 7974   0.380   2.219  16.538 -0.0625 -0.1010  2.7697
  537TMC3    H1 7975   0.044   1.962  16.425  0.7534  2.1241 -1.7584
  537TMC3    H2 7976   0.229   1.939  16.807 -0.7383 -1.9816 -0.7113
  537TMC3    C7 7977   0.050   1.825  16.633  0.3359 -0.4108 -0.0774
  537TMC3    C8 7978   0.413   2.119  16.778  0.5299  0.3496  0.0998
  537TMC3    O1 7979   4.661   1.831  16.577 -0.2261  0.3560  0.2755
  537TMC3    O2 7980   0.425   2.043  16.876 -0.2729  0.0147 -0.0787
  538TMC3    C1 7981   1.961   0.571  11.226 -0.1987  0.4761  0.3827
  538TMC3    C2 7982   1.997   0.490  11.116  0.3073 -0.2865 -0.4280
  538TMC3    C3 7983   1.900   0.462  11.022  0.2971 -0.3243 -0.5043
  538TMC3    C4 7984   1.837   0.618  11.239  0.0490 -0.8425  0.1032
  538TMC3    C5 7985   1.740   0.571  11.160 -0.7800  0.2574  0.2577
  538TMC3    C6 7986   1.773   0.490  11.054  0.3191  0.2430  0.5077
  538TMC3     C 7987   2.037   0.580  11.343 -0.0566 -0.5292 -0.5188
  538TMC3     O 7988   1.988   0.546  11.445  0.5350 -0.8178 -0.5118
  538TMC3     H 7989   2.097   0.454  11.094  0.7219 -0.1054  1.1168
  538TMC3    H1 7990   1.831   0.685  11.324 -1.1129 -1.4788  0.5223
  538TMC3    H2 7991   1.697   0.462  10.982 -1.4222  0.5205  2.2236
  538TMC3    C7 7992   1.621   0.652  11.141  0.2731 -0.6429 -0.5397
  538TMC3    C8 7993   1.922   0.398  10.897  0.3747 -0.1949  0.0483
  538TMC3    O1 7994   1.535   0.591  11.080 -0.4086  1.0625 -0.0655
  538TMC3    O2 7995   2.016   0.321  10.898  0.1210 -0.6518  0.2733
  539MPD2     C 7996   1.836   0.318  11.954  0.5719  0.0263  0.4687
  539MPD2    C1 7997   1.806   0.288  11.827  0.4150 -0.0721  0.2971
  539MPD2    C2 7998   1.703   0.356  11.760  0.0064 -0.1057 -0.5870
  539MPD2    C3 7999   1.635   0.454  11.825 -0.6468  0.3062 -0.2339
  539MPD2    C4 8000   1.668   0.480  11.959  0.2506 -0.8687 -0.9378
  539MPD2    C5 8001   1.762   0.408  12.023 -0.5854 -0.3125  0.1460
  539MPD2     H 8002   1.678   0.329  11.657  0.4519 -2.0136 -0.2024
  539MPD2    H1 8003   1.623   0.554  12.025  1.4880 -0.0320 -1.0154
  539MPD2    H2 8004   1.906   0.262  12.014 -0.3538 -3.4737 -1.7040
  539MPD2    H3 8005   1.777   0.417  12.130  0.2510 -0.9501  0.0789
  539MPD2     N 8006   1.545   0.542  11.766 -0.8002  0.1833  0.4639
  539MPD2    H5 8007   1.521   0.622  11.823 -0.1514  1.4071 -0.9822
  539MPD2    N1 8008   1.875   0.181  11.762  0.1631  0.1675  0.0098
  539MPD2    H7 8009   1.841   0.144  11.673 -4.7249  0.4664  1.7193
  540TMC3    C1 8010   1.386   0.621  11.601  0.2720  0.0908 -0.8394
  540TMC3    C2 8011   1.355   0.616  11.467 -0.2728  0.5078 -0.3438
  540TMC3    C3 8012   1.261   0.700  11.415 -0.4888  0.3231  0.7166
  540TMC3    C4 8013   1.343   0.715  11.688  0.5107 -0.4497  0.1954
  540TMC3    C5 8014   1.256   0.803  11.626 -0.5342 -0.3394 -0.1521
  540TMC3    C6 8015   1.214   0.803  11.494  0.0873  0.4037 -0.0070
  540TMC3     C 8016   1.486   0.526  11.644  0.2913  0.7813 -0.5497
  540TMC3     O 8017   1.514   0.441  11.557 -0.4320 -0.1842 -0.0527
  540TMC3     H 8018   1.400   0.548  11.395 -0.7825 -0.4530  0.2457
  540TMC3    H1 8019   1.359   0.728  11.794 -3.2536  0.0590  0.6882
  540TMC3    H2 8020   1.137   0.874  11.468  1.2752  0.8427 -2.3183
  540TMC3    C7 8021   1.177   0.888  11.718  0.0348 -0.1746  0.3083
  540TMC3    C8 8022   1.205   0.688  11.283  0.7341 -0.2811 -0.4750
  540TMC3    O1 8023   1.110   0.830  11.803  0.1309 -0.1500 -0.0379
  540TMC3    O2 8024   1.162   0.782  11.220  0.0471  0.3634  0.6869
  541MPD2     C 8025   4.699   0.961  13.239 -0.1039 -0.1676  0.2921
  541MPD2    C1 8026   4.643   0.902  13.130 -0.1934 -0.1555 -0.0451
  541MPD2    C2 8027   4.644   0.951  12.998  0.4846  0.2150 -0.0702
  541MPD2    C3 8028   4.698   1.077  12.979  0.0081  0.0537  0.5604
  541MPD2    C4 8029   0.050   1.133  13.082 -0.4684  0.1986  0.6059
  541MPD2    C5 8030   0.058   1.065  13.201 -0.0224  0.3450  0.2330
  541MPD2     H 8031   4.583   0.900  12.924 -1.6221 -0.1931  1.9108
  541MPD2    H1 8032   0.112   1.222  13.072  0.0631 -0.2658 -0.2932
  541MPD2    H2 8033   4.690   0.919  13.338  0.4255 -1.2738 -0.1248
  541MPD2    H3 8034   0.115   1.119  13.276  0.1109 -1.2063  1.2457
  541MPD2     N 8035   4.686   1.158  12.862  0.1882  0.0096  0.2419
  541MPD2    H5 8036   0.029   1.228  12.831 -0.5643  0.4330 -0.4289
  541MPD2    N1 8037   4.565   0.789  13.161 -0.3840  0.0910 -0.1244
  541MPD2    H7 8038   4.533   0.780  13.257  0.6312  0.1615  0.2212
  542TMC3    C1 8039   4.604   1.242  12.654  1.0755  0.2135 -0.4405
  542TMC3    C2 8040   4.589   1.207  12.524 -0.8071  0.6751  0.3043
  542TMC3    C3 8041   4.620   1.297  12.425 -0.9866  0.1479 -0.2968
  542TMC3    C4 8042   4.645   1.373  12.684  0.2392  0.2082 -0.4626
  542TMC3    C5 8043   4.664   1.459  12.585 -0.0416 -0.2900 -0.4718
  542TMC3    C6 8044   4.655   1.424  12.456  0.5583 -0.1488  0.4075
  542TMC3     C 8045   4.596   1.139  12.758 -0.9446 -0.0683 -0.1564
  542TMC3     O 8046   4.504   1.057  12.752 -0.3092 -0.2809  0.0624
  542TMC3     H 8047   4.561   1.108  12.489  1.8247 -0.1711  0.6460
  542TMC3    H1 8048   4.663   1.406  12.786  0.5278 -2.8585  0.4851
  542TMC3    H2 8049   4.667   1.501  12.380  1.1288 -0.8943 -0.2655
  542TMC3    C7 8050   4.708   1.590  12.620  0.0314  0.3799  0.1535
  542TMC3    C8 8051   4.667   1.250  12.300 -0.2853 -0.5046  0.0246
  542TMC3    O1 8052   0.049   1.642  12.529 -0.0162  0.0203  0.6434
  542TMC3    O2 8053   4.592   1.167  12.242  0.3356 -0.2734 -0.6173
  543TMC3    C1 8054   3.564   2.087  17.416 -0.1126  0.0948 -0.1347
  543TMC3    C2 8055   3.584   1.950  17.428 -0.4417  0.2827  0.3061
  543TMC3    C3 8056   3.557   1.876  17.543  0.6351 -0.0683  0.3170
  543TMC3    C4 8057   3.496   2.155  17.510  0.4681  0.6681 -0.1661
  543TMC3    C5 8058   3.482   2.086  17.634  0.3262  0.5337  0.0219
  543TMC3    C6 8059   3.503   1.948  17.650 -0.0594 -0.1139  0.1432
  543TMC3     C 8060   3.578   2.139  17.280  0.4451 -0.2535 -0.0763
  543TMC3     O 8061   3.658   2.088  17.206 -0.0439  0.4410 -0.3692
  543TMC3     H 8062   3.628   1.897  17.344  0.8215  1.6332  0.1062
  543TMC3    H1 8063   3.484   2.263  17.504 -2.7875  0.2980 -0.4200
  543TMC3    H2 8064   3.454   1.898   0.036 -0.6220  0.3492  0.0925
  543TMC3    C7 8065   3.439   2.158   0.059  0.1389  0.2420 -0.2880
  543TMC3    C8 8066   3.600   1.741  17.550 -0.1438 -0.1202 -0.5548
  543TMC3    O1 8067   3.360   2.249   0.040  0.0049 -0.5300  0.6722
  543TMC3    O2 8068   3.653   1.698  17.449  0.1915  0.1899  0.4085
  544MPD2     C 8069   3.691   1.278   0.049  0.9213  0.3427  1.1006
  544MPD2    C1 8070   3.644   1.316  17.621 -0.1840 -0.2389  0.1796
  544MPD2    C2 8071   3.602   1.450  17.594 -0.0947 -1.1116 -0.5173
  544MPD2    C3 8072   3.624   1.544  17.688  0.1514  0.3326 -0.1544
  544MPD2    C4 8073   3.664   1.503   0.118 -0.5924 -0.5196 -0.2103
  544MPD2    C5 8074   3.693   1.372   0.145 -0.4789  0.0876 -0.0561
  544MPD2     H 8075   3.562   1.477  17.497  1.1563 -0.3214 -0.8111
  544MPD2    H1 8076   3.673   1.579   0.195  0.5387 -0.8232 -0.0597
  544MPD2    H2 8077   3.712   1.172   0.063 -0.3519  0.2962  2.6271
  544MPD2    H3 8078   3.726   1.348   0.245  0.4146 -1.1352 -0.6478
  544MPD2     N 8079   3.587   1.680  17.669  0.0922 -0.4116 -0.4228
  544MPD2    H5 8080   3.580   1.735   0.057 -2.8849 -1.7305  0.2127
  544MPD2    N1 8081   3.629   1.209  17.526  0.4631 -0.2826  0.0647
  544MPD2    H7 8082   3.685   1.125  17.528  1.5064  0.4059 -0.5538
  545TMC3    C1 8083   3.556   1.112  17.328 -0.5268 -1.1204  0.3762
  545TMC3    C2 8084   3.455   1.074  17.246  0.0856 -0.5061  0.2119
  545TMC3    C3 8085   3.476   0.991  17.140 -0.7087  0.0858  0.5789
  545TMC3    C4 8086   3.690   1.067  17.308  0.1765 -0.1209  0.5098
  545TMC3    C5 8087   3.707   0.973  17.205 -0.3487 -0.5999 -0.7701
  545TMC3    C6 8088   3.602   0.941  17.126 -0.1329  0.5505  0.6606
  545TMC3     C 8089   3.542   1.220  17.423  0.2980 -0.0097 -0.6186
  545TMC3     O 8090   3.454   1.304  17.403  0.5013 -0.3354  0.0963
  545TMC3     H 8091   3.356   1.114  17.270 -0.0179 -0.6678  0.0451
  545TMC3    H1 8092   3.775   1.119  17.351 -0.6032  0.3342  1.5020
  545TMC3    H2 8093   3.619   0.858  17.058 -2.3877  0.9855 -0.4579
  545TMC3    C7 8094   3.828   0.971  17.127 -0.3676  0.0365 -0.4610
  545TMC3    C8 8095   3.396   1.010  17.015 -0.7491  0.3260 -0.2201
  545TMC3    O1 8096   3.817   0.974  17.006  0.4348  0.6657 -0.0621
  545TMC3    O2 8097   3.299   1.079  17.039  0.5515  0.0968  0.4167
  546MPD2     C 8098   0.459   2.157   0.077 -0.1298  0.3302 -0.1070
  546MPD2    C1 8099   0.435   2.212  17.646 -0.3147  0.2102  0.0171
  546MPD2    C2 8100   0.512   2.316  17.591  0.8567 -0.4194 -0.2968
  546MPD2    C3 8101   0.613   2.364  17.677 -0.2223 -0.3292  0.1174
  546MPD2    C4 8102   0.638   2.295   0.100  0.1078 -0.3029  0.3338
  546MPD2    C5 8103   0.564   2.192   0.152  0.8322  0.4506 -0.5368
  546MPD2     H 8104   0.488   2.355  17.493 -0.7580  0.5801  0.4906
  546MPD2    H1 8105   0.715   2.330   0.168 -0.9936  0.0652  1.3992
  546MPD2    H2 8106   0.397   2.081   0.123 -0.7453  0.6402 -0.4256
  546MPD2    H3 8107   0.585   2.154   0.252 -2.8676 -1.1083 -0.3575
  546MPD2     N 8108   0.675   2.484  17.651 -0.4783 -0.8030  0.0496
  546MPD2    H5 8109   0.721   2.521   0.037 -1.4491  1.3847 -0.3941
  546MPD2    N1 8110   0.327   2.160  17.581  0.1472 -0.0991  0.0622
  546MPD2    H7 8111   0.285   2.077  17.623 -2.3801  1.9232  1.5133
  547TMC3    C1 8112   0.142   2.142  17.436  0.5343  0.1540 -0.0451
  547TMC3    C2 8113   0.063   2.195  17.341 -0.1811  0.2091 -0.4488
  547TMC3    C3 8114   4.666   2.143  17.326 -0.6374  0.4376  0.0023
  547TMC3    C4 8115   0.099   2.029  17.506 -0.4962  0.0102  0.5848
  547TMC3    C5 8116   4.699   1.978  17.474  0.6547 -0.5900  0.1273
  547TMC3    C6 8117   4.607   2.050  17.403  0.4315  0.6032 -0.0689
  547TMC3     C 8118   0.264   2.214  17.471 -0.1484  0.0884 -0.5173
  547TMC3     O 8119   0.286   2.323  17.425  0.1365 -0.8806  0.3886
  547TMC3     H 8120   0.085   2.290  17.295 -1.4009 -0.5666 -2.6364
  547TMC3    H1 8121   0.163   1.975  17.574 -2.3505 -1.5315  1.1108
  547TMC3    H2 8122   4.505   2.016  17.386  1.7345 -2.9811 -0.6492
  547TMC3    C7 8123   4.660   1.857  17.548 -1.0392 -0.1390  0.3503
  547TMC3    C8 8124   4.584   2.175  17.211 -0.3339  0.5153  0.3058
  547TMC3    O1 8125   0.003   1.831  17.645  0.0135  0.1135 -0.0156
  547TMC3    O2 8126   4.465   2.152  17.204 -0.0433 -0.8127 -0.2493
  548MPD2     C 8127   0.352   3.381  12.315 -0.1406 -0.5172  0.1615
  548MPD2    C1 8128   0.329   3.253  12.362 -0.8083 -0.2401  0.2324
  548MPD2    C2 8129   0.391   3.148  12.296 -0.2383  0.1290 -0.2240
  548MPD2    C3 8130   0.492   3.171  12.205  0.7458 -0.3420 -0.8489
  548MPD2    C4 8131   0.528   3.304  12.180 -0.1718  0.2396 -1.2416
  548MPD2    C5 8132   0.461   3.410  12.232 -0.3138 -0.2690  0.7548
  548MPD2     H 8133   0.367   3.051  12.337  2.6100 -0.0810  0.9086
  548MPD2    H1 8134   0.602   3.326  12.104  0.3089 -0.5960 -1.0215
  548MPD2    H2 8135   0.297   3.466  12.355  3.4760  1.4981  0.8546
  548MPD2    H3 8136   0.477   3.512  12.199  1.0312 -1.2685 -1.6689
  548MPD2     N 8137   0.558   3.057  12.149  0.0247  0.1587 -0.2699
  548MPD2    H5 8138   0.541   2.966  12.191 -0.2070 -0.1926 -1.1327
  548MPD2    N1 8139   0.239   3.237  12.473 -0.4039  0.3435 -0.3755
  548MPD2    H7 8140   0.185   3.318  12.500 -0.8700  0.4067 -1.5275
  549TMC3    C1 8141   0.145   3.142  12.671  0.4737 -0.0532  0.0199
  549TMC3    C2 8142   0.121   3.250  12.739  0.0284  0.8792  0.4628
  549TMC3    C3 8143   0.032   3.251  12.834  0.5068 -0.1132  0.7084
  549TMC3    C4 8144   0.103   3.018  12.705  1.0162  0.0538  0.0362
  549TMC3    C5 8145   0.008   3.016  12.801  0.3384  0.2886  0.1491
  549TMC3    C6 8146   4.696   3.128  12.864 -0.1848  0.3033 -0.5706
  549TMC3     C 8147   0.248   3.137  12.566  0.3497  0.0951 -0.5705
  549TMC3     O 8148   0.338   3.057  12.571 -0.1986 -0.0292 -0.1668
  549TMC3     H 8149   0.174   3.340  12.709 -1.1713  0.3779 -3.1405
  549TMC3    H1 8150   0.135   2.937  12.640  1.0957 -0.0526  0.2077
  549TMC3    H2 8151   4.618   3.123  12.939  1.1215  1.3649  0.8628
  549TMC3    C7 8152   4.644   2.900  12.817  0.1599  0.3694  0.0574
  549TMC3    C8 8153   4.664   3.366  12.833  0.4529 -0.3606  0.0061
  549TMC3    O1 8154   4.549   2.918  12.895  0.2504  0.1947 -0.9293
  549TMC3    O2 8155   4.545   3.340  12.835 -0.2010 -0.4613  0.2974
  550TMC3    C1 8156   3.607   0.585  12.170 -0.2255  0.3808  0.0997
  550TMC3    C2 8157   3.572   0.643  12.285  0.2493  0.4781 -0.8346
  550TMC3    C3 8158   3.485   0.752  12.280 -0.3602  0.3431  0.7109
  550TMC3    C4 8159   3.564   0.613  12.050 -0.4308  0.3513 -0.1187
  550TMC3    C5 8160   3.489   0.725  12.047 -0.2417 -0.1669 -0.2394
  550TMC3    C6 8161   3.456   0.800  12.152 -0.5844 -0.3622 -0.2800
  550TMC3     C 8162   3.686   0.465  12.188 -0.2752  0.1822 -0.2263
  550TMC3     O 8163   3.664   0.402  12.293 -0.2092 -0.3055 -0.2909
  550TMC3     H 8164   3.632   0.621  12.372 -2.7487  0.2385  1.1757
  550TMC3    H1 8165   3.593   0.562  11.959 -0.6982  1.3503 -0.7640
  550TMC3    H2 8166   3.417   0.900  12.137 -1.8157 -1.1558 -2.2806
  550TMC3    C7 8167   3.471   0.795  11.924  0.2219  0.1391 -0.8541
  550TMC3    C8 8168   3.471   0.852  12.391 -0.3474  0.3273  0.7281
  550TMC3    O1 8169   3.370   0.864  11.927 -0.0543  0.2994  0.3352
  550TMC3    O2 8170   3.411   0.959  12.367 -0.5268  1.0135  0.1411
  551TMC3    C1 8171   1.364   3.751  13.190  0.3091  0.5420 -0.1703
  551TMC3    C2 8172   1.467   3.786  13.106  0.3701 -0.6369  0.6033
  551TMC3    C3 8173   1.572   3.865  13.149  0.7446  0.2401 -0.7534
  551TMC3    C4 8174   1.358   3.799  13.318 -0.0432  0.2695 -0.6695
  551TMC3    C5 8175   1.463   3.887  13.351  0.3107 -0.7468 -0.0112
  551TMC3    C6 8176   1.574   3.916  13.277  0.1480 -0.7106  0.0230
  551TMC3     C 8177   1.266   3.654  13.133  0.0301 -0.4660  0.4513
  551TMC3     O 8178   1.285   3.607  13.019 -0.1514 -0.7026  0.0756
  551TMC3     H 8179   1.463   3.759  13.001 -2.0448  1.2884  0.2161
  551TMC3    H1 8180   1.284   3.758  13.385  2.8001 -1.3474  1.5184
  551TMC3    H2 8181   1.661   3.971  13.312 -0.8412  1.5792 -1.1017
  551TMC3    C7 8182   1.481   3.928  13.482  0.1047 -0.0348 -0.4559
  551TMC3    C8 8183   1.688   3.887  13.060  0.5657 -0.0953 -0.0661
  551TMC3    O1 8184   1.590   3.924  13.536 -0.2212  0.2998 -0.0709
  551TMC3    O2 8185   1.722   3.785  13.003 -0.4230 -0.2151  0.7549
  552MPD2     C 8186   3.054   0.914  14.081 -0.3893  0.0537 -0.2445
  552MPD2    C1 8187   3.065   0.801  14.156  0.2896 -0.1021  0.4660
  552MPD2    C2 8188   3.183   0.764  14.217 -0.3672 -0.0231  0.1435
  552MPD2    C3 8189   3.289   0.850  14.206 -0.1122 -0.5013  0.2688
  552MPD2    C4 8190   3.283   0.958  14.126 -0.5780 -0.2429 -0.6033
  552MPD2    C5 8191   3.164   0.993  14.066 -0.3934 -0.2824  0.2139
  552MPD2     H 8192   3.185   0.669  14.270  0.3478 -1.5356 -2.6288
  552MPD2    H1 8193   3.371   1.021  14.127 -0.0594 -0.9786  0.5801
  552MPD2    H2 8194   2.963   0.932  14.024 -0.2970  2.9699  0.5218
  552MPD2    H3 8195   3.167   1.079  14.001 -2.5234  0.6722  1.3825
  552MPD2     N 8196   3.404   0.814  14.277  0.2058  0.3137 -0.1537
  552MPD2    H5 8197   3.477   0.885  14.278  1.8976 -1.4360 -0.3998
  552MPD2    N1 8198   2.955   0.706  14.166  0.3899 -0.0045 -0.6671
  552MPD2    H7 8199   2.982   0.622  14.216 -1.9243 -1.4709 -1.9134
  553TMC3    C1 8200   2.771   0.595  14.076 -0.6823  0.2122 -0.2468
  553TMC3    C2 8201   2.731   0.597  13.942 -0.3531 -0.0073  0.2175
  553TMC3    C3 8202   2.797   0.522  13.844  0.8179  0.7375  0.2845
  553TMC3    C4 8203   2.850   0.492  14.107  0.2150 -0.2610  0.1484
  553TMC3    C5 8204   2.915   0.420  14.005  0.1163 -0.0359  0.0647
  553TMC3    C6 8205   2.898   0.439  13.873  0.0375 -0.1245 -0.2020
  553TMC3     C 8206   2.831   0.725  14.104 -0.3070  0.1843  0.2948
  553TMC3     O 8207   2.772   0.823  14.062 -0.1112 -0.0381  0.2060
  553TMC3     H 8208   2.646   0.657  13.910 -1.3128 -0.4343  1.9279
  553TMC3    H1 8209   2.880   0.458  14.205  0.7980  1.2779  0.4972
  553TMC3    H2 8210   2.946   0.377  13.798  0.8796 -1.1011  1.1617
  553TMC3    C7 8211   3.048   0.380  14.040 -0.0793 -0.6794 -0.4089
  553TMC3    C8 8212   2.757   0.555  13.710 -0.2388 -0.2730 -0.3005
  553TMC3    O1 8213   3.068   0.315  14.143  0.2211 -0.2862 -0.0152
  553TMC3    O2 8214   2.663   0.629  13.692  0.3061  0.5093 -0.4701
  554TMC3    C1 8215   0.536   4.664  11.231  0.4133 -0.4771  0.3250
  554TMC3    C2 8216   0.537   4.614  11.106  0.2494  0.6748  0.4565
  554TMC3    C3 8217   0.646   4.643  11.020 -0.0566  0.1262 -0.0804
  554TMC3    C4 8218   0.641   0.013  11.277 -0.6083 -0.2225  0.3838
  554TMC3    C5 8219   0.742   0.045  11.190 -0.0767  0.2127 -0.2641
  554TMC3    C6 8220   0.751   4.718  11.062 -0.1370  0.4821  0.3106
  554TMC3     C 8221   0.448   4.587  11.323  0.2413 -0.2226  0.0675
  554TMC3     O 8222   0.340   4.551  11.280  0.2481 -0.3280 -0.0970
  554TMC3     H 8223   0.439   4.580  11.077  1.2747 -0.5290 -1.6228
  554TMC3    H1 8224   0.634   0.058  11.376 -0.4017 -0.6887  0.6089
  554TMC3    H2 8225   0.834   0.026  10.999 -0.9358 -0.0327 -0.9914
  554TMC3    C7 8226   0.772   0.183  11.191 -0.0858  0.1581 -0.2461
  554TMC3    C8 8227   0.623   4.651  10.877  0.2902 -0.0621 -0.2718
  554TMC3    O1 8228   0.774   0.238  11.079 -0.6024  0.1678  0.0143
  554TMC3    O2 8229   0.685   0.014  10.821  0.2665  0.7189 -0.7721
  555TMC3    C1 8230   3.860   3.939  14.800 -0.6134 -0.1670  0.4994
  555TMC3    C2 8231   3.865   4.065  14.845  0.7365  0.5669  0.2301
  555TMC3    C3 8232   3.898   4.084  14.980  0.0332  0.2884  0.1579
  555TMC3    C4 8233   3.872   3.829  14.883 -0.4370  0.2429  0.1361
  555TMC3    C5 8234   3.921   3.848  15.004  0.4609  0.5904 -0.8471
  555TMC3    C6 8235   3.924   3.978  15.059 -0.0605 -0.6920 -0.2217
  555TMC3     C 8236   3.805   3.918  14.669 -0.1809 -0.0554 -0.2249
  555TMC3     O 8237   3.859   3.832  14.603  0.1817  0.3009 -0.1918
  555TMC3     H 8238   3.841   4.151  14.783  0.9304 -0.2312 -0.9462
  555TMC3    H1 8239   3.856   3.728  14.846 -3.2436  0.2540  1.4158
  555TMC3    H2 8240   3.964   3.988  15.160  0.5628  1.0523 -0.6411
  555TMC3    C7 8241   3.935   3.733  15.092  0.9479  0.5860 -0.6824
  555TMC3    C8 8242   3.871   4.209  15.042  0.7183 -0.4055 -0.2643
  555TMC3    O1 8243   3.896   3.742  15.208 -0.0174 -0.3947  0.3417
  555TMC3    O2 8244   3.796   4.287  14.984  0.1143  0.2666 -0.1334
  556MPD2     C 8245   2.405   1.254  10.413  0.7817 -0.2145  0.8078
  556MPD2    C1 8246   2.353   1.162  10.496  0.0585 -0.0316  0.5861
  556MPD2    C2 8247   2.276   1.065  10.441  0.4342  0.0500 -0.3550
  556MPD2    C3 8248   2.240   1.066  10.307 -0.8803  0.2087  0.8010
  556MPD2    C4 8249   2.307   1.160  10.224 -0.4298 -0.2295 -0.4025
  556MPD2    C5 8250   2.385   1.251  10.281  0.4569 -0.3630 -0.3971
  556MPD2     H 8251   2.235   0.989  10.507 -0.7447  0.2927 -0.8131
  556MPD2    H1 8252   2.305   1.157  10.116  1.4016  2.8475 -0.5145
  556MPD2    H2 8253   2.475   1.325  10.454  0.7451  0.8963 -1.0388
  556MPD2    H3 8254   2.431   1.320  10.211 -2.6213  1.1405 -0.9253
  556MPD2     N 8255   2.146   0.973  10.257 -0.2561 -0.0301 -0.6193
  556MPD2    H5 8256   2.118   0.908  10.331  0.2543  0.8998  0.3909
  556MPD2    N1 8257   2.376   1.163  10.633 -0.1312 -0.6803 -0.7239
  556MPD2    H7 8258   2.322   1.093  10.684 -0.1081 -1.9400 -2.4647
  557TMC3    C1 8259   1.994   0.851  10.108  0.2759 -0.0078 -0.0915
  557TMC3    C2 8260   2.001   0.783   9.989 -0.2683 -0.4424 -0.6243
  557TMC3    C3 8261   1.927   0.668   9.979 -0.2615  0.0560 -0.3985
  557TMC3    C4 8262   1.918   0.815  10.219  1.2403  0.0135 -0.4259
  557TMC3    C5 8263   1.840   0.704  10.202 -0.0660 -1.0377 -0.3336
  557TMC3    C6 8264   1.844   0.629  10.084  0.6260 -0.2549  0.9229
  557TMC3     C 8265   2.096   0.955  10.129 -0.3768 -0.3928  0.9967
  557TMC3     O 8266   2.134   1.011  10.028  0.0274 -0.0874 -0.0378
  557TMC3     H 8267   2.079   0.808   9.918  0.9441  1.6400  1.4596
  557TMC3    H1 8268   1.926   0.870  10.313  1.1814  1.4024 -1.2293
  557TMC3    H2 8269   1.779   0.542  10.077 -0.7703  0.8026  0.8071
  557TMC3    C7 8270   1.784   0.642  10.329 -0.0878  0.0780  0.2008
  557TMC3    C8 8271   1.936   0.588   9.863  0.0814  0.7245 -0.5886
  557TMC3    O1 8272   1.778   0.717  10.425 -0.1204 -0.3050  0.3159
  557TMC3    O2 8273   1.989   0.641   9.767  0.3542  0.1156 -0.5749
  558TMC3    C1 8274   0.550   3.261  10.346 -0.5186  0.1099  0.0428
  558TMC3    C2 8275   0.467   3.225  10.446  0.1376 -0.7040  0.4691
  558TMC3    C3 8276   0.336   3.212  10.410  0.3240 -0.1954  0.0210
  558TMC3    C4 8277   0.511   3.284  10.224 -0.2438  0.3059 -0.1605
  558TMC3    C5 8278   0.384   3.276  10.193 -0.0814 -0.4021  0.7606
  558TMC3    C6 8279   0.290   3.224  10.281 -0.4215  0.3958  0.1788
  558TMC3     C 8280   0.689   3.300  10.372 -0.9742 -0.1618  0.5042
  558TMC3     O 8281   0.717   3.352  10.476 -0.0069 -0.2950 -0.4619
  558TMC3     H 8282   0.503   3.187  10.540 -0.1612  2.0442  1.7041
  558TMC3    H1 8283   0.574   3.335  10.153  0.1573  1.1819  0.8107
  558TMC3    H2 8284   0.186   3.206  10.253 -0.3898  0.0411  0.2920
  558TMC3    C7 8285   0.341   3.326  10.067 -0.1168 -0.3208  0.1820
  558TMC3    C8 8286   0.240   3.183  10.515 -0.1942 -0.0210 -0.4053
  558TMC3    O1 8287   0.432   3.339   9.984 -0.4919 -0.3374  0.5300
  558TMC3    O2 8288   0.141   3.124  10.490 -0.3076 -0.2175 -0.3978
  559MPD2     C 8289   0.689   4.140  10.793  0.2100  0.8321  0.9672
  559MPD2    C1 8290   0.659   4.054  10.894 -0.1347 -0.0844 -0.4280
  559MPD2    C2 8291   0.729   4.062  11.016 -0.5369  0.4313  0.0973
  559MPD2    C3 8292   0.832   4.151  11.034 -0.3978 -0.3788  0.0346
  559MPD2    C4 8293   0.851   4.246  10.940  0.0020 -0.1529  0.0666
  559MPD2    C5 8294   0.783   4.236  10.825 -0.4933 -1.3531 -1.0628
  559MPD2     H 8295   0.719   3.975  11.079 -1.0003  1.0200  0.8372
  559MPD2    H1 8296   0.922   4.329  10.939 -1.2076  0.9035  1.0435
  559MPD2    H2 8297   0.637   4.137  10.698  0.9887  0.8883  0.5389
  559MPD2    H3 8298   0.808   4.314  10.754 -0.2229 -1.0551 -0.6391
  559MPD2     N 8299   0.918   4.144  11.145  0.4725  0.3525 -0.2980
  559MPD2    H5 8300   0.918   4.070  11.214  1.7619  0.1941 -0.4575
  559MPD2    N1 8301   0.545   3.974  10.870 -0.3119  0.0470  0.2588
  559MPD2    H7 8302   0.496   3.984  10.782  0.5738 -0.6304 -0.3090
  560TMC3    C1 8303   1.079   4.198  11.291  0.1619 -0.5939  0.5591
  560TMC3    C2 8304   1.075   4.066  11.336  0.2087 -0.6520 -0.1973
  560TMC3    C3 8305   1.113   4.046  11.472  0.7105 -0.1558 -0.2458
  560TMC3    C4 8306   1.126   4.301  11.369 -0.6077 -0.0610  0.2268
  560TMC3    C5 8307   1.169   4.270  11.495 -0.3493  0.0853  0.0364
  560TMC3    C6 8308   1.158   4.148  11.551  0.8158  1.0171  0.1076
  560TMC3     C 8309   1.011   4.237  11.174 -0.2550  0.5118 -0.2783
  560TMC3     O 8310   1.038   4.348  11.129  0.1292  0.4800 -0.4923
  560TMC3     H 8311   1.030   3.981  11.287 -0.3568  1.0782 -2.6634
  560TMC3    H1 8312   1.119   4.400  11.325 -1.5814  0.1438  0.8521
  560TMC3    H2 8313   1.194   4.120  11.649 -0.0048  2.3376  0.7898
  560TMC3    C7 8314   1.234   4.377  11.579 -1.0111  0.1968 -0.3595
  560TMC3    C8 8315   1.072   3.916  11.522 -0.5085  0.5106  0.3385
  560TMC3    O1 8316   1.250   4.354  11.698  0.4964  0.2615 -0.0840
  560TMC3    O2 8317   1.090   3.828  11.443 -0.0935  0.0091  0.5174
  561TMC3    C1 8318   2.955   3.207  11.347 -0.4295  0.1187 -0.2803
  561TMC3    C2 8319   2.875   3.221  11.454 -0.2965 -0.5256 -0.1416
  561TMC3    C3 8320   2.939   3.233  11.569 -0.2146 -0.7721 -0.0624
  561TMC3    C4 8321   3.094   3.213  11.345 -0.0140  0.1179  0.6428
  561TMC3    C5 8322   3.155   3.231  11.469  0.3638 -0.4604  0.1297
  561TMC3    C6 8323   3.078   3.231  11.580  0.1683 -0.1642 -0.0303
  561TMC3     C 8324   2.879   3.173  11.225 -0.5775 -0.0450 -1.2077
  561TMC3     O 8325   2.764   3.138  11.235 -0.5001  0.0837  0.5375
  561TMC3     H 8326   2.770   3.194  11.449 -0.3146 -0.5418  0.3608
  561TMC3    H1 8327   3.149   3.206  11.252  1.5847  0.5893  1.5438
  561TMC3    H2 8328   3.121   3.252  11.678 -3.2224  0.7339  1.2642
  561TMC3    C7 8329   3.287   3.293  11.487 -0.0653  0.2336  0.1336
  561TMC3    C8 8330   2.877   3.157  11.675  0.5575  0.2337  0.0624
  561TMC3    O1 8331   3.303   3.350  11.593 -0.3211 -0.0916  0.4489
  561TMC3    O2 8332   2.947   3.075  11.733  0.3824 -0.4784 -0.2753
  562TMC3    C1 8333   3.911   4.370  16.191 -0.1241  0.6479  0.5324
  562TMC3    C2 8334   3.798   4.436  16.224  0.4641  0.1120  0.2680
  562TMC3    C3 8335   3.705   4.461  16.123 -0.4514 -0.1411  0.2530
  562TMC3    C4 8336   3.930   4.316  16.064  0.8259  0.1356  0.6090
  562TMC3    C5 8337   3.830   4.330  15.965 -0.0539 -0.3642  0.0228
  562TMC3    C6 8338   3.723   4.415  15.989  0.3724 -0.6294 -0.7017
  562TMC3     C 8339   3.992   4.318  16.310  0.1270  0.4444 -0.1108
  562TMC3     O 8340   3.965   4.375  16.416 -0.5300 -0.5977 -0.0780
  562TMC3     H 8341   3.785   4.489  16.318  0.5014 -3.2338  2.1771
  562TMC3    H1 8342   4.022   4.267  16.033  1.9130  4.8265 -3.5149
  562TMC3    H2 8343   3.643   4.425  15.917 -0.1223  0.2524 -0.0257
  562TMC3    C7 8344   3.833   4.273  15.829 -0.9610  0.2987  0.0649
  562TMC3    C8 8345   3.605   4.561  16.151 -0.0027 -0.5345  0.0637
  562TMC3    O1 8346   3.757   4.315  15.750 -0.3526 -0.3063  0.2803
  562TMC3    O2 8347   3.566   4.571  16.265  0.5832 -0.0419  0.2167
  563MPD2     C 8348   1.292   1.097  15.704  0.4001 -0.1539  0.2849
  563MPD2    C1 8349   1.324   1.153  15.827  0.0249 -0.2558  0.2319
  563MPD2    C2 8350   1.453   1.160  15.863 -0.9192  0.3017  0.5832
  563MPD2    C3 8351   1.552   1.111  15.780  0.8864  0.3273  0.7540
  563MPD2    C4 8352   1.524   1.062  15.654  0.0533 -0.1352  0.5556
  563MPD2    C5 8353   1.393   1.063  15.616  1.0672  0.0700 -0.0631
  563MPD2     H 8354   1.476   1.209  15.957 -0.0454 -1.3515  1.2217
  563MPD2    H1 8355   1.602   1.035  15.584 -0.9752 -1.7023  0.0162
  563MPD2    H2 8356   1.191   1.084  15.667  0.4476  1.6769 -0.4808
  563MPD2    H3 8357   1.352   1.026  15.522  4.2090  0.8511 -1.7570
  563MPD2     N 8358   1.676   1.101  15.842 -0.3551 -0.4020 -0.0183
  563MPD2    H5 8359   1.676   1.138  15.936  0.9587 -0.0089 -0.1802
  563MPD2    N1 8360   1.217   1.165  15.919 -0.5371 -0.1166  1.1495
  563MPD2    H7 8361   1.121   1.158  15.885 -0.5606 -0.1387  1.2194
  564TMC3    C1 8362   1.143   1.177  16.142 -0.2288 -0.6487  0.0379
  564TMC3    C2 8363   1.030   1.114  16.101  0.1432 -0.6379 -0.0357
  564TMC3    C3 8364   0.957   1.045  16.193 -0.3554 -0.0795 -0.7322
  564TMC3    C4 8365   1.186   1.164  16.268 -0.2369 -0.0285  0.0019
  564TMC3    C5 8366   1.116   1.095  16.365 -0.2437  0.0544  0.4672
  564TMC3    C6 8367   0.995   1.042  16.325 -0.0733  0.0521 -0.2080
  564TMC3     C 8368   1.239   1.221  16.043  0.1443  0.3284 -0.1650
  564TMC3     O 8369   1.332   1.287  16.087 -0.7995  0.5501  0.2169
  564TMC3     H 8370   0.976   1.140  16.012  2.6934 -1.6080 -1.8881
  564TMC3    H1 8371   1.282   1.204  16.299  0.0971  0.2585 -1.4255
  564TMC3    H2 8372   0.941   0.978  16.393 -0.6934 -0.3527 -1.0703
  564TMC3    C7 8373   1.187   1.009  16.450  0.2305 -0.4948  0.1784
  564TMC3    C8 8374   0.937   0.908  16.153  0.3764  0.5157 -0.2789
  564TMC3    O1 8375   1.284   1.057  16.510  0.5661 -0.1877 -0.6111
  564TMC3    O2 8376   0.877   0.838  16.232  0.4704  0.2694 -0.7564
  565TMC3    C1 8377   2.090   2.883   9.666 -0.0138  0.1447 -0.0703
  565TMC3    C2 8378   2.149   2.771   9.716 -0.1157 -0.5513 -0.8798
  565TMC3    C3 8379   2.075   2.660   9.737 -0.2597 -1.0149 -0.6313
  565TMC3    C4 8380   1.960   2.877   9.624 -0.1664 -0.3686  0.2430
  565TMC3    C5 8381   1.890   2.754   9.641  1.1992 -0.1506  0.6355
  565TMC3    C6 8382   1.944   2.643   9.703  0.6601 -0.5968  0.4549
  565TMC3     C 8383   2.153   3.020   9.666 -0.3980  0.0133 -0.3056
  565TMC3     O 8384   2.083   3.114   9.623 -0.0525 -0.2439  0.4040
  565TMC3     H 8385   2.247   2.787   9.759  0.6066 -1.9895 -2.0250
  565TMC3    H1 8386   1.920   2.966   9.577  1.7912  1.8274  2.7110
  565TMC3    H2 8387   1.882   2.578   9.763  0.6007 -0.9888 -0.0291
  565TMC3    C7 8388   1.740   2.762   9.615 -0.2612  0.5257 -0.1194
  565TMC3    C8 8389   2.122   2.560   9.832  0.2487 -0.0302  0.5989
  565TMC3    O1 8390   1.706   2.874   9.586  0.3246  0.2642 -0.1324
  565TMC3    O2 8391   2.200   2.585   9.922  0.1630 -0.2817  0.3257
  566MPD2     C 8392   3.274   3.622  14.217 -0.8675 -0.3902 -0.1168
  566MPD2    C1 8393   3.372   3.558  14.138 -0.1280 -0.2417  1.2574
  566MPD2    C2 8394   3.339   3.523  14.006  0.2948  0.1777 -0.0249
  566MPD2    C3 8395   3.228   3.571  13.944  0.3344  0.3727 -0.5857
  566MPD2    C4 8396   3.141   3.641  14.020 -0.0139 -0.2038 -0.7817
  566MPD2    C5 8397   3.162   3.665  14.151 -0.2723  0.2179  0.3645
  566MPD2     H 8398   3.406   3.454  13.955 -0.2866 -0.8539  0.6247
  566MPD2    H1 8399   3.058   3.695  13.974  0.9203  2.4433  0.6399
  566MPD2    H2 8400   3.305   3.652  14.316 -1.2586 -1.1099  0.2225
  566MPD2    H3 8401   3.091   3.731  14.200 -0.1607 -0.7680  1.8567
  566MPD2     N 8402   3.214   3.578  13.803  0.6510  0.1873 -0.5958
  566MPD2    H5 8403   3.152   3.655  13.777  0.8710  0.2570 -0.9125
  566MPD2    N1 8404   3.501   3.540  14.189  0.1256 -0.4588 -0.3647
  566MPD2    H7 8405   3.515   3.554  14.288  0.7543  0.7569 -0.6295
  567TMC3    C1 8406   3.736   3.538  14.192 -0.0263  0.7464  0.3236
  567TMC3    C2 8407   3.819   3.634  14.142  0.8869  0.5407  0.1321
  567TMC3    C3 8408   3.920   3.680  14.220 -0.1197  0.3019  0.1012
  567TMC3    C4 8409   3.744   3.486  14.316  0.5152 -0.1173 -0.6560
  567TMC3    C5 8410   3.849   3.532  14.392 -0.2668 -0.5532 -0.0476
  567TMC3    C6 8411   3.941   3.626  14.346 -0.0202  0.0863 -0.2098
  567TMC3     C 8412   3.615   3.507  14.115 -0.3173 -0.2540  0.4203
  567TMC3     O 8413   3.627   3.502  13.996  0.2963 -0.4641 -0.3723
  567TMC3     H 8414   3.789   3.675  14.047 -1.3591 -2.6816 -0.5413
  567TMC3    H1 8415   3.670   3.416  14.351  0.0351  1.4819  1.5009
  567TMC3    H2 8416   4.017   3.663  14.414 -1.8614 -0.2146  1.9959
  567TMC3    C7 8417   3.856   3.505  14.532  0.5508 -0.1207  0.1771
  567TMC3    C8 8418   3.995   3.789  14.163 -0.8400  0.7116 -0.4917
  567TMC3    O1 8419   3.971   3.489  14.573 -0.3652 -0.1583  0.7294
  567TMC3    O2 8420   3.943   3.841  14.067 -0.2539 -0.0838  0.0327
  568MPD2     C 8421   1.406   4.342  16.652  0.4613 -0.0565  0.5602
  568MPD2    C1 8422   1.274   4.348  16.670  0.2875 -0.2423  0.3555
  568MPD2    C2 8423   1.220   4.464  16.622  0.2117  0.5002 -0.0698
  568MPD2    C3 8424   1.294   4.566  16.553 -0.2540  0.7439  0.7222
  568MPD2    C4 8425   1.426   4.551  16.537  0.5270 -0.7323 -0.3968
  568MPD2    C5 8426   1.480   4.436  16.589 -0.8862  0.3329  0.3871
  568MPD2     H 8427   1.116   4.487  16.642 -0.7141 -4.8634  1.2916
  568MPD2    H1 8428   1.495   4.621  16.490 -1.7007  0.8845 -1.2625
  568MPD2    H2 8429   1.463   4.262  16.699  2.6636  1.2037  0.0505
  568MPD2    H3 8430   1.586   4.414  16.582 -0.8499  0.7488 -0.4033
  568MPD2     N 8431   1.219   4.673  16.495 -0.6560 -0.3717  0.3988
  568MPD2    H5 8432   1.119   4.679  16.512 -0.6481  0.1595  0.2450
  568MPD2    N1 8433   1.207   4.243  16.737  0.3424 -0.0854 -0.9757
  568MPD2    H7 8434   1.251   4.153  16.750  2.1498  0.8292 -0.6398
  569TMC3    C1 8435   1.171   0.120  16.341  0.1455 -0.0812 -0.2605
  569TMC3    C2 8436   1.089   0.194  16.426  0.1390  0.6481 -0.1730
  569TMC3    C3 8437   0.969   0.242  16.371  0.3310 -0.4344  0.1599
  569TMC3    C4 8438   1.153   0.110  16.211  0.0254  0.1905  0.6807
  569TMC3    C5 8439   1.042   0.171  16.159 -0.4041  0.2720 -0.4231
  569TMC3    C6 8440   0.951   0.235  16.235 -0.5209  0.0006 -0.2703
  569TMC3     C 8441   1.265   0.032  16.397 -0.3439 -0.4001  0.0719
  569TMC3     O 8442   1.379   0.025  16.346 -0.2635 -0.3071 -0.5205
  569TMC3     H 8443   1.108   0.201  16.532 -2.2642  2.4771  0.1427
  569TMC3    H1 8444   1.226   0.053  16.155  0.0869  0.6623  0.2825
  569TMC3    H2 8445   0.857   0.270  16.194  0.5801  3.2252 -0.0843
  569TMC3    C7 8446   1.090   0.271  16.066  0.3471  0.4599 -0.3126
  569TMC3    C8 8447   0.916   0.371  16.418  0.2807  0.1696  1.2309
  569TMC3    O1 8448   1.202   0.251  16.023  0.6532 -0.1283 -0.2638
  569TMC3    O2 8449   0.846   0.432  16.340 -0.4695 -0.2029  0.1299
  570TMC3    C1 8450   0.562   3.226  16.369  0.0076 -0.0595  0.0386
  570TMC3    C2 8451   0.647   3.259  16.264 -0.5710  0.3909  0.3672
  570TMC3    C3 8452   0.633   3.380  16.209 -0.8296  0.7721  0.5095
  570TMC3    C4 8453   0.475   3.310  16.427 -0.1491  0.1771 -0.2694
  570TMC3    C5 8454   0.469   3.434  16.369 -0.7124  0.1942 -0.1056
  570TMC3    C6 8455   0.541   3.473  16.260  0.4288  0.3625  0.5779
  570TMC3     C 8456   0.620   3.116  16.444 -0.0566  0.3136 -0.3821
  570TMC3     O 8457   0.649   3.018  16.375 -0.1782 -0.1114  0.0345
  570TMC3     H 8458   0.732   3.199  16.235  1.3575  2.1837  2.2640
  570TMC3    H1 8459   0.384   3.286  16.482  0.0881  1.4304  0.6790
  570TMC3    H2 8460   0.549   3.572  16.217  3.2210 -0.1452 -0.0446
  570TMC3    C7 8461   0.359   3.525  16.408  0.1996 -0.0499 -0.5081
  570TMC3    C8 8462   0.746   3.440  16.136  0.0197  0.2032  0.3527
  570TMC3    O1 8463   0.330   3.511  16.525 -0.5571  0.0922 -0.1394
  570TMC3    O2 8464   0.759   3.561  16.152  0.1058 -0.4593  0.8781
  571MPD2     C 8465   3.885   0.078   0.099  0.4511  0.0465 -0.5775
  571MPD2    C1 8466   3.770   0.062   0.022  1.0413 -0.2477 -0.9060
  571MPD2    C2 8467   3.652   0.115   0.076 -0.0171  0.1357  0.7357
  571MPD2    C3 8468   3.636   0.170   0.202  0.7078 -0.1482 -0.4072
  571MPD2    C4 8469   3.757   0.186   0.273 -0.0284 -0.4393 -0.1393
  571MPD2    C5 8470   3.878   0.140   0.220 -0.0066  0.7903 -0.3268
  571MPD2     H 8471   3.560   0.094   0.023  0.8045 -1.2271 -0.1466
  571MPD2    H1 8472   3.762   0.229   0.373  0.2745  1.3853 -0.9287
  571MPD2    H2 8473   3.982   0.047   0.062 -0.5443 -0.5630 -2.6505
  571MPD2    H3 8474   3.961   0.145   0.288 -0.2377  3.0443 -0.2035
  571MPD2     N 8475   3.517   0.228   0.253 -0.1573 -0.2068  0.0061
  571MPD2    H5 8476   3.523   0.289   0.334 -0.7404  2.1832 -1.7476
  571MPD2    N1 8477   3.789   0.005  17.594  0.2345  0.1078 -0.6790
  571MPD2    H7 8478   3.881   4.695  17.569  0.2914 -0.0375 -0.2692
  572TMC3    C1 8479   3.292   0.300   0.268  0.4945  0.7525  0.1991
  572TMC3    C2 8480   3.159   0.301   0.221 -0.0805 -0.6159 -0.9201
  572TMC3    C3 8481   3.062   0.336   0.316 -0.6609  1.0319 -0.2573
  572TMC3    C4 8482   3.318   0.345   0.394 -0.2987  0.3026 -0.2185
  572TMC3    C5 8483   3.225   0.394   0.480 -0.1134 -0.5572 -0.0300
  572TMC3    C6 8484   3.096   0.397   0.434 -0.8742  0.0527  0.2009
  572TMC3     C 8485   3.390   0.221   0.195 -0.2774  0.0750  0.2018
  572TMC3     O 8486   3.348   0.161   0.095  0.2114  0.3701 -0.3627
  572TMC3     H 8487   3.134   0.241   0.135 -0.5578  1.3759 -2.1619
  572TMC3    H1 8488   3.422   0.357   0.423  0.2095 -1.4185 -1.3241
  572TMC3    H2 8489   3.034   0.438   0.513  0.1634  1.1008  0.4705
  572TMC3    C7 8490   3.281   0.518   0.534  0.5737  0.1392 -0.5465
  572TMC3    C8 8491   2.922   0.284   0.295  0.1045 -0.0227  0.4251
  572TMC3    O1 8492   3.374   0.509   0.617  0.3375  0.1519 -0.6130
  572TMC3    O2 8493   2.908   0.195   0.213  0.0099  0.2445  0.6145
  573MPD2     C 8494   4.678   0.660   0.246  0.1109 -1.2642  0.2943
  573MPD2    C1 8495   4.674   0.778   0.312  0.3254  0.1615  0.0217
  573MPD2    C2 8496   4.652   0.891   0.235 -0.4174 -0.1118  0.1416
  573MPD2    C3 8497   4.639   0.889   0.094  0.2428 -0.1302  0.4055
  573MPD2    C4 8498   4.627   0.766   0.035 -0.1823  0.2251  0.5881
  573MPD2    C5 8499   4.648   0.656   0.111 -0.2325 -0.3943  0.3378
  573MPD2     H 8500   4.650   0.982   0.293 -0.2061  1.1725 -1.9103
  573MPD2    H1 8501   4.611   0.752  17.625  1.1567  0.7492  0.3096
  573MPD2    H2 8502   4.685   0.563   0.294 -1.2495 -1.2668  0.4928
  573MPD2    H3 8503   4.650   0.560   0.061  2.2219  0.2832 -0.8864
  573MPD2     N 8504   4.600   0.998   0.017  0.3376  0.5813 -0.1610
  573MPD2    H5 8505   4.594   0.982  17.614  0.0189 -0.2824  0.0010
  573MPD2    N1 8506   4.688   0.776   0.454 -0.5911  0.0169  0.1689
  573MPD2    H7 8507   4.686   0.684   0.496 -1.3182  0.9125  2.0873
  574TMC3    C1 8508   4.619   1.207  17.619  0.3742  0.1485  0.0939
  574TMC3    C2 8509   4.543   1.170  17.513 -0.1762 -0.2916  0.2426
  574TMC3    C3 8510   4.569   1.251  17.401 -0.8670 -0.1204 -0.2114
  574TMC3    C4 8511   4.724   1.300  17.622 -0.3969  0.1443  0.1127
  574TMC3    C5 8512   0.025   1.370  17.511  0.0758 -0.3556 -0.6188
  574TMC3    C6 8513   4.673   1.338  17.401 -0.2273  0.7167  0.5171
  574TMC3     C 8514   4.605   1.134   0.045  0.4420  0.0802  0.5428
  574TMC3     O 8515   4.633   1.193   0.149  0.0631  0.5208  0.1192
  574TMC3     H 8516   4.463   1.096  17.519  0.8698 -1.5997 -2.0746
  574TMC3    H1 8517   0.058   1.300   0.017 -0.2994  2.5561  0.0343
  574TMC3    H2 8518   4.696   1.380  17.304  1.2000 -0.7200  0.2366
  574TMC3    C7 8519   0.136   1.465  17.509  0.8595  0.3511  0.5330
  574TMC3    C8 8520   4.507   1.203  17.274 -0.6027  0.0084  0.3434
  574TMC3    O1 8521   0.199   1.470  17.613  0.3787  0.1497  0.1224
  574TMC3    O2 8522   4.572   1.198  17.170 -0.9267 -0.5905 -0.3489
  575TMC3    C1 8523   2.659   2.242  10.436 -0.1316 -0.5089 -0.1559
  575TMC3    C2 8524   2.637   2.114  10.494 -0.0166 -0.1431  0.4155
  575TMC3    C3 8525   2.523   2.043  10.455  0.5416 -0.3118 -0.4501
  575TMC3    C4 8526   2.566   2.284  10.344  0.0733 -0.1167 -0.5316
  575TMC3    C5 8527   2.473   2.206  10.287 -1.0446  0.1305  0.3784
  575TMC3    C6 8528   2.447   2.084  10.348 -0.4064 -0.6119  0.1335
  575TMC3     C 8529   2.775   2.324  10.476  0.1210  0.6666 -0.1840
  575TMC3     O 8530   2.817   2.392  10.385  0.0912  0.0165  0.3221
  575TMC3     H 8531   2.706   2.061  10.558 -0.4131 -0.8499  0.2657
  575TMC3    H1 8532   2.589   2.374  10.287 -0.3186  1.9485  2.5620
  575TMC3    H2 8533   2.355   2.032  10.325 -1.4824  0.7269  1.3887
  575TMC3    C7 8534   2.413   2.247  10.162 -0.0485  0.1090 -0.0227
  575TMC3    C8 8535   2.488   1.924  10.523 -0.1351  0.1956  0.3694
  575TMC3    O1 8536   2.427   2.361  10.131 -0.1730 -0.0104 -0.0732
  575TMC3    O2 8537   2.417   1.849  10.459  0.4515  0.0085  1.1264
  576MPD2     C 8538   1.817   3.714  12.607 -0.0181  0.3548  0.2703
  576MPD2    C1 8539   1.862   3.784  12.494  0.0127  0.3098 -0.0784
  576MPD2    C2 8540   1.812   3.916  12.488  1.2043  0.8491  0.0686
  576MPD2    C3 8541   1.722   3.975  12.578 -0.0828  0.2056  0.0565
  576MPD2    C4 8542   1.678   3.891  12.681 -0.5911  0.1886  0.2368
  576MPD2    C5 8543   1.719   3.759  12.693  0.7848  0.1502  0.0477
  576MPD2     H 8544   1.838   3.978  12.403  0.6807  2.9116  1.4157
  576MPD2    H1 8545   1.603   3.926  12.750 -0.2469 -0.6499  1.0265
  576MPD2    H2 8546   1.842   3.609  12.619  0.3188  0.5096  0.9053
  576MPD2    H3 8547   1.676   3.692  12.766 -0.0500 -0.9676 -1.4803
  576MPD2     N 8548   1.686   4.113  12.570 -0.1419 -0.2111 -0.1281
  576MPD2    H5 8549   1.743   4.171  12.509  2.6764 -0.8422  1.8949
  576MPD2    N1 8550   1.967   3.751  12.410 -0.0163  0.3309  0.4155
  576MPD2    H7 8551   1.986   3.824  12.342 -2.2946  1.0850  0.6222
  577TMC3    C1 8552   2.155   3.634  12.337  0.1472 -0.8744 -0.1463
  577TMC3    C2 8553   2.201   3.512  12.292 -0.7753 -0.7408 -0.8390
  577TMC3    C3 8554   2.298   3.510  12.188  0.3855 -0.6626  0.2764
  577TMC3    C4 8555   2.206   3.747  12.281 -0.5747  0.0354 -0.9859
  577TMC3    C5 8556   2.303   3.745  12.186 -0.0251 -0.1163  0.3960
  577TMC3    C6 8557   2.348   3.630  12.136  0.1182 -0.0883  0.0479
  577TMC3     C 8558   2.035   3.636  12.415  0.3337 -0.2020 -0.1289
  577TMC3     O 8559   2.032   3.541  12.494 -0.3915 -0.0637  0.0653
  577TMC3     H 8560   2.170   3.418  12.336 -0.2502 -0.6298 -0.2405
  577TMC3    H1 8561   2.192   3.840  12.335 -0.2580 -0.5766  0.1632
  577TMC3    H2 8562   2.421   3.623  12.056 -0.2303  0.8614 -0.3501
  577TMC3    C7 8563   2.373   3.870  12.156  0.1443 -0.2954  0.2009
  577TMC3    C8 8564   2.361   3.381  12.153 -0.0075  0.3545  0.0734
  577TMC3    O1 8565   2.482   3.859  12.105  0.2410 -0.4351 -0.3747
  577TMC3    O2 8566   2.350   3.293  12.240 -0.2996  0.0815 -0.1927
  578MPD2     C 8567   4.167   3.183   1.427  0.0545 -0.2118  0.1894
  578MPD2    C1 8568   4.279   3.145   1.365  0.0908 -0.1033  0.2725
  578MPD2    C2 8569   4.387   3.089   1.434 -0.0782  0.0169 -0.9056
  578MPD2    C3 8570   4.376   3.054   1.569 -0.4608  0.1531  0.3381
  578MPD2    C4 8571   4.253   3.089   1.638  0.0180 -0.1540  0.2039
  578MPD2    C5 8572   4.156   3.154   1.562 -0.2679 -0.8826 -0.4060
  578MPD2     H 8573   4.477   3.076   1.374  0.3224 -1.4317 -0.0083
  578MPD2    H1 8574   4.239   3.074   1.744  0.1717 -1.0196  0.1039
  578MPD2    H2 8575   4.084   3.238   1.384  1.7201 -0.0206 -2.7140
  578MPD2    H3 8576   4.068   3.193   1.612 -0.4589 -0.9084 -0.7229
  578MPD2     N 8577   4.482   2.985   1.631  0.8129  0.0172 -0.1405
  578MPD2    H5 8578   4.561   2.968   1.570  1.7468  0.7171  0.8747
  578MPD2    N1 8579   4.295   3.193   1.228  0.4033 -0.7520 -0.1955
  578MPD2    H7 8580   4.223   3.257   1.195  2.8963  3.2278  2.0380
  579TMC3    C1 8581   4.628   2.936   1.806 -0.2952 -0.7991 -0.5197
  579TMC3    C2 8582   4.692   3.026   1.891  0.3232  0.7936 -0.4255
  579TMC3    C3 8583   0.104   3.016   1.911  0.3013 -0.0918  0.2898
  579TMC3    C4 8584   4.704   2.848   1.733 -0.4386 -0.1633  0.7925
  579TMC3    C5 8585   0.112   2.831   1.764  0.7138  0.5161  0.1990
  579TMC3    C6 8586   0.175   2.913   1.853  0.6308 -0.0776  0.0881
  579TMC3     C 8587   4.495   2.975   1.772  0.8371 -0.2928 -0.3038
  579TMC3     O 8588   4.430   3.024   1.866  0.1706 -0.4352 -0.1265
  579TMC3     H 8589   4.636   3.103   1.942  0.3714  0.5610 -0.0228
  579TMC3    H1 8590   4.657   2.777   1.665 -0.3282 -0.4436  1.0070
  579TMC3    H2 8591   0.282   2.908   1.867  0.7724  0.7277 -0.7652
  579TMC3    C7 8592   0.185   2.725   1.696 -0.1827 -1.1565 -0.0454
  579TMC3    C8 8593   0.165   3.099   2.010 -0.0226 -0.2024 -0.2593
  579TMC3    O1 8594   0.297   2.698   1.736  0.2589 -0.2634  0.4621
  579TMC3    O2 8595   0.098   3.128   2.108  0.2225 -0.4906 -0.2790
  580TMC3    C1 8596   4.355   2.555  11.632 -0.4258  1.1422 -0.2657
  580TMC3    C2 8597   4.407   2.494  11.518 -0.0554  0.6866 -0.6512
  580TMC3    C3 8598   4.391   2.363  11.507 -0.1231  0.4026 -0.0703
  580TMC3    C4 8599   4.288   2.480  11.723 -0.3860  0.2279  1.1147
  580TMC3    C5 8600   4.271   2.345  11.706  0.4317 -0.0295  0.3672
  580TMC3    C6 8601   4.315   2.281  11.595  0.3566 -0.4413 -0.2208
  580TMC3     C 8602   4.450   2.652  11.685  0.3928 -0.4339 -0.3806
  580TMC3     O 8603   4.533   2.696  11.606  0.3839  0.3422 -0.1730
  580TMC3     H 8604   4.459   2.545  11.437  0.6677  2.4570  0.9444
  580TMC3    H1 8605   4.257   2.519  11.819  1.8388  0.1028  1.9026
  580TMC3    H2 8606   4.310   2.173  11.590 -0.3040 -0.4132 -0.1915
  580TMC3    C7 8607   4.289   2.257  11.822 -0.9654 -0.5107 -0.4298
  580TMC3    C8 8608   4.499   2.294  11.430  0.3890  0.5151  0.1801
  580TMC3    O1 8609   4.335   2.316  11.920  0.5273 -0.1581  0.2410
  580TMC3    O2 8610   4.469   2.195  11.364 -0.5738 -0.0431  0.0781
  581MPD2     C 8611   2.160   2.176  14.401  0.4530  0.1260 -0.0519
  581MPD2    C1 8612   2.142   2.182  14.534  1.1523  0.5113 -0.3207
  581MPD2    C2 8613   2.042   2.271  14.572 -0.0076  0.4012  0.2816
  581MPD2    C3 8614   1.973   2.353  14.488 -0.0674  0.1905 -0.2995
  581MPD2    C4 8615   1.998   2.344  14.355 -0.1763  0.3214  0.1776
  581MPD2    C5 8616   2.092   2.250  14.306  0.3341 -0.4288  0.2731
  581MPD2     H 8617   2.021   2.285  14.677  0.3970  1.5508  0.2054
  581MPD2    H1 8618   1.941   2.400  14.282 -1.0880  1.0165  1.4332
  581MPD2    H2 8619   2.233   2.103  14.367  2.5354  1.7740  0.8905
  581MPD2    H3 8620   2.112   2.242  14.199  1.3627  0.7544  0.3715
  581MPD2     N 8621   1.882   2.452  14.553  0.6233 -0.0904 -0.5061
  581MPD2    H5 8622   1.886   2.453  14.654 -0.7450 -2.0922 -0.4247
  581MPD2    N1 8623   2.219   2.100  14.619 -0.2092  0.2399  0.3101
  581MPD2    H7 8624   2.270   2.028  14.569  0.6889 -0.7612  2.6759
  582TMC3    C1 8625   2.299   1.998  14.816 -0.2921  0.4899 -0.1705
  582TMC3    C2 8626   2.367   2.021  14.933 -0.1453  0.0326  0.4014
  582TMC3    C3 8627   2.361   1.922  15.021  0.2464  0.2390  0.2368
  582TMC3    C4 8628   2.245   1.872  14.786 -0.3664  0.1818  0.0913
  582TMC3    C5 8629   2.242   1.777  14.880  1.0598 -0.2651 -0.5443
  582TMC3    C6 8630   2.291   1.807  15.008  0.5263  0.2942 -0.2821
  582TMC3     C 8631   2.230   2.113  14.761 -0.5595 -0.8732 -0.6288
  582TMC3     O 8632   2.210   2.214  14.828  0.4351  0.3074  0.2123
  582TMC3     H 8633   2.408   2.118  14.960 -0.5236  0.7686 -1.7057
  582TMC3    H1 8634   2.186   1.862  14.695  1.5406  0.5108 -1.1680
  582TMC3    H2 8635   2.271   1.746  15.095 -0.4000  1.4521  0.3221
  582TMC3    C7 8636   2.102   1.748  14.902  0.2276  0.4726  0.1259
  582TMC3    C8 8637   2.356   1.961  15.159 -0.4453  0.5716 -0.1553
  582TMC3    O1 8638   2.046   1.655  14.842  0.1548  0.8598  0.7121
  582TMC3    O2 8639   2.253   2.010  15.197 -0.0716  0.0098 -0.3500
  583MPD2     C 8640   2.150   3.703  16.466  0.4283  0.2183  0.2498
  583MPD2    C1 8641   2.205   3.829  16.469 -0.7561  0.2423 -0.4015
  583MPD2    C2 8642   2.178   3.914  16.571  0.5142 -0.3353  0.2781
  583MPD2    C3 8643   2.097   3.877  16.678  0.4296 -0.5103  0.3747
  583MPD2    C4 8644   2.041   3.752  16.676 -0.2720 -0.6447  0.2961
  583MPD2    C5 8645   2.069   3.664  16.571  0.1413 -0.8180  0.0552
  583MPD2     H 8646   2.222   4.012  16.558 -2.7947  0.9081 -1.7237
  583MPD2    H1 8647   1.968   3.731  16.753 -0.0666  1.1156  0.9761
  583MPD2    H2 8648   2.164   3.632  16.385 -1.4913  0.6489 -0.4657
  583MPD2    H3 8649   2.020   3.568  16.579  1.8761 -1.6048  1.3631
  583MPD2     N 8650   2.085   3.973  16.783 -0.8502  0.1923 -0.2524
  583MPD2    H5 8651   2.122   4.066  16.769  1.1557 -0.7217 -0.9816
  583MPD2    N1 8652   2.276   3.880  16.355 -0.0638 -0.0124  0.0805
  583MPD2    H7 8653   2.336   3.960  16.371 -1.0425  0.6014  0.6694
  584TMC3    C1 8654   2.015   4.065  16.987 -0.0130 -0.2555 -0.1223
  584TMC3    C2 8655   2.045   4.191  16.937  0.2658 -0.0090  0.1037
  584TMC3    C3 8656   2.027   4.297  17.021  0.1176 -0.7714 -0.7216
  584TMC3    C4 8657   1.981   4.049  17.117 -0.8748 -0.2289  0.0229
  584TMC3    C5 8658   1.949   4.163  17.189  0.1529  0.0386 -0.7372
  584TMC3    C6 8659   1.976   4.288  17.152 -0.0193 -0.4136  0.4091
  584TMC3     C 8660   2.020   3.950  16.901  0.7698  0.5835 -0.2523
  584TMC3     O 8661   1.967   3.850  16.942 -0.6034 -0.0926  0.2141
  584TMC3     H 8662   2.064   4.213  16.833 -0.7949  0.3328 -0.0154
  584TMC3    H1 8663   1.961   3.948  17.151  1.3114 -1.2458 -1.6836
  584TMC3    H2 8664   1.943   4.371  17.213 -1.4593 -1.1172  0.5865
  584TMC3    C7 8665   1.921   4.143  17.326  0.5362  0.0483  0.3124
  584TMC3    C8 8666   2.030   4.424  16.961 -0.1603 -0.4890 -0.2973
  584TMC3    O1 8667   1.945   4.233  17.401 -0.0605  0.0135 -0.0848
  584TMC3    O2 8668   2.027   4.434  16.838  0.0426  0.4184 -0.0361
  585MPD2     C 8669   1.472   3.020   1.136  0.4601  0.8939 -0.1261
  585MPD2    C1 8670   1.525   3.091   1.036  0.4177 -0.4695 -0.2893
  585MPD2    C2 8671   1.552   3.021   0.916  0.0716  0.5445  0.1344
  585MPD2    C3 8672   1.523   2.884   0.901 -0.3714 -0.7979  0.1025
  585MPD2    C4 8673   1.465   2.819   1.011 -0.1305  0.2313  0.3818
  585MPD2    C5 8674   1.446   2.889   1.125 -0.3291  1.0329  0.8447
  585MPD2     H 8675   1.608   3.069   0.836  0.2978  0.3157  0.1556
  585MPD2    H1 8676   1.434   2.715   1.013 -0.0827  0.1827 -0.8528
  585MPD2    H2 8677   1.459   3.065   1.234 -1.3520  0.7101 -0.2805
  585MPD2    H3 8678   1.406   2.835   1.210 -0.8888  1.8786  1.1217
  585MPD2     N 8679   1.554   2.820   0.777  0.3171 -0.1968  0.5835
  585MPD2    H5 8680   1.599   2.888   0.716 -0.5148  1.2189  1.5468
  585MPD2    N1 8681   1.553   3.231   1.060 -0.2445 -0.0627 -0.4150
  585MPD2    H7 8682   1.525   3.274   1.147  1.5904 -0.1147  0.1908
  586TMC3    C1 8683   1.544   2.683   0.582  0.3645 -0.3071  0.0763
  586TMC3    C2 8684   1.648   2.759   0.534 -0.4858  0.3498 -0.2948
  586TMC3    C3 8685   1.643   2.825   0.410  0.3939 -0.7386 -0.4406
  586TMC3    C4 8686   1.429   2.671   0.507  0.4054  0.3597  0.2543
  586TMC3    C5 8687   1.427   2.731   0.383 -0.9168  0.0396  0.3130
  586TMC3    C6 8688   1.522   2.826   0.348  0.5166  0.4414  0.6134
  586TMC3     C 8689   1.509   2.698   0.725 -0.9215  0.3839  0.7787
  586TMC3     O 8690   1.435   2.613   0.774 -0.5483 -0.5384  0.6712
  586TMC3     H 8691   1.741   2.758   0.590 -0.2697  3.5070 -0.5871
  586TMC3    H1 8692   1.355   2.604   0.548  1.0135 -1.0322 -0.9228
  586TMC3    H2 8693   1.508   2.876   0.252  0.9950 -0.5216  0.0467
  586TMC3    C7 8694   1.345   2.677   0.277  0.2560 -0.6097 -0.1614
  586TMC3    C8 8695   1.774   2.842   0.339  0.3407 -0.0112 -0.6219
  586TMC3    O1 8696   1.252   2.606   0.312 -0.0279  0.1380  0.7475
  586TMC3    O2 8697   1.872   2.800   0.398  1.0200  0.0066  0.0680
  587TMC3    C1 8698   3.977   1.738  16.419  0.4938  0.0145 -0.8288
  587TMC3    C2 8699   3.954   1.870  16.451  0.6404  0.0391  0.4077
  587TMC3    C3 8700   4.036   1.960  16.381 -0.6216 -0.5405 -0.4770
  587TMC3    C4 8701   4.085   1.691  16.348 -0.4600  0.1199  0.2083
  587TMC3    C5 8702   4.163   1.790  16.296  0.4516 -0.0242  0.3581
  587TMC3    C6 8703   4.140   1.923  16.305  0.6234  0.6386  0.5616
  587TMC3     C 8704   3.886   1.635  16.484  0.9884 -0.4868  0.5184
  587TMC3     O 8705   3.931   1.523  16.502 -0.1377 -1.1782  0.3514
  587TMC3     H 8706   3.877   1.902  16.520 -0.5280 -1.6077 -0.1347
  587TMC3    H1 8707   4.101   1.585  16.332  2.6631  0.8778 -1.6822
  587TMC3    H2 8708   4.212   1.996  16.270  0.0644  0.1840 -1.5732
  587TMC3    C7 8709   4.293   1.743  16.243 -0.4299 -0.4397  0.0889
  587TMC3    C8 8710   3.975   2.077  16.315 -0.0389 -0.9174 -0.7437
  587TMC3    O1 8711   4.342   1.645  16.296 -0.8417 -0.3397  0.2419
  587TMC3    O2 8712   4.045   2.127  16.223 -0.6358 -0.0729 -0.9540
  588TMC3    C1 8713   1.237   4.293   9.710 -0.2675 -0.4573 -0.1056
  588TMC3    C2 8714   1.224   4.163   9.721  0.3939 -0.6627  0.8177
  588TMC3    C3 8715   1.275   4.099   9.831  0.2923 -0.4796 -0.2249
  588TMC3    C4 8716   1.313   4.364   9.801  0.3785 -0.9085  0.7094
  588TMC3    C5 8717   1.358   4.304   9.913  0.1218  0.8957 -0.3684
  588TMC3    C6 8718   1.331   4.168   9.934  0.1661  0.2039 -0.3452
  588TMC3     C 8719   1.202   4.351   9.582  0.3081  0.6145  0.3765
  588TMC3     O 8720   1.192   4.285   9.480 -0.4336  0.4088  0.5301
  588TMC3     H 8721   1.190   4.104   9.637 -1.1090 -0.2684  1.1526
  588TMC3    H1 8722   1.354   4.460   9.773  0.3051 -1.3070 -0.7806
  588TMC3    H2 8723   1.339   4.127  10.034  1.2925  3.4665  0.9304
  588TMC3    C7 8724   1.427   4.369  10.020 -0.1784 -0.5898 -0.1100
  588TMC3    C8 8725   1.327   3.964   9.806 -0.1273  0.2837  0.1865
  588TMC3    O1 8726   1.501   4.304  10.088 -0.4537 -0.1193 -0.2606
  588TMC3    O2 8727   1.264   3.888   9.729  0.0771  0.3103  0.7252
  589TMC3    C1 8728   0.586   1.119   1.351 -0.3684 -0.6362 -0.5911
  589TMC3    C2 8729   0.637   1.164   1.472 -0.0592  0.4260 -1.0198
  589TMC3    C3 8730   0.776   1.162   1.482 -0.1973 -0.1572  0.4771
  589TMC3    C4 8731   0.671   1.078   1.241 -0.2094  0.0656 -0.0542
  589TMC3    C5 8732   0.804   1.073   1.263  0.1103  0.1003 -0.3948
  589TMC3    C6 8733   0.859   1.112   1.386  0.4226 -0.6576  0.3467
  589TMC3     C 8734   0.449   1.152   1.316 -0.0760 -0.0032  0.0689
  589TMC3     O 8735   0.407   1.087   1.224  0.6365 -0.2151 -0.1957
  589TMC3     H 8736   0.576   1.203   1.552  3.5819  1.8580  1.0341
  589TMC3    H1 8737   0.632   1.040   1.148 -1.9957 -0.0223  0.7324
  589TMC3    H2 8738   0.966   1.110   1.404  0.6455 -0.1550 -0.9523
  589TMC3    C7 8739   0.883   1.004   1.162 -0.3902  0.4661  0.4319
  589TMC3    C8 8740   0.830   1.242   1.593  0.4199 -0.1863 -0.6982
  589TMC3    O1 8741   0.827   0.916   1.095  0.2354  0.0227  0.4868
  589TMC3    O2 8742   0.766   1.248   1.699  0.1477 -0.1576  0.1705
  590MPD2     C 8743   0.204   0.065  16.953 -0.5047  0.5207 -0.0779
  590MPD2    C1 8744   0.126   0.172  16.907  0.2138  0.2580 -0.3798
  590MPD2    C2 8745   0.182   0.277  16.841 -0.6748 -0.9212 -0.0352
  590MPD2    C3 8746   0.317   0.268  16.810  0.6275 -0.2566 -0.0013
  590MPD2    C4 8747   0.390   0.162  16.850 -0.0477 -0.5121 -0.3818
  590MPD2    C5 8748   0.340   0.060  16.924  0.8218  0.1226  0.3093
  590MPD2     H 8749   0.131   0.368  16.812 -0.2614 -1.2969 -1.9151
  590MPD2    H1 8750   0.496   0.159  16.826  0.0940 -1.4017  0.3096
  590MPD2    H2 8751   0.164   4.702  17.004  0.5469  0.8817  1.3625
  590MPD2    H3 8752   0.405   4.704  16.957  0.2888 -0.4362  0.0130
  590MPD2     N 8753   0.371   0.368  16.723  0.5619  0.7788 -0.0995
  590MPD2    H5 8754   0.297   0.418  16.676  0.1799  1.7792  1.5978
  590MPD2    N1 8755   4.707   0.171  16.924  0.5322 -0.1041  0.0028
  590MPD2    H7 8756   4.654   0.112  16.987  1.0979  0.2190  0.7752
  591TMC3    C1 8757   0.511   0.472  16.565 -0.0331  0.4482 -0.2808
  591TMC3    C2 8758   0.553   0.424  16.445  1.1066 -0.4584 -0.9256
  591TMC3    C3 8759   0.534   0.513  16.333  0.2561  0.2427  0.0193
  591TMC3    C4 8760   0.449   0.595  16.572 -0.0555  0.4246 -0.7634
  591TMC3    C5 8761   0.443   0.677  16.460  0.1516 -0.2135 -0.7356
  591TMC3    C6 8762   0.474   0.634  16.338 -0.4609 -0.8034  0.4429
  591TMC3     C 8763   0.506   0.386  16.684 -0.0428  0.5555  0.2768
  591TMC3     O 8764   0.602   0.324  16.723  0.5173  0.0559  0.5930
  591TMC3     H 8765   0.599   0.326  16.437  0.6867 -0.6149 -1.4310
  591TMC3    H1 8766   0.416   0.618  16.673 -0.7723 -2.7848 -0.2657
  591TMC3    H2 8767   0.435   0.684  16.250  0.9532 -0.8761 -0.2136
  591TMC3    C7 8768   0.373   0.799  16.482 -0.1870  0.3125  0.0845
  591TMC3    C8 8769   0.572   0.461  16.204 -0.3251  0.8771  0.7758
  591TMC3    O1 8770   0.297   0.798  16.576  0.0643  0.2246  0.4889
  591TMC3    O2 8771   0.596   0.343  16.189 -0.2521  0.1706  0.4830
  592MPD2     C 8772   0.977   1.875  11.509 -0.7165 -0.8465  0.2474
  592MPD2    C1 8773   0.916   1.990  11.553  0.9844  0.0853  0.5416
  592MPD2    C2 8774   0.798   1.979  11.629 -0.7170 -0.0406 -0.3533
  592MPD2    C3 8775   0.740   1.860  11.655 -0.4817  0.0710  0.0255
  592MPD2    C4 8776   0.803   1.746  11.615  0.2941  0.1360  0.4499
  592MPD2    C5 8777   0.912   1.756  11.529  0.0013  0.1403 -0.1112
  592MPD2     H 8778   0.744   2.066  11.665 -0.1441 -0.0677  0.5794
  592MPD2    H1 8779   0.749   1.658  11.646  2.5971 -2.0669 -1.8902
  592MPD2    H2 8780   1.072   1.864  11.458 -0.8825  0.3497 -0.3325
  592MPD2    H3 8781   0.949   1.659  11.499 -1.6063 -0.2589 -0.8214
  592MPD2     N 8782   0.617   1.865  11.729 -0.2960  0.2781 -0.6384
  592MPD2    H5 8783   0.593   1.957  11.764  0.6428  0.6600 -0.9987
  592MPD2    N1 8784   0.983   2.116  11.534 -0.6272  0.4525  0.1191
  592MPD2    H7 8785   1.071   2.119  11.484 -1.7809  0.1112 -1.9404
  593TMC3    C1 8786   1.039   2.328  11.618 -0.4549 -0.3070 -0.6607
  593TMC3    C2 8787   1.003   2.435  11.699 -0.1021  0.0248  0.0799
  593TMC3    C3 8788   1.108   2.528  11.724  0.5563  0.5153  0.0979
  593TMC3    C4 8789   1.169   2.307  11.571 -0.0075  0.1432  0.1900
  593TMC3    C5 8790   1.269   2.408  11.587 -0.5532 -0.0225  0.4264
  593TMC3    C6 8791   1.241   2.521  11.671  0.1139 -0.0300 -0.8775
  593TMC3     C 8792   0.937   2.228  11.594  0.1415 -0.3037  0.6743
  593TMC3     O 8793   0.831   2.258  11.651 -0.0057  0.1156  0.7110
  593TMC3     H 8794   0.909   2.446  11.753  1.7905 -1.1848  3.5977
  593TMC3    H1 8795   1.186   2.231  11.495  0.3193 -2.0651  2.4951
  593TMC3    H2 8796   1.308   2.605  11.682  2.0766 -1.6446 -0.4918
  593TMC3    C7 8797   1.396   2.395  11.511 -0.2116  0.6135  0.2275
  593TMC3    C8 8798   1.074   2.638  11.803  0.9244 -0.1419 -0.6652
  593TMC3    O1 8799   1.436   2.294  11.457  0.2462 -0.0578  0.3214
  593TMC3    O2 8800   0.974   2.699  11.767  0.2856 -0.1372  0.0831
  594MPD2     C 8801   4.232   0.881  14.507  0.2591 -0.5738  0.0534
  594MPD2    C1 8802   4.122   0.937  14.455  0.0237  0.2082 -0.5255
  594MPD2    C2 8803   4.122   1.070  14.401 -0.5044 -0.0004 -0.0094
  594MPD2    C3 8804   4.245   1.128  14.366  0.6313 -0.5024 -0.3830
  594MPD2    C4 8805   4.357   1.064  14.409  0.2213 -0.3982  0.2624
  594MPD2    C5 8806   4.345   0.941  14.475 -0.1292 -0.0814 -0.2826
  594MPD2     H 8807   4.027   1.117  14.379 -0.7420 -0.6785 -0.4358
  594MPD2    H1 8808   4.456   1.099  14.384 -1.2551  3.8578  0.3968
  594MPD2    H2 8809   4.234   0.781  14.549  0.0660 -1.0758 -1.1278
  594MPD2    H3 8810   4.439   0.893  14.500  0.1372 -0.2838 -1.6926
  594MPD2     N 8811   4.257   1.254  14.307  0.4368  0.0678 -0.0931
  594MPD2    H5 8812   4.178   1.317  14.307  0.8742  0.6121 -2.8538
  594MPD2    N1 8813   4.004   0.861  14.472 -0.0549  0.1485  0.2177
  594MPD2    H7 8814   4.012   0.781  14.534 -0.2476 -0.1144 -0.0933
  595TMC3    C1 8815   4.552   1.600  14.254  0.5519 -0.1865  0.3358
  595TMC3    C2 8816   4.512   1.476  14.210 -1.0669 -0.4268 -0.5310
  595TMC3    C3 8817   4.386   1.437  14.241 -0.2501 -0.1214  0.5777
  595TMC3    C4 8818   4.468   1.684  14.320 -0.5438 -0.0796  0.3801
  595TMC3    C5 8819   4.337   1.643  14.341 -0.1262  0.2558 -0.4143
  595TMC3    C6 8820   4.298   1.518  14.308  0.2151  0.1163 -0.2187
  595TMC3     C 8821   4.696   1.619  14.282  0.0962  0.1090 -0.1086
  595TMC3     O 8822   0.018   1.729  14.299  0.2396 -0.9299 -0.5581
  595TMC3     H 8823   4.571   1.407  14.151 -0.5409 -0.1994 -0.2793
  595TMC3    H1 8824   4.491   1.786  14.347  0.3589 -0.1036 -0.2991
  595TMC3    H2 8825   4.196   1.496  14.336  0.0592 -1.4279 -2.0641
  595TMC3    C7 8826   4.263   1.718  14.445 -0.7875  0.0904 -0.4102
  595TMC3    C8 8827   4.364   1.296  14.236  0.6774  0.0805 -0.3301
  595TMC3    O1 8828   4.162   1.779  14.423  0.0337  0.2213 -0.0406
  595TMC3    O2 8829   4.451   1.222  14.195 -0.4933  0.1703  0.2431
  596MPD2     C 8830   3.463   3.842  16.422  0.0747 -0.4249  0.2879
  596MPD2    C1 8831   3.354   3.927  16.414 -0.8109  0.3633  0.1707
  596MPD2    C2 8832   3.289   3.930  16.291  0.4885 -0.3125 -0.0566
  596MPD2    C3 8833   3.328   3.856  16.182  0.2991 -0.8268  0.3925
  596MPD2    C4 8834   3.432   3.761  16.198 -1.0736 -0.7140 -0.1340
  596MPD2    C5 8835   3.492   3.761  16.316 -0.4486 -1.4652 -0.5121
  596MPD2     H 8836   3.204   3.997  16.276  0.4361 -0.8893 -2.2441
  596MPD2    H1 8837   3.460   3.697  16.115 -1.9712 -0.8607 -0.3158
  596MPD2    H2 8838   3.509   3.832  16.520  3.4524 -1.5403 -1.4076
  596MPD2    H3 8839   3.586   3.707  16.326  0.6410  0.5327  0.1474
  596MPD2     N 8840   3.270   3.865  16.052  0.0068 -0.0814  0.2866
  596MPD2    H5 8841   3.289   3.795  15.981 -0.8409 -0.8838  0.8442
  596MPD2    N1 8842   3.319   4.007  16.528 -0.2485 -0.2685  0.7327
  596MPD2    H7 8843   3.379   4.009  16.609 -0.0408 -3.3498  0.6349
  597TMC3    C1 8844   3.177   4.140  16.664  0.6894 -0.2250  0.1177
  597TMC3    C2 8845   3.282   4.217  16.697  0.9693  0.5718 -0.4003
  597TMC3    C3 8846   3.257   4.326  16.772  0.2634  0.2250  0.5985
  597TMC3    C4 8847   3.051   4.169  16.711 -0.0856 -0.5123  0.0748
  597TMC3    C5 8848   3.036   4.268  16.799 -0.1719 -0.3030 -0.5239
  597TMC3    C6 8849   3.141   4.350  16.833  0.5215 -1.0968  0.4806
  597TMC3     C 8850   3.189   4.060  16.542  0.3795  0.9599  0.2642
  597TMC3     O 8851   3.084   4.037  16.480  0.3194 -0.1962  0.4010
  597TMC3     H 8852   3.372   4.202  16.640  0.4143 -0.7356 -0.9323
  597TMC3    H1 8853   2.960   4.130  16.665 -0.7458  1.7312 -0.4989
  597TMC3    H2 8854   3.124   4.421  16.913 -0.8264  0.9991 -1.6793
  597TMC3    C7 8855   2.917   4.283  16.884 -0.1727  0.3151 -0.0378
  597TMC3    C8 8856   3.368   4.423  16.802 -0.0519  0.2608 -0.6689
  597TMC3    O1 8857   2.860   4.179  16.915 -0.4643 -1.0977  0.0869
  597TMC3    O2 8858   3.478   4.376  16.794  0.0373 -0.1883  0.3242
  598TMC3    C1 8859   1.152   1.211  15.342 -0.5011 -0.4583 -0.6363
  598TMC3    C2 8860   1.077   1.098  15.316  0.8984 -0.2400  1.0903
  598TMC3    C3 8861   1.104   1.022  15.205 -0.7236  0.5427 -0.0069
  598TMC3    C4 8862   1.264   1.239  15.261 -0.0040  0.3676  0.3942
  598TMC3    C5 8863   1.297   1.149  15.159 -0.7907 -0.4399  0.4897
  598TMC3    C6 8864   1.216   1.040  15.126  0.5473 -0.2055  0.4249
  598TMC3     C 8865   1.125   1.290  15.462 -0.3882 -0.2625  0.4473
  598TMC3     O 8866   1.218   1.352  15.508  0.0782 -0.1438  0.1098
  598TMC3     H 8867   0.985   1.067  15.366 -0.5348 -2.2540 -2.8505
  598TMC3    H1 8868   1.330   1.316  15.299  0.5940  0.0880 -0.0998
  598TMC3    H2 8869   1.245   0.968  15.051 -0.9506  0.6833 -1.0171
  598TMC3    C7 8870   1.435   1.139  15.116  0.5180  0.2056 -0.2678
  598TMC3    C8 8871   1.012   0.914  15.165  0.8914 -1.5127 -0.2350
  598TMC3    O1 8872   1.473   1.028  15.088 -0.4749  0.1136 -0.4421
  598TMC3    O2 8873   1.003   0.905  15.042 -0.6029  0.0359 -0.1767
  599MPD2     C 8874   1.592   3.147  15.723  0.0610  0.2228  0.9100
  599MPD2    C1 8875   1.549   3.015  15.740  0.2985  0.6732 -0.2253
  599MPD2    C2 8876   1.461   2.989  15.841 -0.2949 -0.5610 -0.0978
  599MPD2    C3 8877   1.419   3.084  15.930 -0.0826  0.3420 -0.1654
  599MPD2    C4 8878   1.456   3.218  15.912  0.1532 -0.0301  0.4707
  599MPD2    C5 8879   1.549   3.244  15.813 -0.5145  0.1549 -0.4022
  599MPD2     H 8880   1.434   2.884  15.852  1.4765 -1.0546 -0.4420
  599MPD2    H1 8881   1.414   3.298  15.972 -0.9012 -1.9751  2.3288
  599MPD2    H2 8882   1.652   3.191  15.643 -1.0895  1.3136  0.6507
  599MPD2    H3 8883   1.566   3.348  15.787 -0.2278  1.0636  3.4763
  599MPD2     N 8884   1.338   3.060  16.039 -0.1665  0.7213  0.1740
  599MPD2    H5 8885   1.309   3.137  16.098  1.4955  1.6117 -0.1681
  599MPD2    N1 8886   1.610   2.917  15.655  0.3128 -0.2826 -0.0666
  599MPD2    H7 8887   1.691   2.947  15.601 -1.4674 -0.0973 -2.6079
  600TMC3    C1 8888   1.188   2.964  16.185  0.6458  0.4614 -0.0428
  600TMC3    C2 8889   1.144   2.846  16.234 -0.2291 -0.6217 -0.3832
  600TMC3    C3 8890   1.037   2.859  16.314  0.7269  0.5749 -0.6022
  600TMC3    C4 8891   1.137   3.090  16.214  0.0216  0.1848  0.1569
  600TMC3    C5 8892   1.033   3.100  16.298  0.2136 -0.6824 -0.4780
  600TMC3    C6 8893   0.985   2.982  16.355  0.7394  0.2800 -0.0785
  600TMC3     C 8894   1.276   2.940  16.074 -0.4262 -0.9898 -0.0758
  600TMC3     O 8895   1.290   2.822  16.029 -0.0133 -0.1108 -0.5154
  600TMC3     H 8896   1.179   2.751  16.194  2.0533 -0.8110  2.0324
  600TMC3    H1 8897   1.167   3.181  16.163 -1.4618 -0.1491 -1.3186
  600TMC3    H2 8898   0.897   2.979  16.418  1.3670 -0.9219  0.7390
  600TMC3    C7 8899   1.002   3.217  16.369  0.2756 -0.4337  0.2512
  600TMC3    C8 8900   0.969   2.735  16.351 -0.2456  0.8162 -0.4049
  600TMC3    O1 8901   0.929   3.208  16.471  0.5133  0.1034  0.4411
  600TMC3    O2 8902   1.038   2.636  16.352 -0.0675 -0.6365 -0.0712
  601MPD2     C 8903   3.354   1.024   0.520 -1.1931  0.0456 -0.2279
  601MPD2    C1 8904   3.281   0.990   0.404 -0.3598  1.0031  0.3938
  601MPD2    C2 8905   3.233   0.859   0.400  0.3731  0.6022  0.6819
  601MPD2    C3 8906   3.263   0.761   0.494 -0.5607 -0.4281  0.0240
  601MPD2    C4 8907   3.333   0.805   0.606 -0.3147  0.2629 -0.2076
  601MPD2    C5 8908   3.379   0.929   0.617  0.2195 -0.6487  0.1975
  601MPD2     H 8909   3.175   0.823   0.316  3.5029 -0.8808 -0.8475
  601MPD2    H1 8910   3.352   0.731   0.683  1.1883  0.2025 -0.6299
  601MPD2    H2 8911   3.393   1.124   0.529 -0.8635 -0.1388  0.3610
  601MPD2    H3 8912   3.443   0.953   0.701  1.2481 -0.5865 -0.6008
  601MPD2     N 8913   3.224   0.629   0.469 -0.3710  0.7313  0.1019
  601MPD2    H5 8914   3.159   0.613   0.393  2.0594 -0.8111 -1.6471
  601MPD2    N1 8915   3.264   1.077   0.296 -0.2420 -0.0039  0.0768
  601MPD2    H7 8916   3.236   1.029   0.211  2.8149  0.3576 -1.1402
  602TMC3    C1 8917   3.265   1.271   0.168  0.6326 -0.1134  0.4768
  602TMC3    C2 8918   3.273   1.407   0.164 -0.2000  0.5243 -0.2752
  602TMC3    C3 8919   3.269   1.468   0.033 -0.1617  0.5569  0.2317
  602TMC3    C4 8920   3.232   1.193   0.059 -0.2187 -0.0333  0.3420
  602TMC3    C5 8921   3.208   1.256  17.639  0.0084 -0.5622  0.3245
  602TMC3    C6 8922   3.231   1.393  17.621  0.2339  0.0196  0.7763
  602TMC3     C 8923   3.306   1.211   0.293 -0.2947 -0.3066 -0.2737
  602TMC3     O 8924   3.319   1.284   0.392 -0.3305  0.2479 -0.0828
  602TMC3     H 8925   3.281   1.456   0.260 -2.6519 -2.3213  1.3817
  602TMC3    H1 8926   3.208   1.088   0.067  1.2446 -0.5713 -2.4432
  602TMC3    H2 8927   3.247   1.434  17.522  1.5941  0.6807  1.2688
  602TMC3    C7 8928   3.103   1.200  17.555 -0.0580 -0.1196  0.2528
  602TMC3    C8 8929   3.252   1.613   0.035 -1.4895  0.2647 -0.1901
  602TMC3    O1 8930   3.072   1.082  17.570  0.0639 -0.0847  0.1058
  602TMC3    O2 8931   3.272   1.670   0.141  0.1460 -0.2824  0.0676
  603TMC3    C1 8932   2.050   1.778  10.902 -0.4864 -0.1481  0.1432
  603TMC3    C2 8933   2.005   1.816  11.026 -0.7672  0.8172 -0.4554
  603TMC3    C3 8934   2.055   1.938  11.072 -0.1298  0.4738 -0.3051
  603TMC3    C4 8935   2.133   1.860  10.824  0.0222 -0.4118 -0.0216
  603TMC3    C5 8936   2.162   1.984  10.874 -0.0102 -0.0229  0.3066
  603TMC3    C6 8937   2.137   2.023  11.000  0.6346 -0.7143  0.4138
  603TMC3     C 8938   2.069   1.633  10.891 -0.2504  0.1935  0.4080
  603TMC3     O 8939   2.075   1.568  10.993  0.0014 -0.1569  0.0285
  603TMC3     H 8940   1.962   1.745  11.096  2.9152  1.0027  2.0361
  603TMC3    H1 8941   2.161   1.831  10.723 -1.2193  1.3432 -0.8864
  603TMC3    H2 8942   2.143   2.128  11.026  2.3562 -0.7671  0.2136
  603TMC3    C7 8943   2.200   2.095  10.782  0.1152  0.3595 -0.3455
  603TMC3    C8 8944   2.059   1.932  11.213 -0.0824  0.2870  0.0345
  603TMC3    O1 8945   2.279   2.178  10.826 -0.4590  0.3541  0.6471
  603TMC3    O2 8946   1.967   1.871  11.260 -0.8239  0.5508 -0.4409
  604MPD2     C 8947   2.408   0.510  16.806  0.2862  0.2368 -0.5440
  604MPD2    C1 8948   2.291   0.503  16.726 -0.0822 -0.1940 -0.6760
  604MPD2    C2 8949   2.304   0.460  16.593  0.3283  0.1551  0.0710
  604MPD2    C3 8950   2.425   0.456  16.527  0.0210  0.2336 -0.3053
  604MPD2    C4 8951   2.538   0.475  16.606 -0.5135  0.2645 -0.2389
  604MPD2    C5 8952   2.527   0.502  16.740 -0.2998 -0.2823 -0.3231
  604MPD2     H 8953   2.223   0.424  16.531  1.1704 -1.2233 -0.2441
  604MPD2    H1 8954   2.640   0.479  16.571  0.6687 -0.3078  3.1309
  604MPD2    H2 8955   2.396   0.554  16.904 -0.4020 -2.7296  0.6838
  604MPD2    H3 8956   2.617   0.516  16.800 -1.9075  0.1001  1.9877
  604MPD2     N 8957   2.423   0.423  16.390 -0.9884 -0.3322  0.4320
  604MPD2    H5 8958   2.333   0.415  16.344 -0.7595 -1.1652  0.1209
  604MPD2    N1 8959   2.166   0.545  16.779 -0.6142  0.6186  0.0599
  604MPD2    H7 8960   2.167   0.585  16.872 -0.7132  0.0310  0.3082
  605TMC3    C1 8961   1.934   0.596  16.789 -0.5537  0.0751  0.1637
  605TMC3    C2 8962   1.974   0.696  16.876 -0.1829 -0.0240 -0.6517
  605TMC3    C3 8963   1.900   0.814  16.880  0.2679 -0.0675 -0.0339
  605TMC3    C4 8964   1.820   0.612  16.705 -0.1039  1.0710 -0.4882
  605TMC3    C5 8965   1.762   0.736  16.696 -0.0343 -0.1085  0.1817
  605TMC3    C6 8966   1.801   0.835  16.786 -0.0743 -0.6449  0.4841
  605TMC3     C 8967   2.051   0.545  16.708 -0.4323 -0.4386 -0.4424
  605TMC3     O 8968   2.024   0.513  16.596 -0.0857 -0.0723  0.5718
  605TMC3     H 8969   2.061   0.685  16.940 -0.6832 -3.6775 -0.5966
  605TMC3    H1 8970   1.800   0.541  16.627 -1.6459  1.8078 -0.7744
  605TMC3    H2 8971   1.763   0.936  16.787  0.3772 -0.4618 -0.8520
  605TMC3    C7 8972   1.637   0.764  16.639  0.8349 -0.4593  0.2522
  605TMC3    C8 8973   2.002   0.910  16.890 -0.0209 -0.2099 -0.3204
  605TMC3    O1 8974   1.611   0.882  16.618 -0.0099  0.5559 -0.4498
  605TMC3    O2 8975   2.048   0.947  16.781  0.4046  0.2043 -0.1896
  606TMC3    C1 8976   3.019   3.531   0.070  0.4158  1.0725 -0.6128
  606TMC3    C2 8977   3.115   3.510   0.167  0.3636  0.5697 -0.6230
  606TMC3    C3 8978   3.122   3.382   0.223 -0.4990  0.9300 -0.6280
  606TMC3    C4 8979   2.930   3.424   0.032  0.1286  0.4043  0.1340
  606TMC3    C5 8980   2.943   3.305   0.089 -0.4196 -0.3168 -0.0008
  606TMC3    C6 8981   3.036   3.279   0.184 -0.5329 -0.0757  0.0198
  606TMC3     C 8982   2.998   3.667   0.028  0.0189  0.6336  0.3173
  606TMC3     O 8983   3.050   3.747   0.096 -0.4323  0.0306  0.1173
  606TMC3     H 8984   3.168   3.596   0.208  1.6074 -0.7743  0.5830
  606TMC3    H1 8985   2.849   3.438  17.659 -0.0357  0.1772  0.2806
  606TMC3    H2 8986   3.056   3.177   0.213  1.9522  0.4277  0.1093
  606TMC3    C7 8987   2.845   3.203   0.048 -0.1584  0.7286 -0.1898
  606TMC3    C8 8988   3.223   3.374   0.329 -0.5618  0.0833 -0.4782
  606TMC3    O1 8989   2.792   3.226  17.638  0.1323 -0.1932 -0.8292
  606TMC3    O2 8990   3.325   3.437   0.311 -0.4514 -0.2974  0.2530
  607MPD2     C 8991   1.462   1.794  11.430 -0.1004  0.1439 -0.1856
  607MPD2    C1 8992   1.457   1.925  11.469  0.6337 -0.3661  0.3778
  607MPD2    C2 8993   1.379   1.962  11.572  0.3105  0.4663 -0.0924
  607MPD2    C3 8994   1.293   1.872  11.631 -0.6151 -0.5170 -0.0022
  607MPD2    C4 8995   1.295   1.741  11.590  1.1043  0.0555 -0.0133
  607MPD2    C5 8996   1.374   1.708  11.485  0.5243  0.2287 -0.5594
  607MPD2     H 8997   1.394   2.057  11.622  0.7661 -0.1887  1.0204
  607MPD2    H1 8998   1.228   1.668  11.632  1.5463 -1.1661 -1.3928
  607MPD2    H2 8999   1.520   1.756  11.346 -2.1194 -3.8368  0.2349
  607MPD2    H3 9000   1.367   1.604  11.457 -0.2631 -0.1003  0.8513
  607MPD2     N 9001   1.218   1.919  11.746  0.1175  0.4185  0.2711
  607MPD2    H5 9002   1.229   2.017  11.768 -1.7578  1.0224 -1.4761
  607MPD2    N1 9003   1.540   2.024  11.417 -0.3808  0.3299  1.3814
  607MPD2    H7 9004   1.517   2.116  11.452 -2.7281 -0.0261  0.7649
  608TMC3    C1 9005   1.726   2.133  11.341  0.1646 -0.3900  0.1087
  608TMC3    C2 9006   1.732   2.183  11.470 -0.0532 -0.1744 -0.1945
  608TMC3    C3 9007   1.842   2.261  11.509  0.3419 -1.1711 -0.4307
  608TMC3    C4 9008   1.817   2.163  11.251  0.3798 -0.1354  0.7174
  608TMC3    C5 9009   1.916   2.253  11.287 -0.4636  0.5843  0.3696
  608TMC3    C6 9010   1.937   2.295  11.418 -0.3159 -0.0154  0.0479
  608TMC3     C 9011   1.635   2.027  11.317 -0.4098 -0.2350 -0.2734
  608TMC3     O 9012   1.656   1.944  11.228  0.0393  0.4931 -0.0774
  608TMC3     H 9013   1.677   2.137  11.552  0.3801  0.4233  0.4343
  608TMC3    H1 9014   1.814   2.119  11.152  2.1956  1.4713 -0.0563
  608TMC3    H2 9015   2.005   2.377  11.436  0.2715 -0.2954 -0.8616
  608TMC3    C7 9016   2.002   2.304  11.181  0.3877  0.5150 -0.2247
  608TMC3    C8 9017   1.833   2.334  11.636 -0.2791 -0.1069  0.3643
  608TMC3    O1 9018   1.958   2.285  11.070  0.5527  0.4247 -0.2290
  608TMC3    O2 9019   1.932   2.394  11.676 -0.0240 -0.0296  0.5149
  609TMC3    C1 9020   0.045   1.304   9.096  0.5227  0.6010 -0.3096
  609TMC3    C2 9021   0.015   1.388   8.994 -0.1473  0.0413  0.1794
  609TMC3    C3 9022   0.121   1.422   8.914 -0.2046 -0.8094  0.5542
  609TMC3    C4 9023   0.167   1.247   9.104 -0.4741  0.4913  0.2940
  609TMC3    C5 9024   0.266   1.262   9.018  0.4886 -0.1752  0.2236
  609TMC3    C6 9025   0.247   1.356   8.921  0.2068 -0.0187 -0.4126
  609TMC3     C 9026   4.666   1.256   9.183 -0.4719 -0.7010 -0.3256
  609TMC3     O 9027   4.693   1.172   9.267 -0.6617  0.4250  0.1282
  609TMC3     H 9028   4.650   1.450   8.995 -0.5500 -0.5254  0.1109
  609TMC3    H1 9029   0.177   1.174   9.183  0.9334  0.2376 -0.1179
  609TMC3    H2 9030   0.319   1.383   8.845  0.5724  0.7152  0.1971
  609TMC3    C7 9031   0.407   1.218   9.045  0.3568  0.2740  0.7066
  609TMC3    C8 9032   0.118   1.543   8.839  0.2603 -0.6018  0.1177
  609TMC3    O1 9033   0.423   1.192   9.163  0.3633  0.3855 -0.0183
  609TMC3    O2 9034   0.222   1.604   8.828  0.3626 -0.5439 -0.2773
  610TMC3    C1 9035   1.593   1.969  12.495  0.0937  0.1195  0.4237
  610TMC3    C2 9036   1.709   2.035  12.456 -0.6090  0.1320  0.3898
  610TMC3    C3 9037   1.826   1.968  12.482  0.9069  0.4432  0.3025
  610TMC3    C4 9038   1.592   1.841  12.552  0.7091  0.3191  0.3561
  610TMC3    C5 9039   1.709   1.768  12.535 -0.0718 -0.5747 -0.2432
  610TMC3    C6 9040   1.824   1.835  12.514 -0.3108  0.4095 -0.3025
  610TMC3     C 9041   1.470   2.042  12.525 -1.2656  0.1817  0.1380
  610TMC3     O 9042   1.391   1.987  12.599 -0.8199  0.4651  0.5965
  610TMC3     H 9043   1.730   2.141  12.457  1.7322 -0.3296  0.1474
  610TMC3    H1 9044   1.500   1.797  12.588  0.2244  0.9248 -0.1429
  610TMC3    H2 9045   1.915   1.776  12.518 -0.2748  0.3171 -2.0933
  610TMC3    C7 9046   1.724   1.646  12.603  0.2544  0.4981 -0.1681
  610TMC3    C8 9047   1.949   2.031  12.434 -0.1438 -0.8921  0.1157
  610TMC3    O1 9048   1.821   1.628  12.672  0.2757  0.0745  0.6342
  610TMC3    O2 9049   1.944   2.101  12.334  0.0121  0.0962 -0.1604
  611MPD2     C 9050   1.301   1.593  10.335 -0.0215 -0.8199 -0.3847
  611MPD2    C1 9051   1.253   1.672  10.234  0.8033 -0.5192 -0.0680
  611MPD2    C2 9052   1.330   1.780  10.192 -0.3591 -0.3691 -0.3948
  611MPD2    C3 9053   1.444   1.813  10.255  0.1252  0.6259 -0.3108
  611MPD2    C4 9054   1.481   1.747  10.369  0.4287 -0.4635  0.2886
  611MPD2    C5 9055   1.410   1.632  10.402 -0.0057  0.6391  0.3350
  611MPD2     H 9056   1.294   1.837  10.107 -2.7981 -0.3884  0.6500
  611MPD2    H1 9057   1.558   1.778  10.439  1.4473  0.2214 -1.1240
  611MPD2    H2 9058   1.242   1.512  10.377 -0.6402  0.0822  0.4980
  611MPD2    H3 9059   1.437   1.589  10.498  0.1451 -2.2362 -0.9961
  611MPD2     N 9060   1.521   1.917  10.201 -0.1387  0.2109  0.0632
  611MPD2    H5 9061   1.596   1.952  10.259 -1.0382 -0.3091  1.5260
  611MPD2    N1 9062   1.121   1.637  10.171  0.6605  0.4462  0.1424
  611MPD2    H7 9063   1.084   1.552  10.211 -0.0467 -0.5998 -2.7776
  612TMC3    C1 9064   1.602   2.071  10.048  0.3164  0.3009  0.4835
  612TMC3    C2 9065   1.671   2.139  10.149 -0.5000  0.0810  0.0178
  612TMC3    C3 9066   1.742   2.251  10.108  0.5351  0.1074 -0.6408
  612TMC3    C4 9067   1.601   2.113   9.919 -0.5730 -0.3574 -0.7436
  612TMC3    C5 9068   1.673   2.227   9.889 -0.3634 -0.5775 -0.1152
  612TMC3    C6 9069   1.744   2.298   9.981  0.1589  0.8343  0.1134
  612TMC3     C 9070   1.511   1.966  10.070 -0.0152  0.5118  0.0289
  612TMC3     O 9071   1.440   1.923   9.980  0.3327 -0.2134  0.3426
  612TMC3     H 9072   1.659   2.123  10.255 -1.9511  0.8809 -0.0264
  612TMC3    H1 9073   1.528   2.076   9.848 -1.4716 -0.0295 -0.0076
  612TMC3    H2 9074   1.810   2.381   9.959 -1.1153  0.6553 -4.3737
  612TMC3    C7 9075   1.707   2.254   9.752 -0.4502 -0.0498  0.6139
  612TMC3    C8 9076   1.852   2.307  10.186 -0.7917  0.3907 -0.4020
  612TMC3    O1 9077   1.769   2.361   9.735 -0.2218 -0.3778  0.4630
  612TMC3    O2 9078   1.884   2.424  10.169 -0.1807 -0.1353 -0.4892
  613MPD2     C 9079   4.617   4.234  16.200 -0.1492  0.1280  0.3060
  613MPD2    C1 9080   4.504   4.214  16.122  0.0633 -0.6439 -0.0275
  613MPD2    C2 9081   4.479   4.084  16.064  0.8003  0.5639  0.5548
  613MPD2    C3 9082   4.567   3.982  16.104  0.7402 -1.4535  0.8611
  613MPD2    C4 9083   4.676   4.008  16.181  0.0894  0.8707 -0.6271
  613MPD2    C5 9084   4.699   4.136  16.234 -0.2167 -0.0233 -0.7998
  613MPD2     H 9085   4.392   4.072  16.001  1.5862 -0.0098 -0.4210
  613MPD2    H1 9086   0.034   3.937  16.190 -0.3360  0.8207  2.9755
  613MPD2    H2 9087   4.640   4.334  16.235  0.0518  0.0715  0.3326
  613MPD2    H3 9088   0.062   4.153  16.298  0.3852  0.1334 -1.6490
  613MPD2     N 9089   4.555   3.847  16.057 -0.0406 -0.2002  0.1179
  613MPD2    H5 9090   4.637   3.789  16.066 -0.8572 -1.0965  1.8375
  613MPD2    N1 9091   4.439   4.335  16.084 -0.1673 -0.2009  0.1952
  613MPD2    H7 9092   4.491   4.420  16.106 -2.2215  0.8658  0.8672
  614TMC3    C1 9093   4.326   4.461  15.926  0.4385 -0.0891 -0.0142
  614TMC3    C2 9094   4.450   4.490  15.862  0.4615  0.7826  0.0236
  614TMC3    C3 9095   4.453   4.508  15.726 -0.3360 -0.2267  1.0626
  614TMC3    C4 9096   4.209   4.475  15.863 -0.0630 -0.2921 -0.3228
  614TMC3    C5 9097   4.219   4.501  15.727 -0.1064 -0.1279 -0.1305
  614TMC3    C6 9098   4.333   4.525  15.662  0.1717 -0.0702  0.3230
  614TMC3     C 9099   4.333   4.343  16.001 -0.2895  0.3120  0.1463
  614TMC3     O 9100   4.244   4.257  15.988 -0.1686 -0.3904 -0.7463
  614TMC3     H 9101   4.540   4.455  15.911  0.2775 -0.9003 -0.8799
  614TMC3    H1 9102   4.117   4.457  15.917  0.5835  1.8502  1.4815
  614TMC3    H2 9103   4.330   4.539  15.555  0.7202  1.3973  0.5051
  614TMC3    C7 9104   4.088   4.515  15.664 -0.3544  0.4035  0.7251
  614TMC3    C8 9105   4.553   4.425  15.660  0.3763  0.2305  0.1965
  614TMC3    O1 9106   4.008   4.589  15.718  0.3128 -0.5785  0.0250
  614TMC3    O2 9107   4.624   4.365  15.741 -0.1320  0.4071 -1.2236
  615MPD2     C 9108   3.676   0.318  16.516 -0.0971  0.3310 -0.8433
  615MPD2    C1 9109   3.767   0.428  16.517 -0.8929 -0.0978 -0.2672
  615MPD2    C2 9110   3.771   0.519  16.415  0.4761 -0.5736 -0.7623
  615MPD2    C3 9111   3.682   0.498  16.315  0.8379 -0.3444  0.1744
  615MPD2    C4 9112   3.589   0.396  16.310 -0.2801 -0.0117  0.2694
  615MPD2    C5 9113   3.584   0.301  16.413  0.1028  0.2890 -0.5919
  615MPD2     H 9114   3.843   0.600  16.418  0.4043 -0.5580  0.7451
  615MPD2    H1 9115   3.516   0.389  16.231 -0.9305 -1.0205  0.9575
  615MPD2    H2 9116   3.672   0.243  16.594 -1.1689  0.5863 -0.6636
  615MPD2    H3 9117   3.520   0.214  16.407 -0.8036  0.7679  2.0216
  615MPD2     N 9118   3.688   0.582  16.204 -0.4750 -0.3572  0.0551
  615MPD2    H5 9119   3.611   0.573  16.137  1.2834  0.9870 -2.1458
  615MPD2    N1 9120   3.850   0.454  16.630 -0.0916  1.1787 -0.0719
  615MPD2    H7 9121   3.904   0.539  16.613 -1.0419  1.7483 -0.2475
  616TMC3    C1 9122   3.993   0.449  16.807  0.2067  0.7093  0.4721
  616TMC3    C2 9123   4.053   0.543  16.735 -0.4339  0.2831  0.3394
  616TMC3    C3 9124   4.126   0.629  16.800  0.2914  0.6027  0.1219
  616TMC3    C4 9125   3.986   0.455  16.937 -0.0604  0.2090  0.6302
  616TMC3    C5 9126   4.060   0.549  17.004  0.4355  0.0027 -0.1920
  616TMC3    C6 9127   4.131   0.642  16.934  0.3954  1.0839 -0.5857
  616TMC3     C 9128   3.885   0.378  16.741 -0.4512 -0.1378  0.4046
  616TMC3     O 9129   3.861   0.260  16.768  0.3925  0.1672 -0.5368
  616TMC3     H 9130   4.066   0.528  16.629 -0.2877  1.8071  0.1393
  616TMC3    H1 9131   3.920   0.392  16.996 -0.2359  1.2893  1.6074
  616TMC3    H2 9132   4.167   0.730  16.987  0.8601  0.0342  0.8385
  616TMC3    C7 9133   4.037   0.575  17.141 -0.2767 -0.0030 -0.2788
  616TMC3    C8 9134   4.139   0.753  16.721 -0.9094 -0.7370  0.3900
  616TMC3    O1 9135   3.927   0.536  17.186  0.2467 -0.0461 -0.6617
  616TMC3    O2 9136   4.069   0.747  16.622  0.0178 -0.0403  0.4678
  617MPD2     C 9137   2.171   3.545  13.739  0.3550  0.3481 -0.5233
  617MPD2    C1 9138   2.136   3.498  13.862  0.2805 -0.0219  0.2396
  617MPD2    C2 9139   2.011   3.511  13.914 -0.6064 -0.0287  0.1283
  617MPD2    C3 9140   1.909   3.554  13.834  0.9295 -0.1339  0.5866
  617MPD2    C4 9141   1.941   3.586  13.705 -0.3741  0.5689  0.1336
  617MPD2    C5 9142   2.072   3.598  13.660 -0.6586  0.5264  0.1602
  617MPD2     H 9143   1.989   3.463  14.008  0.9571  0.5019  0.7749
  617MPD2    H1 9144   1.861   3.623  13.642  0.6695  1.4359 -0.6697
  617MPD2    H2 9145   2.269   3.538  13.693  1.1769 -1.6079  1.5248
  617MPD2    H3 9146   2.089   3.639  13.561 -0.2178  1.0106  0.4401
  617MPD2     N 9147   1.778   3.574  13.879 -0.0499 -0.0681 -0.2085
  617MPD2    H5 9148   1.714   3.600  13.804 -2.5819 -0.6531  1.7514
  617MPD2    N1 9149   2.244   3.449  13.938  0.3662 -0.4951 -0.2697
  617MPD2    H7 9150   2.336   3.473  13.903  0.1738 -1.1055 -1.1996
  618TMC3    C1 9151   2.373   3.374  14.125 -0.2173  0.6194 -0.7542
  618TMC3    C2 9152   2.406   3.242  14.130 -0.3083  0.5082  0.2448
  618TMC3    C3 9153   2.508   3.191  14.059 -0.5867 -0.7902  0.2608
  618TMC3    C4 9154   2.461   3.461  14.068  0.3686 -0.3078  0.1672
  618TMC3    C5 9155   2.561   3.405  13.995  0.8815 -0.3771  0.7784
  618TMC3    C6 9156   2.583   3.269  13.985 -0.2709  0.2290 -0.2073
  618TMC3     C 9157   2.238   3.386  14.064  0.4407 -0.0746 -0.8445
  618TMC3     O 9158   2.149   3.316  14.112  0.3226  0.3024 -0.1686
  618TMC3     H 9159   2.340   3.172  14.180 -1.1820 -0.2082 -1.8801
  618TMC3    H1 9160   2.453   3.569  14.067 -0.1602 -0.3413  0.5820
  618TMC3    H2 9161   2.646   3.235  13.904  0.5504 -0.3137  0.6623
  618TMC3    C7 9162   2.591   3.488  13.873  0.0167  0.0533 -0.9174
  618TMC3    C8 9163   2.523   3.043  14.048  0.3914 -0.2163  0.2329
  618TMC3    O1 9164   2.511   3.570  13.836 -0.7393  0.1126  0.3185
  618TMC3    O2 9165   2.421   2.980  14.079  0.2114  0.2253 -0.3838
  619MPD2     C 9166   3.193   0.047  13.906  0.5380 -0.0357  0.0614
  619MPD2    C1 9167   3.137   0.103  13.799  0.4038  1.0636  0.2115
  619MPD2    C2 9168   3.004   0.079  13.771  0.3937  0.1526  0.1084
  619MPD2    C3 9169   2.933   4.710  13.845  0.3486 -0.3032  0.0313
  619MPD2    C4 9170   3.000   4.646  13.957  0.0675 -0.8192 -0.1975
  619MPD2    C5 9171   3.126   4.676  13.976 -0.6405 -0.2734 -0.1569
  619MPD2     H 9172   2.957   0.117  13.681  0.0898  0.7166  0.5059
  619MPD2    H1 9173   2.945   4.576  14.018 -0.2946  0.0590  0.4981
  619MPD2    H2 9174   3.299   0.063  13.920  0.3698 -0.3551  1.6438
  619MPD2    H3 9175   3.180   4.613  14.046 -1.7695 -1.4059 -0.3022
  619MPD2     N 9176   2.799   4.684  13.820  0.1233 -0.1259  0.4099
  619MPD2    H5 9177   2.761   4.603  13.868 -1.5632  1.1159  1.1992
  619MPD2    N1 9178   3.226   0.190  13.727 -0.0589  0.5562 -0.7219
  619MPD2    H7 9179   3.314   0.213  13.772 -0.1098  1.7588 -1.2513
  620TMC3    C1 9180   3.287   0.323  13.542  0.6986 -0.8819 -0.4977
  620TMC3    C2 9181   3.262   0.334  13.411 -0.0199 -0.0443 -0.1211
  620TMC3    C3 9182   3.245   0.453  13.353 -0.3815  0.6719  0.2149
  620TMC3    C4 9183   3.284   0.444  13.608  0.1001 -0.8601  0.2163
  620TMC3    C5 9184   3.249   0.564  13.549  0.6207 -0.0520  0.8337
  620TMC3    C6 9185   3.245   0.576  13.416 -1.0953 -0.2338 -0.5102
  620TMC3     C 9186   3.198   0.230  13.600 -0.1998  0.0698  0.1701
  620TMC3     O 9187   3.105   0.192  13.529  0.0830  0.4884 -0.4902
  620TMC3     H 9188   3.259   0.243  13.352 -0.9605 -0.1355  0.0627
  620TMC3    H1 9189   3.297   0.448  13.715 -0.4900 -1.0895  0.3003
  620TMC3    H2 9190   3.205   0.665  13.368 -1.6280 -0.2883 -0.1583
  620TMC3    C7 9191   3.156   0.643  13.632  0.0456  1.0395 -0.8411
  620TMC3    C8 9192   3.185   0.439  13.217 -0.6104 -0.7707  0.4667
  620TMC3    O1 9193   3.102   0.591  13.730 -0.5848  0.3834 -0.1990
  620TMC3    O2 9194   3.269   0.387  13.145 -0.7241 -0.4645 -0.3210
  621MPD2     C 9195   4.274   0.326   9.171 -0.4431 -0.3355  0.0521
  621MPD2    C1 9196   4.361   0.426   9.108 -0.0733  0.1887 -0.4116
  621MPD2    C2 9197   4.455   0.483   9.197 -0.0546 -0.3540 -0.5150
  621MPD2    C3 9198   4.462   0.457   9.334  1.0484  0.5706 -0.1959
  621MPD2    C4 9199   4.373   0.361   9.388  0.1731 -0.3666  0.0875
  621MPD2    C5 9200   4.290   0.292   9.303 -0.1787  0.2225 -0.1857
  621MPD2     H 9201   4.516   0.566   9.163  0.7248 -0.6077  0.2591
  621MPD2    H1 9202   4.367   0.335   9.493  1.7710 -0.0176  0.2717
  621MPD2    H2 9203   4.206   0.266   9.111 -0.8394  0.0379  0.1300
  621MPD2    H3 9204   4.228   0.211   9.339 -0.3415  0.5834  0.3392
  621MPD2     N 9205   4.563   0.528   9.407 -0.1011 -0.3929 -0.0166
  621MPD2    H5 9206   4.609   0.605   9.360  0.1225 -1.0390 -0.8462
  621MPD2    N1 9207   4.350   0.462   8.969  0.7281 -0.3952 -0.0242
  621MPD2    H7 9208   4.421   0.519   8.923  1.2613  0.1369  1.4425
  622TMC3    C1 9209   4.227   0.508   8.769  0.3754 -0.2673 -0.4567
  622TMC3    C2 9210   4.110   0.459   8.707  0.3553  0.1521 -0.2523
  622TMC3    C3 9211   4.006   0.535   8.689  0.5627 -0.0542 -0.0406
  622TMC3    C4 9212   4.244   0.644   8.794 -0.5797 -0.1365  0.1539
  622TMC3    C5 9213   4.133   0.719   8.764 -0.1326 -0.0614 -0.5668
  622TMC3    C6 9214   4.014   0.669   8.718 -0.3992  0.5565 -1.0593
  622TMC3     C 9215   4.239   0.429   8.892 -0.0059  0.1573 -0.4913
  622TMC3     O 9216   4.134   0.369   8.914 -0.4286  0.4561 -0.3195
  622TMC3     H 9217   4.107   0.351   8.694 -0.3750  0.3398 -1.6254
  622TMC3    H1 9218   4.334   0.685   8.839 -0.5754  0.7135 -0.6166
  622TMC3    H2 9219   3.925   0.727   8.699  0.1823  1.3118 -1.4799
  622TMC3    C7 9220   4.138   0.861   8.790 -0.0100  0.8027 -0.2830
  622TMC3    C8 9221   3.874   0.482   8.721 -0.2536 -0.1251  0.1945
  622TMC3    O1 9222   4.236   0.929   8.758  0.3950  0.0800  0.4940
  622TMC3    O2 9223   3.777   0.546   8.685  0.0262  0.5168  0.4365
  623MPD2     C 9224   2.489   0.779  16.005  0.5596  0.0027  0.9069
  623MPD2    C1 9225   2.405   0.829  16.103 -0.7859 -0.5361 -0.8285
  623MPD2    C2 9226   2.459   0.853  16.230 -0.1128 -0.0394 -0.2462
  623MPD2    C3 9227   2.586   0.813  16.259 -0.3749  0.2213  0.2182
  623MPD2    C4 9228   2.666   0.755  16.162 -0.4859 -0.5818  0.0695
  623MPD2    C5 9229   2.621   0.747  16.030 -0.0619  0.3177  0.1357
  623MPD2     H 9230   2.394   0.884  16.312 -1.1061  1.5364 -1.6227
  623MPD2    H1 9231   2.763   0.713  16.188 -1.9365 -1.1771  4.5294
  623MPD2    H2 9232   2.460   0.746  15.905 -1.4683  1.1405  1.1315
  623MPD2    H3 9233   2.685   0.705  15.953  0.5930 -0.0053  0.8562
  623MPD2     N 9234   2.621   0.810  16.394  0.2945 -0.2395  0.0088
  623MPD2    H5 9235   2.548   0.837  16.459  0.6415  0.4180  0.1305
  623MPD2    N1 9236   2.271   0.853  16.078  0.2968 -0.0903  0.0078
  623MPD2    H7 9237   2.223   0.903  16.153 -1.1965 -0.5947 -0.5994
  624TMC3    C1 9238   2.809   0.716  16.803  0.1573 -0.5616 -0.2298
  624TMC3    C2 9239   2.715   0.793  16.862  0.7627  0.1330  0.5456
  624TMC3    C3 9240   2.640   0.880  16.784 -0.4485  0.5839  0.1816
  624TMC3    C4 9241   2.830   0.711  16.664 -0.3658  1.1157 -0.0407
  624TMC3    C5 9242   2.743   0.784  16.591  0.6402  0.7835  0.1679
  624TMC3    C6 9243   2.643   0.862  16.651  0.0968 -0.3997 -0.3769
  624TMC3     C 9244   2.925   0.687  16.883  0.0615  0.1343 -0.3121
  624TMC3     O 9245   2.908   0.628  16.986 -0.5996 -0.0597  0.6305
  624TMC3     H 9246   2.714   0.801  16.970  1.2133 -1.6473  0.6860
  624TMC3    H1 9247   2.897   0.643  16.612 -0.4473 -0.8721  2.4444
  624TMC3    H2 9248   2.594   0.941  16.595  0.2195 -0.8152 -1.0837
  624TMC3    C7 9249   2.736   0.759  16.449  0.4184 -0.4102  0.2488
  624TMC3    C8 9250   2.517   0.938  16.825  0.1369 -0.5249  0.1650
  624TMC3    O1 9251   2.828   0.693  16.396  0.2653 -0.0179 -0.2495
  624TMC3    O2 9252   2.425   0.948  16.740  0.1593  0.1919 -0.7547
  625MPD2     C 9253   2.488   1.373   0.253  0.0724  0.3724  0.8186
  625MPD2    C1 9254   2.558   1.425   0.360 -0.8431 -0.4224  0.5982
  625MPD2    C2 9255   2.611   1.336   0.453  0.3570 -0.4600 -0.5080
  625MPD2    C3 9256   2.569   1.204   0.464  0.6291 -0.1864 -0.0512
  625MPD2    C4 9257   2.492   1.153   0.364 -0.4416  0.1211 -0.4074
  625MPD2    C5 9258   2.461   1.238   0.264 -0.0348  0.5492 -0.3305
  625MPD2     H 9259   2.676   1.367   0.534 -2.2539 -2.1075  2.2043
  625MPD2    H1 9260   2.456   1.051   0.368 -1.5927  0.4501 -2.3304
  625MPD2    H2 9261   2.450   1.443   0.179  2.4738  0.9866  0.1567
  625MPD2    H3 9262   2.404   1.207   0.177 -0.2772 -1.0055  0.3691
  625MPD2     N 9263   2.599   1.131   0.578  0.1094 -0.6813  0.1211
  625MPD2    H5 9264   2.636   1.182   0.658  0.0306  0.4227 -0.5419
  625MPD2    N1 9265   2.596   1.564   0.375 -0.5337  0.4228  0.0402
  625MPD2    H7 9266   2.653   1.589   0.456  1.3963  0.6483 -1.3919
  626TMC3    C1 9267   2.563   1.787   0.336  0.3592  0.2757  0.0261
  626TMC3    C2 9268   2.588   1.891   0.249  0.4162 -0.1251  0.8923
  626TMC3    C3 9269   2.593   2.022   0.299  0.6259 -0.5684 -0.2763
  626TMC3    C4 9270   2.558   1.809   0.467  0.5430 -0.2565 -0.1165
  626TMC3    C5 9271   2.565   1.935   0.517  0.5538 -0.0343  0.5278
  626TMC3    C6 9272   2.578   2.045   0.434  0.1226 -0.0211 -0.0774
  626TMC3     C 9273   2.553   1.651   0.285 -0.7058 -0.0740  0.1208
  626TMC3     O 9274   2.499   1.645   0.176 -0.2401  0.2302  0.9192
  626TMC3     H 9275   2.592   1.866   0.143 -3.0901  3.2042 -0.0508
  626TMC3    H1 9276   2.522   1.740   0.542  0.8263 -0.8723 -0.5479
  626TMC3    H2 9277   2.592   2.141   0.482  0.1460 -0.5250  0.9353
  626TMC3    C7 9278   2.559   1.946   0.659  0.3471 -0.1755 -0.0547
  626TMC3    C8 9279   2.574   2.134   0.205 -0.4145 -0.4410 -0.4456
  626TMC3    O1 9280   2.582   1.841   0.727 -0.6897 -0.1835 -0.0899
  626TMC3    O2 9281   2.585   2.098   0.089  0.8921 -0.0540 -0.9509
  627MPD2     C 9282   1.121   2.696  14.381 -0.2025 -0.2489 -0.6774
  627MPD2    C1 9283   1.192   2.593  14.444 -0.5115  0.4364 -0.3238
  627MPD2    C2 9284   1.128   2.469  14.460  0.0321 -0.3651 -0.6402
  627MPD2    C3 9285   0.999   2.451  14.410  0.9713 -0.0339 -0.4680
  627MPD2    C4 9286   0.945   2.547  14.331 -0.1474 -0.5541 -0.3329
  627MPD2    C5 9287   1.003   2.666  14.321 -0.1487  0.5870 -0.0190
  627MPD2     H 9288   1.183   2.393  14.514 -1.4493 -1.7495 -1.0793
  627MPD2    H1 9289   0.852   2.523  14.282  0.1555  1.2765 -1.7962
  627MPD2    H2 9290   1.149   2.801  14.379 -1.2076  0.0441  0.5718
  627MPD2    H3 9291   0.938   2.742  14.279 -1.3820  0.0063  0.8161
  627MPD2     N 9292   0.936   2.325  14.439 -0.0432  0.0987 -0.1708
  627MPD2    H5 9293   0.969   2.269  14.517 -1.2729  1.4943  1.3639
  627MPD2    N1 9294   1.318   2.620  14.501  0.0988  0.3659 -0.3132
  627MPD2    H7 9295   1.363   2.546  14.554 -2.0194  1.0122  2.3757
  628TMC3    C1 9296   1.509   2.722  14.576 -0.3961 -0.8680  0.5560
  628TMC3    C2 9297   1.595   2.625  14.541 -0.5321  0.7413 -0.9320
  628TMC3    C3 9298   1.726   2.630  14.568  0.0434  0.5934  0.3019
  628TMC3    C4 9299   1.552   2.828  14.646 -0.2244 -0.1282 -1.2733
  628TMC3    C5 9300   1.683   2.839  14.675 -0.2968 -0.0631  1.1944
  628TMC3    C6 9301   1.774   2.737  14.642 -0.4484  0.1890  0.1613
  628TMC3     C 9302   1.383   2.740  14.506 -0.7478 -0.2034  0.5984
  628TMC3     O 9303   1.341   2.856  14.502 -0.6109 -0.0576  0.1457
  628TMC3     H 9304   1.558   2.547  14.476  0.6455  0.1005 -0.8268
  628TMC3    H1 9305   1.474   2.892  14.685  1.3389  0.5587  0.7261
  628TMC3    H2 9306   1.878   2.766  14.639  0.2669 -2.9235 -5.8087
  628TMC3    C7 9307   1.726   2.977  14.684 -0.1708  0.5233  0.2267
  628TMC3    C8 9308   1.802   2.538  14.485  0.5328  0.3743 -0.1812
  628TMC3    O1 9309   1.842   3.001  14.717  0.2082 -0.4523 -0.1029
  628TMC3    O2 9310   1.751   2.523  14.378  0.0629  0.0761  0.1386
  629MPD2     C 9311   4.397   1.135  16.515 -0.4422 -0.4704 -0.1843
  629MPD2    C1 9312   4.472   1.075  16.614  0.0281  0.1154  0.0356
  629MPD2    C2 9313   4.419   0.974  16.692  0.0339 -0.1450  0.0003
  629MPD2    C3 9314   4.302   0.916  16.656  0.3135 -0.7844 -0.4706
  629MPD2    C4 9315   4.222   0.978  16.556  0.3100  0.0334  0.1918
  629MPD2    C5 9316   4.271   1.083  16.483  0.5278  0.4054  0.1606
  629MPD2     H 9317   4.459   0.932  16.783  1.6980  0.6599 -0.3537
  629MPD2    H1 9318   4.121   0.943  16.539 -0.4956  2.3889  0.2155
  629MPD2    H2 9319   4.431   1.227  16.468  1.6044 -0.7973  0.6494
  629MPD2    H3 9320   4.209   1.125  16.404  2.3251 -0.1499 -1.5521
  629MPD2     N 9321   4.257   0.809  16.736  0.0292  0.7802 -0.7168
  629MPD2    H5 9322   4.312   0.780  16.816  0.0968 -1.3241 -1.5278
  629MPD2    N1 9323   4.599   1.135  16.635 -0.2169  0.0322  0.2733
  629MPD2    H7 9324   4.620   1.207  16.566  1.2783  1.4470  2.2167
  630TMC3    C1 9325   0.095   1.156  16.720 -0.0899  0.5875  0.4542
  630TMC3    C2 9326   0.114   1.257  16.627  0.6099 -0.7260  0.0608
  630TMC3    C3 9327   0.242   1.282  16.571  0.2130  0.3030  0.1299
  630TMC3    C4 9328   0.194   1.075  16.762 -0.2728 -0.5728 -0.0277
  630TMC3    C5 9329   0.318   1.111  16.717 -0.3524  1.0269 -0.2785
  630TMC3    C6 9330   0.341   1.204  16.620 -0.1465 -0.1689  0.3979
  630TMC3     C 9331   4.688   1.097  16.735 -0.2614 -0.7061  0.3432
  630TMC3     O 9332   4.670   1.005  16.821 -0.3333 -0.2504  0.7588
  630TMC3     H 9333   0.035   1.328  16.604  0.8774 -0.4271  0.0681
  630TMC3    H1 9334   0.184   1.025  16.858 -1.5077 -0.1824  0.0512
  630TMC3    H2 9335   0.438   1.220  16.573  0.4021 -0.1865  1.5163
  630TMC3    C7 9336   0.392   1.154  16.831 -0.2163 -0.1731  0.4180
  630TMC3    C8 9337   0.284   1.422  16.549  0.1570 -0.4187 -0.2177
  630TMC3    O1 9338   0.377   1.085  16.930  0.5657 -0.6625  0.5402
  630TMC3    O2 9339   0.390   1.440  16.609 -0.4556 -0.5196  0.1058
  631MPD2     C 9340   3.038   1.113  15.805  0.3026  0.8962 -0.0122
  631MPD2    C1 9341   3.131   1.154  15.715 -0.0484  0.5657  0.4885
  631MPD2    C2 9342   3.254   1.090  15.719 -0.0387  0.0996 -0.5887
  631MPD2    C3 9343   3.287   0.985  15.806  0.2157  0.4167  0.6731
  631MPD2    C4 9344   3.192   0.949  15.898  0.8176 -0.6013  0.4480
  631MPD2    C5 9345   3.060   1.007  15.897  1.1590  0.5717 -0.2616
  631MPD2     H 9346   3.335   1.126  15.656  1.1780 -1.1709  0.2488
  631MPD2    H1 9347   3.202   0.861  15.961  0.7334 -0.8597  0.0982
  631MPD2    H2 9348   2.936   1.151  15.799 -0.0953  0.3627  3.1702
  631MPD2    H3 9349   2.988   0.973  15.971  0.7437 -0.2433 -1.0458
  631MPD2     N 9350   3.416   0.939  15.819  0.4327  0.4511 -0.0095
  631MPD2    H5 9351   3.486   0.990  15.767  0.8803 -0.8087 -0.6305
  631MPD2    N1 9352   3.095   1.247  15.616 -0.0455  0.0053  0.0602
  631MPD2    H7 9353   2.999   1.280  15.613 -0.8463 -2.2768  0.3386
  632TMC3    C1 9354   3.110   1.382  15.427  0.8520  0.4569 -0.1887
  632TMC3    C2 9355   2.996   1.440  15.466 -0.5773  0.5914  0.3335
  632TMC3    C3 9356   2.931   1.511  15.368  0.9680 -0.5672  0.0117
  632TMC3    C4 9357   3.160   1.377  15.297 -0.1301 -0.1864  0.2475
  632TMC3    C5 9358   3.090   1.437  15.199  0.2139 -0.7663 -0.1109
  632TMC3    C6 9359   2.978   1.507  15.230 -0.1853 -0.7144 -0.6068
  632TMC3     C 9360   3.176   1.295  15.523  0.2667 -0.8828  0.3355
  632TMC3     O 9361   3.289   1.260  15.487 -0.1408 -0.5029  0.4657
  632TMC3     H 9362   2.954   1.433  15.566 -1.1716  1.2457  0.1343
  632TMC3    H1 9363   3.236   1.304  15.275 -0.3710  0.2717 -2.0907
  632TMC3    H2 9364   2.933   1.566  15.151  1.5063  0.9616 -0.3059
  632TMC3    C7 9365   3.132   1.438  15.062 -0.0980 -0.4952 -0.0239
  632TMC3    C8 9366   2.785   1.544  15.386  0.1929  0.2608  0.3074
  632TMC3    O1 9367   3.069   1.496  14.975 -0.0642 -0.1011  0.4101
  632TMC3    O2 9368   2.751   1.568  15.500 -0.5743 -0.4931  0.4939
  633MPD2     C 9369   2.295   3.425  17.177  0.2413 -0.3825  1.2577
  633MPD2    C1 9370   2.311   3.361  17.055  0.5780  0.5101  0.7448
  633MPD2    C2 9371   2.332   3.223  17.062  0.0931 -0.0187 -0.2636
  633MPD2    C3 9372   2.328   3.146  17.173 -0.6098 -0.5271  0.0382
  633MPD2    C4 9373   2.304   3.212  17.289 -0.7626 -0.1105  0.0329
  633MPD2    C5 9374   2.287   3.350  17.288  0.4978  0.0788  0.1186
  633MPD2     H 9375   2.352   3.175  16.967 -0.0192  1.1272 -0.8628
  633MPD2    H1 9376   2.317   3.159  17.383 -0.6333 -0.3244 -0.1046
  633MPD2    H2 9377   2.292   3.533  17.190  1.5524 -0.0512 -1.1737
  633MPD2    H3 9378   2.261   3.402  17.379  0.3211 -0.5896  0.4551
  633MPD2     N 9379   2.356   3.008  17.181  0.7042  0.5577 -0.4057
  633MPD2    H5 9380   2.352   2.971  17.275  1.3574 -1.2552 -1.0967
  633MPD2    N1 9381   2.338   3.427  16.934 -0.2930  0.0073  0.6094
  633MPD2    H7 9382   2.363   3.368  16.855 -0.3673 -1.4029  1.6259
  634TMC3    C1 9383   2.398   3.610  16.798 -0.8396 -0.1808 -0.7812
  634TMC3    C2 9384   2.495   3.532  16.738 -0.3158 -0.1947  0.0866
  634TMC3    C3 9385   2.591   3.595  16.675  0.1713  0.1506 -0.2674
  634TMC3    C4 9386   2.392   3.746  16.786  0.6542  0.7969  0.0797
  634TMC3    C5 9387   2.490   3.802  16.705 -0.0358  0.7746 -0.5344
  634TMC3    C6 9388   2.589   3.730  16.643 -0.3616 -0.0272  0.8594
  634TMC3     C 9389   2.343   3.563  16.925 -0.2857  0.1404  0.1538
  634TMC3     O 9390   2.335   3.644  17.014  0.1350  0.3788  0.3003
  634TMC3     H 9391   2.503   3.425  16.753  2.3064 -0.2802 -2.0164
  634TMC3    H1 9392   2.305   3.799  16.824  0.5908 -0.2820  1.3987
  634TMC3    H2 9393   2.669   3.789  16.599 -1.3601  2.0020  1.7709
  634TMC3    C7 9394   2.493   3.944  16.693 -1.0311 -0.3713 -0.4593
  634TMC3    C8 9395   2.720   3.515  16.673 -0.4220  0.5868  0.5748
  634TMC3    O1 9396   2.530   3.994  16.589  0.2184  0.4711 -0.1602
  634TMC3    O2 9397   2.717   3.405  16.725  0.0818  0.2829 -0.4405
  635TMC3    C1 9398   3.742   4.629  17.382  0.2370 -0.2850 -0.5772
  635TMC3    C2 9399   3.873   4.626  17.346  0.4419 -0.0778 -0.9130
  635TMC3    C3 9400   3.911   4.562  17.231 -0.5435  0.3380 -0.2773
  635TMC3    C4 9401   3.647   4.572  17.302  0.1061  0.2463 -0.3837
  635TMC3    C5 9402   3.690   4.499  17.190  0.4427 -0.3784 -0.5430
  635TMC3    C6 9403   3.826   4.491  17.154 -0.0839 -0.1181  0.3307
  635TMC3     C 9404   3.693   4.714  17.494 -0.6897 -0.4790  0.2511
  635TMC3     O 9405   3.573   0.017  17.497  0.3951  0.2397 -0.4070
  635TMC3     H 9406   3.950   4.676  17.404 -1.2356  2.0360 -0.4886
  635TMC3    H1 9407   3.546   4.562  17.341  1.4251 -0.1237  2.9155
  635TMC3    H2 9408   3.867   4.430  17.074 -0.7105 -1.5874  1.1400
  635TMC3    C7 9409   3.604   4.394  17.136 -0.1626 -0.7299  0.0924
  635TMC3    C8 9410   4.054   4.560  17.198  0.3177  0.5853  0.0509
  635TMC3    O1 9411   3.664   4.301  17.083 -0.2381 -0.7318  0.0568
  635TMC3    O2 9412   4.126   4.601  17.289  0.3533 -0.2566  0.2899
  636MPD2     C 9413   3.893   4.099  15.586 -0.0264 -0.2201 -0.6551
  636MPD2    C1 9414   3.959   4.093  15.708  0.0592 -0.2186  0.0076
  636MPD2    C2 9415   4.065   3.999  15.725 -0.1750  0.1736 -0.2354
  636MPD2    C3 9416   4.101   3.920  15.616 -0.7014 -0.1130 -0.0416
  636MPD2    C4 9417   4.037   3.927  15.500  0.7894  0.6948 -0.1736
  636MPD2    C5 9418   3.929   4.010  15.490 -0.2186  0.8487 -0.1103
  636MPD2     H 9419   4.112   4.001  15.822  0.5814  0.0504 -0.6017
  636MPD2    H1 9420   4.069   3.875  15.411  3.1976  0.3106  0.9146
  636MPD2    H2 9421   3.812   4.170  15.572 -0.9795 -1.1949 -0.1062
  636MPD2    H3 9422   3.865   4.012  15.403 -1.6436  1.4067  0.9537
  636MPD2     N 9423   4.209   3.837  15.646  0.1969  0.9978  0.2050
  636MPD2    H5 9424   4.250   3.841  15.739  0.3411 -0.3208  0.1886
  636MPD2    N1 9425   3.923   4.166  15.824 -0.5771 -0.3514 -0.0167
  636MPD2    H7 9426   3.967   4.137  15.911 -2.7283 -3.5449  0.0041
  637TMC3    C1 9427   4.406   3.704  15.641  0.1731  0.3515 -0.1691
  637TMC3    C2 9428   4.397   3.685  15.776 -0.2757  0.2724 -0.1580
  637TMC3    C3 9429   4.503   3.722  15.856 -0.0435  0.3511  0.5862
  637TMC3    C4 9430   4.519   3.742  15.580  0.0499 -0.1752 -0.1205
  637TMC3    C5 9431   4.620   3.793  15.663 -0.9411 -0.5256 -0.7769
  637TMC3    C6 9432   4.618   3.773  15.797 -0.5865 -0.0657  0.1270
  637TMC3     C 9433   4.288   3.755  15.569 -0.0206  0.5007 -0.1154
  637TMC3     O 9434   4.275   3.738  15.445  0.1921  0.3607 -0.5748
  637TMC3     H 9435   4.307   3.656  15.830 -0.0722 -2.7056 -1.4154
  637TMC3    H1 9436   4.510   3.750  15.472  1.2870  0.6676 -0.1586
  637TMC3    H2 9437   4.690   3.831  15.853 -0.7536 -1.2666  1.6002
  637TMC3    C7 9438   4.664   3.926  15.632  0.1407 -0.1365 -0.3077
  637TMC3    C8 9439   4.458   3.807  15.963  0.0925  0.1509 -0.2508
  637TMC3    O1 9440   4.687   4.008  15.722 -0.6342 -0.7180 -0.7644
  637TMC3    O2 9441   4.348   3.856  15.934 -0.1581 -0.8220  0.6719
  638MPD2     C 9442   3.795   2.972  14.906  0.0093 -0.3427  0.5873
  638MPD2    C1 9443   3.766   2.846  14.854  0.8456 -0.1708  0.7209
  638MPD2    C2 9444   3.690   2.758  14.926  0.4363  0.3059  0.0724
  638MPD2    C3 9445   3.649   2.783  15.057 -0.0778 -0.2298  0.0682
  638MPD2    C4 9446   3.685   2.907  15.110  0.1027 -0.7469  0.3420
  638MPD2    C5 9447   3.758   2.998  15.036  0.3877  0.5603 -0.3272
  638MPD2     H 9448   3.672   2.660  14.884 -0.3744 -0.2255  1.6721
  638MPD2    H1 9449   3.657   2.946  15.207  1.2426  0.0025  0.3735
  638MPD2    H2 9450   3.849   3.048  14.852  1.7096 -0.5122  2.0342
  638MPD2    H3 9451   3.780   3.092  15.084  1.3334 -0.0389  0.4138
  638MPD2     N 9452   3.568   2.693  15.121 -0.1535  0.4947  0.6348
  638MPD2    H5 9453   3.535   2.611  15.070  1.3230  0.9546 -1.0431
  638MPD2    N1 9454   3.806   2.827  14.722 -0.0154 -0.4465  0.4572
  638MPD2    H7 9455   3.854   2.907  14.681  0.7614  0.2794  2.7995
  639TMC3    C1 9456   3.462   2.579  15.301  0.9785 -0.0765 -0.4703
  639TMC3    C2 9457   3.382   2.516  15.207 -0.4692  0.3348  0.2607
  639TMC3    C3 9458   3.328   2.398  15.250 -0.2325 -0.4545  0.1500
  639TMC3    C4 9459   3.493   2.532  15.422  0.1466  0.1634 -0.3189
  639TMC3    C5 9460   3.436   2.411  15.461 -0.3252  0.3657 -0.5838
  639TMC3    C6 9461   3.342   2.353  15.381 -0.0883 -0.7032 -1.1593
  639TMC3     C 9462   3.538   2.697  15.258 -0.2578  0.1523  0.4145
  639TMC3     O 9463   3.583   2.779  15.339  0.1288  0.2232 -0.6768
  639TMC3     H 9464   3.374   2.556  15.107 -0.1652 -0.9114 -0.2644
  639TMC3    H1 9465   3.548   2.597  15.489 -0.6382 -0.6234  1.0881
  639TMC3    H2 9466   3.289   2.265  15.417  0.3409 -0.4412  0.0779
  639TMC3    C7 9467   3.521   2.315  15.535  0.6470 -0.8465  0.5408
  639TMC3    C8 9468   3.284   2.306  15.146 -0.1965 -0.1904  0.5952
  639TMC3    O1 9469   3.473   2.217  15.593  0.5866 -0.1844 -0.5120
  639TMC3    O2 9470   3.357   2.294  15.046  0.3613 -0.3329  0.3057
  640MPD2     C 9471   4.534   1.420  10.167  0.4989  1.0014  0.0039
  640MPD2    C1 9472   4.546   1.523  10.080  0.1549 -0.6698 -0.7410
  640MPD2    C2 9473   4.487   1.645  10.100 -0.3748 -0.0860  0.6487
  640MPD2    C3 9474   4.397   1.660  10.204 -0.0250  0.8927 -0.1122
  640MPD2    C4 9475   4.389   1.556  10.296 -0.3275  0.4920  0.1236
  640MPD2    C5 9476   4.453   1.438  10.281 -0.7794  1.1335  0.1994
  640MPD2     H 9477   4.498   1.728  10.031  1.2830  1.5467  2.8845
  640MPD2    H1 9478   4.328   1.563  10.386 -1.5008 -2.3714 -0.4406
  640MPD2    H2 9479   4.585   1.325  10.155 -2.6961 -0.6471 -0.5224
  640MPD2    H3 9480   4.430   1.362  10.355 -1.6842  0.6192 -0.5953
  640MPD2     N 9481   4.314   1.773  10.223  0.8166  0.3345 -0.5436
  640MPD2    H5 9482   4.259   1.786  10.307 -0.1137  0.7990 -1.2428
  640MPD2    N1 9483   4.616   1.491   9.960  0.3271  0.2181  0.2668
  640MPD2    H7 9484   4.649   1.395   9.962 -1.2323 -0.3222 -0.3865
  641TMC3    C1 9485   0.010   1.515   9.756 -0.1533 -0.0916  0.1711
  641TMC3    C2 9486   0.072   1.394   9.770 -0.6736 -0.0567  0.3903
  641TMC3    C3 9487   0.142   1.336   9.666  0.1806  0.1291  0.2353
  641TMC3    C4 9488   0.010   1.583   9.637  0.3487 -0.5464 -0.5796
  641TMC3    C5 9489   0.066   1.517   9.534  0.0692  0.3668  0.6691
  641TMC3    C6 9490   0.126   1.397   9.542  0.3804 -1.0980  0.2768
  641TMC3     C 9491   4.653   1.578   9.858 -0.3883  0.2657  1.0530
  641TMC3     O 9492   4.627   1.696   9.846 -0.5249  0.3523  0.2024
  641TMC3     H 9493   0.078   1.359   9.872  0.3397 -1.1421 -0.0463
  641TMC3    H1 9494   4.679   1.676   9.623 -0.1889 -0.5735  1.3226
  641TMC3    H2 9495   0.164   1.355   9.450  2.5013  1.0066  0.1810
  641TMC3    C7 9496   0.070   1.578   9.401  0.1141  0.0791 -0.5394
  641TMC3    C8 9497   0.203   1.203   9.675  0.1128  0.2773 -0.2673
  641TMC3    O1 9498   0.165   1.548   9.332 -0.2467  0.4334  0.5933
  641TMC3    O2 9499   0.245   1.158   9.568  0.1533  0.8901 -0.0143
  642TMC3    C1 9500   0.726   2.928  12.062  0.3898  0.5560  0.6206
  642TMC3    C2 9501   0.841   2.929  12.131 -0.2988 -0.7059 -0.2063
  642TMC3    C3 9502   0.897   2.805  12.161 -0.5075 -0.5946  0.3613
  642TMC3    C4 9503   0.663   2.818  12.017  0.2517 -0.1631  0.0161
  642TMC3    C5 9504   0.724   2.700  12.041 -0.0355 -0.8625  0.2332
  642TMC3    C6 9505   0.843   2.686  12.107 -0.1584  0.1379  0.2184
  642TMC3     C 9506   0.659   3.060  12.064 -0.0495 -0.5113 -0.0370
  642TMC3     O 9507   0.693   3.148  11.987 -0.6788  0.3469  0.3279
  642TMC3     H 9508   0.877   3.022  12.174  1.0593 -1.6695  0.7965
  642TMC3    H1 9509   0.565   2.827  11.971  0.3934 -0.3410 -0.3224
  642TMC3    H2 9510   0.891   2.589  12.112 -1.6542 -0.4614  2.8188
  642TMC3    C7 9511   0.649   2.578  12.036 -0.0021 -0.6011 -0.8092
  642TMC3    C8 9512   1.001   2.791  12.257 -0.0391 -0.5276 -0.9562
  642TMC3    O1 9513   0.710   2.476  12.006 -0.0861 -0.2580 -0.3585
  642TMC3    O2 9514   1.020   2.674  12.288  0.0789 -0.4962  0.3597
  643TMC3    C1 9515   4.424   1.510   0.618 -0.1691  0.1118  0.3134
  643TMC3    C2 9516   4.301   1.449   0.615  0.1158  0.2754  1.0803
  643TMC3    C3 9517   4.274   1.383   0.496 -0.5489  0.0983 -0.0663
  643TMC3    C4 9518   4.517   1.508   0.513  0.2085  0.4309 -0.2264
  643TMC3    C5 9519   4.477   1.450   0.395 -0.1925  0.6154  0.2782
  643TMC3    C6 9520   4.356   1.381   0.384 -0.4039  0.5038 -0.0669
  643TMC3     C 9521   4.455   1.571   0.742  0.9228  0.0012  0.4222
  643TMC3     O 9522   4.364   1.616   0.809  0.4281 -0.4931  0.4547
  643TMC3     H 9523   4.224   1.464   0.690 -1.4438  1.1646 -0.6691
  643TMC3    H1 9524   4.611   1.561   0.514 -0.3841  1.5389 -2.2269
  643TMC3    H2 9525   4.327   1.321   0.299 -0.6304 -0.9059  1.0100
  643TMC3    C7 9526   4.514   1.516   0.274  0.0825 -0.5118  0.1564
  643TMC3    C8 9527   4.153   1.304   0.484 -0.0010 -0.1990  0.2317
  643TMC3    O1 9528   4.606   1.595   0.275  0.3862 -0.1318  0.2502
  643TMC3    O2 9529   4.118   1.240   0.586  0.1933 -0.2382 -0.4818
  644MPD2     C 9530   0.185   2.267   9.426  0.4272  0.1991 -0.1270
  644MPD2    C1 9531   0.149   2.150   9.482  0.6500 -0.1360 -0.5290
  644MPD2    C2 9532   0.017   2.128   9.516 -0.0825  0.3661  0.1050
  644MPD2    C3 9533   4.652   2.226   9.489  0.1984  0.1602 -0.6867
  644MPD2    C4 9534   4.693   2.347   9.441  0.0258  0.0742  0.2494
  644MPD2    C5 9535   0.097   2.367   9.407  0.9453 -0.4300  0.1248
  644MPD2     H 9536   4.709   2.030   9.550 -0.2844 -0.0607 -1.2786
  644MPD2    H1 9537   4.629   2.434   9.431 -0.8620 -0.8473 -2.0178
  644MPD2    H2 9538   0.285   2.281   9.386  0.4578  1.1650  0.2812
  644MPD2    H3 9539   0.128   2.465   9.371  1.0883 -1.3659 -2.3014
  644MPD2     N 9540   4.515   2.198   9.493 -0.4409 -0.0553  0.0191
  644MPD2    H5 9541   4.499   2.110   9.540 -1.5959  0.3192  0.3269
  644MPD2    N1 9542   0.248   2.053   9.512 -0.2734 -0.3406  0.7364
  644MPD2    H7 9543   0.342   2.074   9.482 -0.4376  0.7450  0.9975
  645TMC3    C1 9544   4.282   2.215   9.453 -0.2647  0.8377 -0.1781
  645TMC3    C2 9545   4.168   2.286   9.453  1.1798 -0.0880  0.3452
  645TMC3    C3 9546   4.046   2.230   9.469 -0.3109 -0.0120 -0.0807
  645TMC3    C4 9547   4.273   2.083   9.432  0.0743  0.3097  0.1162
  645TMC3    C5 9548   4.154   2.022   9.441  0.5408 -0.0871  0.6369
  645TMC3    C6 9549   4.041   2.091   9.465  0.1747  0.6820  0.4634
  645TMC3     C 9550   4.410   2.281   9.451  0.3789  0.2018  0.2838
  645TMC3     O 9551   4.413   2.401   9.424 -0.0527  0.2929  0.1419
  645TMC3     H 9552   4.178   2.393   9.469  0.1736 -0.0139  0.4768
  645TMC3    H1 9553   4.362   2.021   9.428 -1.1713 -1.4242 -0.5481
  645TMC3    H2 9554   3.946   2.049   9.434  0.3551  1.5815 -1.3419
  645TMC3    C7 9555   4.152   1.875   9.450  0.1103 -0.0944 -0.3072
  645TMC3    C8 9556   3.935   2.313   9.499  0.6458  0.1291  0.5252
  645TMC3    O1 9557   4.239   1.807   9.404  0.2626  0.4960 -0.0288
  645TMC3    O2 9558   3.968   2.431   9.512 -0.0493 -0.0873  0.0339
  646MPD2     C 9559   3.946   1.596  14.709  0.6467  0.5132 -0.2922
  646MPD2    C1 9560   3.859   1.583  14.812  0.3604 -0.3753 -0.1817
  646MPD2    C2 9561   3.728   1.627  14.795  0.3112 -0.6811 -0.4199
  646MPD2    C3 9562   3.689   1.675  14.672  0.4424 -0.2013  0.4573
  646MPD2    C4 9563   3.781   1.695  14.576  0.2094  0.4174  0.0500
  646MPD2    C5 9564   3.904   1.650  14.594 -1.4913 -0.0452 -0.8567
  646MPD2     H 9565   3.656   1.609  14.874  0.9488 -1.5366 -0.0456
  646MPD2    H1 9566   3.764   1.726  14.474  0.2809 -0.6318 -0.2783
  646MPD2    H2 9567   4.044   1.552  14.720  0.0255 -1.3229 -1.9875
  646MPD2    H3 9568   3.980   1.647  14.516  0.4273  0.5992  0.9975
  646MPD2     N 9569   3.550   1.704  14.652 -0.5461 -0.3390  0.6496
  646MPD2    H5 9570   3.490   1.676  14.729 -0.6637 -1.4888  0.1505
  646MPD2    N1 9571   3.913   1.527  14.931 -0.0214 -0.2786  0.1950
  646MPD2    H7 9572   4.007   1.491  14.922  0.8104  1.2841  2.5218
  647TMC3    C1 9573   3.944   1.470  15.157 -0.0435 -0.2569 -0.2310
  647TMC3    C2 9574   3.887   1.432  15.271 -0.5197  0.3344  0.1678
  647TMC3    C3 9575   3.975   1.383  15.371 -0.5278  0.1357 -0.4030
  647TMC3    C4 9576   4.079   1.467  15.129  0.0712  0.0359  0.2450
  647TMC3    C5 9577   4.152   1.420  15.238  0.2276 -0.1588  0.4320
  647TMC3    C6 9578   4.102   1.377  15.354 -0.0322 -0.2623  0.5865
  647TMC3     C 9579   3.851   1.523  15.055 -0.1909  0.1180  0.0804
  647TMC3     O 9580   3.737   1.544  15.091 -0.2687 -0.1182  0.4402
  647TMC3     H 9581   3.780   1.433  15.288 -0.5516 -1.7064  0.0831
  647TMC3    H1 9582   4.132   1.513  15.046 -0.1052 -0.8250 -0.3399
  647TMC3    H2 9583   4.171   1.323  15.417 -0.3930  0.0242  1.2282
  647TMC3    C7 9584   4.294   1.405  15.224 -0.7027 -0.0783 -0.2240
  647TMC3    C8 9585   3.935   1.280  15.462  0.3391  0.1780  0.0006
  647TMC3    O1 9586   4.346   1.382  15.327  0.0922  0.1709 -0.3792
  647TMC3    O2 9587   3.999   1.258  15.562  0.5992  0.3641  0.2797
  648TMC3    C1 9588   3.113   3.950  15.880  0.7241  0.7699 -0.4405
  648TMC3    C2 9589   3.073   3.820  15.857 -0.1290 -0.1126  0.2435
  648TMC3    C3 9590   2.975   3.803  15.761 -0.3927 -0.3163  0.6983
  648TMC3    C4 9591   3.054   4.060  15.825 -0.0424  0.3353 -0.0796
  648TMC3    C5 9592   2.954   4.037  15.734 -0.6254  0.5454 -0.1719
  648TMC3    C6 9593   2.913   3.911  15.701  0.4119 -0.4899  0.2547
  648TMC3     C 9594   3.189   3.968  16.007  0.4472  0.8991 -0.5273
  648TMC3     O 9595   3.166   4.071  16.065 -0.0766 -0.4150 -0.5504
  648TMC3     H 9596   3.110   3.740  15.919 -0.4782 -0.2199  0.3121
  648TMC3    H1 9597   3.086   4.158  15.857 -0.6411  0.7406 -0.7131
  648TMC3    H2 9598   2.831   3.911  15.631  1.2977 -0.8265 -0.7937
  648TMC3    C7 9599   2.869   4.145  15.705 -0.0067 -0.0744  0.0214
  648TMC3    C8 9600   2.965   3.679  15.690  0.1030  0.1492 -0.0102
  648TMC3    O1 9601   2.826   4.151  15.593  0.2273  0.4134  0.4261
  648TMC3    O2 9602   2.878   3.662  15.603 -0.5153 -0.4901  0.1652
  649TMC3    C1 9603   1.510   0.232  13.015  0.2145 -0.1770  0.0414
  649TMC3    C2 9604   1.645   0.273  13.017  0.2868 -0.4654 -0.0602
  649TMC3    C3 9605   1.749   0.180  13.041 -0.3231 -0.8335 -0.5724
  649TMC3    C4 9606   1.474   0.102  13.051 -0.0854  0.6796  0.1518
  649TMC3    C5 9607   1.581   0.019  13.084 -0.4355  1.1576 -0.3448
  649TMC3    C6 9608   1.709   0.061  13.088 -0.2092 -0.8121 -0.1832
  649TMC3     C 9609   1.417   0.318  12.953 -0.0560 -0.4941  0.2678
  649TMC3     O 9610   1.452   0.432  12.961  0.0716  0.4017 -0.6526
  649TMC3     H 9611   1.671   0.376  12.995 -0.8567 -0.3528 -0.8808
  649TMC3    H1 9612   1.370   0.074  13.043 -0.3861  2.1693 -0.8974
  649TMC3    H2 9613   1.791   4.716  13.106 -0.9168 -1.5661  0.1584
  649TMC3    C7 9614   1.548   4.624  13.159 -0.3884  0.4175 -0.6415
  649TMC3    C8 9615   1.875   0.184  12.967  0.4317 -0.0252  0.9057
  649TMC3    O1 9616   1.435   4.620  13.203 -0.2339  0.2773  0.0744
  649TMC3    O2 9617   1.955   0.096  12.991  0.1022  0.0635  0.5050
  650TMC3    C1 9618   0.159   1.981  12.424 -0.1599 -1.0101 -0.2579
  650TMC3    C2 9619   0.151   2.114  12.455 -0.7918 -0.0116  0.4028
  650TMC3    C3 9620   0.033   2.176  12.435 -0.1778  0.0071 -0.9414
  650TMC3    C4 9621   0.058   1.906  12.383 -0.0467  0.3086  0.2603
  650TMC3    C5 9622   4.671   1.976  12.351  0.6207  0.2524  0.3661
  650TMC3    C6 9623   4.657   2.108  12.376  1.1009 -0.2689  0.0396
  650TMC3     C 9624   0.287   1.923  12.433  0.5654 -1.0215 -0.1391
  650TMC3     O 9625   0.387   1.998  12.423  0.2181 -0.1664 -0.4695
  650TMC3     H 9626   0.233   2.173  12.495  0.3342  0.1314 -2.1440
  650TMC3    H1 9627   0.068   1.809  12.336  1.0365  1.0085 -0.9542
  650TMC3    H2 9628   4.566   2.156  12.343  1.8488  0.0978 -1.4781
  650TMC3    C7 9629   4.558   1.907  12.297  0.7645 -0.2428  0.6056
  650TMC3    C8 9630   0.015   2.305  12.498  0.1691 -0.5206  0.7057
  650TMC3    O1 9631   4.540   1.789  12.327 -0.0144 -0.4463  0.1529
  650TMC3    O2 9632   0.114   2.371  12.527 -0.1788 -0.4050  0.0886
  651MPD2     C 9633   4.502   3.252  11.201 -0.2833 -0.3873 -0.0122
  651MPD2    C1 9634   4.447   3.309  11.087 -0.5673  0.0334  0.1933
  651MPD2    C2 9635   4.516   3.415  11.027  0.3405  0.2922  0.4382
  651MPD2    C3 9636   4.645   3.454  11.071  0.2698  0.2702  0.6581
  651MPD2    C4 9637   4.691   3.390  11.188  0.7899  0.2008  0.0004
  651MPD2    C5 9638   4.620   3.293  11.252 -0.4846  0.9267 -0.1122
  651MPD2     H 9639   4.468   3.454  10.938 -0.8248  0.4994  1.1593
  651MPD2    H1 9640   0.071   3.394  11.219  1.8635 -0.1340 -3.6372
  651MPD2    H2 9641   4.458   3.164  11.247 -1.9565  0.0698 -0.7173
  651MPD2    H3 9642   4.658   3.243  11.340  1.0295  0.4837 -1.0208
  651MPD2     N 9643   0.001   3.554  11.001 -0.7045 -0.4162  0.0376
  651MPD2    H5 9644   4.678   3.593  10.920  1.3599 -1.2136 -1.5418
  651MPD2    N1 9645   4.318   3.271  11.036 -0.1050 -0.0282 -0.5023
  651MPD2    H7 9646   4.289   3.321  10.953  1.4438 -1.2638 -1.7697
  652TMC3    C1 9647   0.373   3.823  10.909  0.0587 -0.1900  0.5152
  652TMC3    C2 9648   0.312   3.738  10.996 -0.6234 -0.1498  0.1101
  652TMC3    C3 9649   0.182   3.700  10.956  0.6555  0.4014  0.0780
  652TMC3    C4 9650   0.301   3.881  10.802  0.5084  0.0210  0.0158
  652TMC3    C5 9651   0.175   3.840  10.777  0.3966 -0.1707  0.7344
  652TMC3    C6 9652   0.107   3.745  10.846 -0.5347  0.2946 -0.4563
  652TMC3     C 9653   0.504   3.873  10.946  0.2182 -0.4780 -0.3971
  652TMC3     O 9654   0.549   3.830  11.053 -0.0604  0.4049 -1.1115
  652TMC3     H 9655   0.371   3.695  11.076  0.3309  0.2894 -0.3556
  652TMC3    H1 9656   0.350   3.950  10.734 -1.2349  3.3613  2.1503
  652TMC3    H2 9657   0.018   3.700  10.804 -1.0943 -1.0318  2.1618
  652TMC3    C7 9658   0.108   3.889  10.663 -0.6115 -0.1930  0.3746
  652TMC3    C8 9659   0.128   3.592  11.034 -0.5828  0.5982  0.8843
  652TMC3    O1 9660   0.072   3.809  10.578 -0.0128  0.5128  0.4997
  652TMC3    O2 9661   0.200   3.556  11.132  0.2290  0.0152  0.2312
  653MPD2     C 9662   2.048   3.724  17.536  0.7223  0.8150  0.4676
  653MPD2    C1 9663   2.106   3.794  17.436 -0.2615  0.1387 -0.4780
  653MPD2    C2 9664   2.098   3.755  17.297  0.1972 -0.3456  0.0695
  653MPD2    C3 9665   2.024   3.639  17.271 -1.3248 -0.3278 -0.4458
  653MPD2    C4 9666   1.954   3.570  17.375 -0.2033 -0.0474 -0.1196
  653MPD2    C5 9667   1.968   3.615  17.505 -0.0265 -0.6551 -0.4403
  653MPD2     H 9668   2.139   3.814  17.215  0.9759 -0.8987  0.0590
  653MPD2    H1 9669   1.885   3.489  17.354 -0.9193  0.9120 -1.4756
  653MPD2    H2 9670   2.053   3.763  17.637  1.0625 -0.7400  1.0468
  653MPD2    H3 9671   1.925   3.555  17.584 -0.6994 -0.8048 -0.9205
  653MPD2     N 9672   2.014   3.597  17.132  0.1864 -0.7470 -0.3690
  653MPD2    H5 9673   2.042   3.660  17.057 -0.1716 -0.2536 -0.0916
  653MPD2    N1 9674   2.179   3.914  17.478 -0.1269 -0.2234 -0.0109
  653MPD2    H7 9675   2.176   3.932  17.578 -0.3963  0.6584 -0.1792
  654TMC3    C1 9676   1.970   3.438  16.944  0.7025 -0.5621 -0.5616
  654TMC3    C2 9677   1.864   3.511  16.896  0.2434  0.0030 -0.0572
  654TMC3    C3 9678   1.774   3.463  16.804 -1.0361 -0.4121  0.3749
  654TMC3    C4 9679   2.002   3.314  16.894  0.4990 -0.6017  0.4677
  654TMC3    C5 9680   1.910   3.259  16.801  0.3979  0.4025  0.8084
  654TMC3    C6 9681   1.800   3.333  16.756 -0.1486 -0.3388 -0.1246
  654TMC3     C 9682   1.998   3.464  17.092  0.0265  0.2944  0.4420
  654TMC3     O 9683   1.987   3.364  17.167 -0.0834 -0.0004 -0.0770
  654TMC3     H 9684   1.854   3.607  16.945  0.9907  0.4074 -0.6869
  654TMC3    H1 9685   2.083   3.262  16.944  1.1446  1.6707  1.7848
  654TMC3    H2 9686   1.736   3.291  16.679 -1.2741 -0.1775  0.7248
  654TMC3    C7 9687   1.923   3.119  16.751  0.9315 -0.1107  0.0288
  654TMC3    C8 9688   1.646   3.527  16.806  0.1654 -0.2750 -0.6277
  654TMC3    O1 9689   1.868   3.099  16.640  0.3893  0.3422  0.9314
  654TMC3    O2 9690   1.624   3.614  16.890  0.4589 -0.5090 -0.0023
  655MPD2     C 9691   3.594   3.971  15.739  0.2769 -0.2972  0.3390
  655MPD2    C1 9692   3.492   4.048  15.689 -0.0904  0.5600 -0.6503
  655MPD2    C2 9693   3.436   4.021  15.566 -0.1538  0.0338 -0.2221
  655MPD2    C3 9694   3.485   3.916  15.485  0.8362 -0.6262  0.3850
  655MPD2    C4 9695   3.585   3.838  15.541  0.6618  0.1017  0.4005
  655MPD2    C5 9696   3.636   3.865  15.661  0.0438 -0.5381 -0.1300
  655MPD2     H 9697   3.350   4.074  15.528  0.8727  0.0578 -2.5173
  655MPD2    H1 9698   3.627   3.750  15.494 -0.2407  0.7851 -1.6963
  655MPD2    H2 9699   3.644   3.995  15.833  1.1744  0.7226 -0.4011
  655MPD2    H3 9700   3.713   3.798  15.698 -1.3001 -1.7451  0.4759
  655MPD2     N 9701   3.426   3.873  15.355  0.2991  0.4258 -0.3596
  655MPD2    H5 9702   3.465   3.792  15.308  1.1183  0.3213  0.5156
  655MPD2    N1 9703   3.420   4.150  15.754 -0.0764 -0.1863 -0.0053
  655MPD2    H7 9704   3.352   4.203  15.701  0.1627 -0.3908 -0.5096
  656TMC3    C1 9705   3.368   4.302  15.926 -0.1302  0.4402  0.3012
  656TMC3    C2 9706   3.316   4.309  16.055 -0.7333  0.0521 -0.3782
  656TMC3    C3 9707   3.269   4.429  16.099  0.0498 -0.2904 -0.3732
  656TMC3    C4 9708   3.350   4.409  15.841  0.1717 -0.3220 -0.2631
  656TMC3    C5 9709   3.272   4.510  15.883  0.0043  0.7837 -0.4921
  656TMC3    C6 9710   3.244   4.527  16.016  0.2572 -0.8590  0.5274
  656TMC3     C 9711   3.447   4.188  15.884 -0.3384  0.1838  0.5486
  656TMC3     O 9712   3.509   4.134  15.972 -0.1940  0.1106  0.3207
  656TMC3     H 9713   3.334   4.227  16.124 -0.9055  1.0800  0.8985
  656TMC3    H1 9714   3.383   4.402  15.738  2.4583 -1.2412  0.5221
  656TMC3    H2 9715   3.197   4.621  16.044 -1.4702 -1.8256  0.8624
  656TMC3    C7 9716   3.247   4.620  15.796 -0.0082  0.1793 -0.6800
  656TMC3    C8 9717   3.189   4.421  16.215  0.2196 -0.5137 -0.6882
  656TMC3    O1 9718   3.311   4.626  15.692  0.0028 -0.5716  0.0725
  656TMC3    O2 9719   3.184   4.525  16.282 -0.0629 -0.0976 -0.2213
  657TMC3    C1 9720   2.661   3.690  14.711 -0.6618  0.3043  0.2971
  657TMC3    C2 9721   2.553   3.755  14.656  0.4345  0.1410  0.0561
  657TMC3    C3 9722   2.572   3.886  14.616 -0.0554  0.5376  0.3740
  657TMC3    C4 9723   2.787   3.745  14.707 -0.1152 -0.2087  1.0049
  657TMC3    C5 9724   2.807   3.872  14.670 -0.2566 -0.1156 -0.0743
  657TMC3    C6 9725   2.694   3.942  14.624 -0.4906  0.2827  0.2680
  657TMC3     C 9726   2.630   3.549  14.733 -0.3987 -0.0246  0.2906
  657TMC3     O 9727   2.523   3.513  14.687  0.4164  0.5418  0.1796
  657TMC3     H 9728   2.451   3.718  14.664  0.7762 -1.2245 -1.7147
  657TMC3    H1 9729   2.872   3.694  14.751  2.0548 -0.5586 -3.5140
  657TMC3    H2 9730   2.698   4.047  14.595 -0.9398  0.2490  0.0879
  657TMC3    C7 9731   2.921   3.940  14.729  0.2326  0.1527 -0.4964
  657TMC3    C8 9732   2.506   3.919  14.492  0.5955 -0.2914 -0.7485
  657TMC3    O1 9733   2.901   4.052  14.775  0.1496  0.3031 -0.0509
  657TMC3    O2 9734   2.569   3.994  14.419 -0.6026 -0.2086  0.3059
  658MPD2     C 9735   3.702   3.425  15.004  0.1026 -0.5626  0.3147
  658MPD2    C1 9736   3.605   3.498  14.941 -0.1196 -0.2580  0.5445
  658MPD2    C2 9737   3.606   3.513  14.799 -0.4168 -0.4813  0.2011
  658MPD2    C3 9738   3.725   3.469  14.730 -0.3042  0.4772  0.2321
  658MPD2    C4 9739   3.821   3.399  14.797 -0.4374 -0.1985 -0.4961
  658MPD2    C5 9740   3.803   3.372  14.928 -1.0274 -0.3822 -0.0620
  658MPD2     H 9741   3.527   3.558  14.740 -1.3921 -0.1484  1.7457
  658MPD2    H1 9742   3.912   3.355  14.758  0.1185 -0.3003  0.9145
  658MPD2    H2 9743   3.700   3.403  15.110  0.4726 -0.9962  0.2355
  658MPD2    H3 9744   3.882   3.311  14.971  1.6503  3.5656  0.5728
  658MPD2     N 9745   3.736   3.501  14.596  0.1184 -0.2208 -0.0053
  658MPD2    H5 9746   3.647   3.517  14.549 -0.9540  0.2449  2.1548
  658MPD2    N1 9747   3.501   3.542  15.022  0.4764  0.2238 -0.3481
  658MPD2    H7 9748   3.508   3.543  15.123 -1.0366  0.0202 -0.2294
  659TMC3    C1 9749   3.298   3.669  15.051 -0.0931 -0.1948  0.6847
  659TMC3    C2 9750   3.354   3.746  15.144  0.1438 -0.3566 -0.1415
  659TMC3    C3 9751   3.269   3.838  15.199 -0.1028  0.5015  0.2977
  659TMC3    C4 9752   3.164   3.661  15.025 -0.4065  0.8978  0.2560
  659TMC3    C5 9753   3.081   3.747  15.082 -1.4481 -0.4467  0.2742
  659TMC3    C6 9754   3.130   3.834  15.171  0.3313  0.2862 -0.5059
  659TMC3     C 9755   3.377   3.582  14.969  0.6857 -0.7562  0.4828
  659TMC3     O 9756   3.333   3.527  14.865  0.0732 -0.1199  0.4548
  659TMC3     H 9757   3.462   3.752  15.146  0.2364 -2.0000 -0.3111
  659TMC3    H1 9758   3.135   3.592  14.947  0.9305  0.7262 -0.0911
  659TMC3    H2 9759   3.056   3.898  15.218  2.6570  1.2142  1.8417
  659TMC3    C7 9760   2.942   3.742  15.044  0.0463  0.6510  0.4779
  659TMC3    C8 9761   3.316   3.922  15.302  0.3632 -0.2126  0.8247
  659TMC3    O1 9762   2.900   3.645  14.985  0.4470  0.1631  0.2168
  659TMC3    O2 9763   3.248   4.020  15.321 -0.6416  0.3999 -0.6302
  660MPD2     C 9764   1.896   2.684  12.825  0.4739  0.7809  0.1040
  660MPD2    C1 9765   1.767   2.713  12.788 -0.0686  0.1909 -0.7847
  660MPD2    C2 9766   1.670   2.658  12.861  0.2319 -0.4831 -0.5939
  660MPD2    C3 9767   1.682   2.588  12.978 -0.4550  0.4849  0.9269
  660MPD2    C4 9768   1.812   2.550  13.012 -0.1520  0.2957  0.5828
  660MPD2    C5 9769   1.916   2.601  12.934 -0.1258  0.1232 -0.0950
  660MPD2     H 9770   1.568   2.681  12.831 -0.1996 -1.4340  0.1532
  660MPD2    H1 9771   1.831   2.478  13.090  1.8230  2.7712  2.3736
  660MPD2    H2 9772   1.979   2.736  12.779  0.9794  0.3768  0.5684
  660MPD2    H3 9773   2.018   2.583  12.965  0.2598  2.1445 -0.2000
  660MPD2     N 9774   1.575   2.545  13.064  0.2549  0.2343  0.2193
  660MPD2    H5 9775   1.601   2.489  13.144  0.6022  0.4125  0.2300
  660MPD2    N1 9776   1.746   2.782  12.667 -0.1018  0.1750  0.5085
  660MPD2    H7 9777   1.837   2.804  12.628  0.9228 -1.1330  2.2138
  661TMC3    C1 9778   1.639   2.902  12.500 -0.0808 -0.5255 -0.2659
  661TMC3    C2 9779   1.747   2.989  12.488 -0.2065  0.0428  0.1601
  661TMC3    C3 9780   1.732   3.120  12.446 -0.1635  1.1363 -0.5285
  661TMC3    C4 9781   1.515   2.946  12.462 -0.3562  0.5033 -0.3382
  661TMC3    C5 9782   1.503   3.064  12.393  0.0223  0.8432  0.0917
  661TMC3    C6 9783   1.611   3.143  12.382 -0.3706 -0.2242  0.3553
  661TMC3     C 9784   1.628   2.837  12.624 -0.5267  0.1000 -0.2252
  661TMC3     O 9785   1.526   2.849  12.689  0.0075 -0.4132  0.3407
  661TMC3     H 9786   1.845   2.962  12.525 -0.9227 -0.6532  1.5657
  661TMC3    H1 9787   1.431   2.879  12.478 -0.8580  1.1340 -0.3651
  661TMC3    H2 9788   1.611   3.235  12.326  0.7732  1.4996  3.1505
  661TMC3    C7 9789   1.401   3.079  12.289 -0.2774 -0.7887  0.3090
  661TMC3    C8 9790   1.844   3.170  12.366  0.5587 -0.3652  0.2666
  661TMC3    O1 9791   1.378   3.191  12.250  0.1643  0.2973  0.8469
  661TMC3    O2 9792   1.923   3.087  12.326  0.9724 -0.7037  0.4359
  662MPD2     C 9793   1.943   2.680  17.597 -0.1060  0.8969  0.0924
  662MPD2    C1 9794   1.946   2.617   0.023 -0.7795 -0.1262  0.1973
  662MPD2    C2 9795   1.892   2.692   0.130  0.6183  0.4275  0.4266
  662MPD2    C3 9796   1.834   2.816   0.107 -0.0912  0.1717 -0.0803
  662MPD2    C4 9797   1.824   2.875  17.686 -0.1173  0.1532  0.0454
  662MPD2    C5 9798   1.885   2.810  17.582  0.4493  0.1831  0.5885
  662MPD2     H 9799   1.903   2.640   0.225 -1.1385 -0.5707  0.1040
  662MPD2    H1 9800   1.788   2.977  17.678  0.9634  0.5959  0.8733
  662MPD2    H2 9801   1.999   2.649  17.510 -0.9560 -0.2609 -0.0481
  662MPD2    H3 9802   1.894   2.856  17.485 -0.2338  0.5168  0.6852
  662MPD2     N 9803   1.760   2.879   0.206  0.9364 -0.2080 -0.1698
  662MPD2    H5 9804   1.689   2.949   0.189 -0.2430 -0.6257  3.0643
  662MPD2    N1 9805   1.993   2.485   0.046  0.7490 -0.2810 -0.9525
  662MPD2    H7 9806   2.008   2.456   0.142  1.4323  0.6574 -0.7800
  663TMC3    C1 9807   2.020   2.259  17.687  0.3268 -0.1408  0.0414
  663TMC3    C2 9808   1.997   2.230   0.121  0.7345  0.5224 -0.4305
  663TMC3    C3 9809   1.989   2.101   0.159 -0.0110  0.0678 -0.6266
  663TMC3    C4 9810   2.037   2.160  17.600  0.1215  0.0389 -0.4521
  663TMC3    C5 9811   2.024   2.032  17.646  0.1034  0.1680  0.7379
  663TMC3    C6 9812   1.991   1.994   0.075 -0.0356 -0.0630 -0.4476
  663TMC3     C 9813   2.019   2.391  17.643 -0.2618 -0.1749  0.7900
  663TMC3     O 9814   2.016   2.401  17.523  0.1695 -0.8934 -0.3990
  663TMC3     H 9815   1.947   2.308   0.178 -0.8015 -0.7839  0.0326
  663TMC3    H1 9816   2.068   2.167  17.496  1.8360  1.1471  0.1272
  663TMC3    H2 9817   2.012   1.894   0.112  1.2118  0.2838 -0.2002
  663TMC3    C7 9818   2.032   1.927  17.547  0.5241 -0.0042 -0.0458
  663TMC3    C8 9819   1.907   2.081   0.273  0.0536 -0.4838 -0.1777
  663TMC3    O1 9820   2.120   1.937  17.463 -0.0713 -0.1258  0.2492
  663TMC3    O2 9821   1.843   1.973   0.283  0.2982  0.3056  0.5076
  664MPD2     C 9822   0.098   0.672  17.382  0.6024 -0.0676 -0.5963
  664MPD2    C1 9823   0.190   0.753  17.443 -0.6278 -0.2619  0.2469
  664MPD2    C2 9824   0.246   0.710  17.564 -0.4322  0.4837 -0.2502
  664MPD2    C3 9825   0.209   0.592  17.624 -0.0195 -0.2165 -0.4761
  664MPD2    C4 9826   0.111   0.520  17.568 -0.0621 -0.2440 -0.2760
  664MPD2    C5 9827   0.056   0.561  17.449  0.4027 -0.4053 -0.4221
  664MPD2     H 9828   0.318   0.774  17.613 -0.5479  0.1286  0.3931
  664MPD2    H1 9829   0.082   0.419  17.596 -1.7942  0.4159  0.2934
  664MPD2    H2 9830   0.053   0.690  17.285 -1.2606  0.0449  0.2745
  664MPD2    H3 9831   4.698   0.505  17.406  0.3037  0.1851 -0.9891
  664MPD2     N 9832   0.271   0.556   0.046 -0.5637  0.4682  0.4317
  664MPD2    H5 9833   0.320   0.632   0.092  0.1103  1.8959 -2.6260
  664MPD2    N1 9834   0.243   0.868  17.382 -0.2248  0.5376 -0.0194
  664MPD2    H7 9835   0.339   0.891  17.408 -0.4933  1.0217  0.5243
  665TMC3    C1 9836   0.326   0.432   0.241 -0.6834 -0.5154  0.2152
  665TMC3    C2 9837   0.277   0.329   0.322  0.1288  0.2481 -0.5826
  665TMC3    C3 9838   0.282   0.339   0.455  0.0011 -0.4286 -0.4032
  665TMC3    C4 9839   0.366   0.552   0.301  0.7684  0.1345 -0.2586
  665TMC3    C5 9840   0.370   0.561   0.437  0.0825 -0.0619  0.8864
  665TMC3    C6 9841   0.345   0.448   0.512 -0.1484 -0.2610 -0.9562
  665TMC3     C 9842   0.269   0.430   0.109  0.1502  0.5511 -1.4532
  665TMC3     O 9843   0.231   0.323   0.069 -0.3870  0.1190  0.2730
  665TMC3     H 9844   0.243   0.239   0.272  1.3436 -0.6192  0.1404
  665TMC3    H1 9845   0.393   0.638   0.241  3.0598 -0.7381 -0.4783
  665TMC3    H2 9846   0.338   0.464   0.619  0.2328  1.9305 -1.2647
  665TMC3    C7 9847   0.399   0.685   0.497 -0.1526  0.1730  0.6020
  665TMC3    C8 9848   0.235   0.238   0.545  0.0429 -0.2616  0.4341
  665TMC3    O1 9849   0.391   0.783   0.429  0.1301 -0.0686  0.4228
  665TMC3    O2 9850   0.286   0.233   0.659  0.4886  0.0386 -0.6868
  666TMC3    C1 9851   4.699   0.591   9.588  0.8671  0.4591  0.0471
  666TMC3    C2 9852   0.051   0.565   9.697 -0.3615 -0.1395  0.0868
  666TMC3    C3 9853   0.084   0.663   9.791 -0.4650 -0.4571 -0.0752
  666TMC3    C4 9854   4.652   0.714   9.567  0.7981  0.4208 -0.2112
  666TMC3    C5 9855   4.698   0.812   9.653 -0.5559 -0.3706  0.2270
  666TMC3    C6 9856   0.045   0.794   9.772  0.7331  0.4339 -0.0074
  666TMC3     C 9857   4.627   0.484   9.523  1.0465  0.6343 -0.2844
  666TMC3     O 9858   4.616   0.385   9.590  0.1873  0.7465  0.0908
  666TMC3     H 9859   0.073   0.461   9.719 -0.2907 -0.2761 -0.6412
  666TMC3    H1 9860   4.570   0.738   9.500  1.1607 -1.6039 -1.3563
  666TMC3    H2 9861   0.081   0.874   9.834  1.8915 -0.1774  0.1151
  666TMC3    C7 9862   4.647   0.947   9.628  0.4579 -0.6044 -0.2434
  666TMC3    C8 9863   0.129   0.626   9.922 -0.4355  0.6869 -1.0712
  666TMC3    O1 9864   4.613   0.968   9.511  0.7112  0.5549  0.1915
  666TMC3    O2 9865   0.177   0.516   9.940  0.3878 -0.6189 -0.2346
  667MPD2     C 9866   0.061   0.929  14.930 -0.6615 -0.0625 -0.0881
  667MPD2    C1 9867   0.138   0.824  14.966  0.4243  0.6870 -0.5710
  667MPD2    C2 9868   0.081   0.697  14.951 -0.1838  0.2617 -0.0911
  667MPD2    C3 9869   4.684   0.677  14.894  0.0336  0.1902  0.3172
  667MPD2    C4 9870   4.611   0.788  14.852  0.1080  0.0133  0.1419
  667MPD2    C5 9871   4.663   0.909  14.879 -0.4930  0.0774  0.5276
  667MPD2     H 9872   0.149   0.619  14.985 -2.6073 -2.0400 -0.4967
  667MPD2    H1 9873   4.509   0.782  14.815 -0.3741  3.0338  0.9561
  667MPD2    H2 9874   0.095   1.032  14.941  1.4016 -0.4127 -3.1442
  667MPD2    H3 9875   4.613   1.001  14.850  0.2962  0.1992 -0.4152
  667MPD2     N 9876   4.627   0.547  14.858 -0.3853  0.1728  0.5198
  667MPD2    H5 9877   4.531   0.551  14.827  1.1523 -0.6395 -4.2671
  667MPD2    N1 9878   0.266   0.827  15.033 -0.1672 -0.6347  0.7749
  667MPD2    H7 9879   0.315   0.738  15.044 -1.6663 -1.7892 -1.8955
  668TMC3    C1 9880   0.467   0.925  15.129  0.3431 -0.3550  0.8985
  668TMC3    C2 9881   0.552   1.035  15.123 -0.6899 -0.4735 -0.3193
  668TMC3    C3 9882   0.630   1.048  15.232 -0.0806  0.9356 -0.3814
  668TMC3    C4 9883   0.463   0.838  15.233  0.0573  0.8351 -0.2182
  668TMC3    C5 9884   0.542   0.864  15.343  0.5683 -0.3429 -1.2001
  668TMC3    C6 9885   0.624   0.969  15.344 -0.0832  0.7043  0.0227
  668TMC3     C 9886   0.339   0.944  15.057 -0.1074  0.0834  0.0516
  668TMC3     O 9887   0.295   1.058  15.064 -0.1574 -0.1423 -0.3712
  668TMC3     H 9888   0.535   1.100  15.038 -1.6420 -1.2344 -0.7167
  668TMC3    H1 9889   0.383   0.767  15.249  1.9779 -0.4446  3.7107
  668TMC3    H2 9890   0.669   0.989  15.440  0.0227 -2.0383  0.5406
  668TMC3    C7 9891   0.513   0.804  15.472 -0.0686  0.1209  0.0476
  668TMC3    C8 9892   0.726   1.157  15.230  0.1342  0.4496 -0.1077
  668TMC3    O1 9893   0.528   0.875  15.573  0.5685 -0.5355  0.2420
  668TMC3    O2 9894   0.755   1.195  15.344  0.1230  0.2506  0.2154
  669TMC3    C1 9895   3.686   0.680  14.635  0.2253  0.1971  0.2307
  669TMC3    C2 9896   3.561   0.676  14.568 -0.6524 -0.2956 -0.6683
  669TMC3    C3 9897   3.559   0.731  14.440 -0.0232  0.1668  0.2732
  669TMC3    C4 9898   3.790   0.753  14.583 -0.3754 -0.2206 -0.0863
  669TMC3    C5 9899   3.784   0.805  14.454 -0.1747 -0.5848  0.0756
  669TMC3    C6 9900   3.666   0.791  14.383 -0.2760 -1.0027 -0.6752
  669TMC3     C 9901   3.685   0.638  14.771  0.6196 -0.1055  0.0352
  669TMC3     O 9902   3.580   0.649  14.835  0.2126  0.2602 -0.0677
  669TMC3     H 9903   3.475   0.630  14.615  0.5382  0.1604  1.9776
  669TMC3    H1 9904   3.873   0.771  14.650 -0.3060  0.4540 -0.3548
  669TMC3    H2 9905   3.666   0.822  14.279 -1.0871 -0.9057 -0.6435
  669TMC3    C7 9906   3.884   0.889  14.411 -0.9143 -0.5556  0.0117
  669TMC3    C8 9907   3.429   0.719  14.373 -0.1090 -0.0986 -0.0924
  669TMC3    O1 9908   3.855   0.973  14.328 -0.2806  0.3600  0.1518
  669TMC3    O2 9909   3.363   0.624  14.404 -0.3937 -0.3155 -0.4256
  670MPD2     C 9910   1.855   3.313  13.376 -0.3007  0.1704  0.3322
  670MPD2    C1 9911   1.958   3.335  13.463 -0.4335  0.0870  0.3278
  670MPD2    C2 9912   1.935   3.305  13.598  0.1666 -0.1035  0.4117
  670MPD2    C3 9913   1.805   3.259  13.643  0.3542  0.8040 -0.4413
  670MPD2    C4 9914   1.703   3.247  13.550  0.4074  0.0183 -0.2756
  670MPD2    C5 9915   1.734   3.272  13.416  0.4497  0.4101  0.5436
  670MPD2     H 9916   2.021   3.309  13.664  0.9015 -2.5513 -0.3805
  670MPD2    H1 9917   1.604   3.214  13.581  0.6245 -0.4843 -0.1116
  670MPD2    H2 9918   1.859   3.342  13.272  1.3235 -0.6998  0.1574
  670MPD2    H3 9919   1.654   3.265  13.343 -0.9225 -0.7397  2.1534
  670MPD2     N 9920   1.787   3.259  13.788 -0.2872  0.8694 -0.1280
  670MPD2    H5 9921   1.850   3.311  13.848 -0.3256  1.0335 -0.2290
  670MPD2    N1 9922   2.082   3.390  13.411 -0.3438 -0.0170  0.0662
  670MPD2    H7 9923   2.151   3.420  13.479  2.1714 -1.8635 -1.7060
  671TMC3    C1 9924   1.698   3.203  13.996  0.3261 -0.5891  0.1603
  671TMC3    C2 9925   1.820   3.181  14.054  0.4593  0.2487 -0.1062
  671TMC3    C3 9926   1.834   3.113  14.171 -0.2100  0.0044 -0.6367
  671TMC3    C4 9927   1.589   3.160  14.072  0.2463 -0.3632 -0.0222
  671TMC3    C5 9928   1.604   3.095  14.194  0.2503 -0.0364 -0.2181
  671TMC3    C6 9929   1.728   3.065  14.244  0.1229 -0.5748 -0.1893
  671TMC3     C 9930   1.684   3.193  13.852  0.5852  0.0547 -0.0920
  671TMC3     O 9931   1.589   3.128  13.805  0.1664  0.1480  0.3979
  671TMC3     H 9932   1.905   3.205  13.991 -0.1821  0.3345 -0.9405
  671TMC3    H1 9933   1.491   3.165  14.027 -0.2735 -2.1905  0.8964
  671TMC3    H2 9934   1.740   3.009  14.336  0.6957 -0.4299 -0.1794
  671TMC3    C7 9935   1.522   2.979  14.184  0.1464  0.7278  0.2051
  671TMC3    C8 9936   1.955   3.027  14.171  0.5300  0.1030  0.6212
  671TMC3    O1 9937   1.587   2.875  14.173  0.3468 -0.0593  0.5757
  671TMC3    O2 9938   1.986   2.977  14.064  0.1406  0.0332 -0.5365
  672MPD2     C 9939   2.986   3.739   1.064 -0.5220 -0.5319 -0.7682
  672MPD2    C1 9940   2.940   3.612   1.054 -0.2701  0.8265  0.1754
  672MPD2    C2 9941   2.869   3.548   1.153 -0.6689  0.5594 -0.6296
  672MPD2    C3 9942   2.836   3.626   1.264 -0.9262 -0.4041  0.1961
  672MPD2    C4 9943   2.881   3.750   1.281  0.9912  0.5273  0.0192
  672MPD2    C5 9944   2.958   3.809   1.179  0.0107 -0.1882 -0.8102
  672MPD2     H 9945   2.814   3.456   1.139 -2.0960  0.8354  3.2920
  672MPD2    H1 9946   2.856   3.800   1.374 -2.0680  1.0633 -1.0792
  672MPD2    H2 9947   3.036   3.791   0.982 -0.9591  1.1935  0.0735
  672MPD2    H3 9948   2.999   3.909   1.194 -1.2518 -0.2114  2.8751
  672MPD2     N 9949   2.757   3.578   1.371 -0.6063 -0.0922 -1.0223
  672MPD2    H5 9950   2.732   3.652   1.436 -0.3644 -1.9112  1.1714
  672MPD2    N1 9951   2.956   3.563   0.923 -0.0592 -0.5898 -0.2792
  672MPD2    H7 9952   2.987   3.635   0.858  1.1052  0.8223  1.8230
  673TMC3    C1 9953   2.946   3.406   0.745 -0.0006 -0.8596 -0.2077
  673TMC3    C2 9954   2.946   3.276   0.703 -0.5174  0.3302 -0.5161
  673TMC3    C3 9955   2.913   3.243   0.573 -0.0687 -1.0627  0.7957
  673TMC3    C4 9956   2.908   3.503   0.662  0.3925  0.2395 -0.1832
  673TMC3    C5 9957   2.881   3.461   0.539 -0.1264  0.7836 -0.1387
  673TMC3    C6 9958   2.875   3.336   0.489  0.4447 -0.5511 -0.4457
  673TMC3     C 9959   2.937   3.429   0.883 -0.5735 -0.2031  0.0751
  673TMC3     O 9960   2.915   3.341   0.958  0.9389  0.3519 -0.5357
  673TMC3     H 9961   2.970   3.199   0.776 -2.3829  0.8431  0.6345
  673TMC3    H1 9962   2.889   3.607   0.683  1.3029  0.4693 -0.5018
  673TMC3    H2 9963   2.848   3.318   0.385 -1.4461 -3.1759  0.4959
  673TMC3    C7 9964   2.837   3.564   0.449  0.3277  0.3696  1.0565
  673TMC3    C8 9965   2.914   3.105   0.526 -0.2225 -0.6730  0.2821
  673TMC3    O1 9966   2.874   3.546   0.334  0.2486  0.4273 -0.2806
  673TMC3    O2 9967   2.966   3.079   0.417 -0.1318 -0.2780  0.0380
  674MPD2     C 9968   1.876   3.591   0.247 -0.3777 -0.4691 -0.5131
  674MPD2    C1 9969   1.958   3.597   0.358 -0.5936 -0.2186 -0.7882
  674MPD2    C2 9970   1.904   3.608   0.483  0.2876 -0.0502  0.7843
  674MPD2    C3 9971   1.769   3.613   0.506 -0.5308  0.4232  0.5789
  674MPD2    C4 9972   1.679   3.606   0.392  0.5494 -0.1353 -0.5669
  674MPD2    C5 9973   1.737   3.598   0.263 -0.6939  0.0731 -0.1684
  674MPD2     H 9974   1.964   3.623   0.572 -0.0596  1.3310  0.7849
  674MPD2    H1 9975   1.571   3.611   0.399  0.7044  1.8467  0.4004
  674MPD2    H2 9976   1.917   3.568   0.149  0.8297 -1.7044  0.2825
  674MPD2    H3 9977   1.668   3.588   0.181  0.6178 -1.1122 -1.1156
  674MPD2     N 9978   1.725   3.616   0.638 -0.1231  0.4084  0.1361
  674MPD2    H5 9979   1.801   3.621   0.705 -0.0341 -0.7813  0.1258
  674MPD2    N1 9980   2.095   3.603   0.332 -0.2821  0.4462  0.0862
  674MPD2    H7 9981   2.121   3.609   0.234  0.5796 -2.5049  0.1324
  675TMC3    C1 9982   2.324   3.583   0.367 -0.6020 -0.0967  0.0570
  675TMC3    C2 9983   2.402   3.481   0.408  0.4394 -0.0109  0.0008
  675TMC3    C3 9984   2.525   3.446   0.347 -0.2280  0.5189  0.3934
  675TMC3    C4 9985   2.344   3.644   0.248 -0.9904 -0.8553  0.0542
  675TMC3    C5 9986   2.461   3.616   0.190 -0.6831  0.0672 -0.5713
  675TMC3    C6 9987   2.553   3.519   0.238  0.0278  0.1681  0.0316
  675TMC3     C 9988   2.194   3.587   0.423 -0.1882 -0.1594  0.5950
  675TMC3     O 9989   2.184   3.548   0.540  0.0429  0.2270 -0.8119
  675TMC3     H 9990   2.381   3.430   0.501  1.3523 -3.0854 -1.4659
  675TMC3    H1 9991   2.281   3.727   0.219  0.6641  0.4389  0.2381
  675TMC3    H2 9992   2.647   3.497   0.188  0.7013  2.7423  0.1985
  675TMC3    C7 9993   2.481   3.665   0.056  0.7307  0.0083 -0.3577
  675TMC3    C8 9994   2.556   3.306   0.343 -0.3225  0.7559 -0.4922
  675TMC3    O1 9995   2.427   3.774   0.030 -0.0440 -0.5188 -0.7945
  675TMC3    O2 9996   2.588   3.260   0.232  0.0936  0.3203 -0.0805
  676MPD2     C 9997   0.438   1.688  11.382  0.8822 -0.1067 -0.5551
  676MPD2    C1 9998   0.315   1.678  11.323  0.3412 -0.4310 -0.1565
  676MPD2    C2 9999   0.293   1.587  11.226  0.2499  0.0720 -0.0032
  676MPD2    C310000   0.386   1.496  11.184  0.5043  0.2306  0.0367
  676MPD2    C410001   0.514   1.516  11.241  0.2532 -0.1788  0.5055
  676MPD2    C510002   0.536   1.612  11.340 -0.0905 -0.6174 -0.2342
  676MPD2     H10003   0.194   1.588  11.182 -0.6895 -1.3265  2.0863
  676MPD2    H110004   0.604   1.458  11.222  0.3413 -0.1390  0.8063
  676MPD2    H210005   0.467   1.757  11.461 -1.0927  0.4435 -0.2880
  676MPD2    H310006   0.635   1.604  11.385  0.2805  3.7748 -0.2156
  676MPD2     N10007   0.363   1.389  11.093 -0.2968  0.0781  0.1146
  676MPD2    H510008   0.429   1.313  11.088  0.4650  0.7633 -0.3145
  676MPD2    N110009   0.211   1.771  11.343  0.1735 -0.7667  0.4300
  676MPD2    H710010   0.119   1.755  11.303  0.5825 -1.1033 -0.3891
  677TMC3    C110011   0.093   1.921  11.486 -0.0866 -0.6903 -0.7241
  677TMC3    C210012   4.699   1.893  11.419  1.2555 -0.2927 -0.0418
  677TMC3    C310013   4.581   1.924  11.473 -0.5894 -0.1741  0.6633
  677TMC3    C410014   0.095   1.991  11.599 -0.5331  0.4330 -0.4864
  677TMC3    C510015   4.696   2.037  11.644  0.1935 -0.6368  0.3012
  677TMC3    C610016   4.579   2.000  11.588 -0.1602  0.1001  0.2074
  677TMC3     C10017   0.224   1.872  11.432 -0.5885 -0.0598  0.0053
  677TMC3     O10018   0.322   1.937  11.466 -0.4418 -0.0199  0.4602
  677TMC3     H10019   4.702   1.823  11.336 -0.2905  1.3324 -1.4681
  677TMC3    H110020   0.189   1.986  11.653  0.4707 -1.0405 -2.3731
  677TMC3    H210021   4.484   2.035  11.627 -0.5185 -0.5985 -0.0449
  677TMC3    C710022   4.708   2.175  11.697 -0.1499  0.3955  0.1042
  677TMC3    C810023   4.467   1.863  11.417  1.0459  0.1690 -0.9517
  677TMC3    O110024   4.609   2.222  11.751  0.0424 -0.1723 -0.1373
  677TMC3    O210025   4.466   1.863  11.295  0.3324  0.3921 -0.1580
  678MPD2     C10026   1.092   1.656   1.772 -0.1699 -0.7487  0.6022
  678MPD2    C110027   1.119   1.632   1.638  0.1903 -0.6941  0.0677
  678MPD2    C210028   1.066   1.524   1.571  0.0022  0.1945 -0.5303
  678MPD2    C310029   0.981   1.441   1.633 -0.4885  0.0263  0.5918
  678MPD2    C410030   0.959   1.456   1.767  0.5713  0.1320 -0.2029
  678MPD2    C510031   1.021   1.560   1.831  0.3380  0.4661  0.5143
  678MPD2     H10032   1.098   1.500   1.470 -1.1852 -3.9525  0.0531
  678MPD2    H110033   0.891   1.396   1.827  1.1970 -0.9266 -0.5452
  678MPD2    H210034   1.142   1.729   1.835  0.3155 -1.4034  0.9721
  678MPD2    H310035   1.005   1.570   1.938  1.5705  0.7265  0.6847
  678MPD2     N10036   0.928   1.334   1.550 -0.4103  0.1941 -0.2259
  678MPD2    H510037   0.973   1.335   1.459  0.1267 -0.6257  0.0335
  678MPD2    N110038   1.214   1.708   1.563 -0.1576  0.4553 -0.2882
  678MPD2    H710039   1.246   1.662   1.479 -0.2971  1.0475 -0.6680
  679TMC3    C110040   1.582   1.789   1.399 -0.6263  0.4476  0.6460
  679TMC3    C210041   1.458   1.779   1.448  0.0925  0.6118 -0.8007
  679TMC3    C310042   1.395   1.866   1.534  0.4526 -0.1987  0.3623
  679TMC3    C410043   1.645   1.908   1.429 -0.3951 -0.7126 -0.6740
  679TMC3    C510044   1.580   2.003   1.510  0.2359  0.0483 -0.6146
  679TMC3    C610045   1.457   1.980   1.572 -0.3687 -1.3670  0.4720
  679TMC3     C10046   1.646   1.670   1.338  0.2014 -0.0139 -0.5382
  679TMC3     O10047   1.604   1.558   1.364 -0.0120  0.0642 -0.2174
  679TMC3     H10048   1.416   1.679   1.442 -1.8638  1.4407 -0.8220
  679TMC3    H110049   1.744   1.933   1.392 -1.1461  1.1540 -1.4595
  679TMC3    H210050   1.428   2.034   1.662 -0.7765 -0.8545  0.0306
  679TMC3    C710051   1.613   2.132   1.477  0.2685 -0.2705  0.2095
  679TMC3    C810052   1.280   1.822   1.615  0.6244  0.2850  0.3046
  679TMC3    O110053   1.720   2.143   1.423  0.3181 -0.1578 -0.2280
  679TMC3    O210054   1.274   1.883   1.717 -0.1564  0.5440  0.4416
  680MPD2     C10055   1.246   0.033  13.773 -0.0300 -1.5644 -0.4501
  680MPD2    C110056   1.337   0.014  13.873 -0.2247  0.0440 -0.6713
  680MPD2    C210057   1.394   0.130  13.919 -0.5339 -0.4061  0.1228
  680MPD2    C310058   1.371   0.256  13.869  0.2948  0.4372  0.1768
  680MPD2    C410059   1.280   0.269  13.760  0.7904  0.8917  0.7765
  680MPD2    C510060   1.221   0.156  13.713 -0.1453 -0.8908  0.4059
  680MPD2     H10061   1.459   0.120  14.004  0.0931  0.3330 -0.2685
  680MPD2    H110062   1.255   0.367  13.721 -1.5041  0.1669  0.4402
  680MPD2    H210063   1.200   4.673  13.722 -0.4282 -2.2930  1.1106
  680MPD2    H310064   1.158   0.151  13.625 -1.1529 -3.3954  1.2838
  680MPD2     N10065   1.432   0.376  13.918  0.0709  0.5676 -0.4332
  680MPD2    H510066   1.432   0.460  13.862 -0.5386  0.5026 -0.5241
  680MPD2    N110067   1.372   4.616  13.932  0.7865  0.0982 -0.2996
  680MPD2    H710068   1.445   4.610  14.002 -0.2471 -0.5013  0.7332
  681TMC3    C110069   1.426   4.394  13.918 -0.2576  0.3139  0.2592
  681TMC3    C210070   1.500   4.392  14.034 -0.8414 -0.1141  0.0325
  681TMC3    C310071   1.624   4.330  14.025 -0.2844  0.0368  0.1495
  681TMC3    C410072   1.460   4.321  13.804  0.0477 -0.3605  0.1123
  681TMC3    C510073   1.583   4.266  13.798 -0.5409 -0.2269 -0.4589
  681TMC3    C610074   1.661   4.265  13.912  0.5582 -0.0393  0.3241
  681TMC3     C10075   1.323   4.492  13.899  0.5166 -0.4205 -0.2192
  681TMC3     O10076   1.241   4.465  13.812 -0.4764  0.2875 -0.0652
  681TMC3     H10077   1.472   4.451  14.121 -0.8402  0.4563 -0.3529
  681TMC3    H110078   1.397   4.323  13.715  0.8933  0.2415 -0.4727
  681TMC3    H210079   1.760   4.221  13.915  0.1266 -0.9192  1.6412
  681TMC3    C710080   1.649   4.232  13.673  0.1483  0.0970  0.3957
  681TMC3    C810081   1.725   4.370  14.127  0.0496  0.6896 -0.1799
  681TMC3    O110082   1.742   4.154  13.680 -0.5425 -0.1682  0.0319
  681TMC3    O210083   1.690   4.466  14.193  0.1324  0.3309  0.0369
  682MPD2     C10084   3.896   1.664  10.609 -0.2666 -0.0726 -0.4032
  682MPD2    C110085   3.897   1.528  10.589 -0.0049  0.4350 -0.4437
  682MPD2    C210086   3.882   1.439  10.695  0.2553 -0.1009 -0.3215
  682MPD2    C310087   3.867   1.491  10.820  0.6665 -0.2211 -0.2805
  682MPD2    C410088   3.870   1.628  10.836  0.2037 -0.3196 -0.7824
  682MPD2    C510089   3.898   1.712  10.736 -0.0774 -0.3801  0.0054
  682MPD2     H10090   3.880   1.332  10.675 -0.7714  0.0494 -0.9878
  682MPD2    H110091   3.857   1.672  10.934 -2.1628 -0.6818 -0.9359
  682MPD2    H210092   3.914   1.738  10.532 -0.4198 -1.0188 -1.3400
  682MPD2    H310093   3.890   1.820  10.748  2.5600 -0.0937 -0.7211
  682MPD2     N10094   3.852   1.411  10.930  0.0074 -0.2967 -0.3928
  682MPD2    H510095   3.857   1.453  11.022  0.6751 -0.0207 -0.5605
  682MPD2    N110096   3.919   1.467  10.464 -0.8313 -0.2454  0.0828
  682MPD2    H710097   3.924   1.366  10.467 -1.0077 -0.2460  0.4169
  683TMC3    C110098   3.886   1.343  11.266  0.1049 -0.3350  0.4135
  683TMC3    C210099   3.987   1.255  11.292 -0.1959  0.3311 -0.2417
  683TMC3    C310100   4.014   1.150  11.208 -0.0636  0.2021  0.0195
  683TMC3    C410101   3.805   1.320  11.156 -0.6004 -0.2224  0.1936
  683TMC3    C510102   3.838   1.223  11.068 -0.4009  0.9744 -0.9006
  683TMC3    C610103   3.938   1.133  11.100 -0.0472  0.2157 -0.0257
  683TMC3     C10104   3.939   1.477  11.267  0.3499 -0.6826 -0.7083
  683TMC3     O10105   3.933   1.539  11.161 -0.2386 -0.5643  0.0598
  683TMC3     H10106   4.053   1.304  11.363 -0.6937  0.9143 -0.1791
  683TMC3    H110107   3.721   1.385  11.139 -0.5484 -0.6317 -1.6054
  683TMC3    H210108   3.973   1.070  11.019  1.7536  1.6208 -0.3531
  683TMC3    C710109   3.838   1.273  10.930  0.8713 -0.0730  0.4742
  683TMC3    C810110   4.140   1.085  11.223  0.2332 -0.5233 -0.0154
  683TMC3    O110111   3.850   1.186  10.842 -0.3360 -0.0488  0.0127
  683TMC3    O210112   4.218   1.143  11.290  0.3595 -0.3829  0.3137
  684MPD2     C10113   1.819   1.123  16.523  0.3687  0.5571  0.0372
  684MPD2    C110114   1.829   1.185  16.400 -0.0711 -0.0602 -0.0883
  684MPD2    C210115   1.825   1.324  16.392 -0.0670 -0.2902 -0.5814
  684MPD2    C310116   1.804   1.402  16.505  0.4599  0.9911  0.4025
  684MPD2    C410117   1.822   1.343  16.625 -0.1688 -0.4457  0.0110
  684MPD2    C510118   1.829   1.204  16.631  0.1031  0.1548  0.0970
  684MPD2     H10119   1.834   1.365  16.292 -1.6702 -0.1270 -0.6672
  684MPD2    H110120   1.823   1.395  16.720 -0.0999  0.8263 -0.6944
  684MPD2    H210121   1.816   1.015  16.539 -0.5389  0.6619  0.5470
  684MPD2    H310122   1.822   1.165  16.731 -0.1902 -1.4170 -0.5365
  684MPD2     N10123   1.788   1.541  16.488  0.1132 -0.2389  0.1626
  684MPD2    H510124   1.785   1.596  16.574  0.3438 -0.0325  0.0350
  684MPD2    N110125   1.841   1.114  16.276 -0.1507  0.3805 -0.4535
  684MPD2    H710126   1.841   1.175  16.195 -3.8906  0.6474 -0.2967
  685TMC3    C110127   1.887   0.932  16.131  0.0459 -0.3131  0.3677
  685TMC3    C210128   1.810   0.990  16.036  1.1174  0.4832 -0.2733
  685TMC3    C310129   1.868   0.983  15.915 -0.0693 -0.1020  0.0840
  685TMC3    C410130   2.004   0.865  16.108 -0.1497 -0.3002  0.4020
  685TMC3    C510131   2.054   0.871  15.982  0.3089 -0.0951  0.1591
  685TMC3    C610132   1.986   0.927  15.881  0.5022 -0.4536 -0.0049
  685TMC3     C10133   1.873   0.976  16.269  0.4323 -0.4699  0.3192
  685TMC3     O10134   1.891   0.886  16.348 -0.2118 -0.2373 -0.0205
  685TMC3     H10135   1.710   1.025  16.057 -0.1865 -1.3105 -3.4831
  685TMC3    H110136   2.063   0.834  16.194 -1.6708 -0.4347  1.4090
  685TMC3    H210137   2.027   0.939  15.781  2.6463  0.9212  1.0370
  685TMC3    C710138   2.199   0.830  15.963 -0.0722 -0.6823 -0.2389
  685TMC3    C810139   1.783   1.028  15.798 -0.3311 -0.3114  0.4771
  685TMC3    O110140   2.231   0.775  15.858 -0.3174 -0.2045  0.0799
  685TMC3    O210141   1.815   0.985  15.689 -0.4164  0.3424  0.3372
  686MPD2     C10142   3.463   1.294  15.904 -0.8155  0.2399 -0.9044
  686MPD2    C110143   3.519   1.207  15.989  0.1962 -0.1106  0.5102
  686MPD2    C210144   3.652   1.161  15.976 -0.3268  0.0338  0.1595
  686MPD2    C310145   3.722   1.206  15.867  0.0425  0.1912 -0.1591
  686MPD2    C410146   3.664   1.297  15.783  0.0036 -0.4863 -0.1261
  686MPD2    C510147   3.539   1.340  15.800 -0.2304 -0.0730  0.6123
  686MPD2     H10148   3.693   1.087  16.043  0.8590  1.4006  0.9586
  686MPD2    H110149   3.725   1.329  15.699  0.6313 -0.6576  0.2671
  686MPD2    H210150   3.366   1.322  15.944 -0.8530 -0.4005 -0.5402
  686MPD2    H310151   3.496   1.407  15.727 -2.5839 -1.7778  0.4126
  686MPD2     N10152   3.845   1.140  15.823  0.0525 -0.2934 -0.3419
  686MPD2    H510153   3.888   1.194  15.749 -0.9074 -0.5781 -1.1131
  686MPD2    N110154   3.430   1.148  16.083 -0.7997 -0.5536  0.0801
  686MPD2    H710155   3.336   1.186  16.080 -0.7667 -0.3977  1.1462
  687TMC3    C110156   3.801   0.921  15.915  0.3578 -0.8563  0.8770
  687TMC3    C210157   3.680   0.911  15.852 -0.4597  0.5912  0.4331
  687TMC3    C310158   3.605   0.802  15.887 -0.4925 -0.2307  0.2302
  687TMC3    C410159   3.852   0.825  16.000 -0.4095 -0.3445  0.1743
  687TMC3    C510160   3.773   0.717  16.032  0.5034 -0.3818 -0.1732
  687TMC3    C610161   3.652   0.710  15.973  0.1027 -0.1633  0.3113
  687TMC3     C10162   3.894   1.020  15.864 -0.0445 -0.1417 -0.1079
  687TMC3     O10163   3.996   0.961  15.833  0.2849 -0.4284  0.2903
  687TMC3     H10164   3.654   0.987  15.779 -0.1072  0.9037  0.6387
  687TMC3    H110165   3.944   0.849  16.052  0.2626  1.8534 -2.0142
  687TMC3    H210166   3.587   0.630  16.007 -0.8938  0.5425  0.0896
  687TMC3    C710167   3.796   0.662  16.173 -0.4430 -0.0626 -0.4662
  687TMC3    C810168   3.458   0.814  15.871 -0.6745  0.0348  0.0421
  687TMC3    O110169   3.903   0.684  16.229 -0.5004  0.0380  0.2232
  687TMC3    O210170   3.389   0.715  15.885 -0.1540 -0.7657 -0.2341
  688MPD2     C10171   2.579   4.570  17.158  0.1675 -0.0806  0.0215
  688MPD2    C110172   2.619   4.438  17.170  0.1044  0.5880  0.4665
  688MPD2    C210173   2.710   4.392  17.079 -0.3508  0.0990 -0.2613
  688MPD2    C310174   2.783   4.469  16.989  0.3371  0.1514 -0.6788
  688MPD2    C410175   2.746   4.599  16.981  0.5230 -0.1763  0.0752
  688MPD2    C510176   2.654   4.649  17.071 -0.5286 -0.6777  0.1457
  688MPD2     H10177   2.736   4.287  17.086 -1.5757 -0.2594 -1.0168
  688MPD2    H110178   2.805   4.666  16.919  0.0712 -0.2268 -0.4110
  688MPD2    H210179   2.507   4.619  17.222  1.5239  1.2280  0.5367
  688MPD2    H310180   2.621   0.029  17.068  0.5823 -0.2461  2.5069
  688MPD2     N10181   2.881   4.421  16.905  0.1202 -0.2720  0.3090
  688MPD2    H510182   2.935   4.495  16.861  0.3250  0.3094  1.5331
  688MPD2    N110183   2.580   4.348  17.270  0.5419  0.5170 -0.2954
  688MPD2    H710184   2.596   4.248  17.262 -0.8508  0.1251  1.9383
  689TMC3    C110185   2.464   4.276  17.456  0.1828 -0.0524 -0.2844
  689TMC3    C210186   2.440   4.309  17.589  0.1304  0.0699  0.0512
  689TMC3    C310187   2.361   4.225  17.658  0.4149 -0.3761  0.2390
  689TMC3    C410188   2.418   4.160  17.402  0.6139  0.3765 -0.1002
  689TMC3    C510189   2.333   4.081  17.474 -0.7860 -0.2199  0.3649
  689TMC3    C610190   2.299   4.109  17.602  0.3896  0.3555  0.3690
  689TMC3     C10191   2.503   4.388  17.374  0.9691  0.0385 -0.4221
  689TMC3     O10192   2.455   4.494  17.406 -0.0251  0.6537 -0.1391
  689TMC3     H10193   2.482   4.399  17.631  1.1207 -0.1094 -0.5662
  689TMC3    H110194   2.428   4.145  17.295 -2.4706  0.7322 -0.4490
  689TMC3    H210195   2.249   4.045  17.674  0.4075  0.3484  0.3754
  689TMC3    C710196   2.262   3.977  17.398 -0.4134 -0.2979 -0.0835
  689TMC3    C810197   2.356   4.226   0.104 -0.3117  0.7567 -0.0381
  689TMC3    O110198   2.293   3.964  17.281 -0.4559  0.1809  0.2280
  689TMC3    O210199   2.304   4.136   0.166 -0.8040  0.0756  0.1551
  690MPD2     C10200   4.273   1.673  15.495  0.3085  0.1050 -0.4925
  690MPD2    C110201   4.354   1.689  15.604 -0.0754  0.1355  0.7028
  690MPD2    C210202   4.480   1.736  15.581  0.1913  0.6376  0.5991
  690MPD2    C310203   4.519   1.778  15.458 -0.4739 -0.8370 -0.3489
  690MPD2    C410204   4.435   1.764  15.351  0.4865  0.4032 -0.1179
  690MPD2    C510205   4.310   1.710  15.371  0.3548 -0.4093  0.1541
  690MPD2     H10206   4.542   1.748  15.669 -1.6355 -0.2764  2.0281
  690MPD2    H110207   4.459   1.795  15.250 -0.1503  1.7665  0.1475
  690MPD2    H210208   4.169   1.649  15.507  1.3437 -3.3374  1.4564
  690MPD2    H310209   4.239   1.698  15.290 -0.5586 -0.0012  0.8848
  690MPD2     N10210   4.634   1.857  15.452  0.7308 -0.3069 -0.2879
  690MPD2    H510211   4.673   1.892  15.539 -4.0187 -0.9649  2.1022
  690MPD2    N110212   4.312   1.659  15.744  1.4399  0.0920  0.1606
  690MPD2    H710213   4.378   1.677  15.818 -0.8650  0.6213  2.0669
  691TMC3    C110214   4.186   1.568  15.916 -0.9684 -0.7534 -0.0714
  691TMC3    C210215   4.059   1.554  15.971  0.9023 -0.4074  0.3473
  691TMC3    C310216   4.052   1.486  16.079  0.5577  0.2418 -0.3598
  691TMC3    C410217   4.294   1.503  15.969 -0.1003  0.0521 -0.5106
  691TMC3    C510218   4.281   1.433  16.086 -0.1054 -0.0546 -0.1905
  691TMC3    C610219   4.157   1.411  16.135  0.0241 -1.0597 -0.7506
  691TMC3     C10220   4.189   1.617  15.782 -0.4039 -0.0851 -0.1424
  691TMC3     O10221   4.085   1.606  15.715 -0.4794 -0.0756  0.1575
  691TMC3     H10222   3.977   1.593  15.912  0.3951 -0.3334  1.1116
  691TMC3    H110223   4.396   1.506  15.932 -0.1860  0.0816 -0.7415
  691TMC3    H210224   4.144   1.330  16.205  1.7453  2.1174  3.3069
  691TMC3    C710225   4.366   1.324  16.104 -0.2858  0.3473  0.2299
  691TMC3    C810226   3.928   1.441  16.139 -0.0573  0.3842  0.1956
  691TMC3    O110227   4.456   1.340  16.182 -0.5442  0.7896  0.4738
  691TMC3    O210228   3.917   1.340  16.200  0.7051  0.5701  0.2580
  692TMC3    C110229   1.672   2.706  15.571  0.3276  0.0741 -0.2332
  692TMC3    C210230   1.795   2.731  15.621 -0.4131 -0.3199  0.2160
  692TMC3    C310231   1.880   2.629  15.639  0.6570 -0.3894  0.1491
  692TMC3    C410232   1.629   2.582  15.529  0.0148 -0.4221 -0.2509
  692TMC3    C510233   1.718   2.479  15.549 -0.0287  0.1123  0.5707
  692TMC3    C610234   1.837   2.500  15.606 -0.4577  0.4184  0.4845
  692TMC3     C10235   1.565   2.789  15.630 -0.1488  0.5677 -0.5310
  692TMC3     O10236   1.481   2.726  15.694  0.5227 -0.0432  0.3454
  692TMC3     H10237   1.817   2.809  15.693 -0.2786 -0.6117  0.4948
  692TMC3    H110238   1.526   2.569  15.497  0.1168 -2.3877  0.2195
  692TMC3    H210239   1.917   2.428  15.595 -1.6069 -0.7353 -0.2275
  692TMC3    C710240   1.661   2.352  15.573  0.2757  0.3158 -0.9150
  692TMC3    C810241   1.911   2.605  15.779  0.0421 -0.3229  0.1987
  692TMC3    O110242   1.565   2.323  15.504 -0.2858 -0.1151  0.7852
  692TMC3    O210243   1.866   2.497  15.821 -0.0682 -0.1461 -0.0032
  693MPD2     C10244   1.419   1.066  10.927 -0.3206  0.7877  0.7492
  693MPD2    C110245   1.361   0.955  10.982  1.0218 -0.5314 -0.3274
  693MPD2    C210246   1.434   0.864  11.059 -0.2187  0.4076  1.0829
  693MPD2    C310247   1.572   0.877  11.074 -0.1253  0.7620  0.5915
  693MPD2    C410248   1.629   0.983  11.003  0.1713 -0.1206 -0.5939
  693MPD2    C510249   1.557   1.072  10.929  0.3816  0.3961  0.2446
  693MPD2     H10250   1.386   0.780  11.109  1.5429 -1.7104 -0.7981
  693MPD2    H110251   1.735   1.000  10.990  0.4853 -0.6850  1.2690
  693MPD2    H210252   1.375   1.135  10.855 -0.5754 -0.6907 -0.5116
  693MPD2    H310253   1.614   1.149  10.878  1.5885  0.3217  1.4784
  693MPD2     N10254   1.655   0.786  11.142  0.2957  0.1730 -0.9722
  693MPD2    H510255   1.752   0.810  11.157 -0.0079  0.5596  0.4249
  693MPD2    N110256   1.228   0.918  10.951 -0.0016 -0.0147  0.4459
  693MPD2    H710257   1.199   0.846  11.016 -0.6448 -0.2409 -0.0952
  694TMC3    C110258   1.005   0.940  10.869 -0.5369  0.7841  0.5040
  694TMC3    C210259   0.949   0.911  10.745 -0.4317 -0.5633  0.0918
  694TMC3    C310260   0.845   0.829  10.738 -0.5663 -0.2713  0.0727
  694TMC3    C410261   0.961   0.870  10.981 -0.2350  0.2404 -0.9375
  694TMC3    C510262   0.850   0.794  10.972  0.2403  0.3267  0.1650
  694TMC3    C610263   0.788   0.772  10.850 -0.5995 -0.4730 -0.3680
  694TMC3     C10264   1.147   0.976  10.865  0.2735 -0.4466 -0.5103
  694TMC3     O10265   1.176   1.056  10.780  0.4727 -0.3605 -0.1609
  694TMC3     H10266   0.996   0.951  10.655 -2.4590  0.5147 -0.4767
  694TMC3    H110267   1.000   0.894  11.080  0.0706 -1.6878 -0.5964
  694TMC3    H210268   0.705   0.703  10.843  0.5818 -2.0751  1.2386
  694TMC3    C710269   0.806   0.705  11.077  0.6130  0.0730 -0.1853
  694TMC3    C810270   0.798   0.769  10.615 -0.2021  0.4060 -0.0919
  694TMC3    O110271   0.723   0.620  11.045  0.3663 -0.6610 -0.3780
  694TMC3    O210272   0.704   0.699  10.608  0.1128  0.5786  0.5875
  695MPD2     C10273   2.101   2.275  13.557 -0.4274  0.4635  0.3784
  695MPD2    C110274   2.086   2.369  13.657 -0.2569  0.0282 -0.1554
  695MPD2    C210275   1.959   2.433  13.664  0.6072  0.6051 -0.0215
  695MPD2    C310276   1.863   2.425  13.563  0.4424 -0.0661  0.0136
  695MPD2    C410277   1.887   2.328  13.457 -0.6410 -0.1697  0.5739
  695MPD2    C510278   1.996   2.247  13.467 -0.2946 -0.6568 -0.4120
  695MPD2     H10279   1.959   2.511  13.738 -0.3624 -0.0014  0.6169
  695MPD2    H110280   1.813   2.308  13.381 -1.0191 -0.8431  1.1179
  695MPD2    H210281   2.189   2.213  13.550  1.5536  3.1625  1.9153
  695MPD2    H310282   2.014   2.163  13.401 -1.5703 -0.8716 -0.4847
  695MPD2     N10283   1.751   2.512  13.579  0.2043  0.1859 -0.0155
  695MPD2    H510284   1.748   2.567  13.664  0.7544 -1.7116  1.2215
  695MPD2    N110285   2.167   2.378  13.767 -0.3103  0.1331  0.4904
  695MPD2    H710286   2.144   2.440  13.844 -0.2281  0.3626  0.3285
  696TMC3    C110287   1.545   2.609  13.524 -0.1014 -0.7834 -0.1234
  696TMC3    C210288   1.504   2.587  13.648  0.9677 -0.4635  1.2740
  696TMC3    C310289   1.382   2.644  13.681  0.5910 -0.3100  0.5534
  696TMC3    C410290   1.476   2.680  13.432 -0.3958 -0.4198  0.8573
  696TMC3    C510291   1.378   2.756  13.476  0.4767 -0.5433  0.4505
  696TMC3    C610292   1.322   2.740  13.602 -0.4367  0.2905 -0.1648
  696TMC3     C10293   1.656   2.521  13.485  0.5562 -0.7577 -0.6541
  696TMC3     O10294   1.664   2.488  13.366  0.1529 -0.4100 -0.0146
  696TMC3     H10295   1.546   2.512  13.714  0.8620  0.4186  2.3550
  696TMC3    H110296   1.532   2.695  13.340  0.3139  1.2353  1.5737
  696TMC3    H210297   1.233   2.796  13.630  0.6574  2.5293 -1.1427
  696TMC3    C710298   1.361   2.884  13.415  0.0281  0.8264  0.5879
  696TMC3    C810299   1.356   2.655  13.823 -0.6530 -1.3485 -0.5030
  696TMC3    O110300   1.402   2.900  13.301 -0.1949 -0.3097  0.5793
  696TMC3    O210301   1.453   2.629  13.894  0.2247 -0.3559  0.1946
  697MPD2     C10302   1.140   4.544  15.857 -0.3513 -0.5716  0.3402
  697MPD2    C110303   1.211   4.484  15.757 -0.0733 -0.5085  0.1553
  697MPD2    C210304   1.287   4.549  15.669  0.3636 -0.1414 -0.1205
  697MPD2    C310305   1.302   4.687  15.679  0.2961  0.1989 -0.0822
  697MPD2    C410306   1.226   0.025  15.778 -0.0195  0.9292 -0.0614
  697MPD2    C510307   1.148   4.680  15.861  0.1527 -0.3258 -0.2042
  697MPD2     H10308   1.352   4.502  15.596 -0.1103  1.5605 -1.6495
  697MPD2    H110309   1.225   0.131  15.799  0.5975  0.7202  1.0481
  697MPD2    H210310   1.087   4.487  15.932 -2.5304 -0.5948 -1.2054
  697MPD2    H310311   1.101   0.012  15.941  0.3716 -0.9145  0.3314
  697MPD2     N10312   1.391   0.032  15.595 -0.0628 -0.0984  0.8610
  697MPD2    H510313   1.451   4.701  15.534 -1.0115 -0.2560  0.0748
  697MPD2    N110314   1.214   4.345  15.744 -1.0221 -0.2112 -0.6137
  697MPD2    H710315   1.240   4.307  15.653  0.5417 -0.6910  0.0403
  698TMC3    C110316   1.503   0.200  15.489 -0.2970 -0.1222 -0.1508
  698TMC3    C210317   1.627   0.262  15.524 -0.4361  0.3613 -0.1470
  698TMC3    C310318   1.736   0.221  15.454 -0.0088 -0.5417  0.8779
  698TMC3    C410319   1.495   0.118  15.381  0.0680 -0.5511 -0.0640
  698TMC3    C510320   1.608   0.088  15.309 -0.2358  0.2724  0.2066
  698TMC3    C610321   1.731   0.140  15.341 -0.4185 -0.3818 -0.1520
  698TMC3     C10322   1.416   0.169  15.600 -0.1149 -0.3760  0.3968
  698TMC3     O10323   1.388   0.257  15.681  0.0419  0.3115 -0.4478
  698TMC3     H10324   1.636   0.343  15.595 -1.7774  0.9653 -0.6767
  698TMC3    H110325   1.399   0.073  15.356 -0.1442  0.5641 -1.2210
  698TMC3    H210326   1.827   0.114  15.297 -0.9341  0.6286 -1.8807
  698TMC3    C710327   1.590   0.012  15.185  0.8389  0.4538  0.0980
  698TMC3    C810328   1.857   0.304  15.488 -0.0033 -0.0824 -0.2678
  698TMC3    O110329   1.475   4.705  15.151  0.4326 -0.5298  0.0971
  698TMC3    O210330   1.874   0.338  15.606 -0.6409  0.3260 -0.3710
  699TMC3    C110331   1.355   2.537  13.139 -0.3763 -0.2202  0.7652
  699TMC3    C210332   1.386   2.441  13.233 -0.0201 -0.1975 -0.4987
  699TMC3    C310333   1.286   2.404  13.325 -0.5674  0.3520 -0.6958
  699TMC3    C410334   1.232   2.605  13.144 -0.5565  0.4627 -0.1997
  699TMC3    C510335   1.144   2.575  13.244  0.2559 -0.1302  0.1868
  699TMC3    C610336   1.159   2.468  13.320  0.3158  0.6160  0.0747
  699TMC3     C10337   1.446   2.580  13.044  0.2083  0.2761  0.4278
  699TMC3     O10338   1.399   2.658  12.958  0.1720  0.4613  0.5771
  699TMC3     H10339   1.485   2.396  13.228  0.9771  1.7825  1.3410
  699TMC3    H110340   1.203   2.680  13.071 -0.7991  0.4886 -0.0740
  699TMC3    H210341   1.078   2.438  13.386  1.0812 -1.6294  0.0114
  699TMC3    C710342   1.068   2.684  13.309 -0.6540  0.5721 -0.3686
  699TMC3    C810343   1.314   2.329  13.443  0.0777 -0.3620  0.2254
  699TMC3    O110344   1.034   2.666  13.424  0.4543  0.6643  0.2878
  699TMC3    O210345   1.219   2.335  13.520  0.0665  0.2381  0.1795
  700TMC3    C110346   0.305   0.212  17.350  0.7634 -0.1819 -0.1860
  700TMC3    C210347   0.328   0.084  17.301 -0.2019 -0.3030 -0.1694
  700TMC3    C310348   0.451   0.029  17.330 -0.3225  0.1456  0.0669
  700TMC3    C410349   0.388   0.275  17.436 -0.1299  0.5213 -0.0377
  700TMC3    C510350   0.504   0.210  17.472 -0.0836  0.2418  0.3352
  700TMC3    C610351   0.533   0.085  17.430  0.1053  0.5311 -0.7464
  700TMC3     C10352   0.226   0.293  17.257 -0.1730  0.3996 -0.4991
  700TMC3     O10353   0.127   0.235  17.208  0.0214  0.0374  0.1758
  700TMC3     H10354   0.262   0.049  17.221  1.3252 -4.2038  0.2455
  700TMC3    H110355   0.360   0.369  17.480  1.6368  0.7418  0.5959
  700TMC3    H210356   0.626   0.037  17.454  0.2415  0.9633 -0.4064
  700TMC3    C710357   0.584   0.253  17.586 -0.3198 -0.0908  0.2686
  700TMC3    C810358   0.497   4.630  17.266  0.7006  1.6354  0.2513
  700TMC3    O110359   0.661   0.166  17.629  0.5334  0.6505  0.2716
  700TMC3    O210360   0.614   4.601  17.293  0.4298 -0.2350  0.1480
  701TMC3    C110361   0.849   3.556  15.582 -0.2306 -0.5955  0.1229
  701TMC3    C210362   0.839   3.529  15.446  0.6371 -0.1176  0.8984
  701TMC3    C310363   0.859   3.619  15.345 -0.6180 -0.0521  0.2423
  701TMC3    C410364   0.893   3.677  15.615  0.0108 -0.0764 -0.0303
  701TMC3    C510365   0.916   3.766  15.517 -0.2625 -0.2302  0.0963
  701TMC3    C610366   0.902   3.741  15.379  0.3403  0.3643  0.2595
  701TMC3     C10367   0.785   3.467  15.677 -0.1088 -0.2716 -0.1181
  701TMC3     O10368   0.742   3.517  15.779  0.3143  0.4789 -0.2578
  701TMC3     H10369   0.807   3.429  15.417  1.3495 -0.3176  0.8172
  701TMC3    H110370   0.904   3.701  15.720  0.9678 -1.2968  0.1456
  701TMC3    H210371   0.926   3.815  15.303 -1.0642  1.1760  0.5985
  701TMC3    C710372   0.902   3.909  15.553  0.1133  0.9855  0.2380
  701TMC3    C810373   0.839   3.585  15.202  0.5566 -0.9480  1.2187
  701TMC3    O110374   0.958   3.991  15.478 -0.4931  0.3433  0.0389
  701TMC3    O210375   0.882   3.665  15.120  0.1544 -0.0588 -0.2143
  702MPD2     C10376   0.558   0.990  10.471 -0.2325  0.3421 -0.0348
  702MPD2    C110377   0.525   1.112  10.529 -0.8567  0.4390 -0.1693
  702MPD2    C210378   0.566   1.227  10.462  0.2507 -0.1765 -1.3783
  702MPD2    C310379   0.630   1.210  10.342 -0.1531 -0.2368 -1.0601
  702MPD2    C410380   0.648   1.087  10.282 -0.2817  0.6421  0.3354
  702MPD2    C510381   0.610   0.973  10.348  0.1389  0.1781  0.3616
  702MPD2     H10382   0.527   1.323  10.495  1.2138 -0.3189  0.1856
  702MPD2    H110383   0.682   1.071  10.180  0.9904  0.2123  0.8244
  702MPD2    H210384   0.537   0.897  10.524 -0.2273  0.9428  1.0228
  702MPD2    H310385   0.625   0.876  10.303  1.2656  0.5975 -0.1862
  702MPD2     N10386   0.679   1.326  10.278 -0.5344  0.3019  1.1617
  702MPD2    H510387   0.636   1.413  10.306 -0.9083  0.1682  1.0185
  702MPD2    N110388   0.443   1.122  10.646 -0.4915 -0.0511 -0.2647
  702MPD2    H710389   0.437   1.216  10.682 -0.1277  0.4915 -1.6183
  703TMC3    C110390   0.792   1.461  10.111  0.3829  0.2080  0.0649
  703TMC3    C210391   0.680   1.536  10.080 -0.9347  0.6866 -0.8990
  703TMC3    C310392   0.703   1.658  10.030  0.4220 -0.7028 -0.5943
  703TMC3    C410393   0.914   1.503  10.081  1.0164  1.4939  0.4092
  703TMC3    C510394   0.934   1.628  10.033 -0.0353  0.2024 -0.3800
  703TMC3    C610395   0.827   1.703   9.999 -0.2925 -0.0617 -0.4888
  703TMC3     C10396   0.779   1.335  10.183  0.2001  0.4195  0.5583
  703TMC3     O10397   0.878   1.265  10.185 -0.5806  0.1323  0.3724
  703TMC3     H10398   0.583   1.494  10.105 -0.9924  1.2523 -0.1610
  703TMC3    H110399   0.999   1.439  10.104  0.2300 -0.0920 -1.0450
  703TMC3    H210400   0.854   1.796   9.951  0.2103  0.9712  1.7855
  703TMC3    C710401   1.049   1.702  10.072  0.2455  0.3482  0.5484
  703TMC3    C810402   0.594   1.745  10.006 -0.1332 -0.5377 -0.0215
  703TMC3    O110403   1.079   1.799  10.003  0.5102  0.5125  0.7040
  703TMC3    O210404   0.611   1.839   9.930  0.0227 -0.4628  0.3407
  704TMC3    C110405   2.902   4.420  12.311  0.2458 -0.7495  0.0161
  704TMC3    C210406   3.035   4.418  12.308  0.4916 -0.4218 -0.2623
  704TMC3    C310407   3.106   4.322  12.374  0.9111  0.7091 -0.4014
  704TMC3    C410408   2.830   4.321  12.377 -0.0794 -0.5363  0.3046
  704TMC3    C510409   2.904   4.224  12.437  0.0136 -0.3206  0.2237
  704TMC3    C610410   3.041   4.219  12.434  0.4868  0.4293  0.2236
  704TMC3     C10411   2.826   4.487  12.205 -0.1458  0.5093 -0.1396
  704TMC3     O10412   2.706   4.515  12.216  0.1306 -0.0454  0.2798
  704TMC3     H10413   3.088   4.497  12.256  0.1145 -0.1978 -0.3121
  704TMC3    H110414   2.724   4.310  12.355 -0.4556 -0.6797  2.1623
  704TMC3    H210415   3.091   4.144  12.495  0.2169 -0.1146 -0.2339
  704TMC3    C710416   2.844   4.093  12.437  0.3734 -0.4687  0.1236
  704TMC3    C810417   3.224   4.291  12.285  0.3620  0.1593  0.6721
  704TMC3    O110418   2.919   4.004  12.406 -0.1413 -0.4913  0.7599
  704TMC3    O210419   3.199   4.303  12.166  0.0716 -0.4999 -0.7841
  705MPD2     C10420   2.137   2.282  16.482 -0.4112  0.6135  0.0765
  705MPD2    C110421   2.028   2.275  16.400  0.3136  0.0609 -0.8940
  705MPD2    C210422   1.911   2.241  16.466  0.3364 -0.1111  0.1344
  705MPD2    C310423   1.889   2.232  16.601  0.5055  0.7268 -0.0637
  705MPD2    C410424   2.002   2.242  16.682 -0.5520 -0.4205 -0.0619
  705MPD2    C510425   2.124   2.267  16.621  0.3481  0.6085 -0.1407
  705MPD2     H10426   1.832   2.218  16.395 -0.6242 -2.1856  1.8870
  705MPD2    H110427   1.997   2.238  16.790  0.0596 -0.1494 -0.0262
  705MPD2    H210428   2.238   2.285  16.443  0.4428 -0.5372  2.2371
  705MPD2    H310429   2.210   2.265  16.687  0.2643  1.2959 -0.0058
  705MPD2     N10430   1.766   2.207  16.662 -0.2710 -0.0790  0.1381
  705MPD2    H510431   1.765   2.210  16.763  0.8419 -1.0036  0.1652
  705MPD2    N110432   2.033   2.282  16.262 -0.4539  0.3601 -0.2278
  705MPD2    H710433   1.946   2.304  16.215 -0.9346  1.8416  1.3455
  706TMC3    C110434   2.224   2.223  15.837  0.2449 -0.0749  0.6925
  706TMC3    C210435   2.216   2.357  15.808  0.0852  0.4318  0.0867
  706TMC3    C310436   2.167   2.442  15.905  0.6900 -0.2388 -0.0054
  706TMC3    C410437   2.196   2.178  15.960  0.4291 -0.1354 -0.4841
  706TMC3    C510438   2.130   2.264  16.044 -0.0775 -0.3888  0.5843
  706TMC3    C610439   2.103   2.395  16.017  0.6198 -0.0506  0.3108
  706TMC3     C10440   2.343   2.164  15.785 -0.9774 -0.2661 -0.1383
  706TMC3     O10441   2.442   2.156  15.861  0.0693 -0.1183  0.4217
  706TMC3     H10442   2.269   2.400  15.725 -0.5009  1.6160  0.3258
  706TMC3    H110443   2.218   2.077  15.993 -1.2286  0.6083  2.8994
  706TMC3    H210444   2.066   2.459  16.097  1.2286  0.7266 -0.0332
  706TMC3    C710445   2.139   2.246  16.187 -0.4455 -0.1371  0.1725
  706TMC3    C810446   2.246   2.562  15.914  0.4975  0.0035  0.3850
  706TMC3    O110447   2.230   2.185  16.231  0.2694  0.5549 -0.5093
  706TMC3    O210448   2.307   2.608  15.817 -0.1241 -0.2920  0.3062
  707TMC3    C110449   4.094   0.931   1.423  0.4523 -0.0747  0.1455
  707TMC3    C210450   4.116   0.809   1.479  0.5077 -0.2324 -0.0475
  707TMC3    C310451   4.006   0.742   1.519  0.2418  0.5732  0.1536
  707TMC3    C410452   3.970   0.981   1.396  0.0108  0.1944 -0.6276
  707TMC3    C510453   3.856   0.913   1.437  0.3216 -0.0188  0.1274
  707TMC3    C610454   3.879   0.789   1.500 -0.4800  0.1405  1.2463
  707TMC3     C10455   4.212   0.984   1.364 -0.5309 -0.3953 -0.3105
  707TMC3     O10456   4.315   0.916   1.368  0.0368  0.0310 -0.3786
  707TMC3     H10457   4.216   0.786   1.514  0.2300 -0.0417  0.8575
  707TMC3    H110458   3.953   1.079   1.353  2.1114 -0.0375 -1.9929
  707TMC3    H210459   3.793   0.744   1.547  0.0002 -0.6122  1.3913
  707TMC3    C710460   3.722   0.968   1.439 -0.1318 -0.1812 -0.2504
  707TMC3    C810461   4.026   0.622   1.600 -0.5148  0.2403  0.0812
  707TMC3    O110462   3.716   1.090   1.445 -0.0906  0.0335  0.1301
  707TMC3    O210463   3.958   0.609   1.704  0.2088  0.5823 -0.5089
  708MPD2     C10464   0.762   0.548  14.098 -0.1352 -1.0475 -0.2419
  708MPD2    C110465   0.685   0.666  14.089  0.1113  0.2476 -0.3795
  708MPD2    C210466   0.582   0.677  14.181  0.6538 -0.3190  0.3229
  708MPD2    C310467   0.569   0.607  14.298 -1.2398  0.0262 -0.6258
  708MPD2    C410468   0.662   0.511  14.317 -0.7254  0.2400  0.5068
  708MPD2    C510469   0.752   0.479  14.218 -0.1111 -0.1319 -1.0182
  708MPD2     H10470   0.513   0.761  14.176  0.0324 -0.7371  2.1413
  708MPD2    H110471   0.659   0.448  14.406 -0.1994 -1.0847 -0.4099
  708MPD2    H210472   0.841   0.542  14.024 -0.9587  2.0952 -1.3985
  708MPD2    H310473   0.826   0.411  14.258 -1.2150 -0.5692  0.3141
  708MPD2     N10474   0.487   0.653  14.405 -0.0223  0.0459  0.5714
  708MPD2    H510475   0.500   0.612  14.497 -2.9142 -0.4323  0.7647
  708MPD2    N110476   0.693   0.747  13.973  0.0279  0.1239 -0.2150
  708MPD2    H710477   0.753   0.722  13.895  1.8286  1.5004  0.7375
  709TMC3    C110478   0.639   0.933  13.825 -0.3083  0.0948  0.8748
  709TMC3    C210479   0.621   0.857  13.707 -0.3610 -0.0851 -0.1121
  709TMC3    C310480   0.573   0.927  13.601 -0.3973  0.7295  0.8570
  709TMC3    C410481   0.594   1.060  13.830 -0.4845 -0.5030 -0.3011
  709TMC3    C510482   0.525   1.118  13.724  0.3421  0.4208  0.5369
  709TMC3    C610483   0.515   1.051  13.604 -0.6443 -0.5338  0.2766
  709TMC3     C10484   0.628   0.869  13.956 -0.6712 -0.3632 -0.5343
  709TMC3     O10485   0.548   0.924  14.035  1.2444  0.1257  0.1305
  709TMC3     H10486   0.664   0.757  13.700  0.7172  0.1196  3.3965
  709TMC3    H110487   0.613   1.114  13.922  0.0679  1.4465 -1.5442
  709TMC3    H210488   0.445   1.086  13.529  1.7145  1.8461 -0.8353
  709TMC3    C710489   0.395   1.165  13.764 -0.4362 -0.3531  0.5273
  709TMC3    C810490   0.511   0.832  13.505  0.6343  0.2500  0.3194
  709TMC3    O110491   0.330   1.234  13.686  0.3793  0.6291  0.1741
  709TMC3    O210492   0.459   0.737  13.566  0.2689 -0.1911 -0.4617
  710TMC3    C110493   1.883   2.812   1.010  0.1288  0.1501  0.8925
  710TMC3    C210494   1.895   2.746   0.894  0.0034  0.3910  0.1093
  710TMC3    C310495   1.896   2.611   0.895 -0.1085  0.0598 -0.2129
  710TMC3    C410496   1.866   2.752   1.125 -0.1749 -0.8315  0.2218
  710TMC3    C510497   1.886   2.616   1.124 -0.0377  0.2769 -0.0770
  710TMC3    C610498   1.894   2.538   1.010 -0.7391  0.6625  0.4943
  710TMC3     C10499   1.896   2.954   1.002  0.8575  0.1155 -0.0921
  710TMC3     O10500   1.952   2.994   0.908  0.1860 -0.2295  0.5425
  710TMC3     H10501   1.915   2.803   0.804 -1.1982 -2.7964 -2.1735
  710TMC3    H110502   1.869   2.807   1.218  0.4881 -3.6051  1.8596
  710TMC3    H210503   1.909   2.431   1.014 -0.0519  0.6751 -1.6098
  710TMC3    C710504   1.828   2.547   1.232 -0.3776  0.0246  0.3889
  710TMC3    C810505   1.885   2.534   0.769  0.3669  0.6895 -0.3873
  710TMC3    O110506   1.862   2.429   1.240 -0.1947  0.0357  0.1452
  710TMC3    O210507   1.941   2.581   0.672  0.3263  0.4052  0.5811
  711TMC3    C110508   1.413   3.557  15.083 -0.1847 -0.1422  0.8360
  711TMC3    C210509   1.457   3.586  15.208  0.7669  0.5269 -0.1878
  711TMC3    C310510   1.572   3.533  15.253  0.3564  0.6494  0.6260
  711TMC3    C410511   1.494   3.488  14.991 -0.2985  0.2677  0.2223
  711TMC3    C510512   1.604   3.423  15.044  0.1877  0.7470  0.0787
  711TMC3    C610513   1.642   3.447  15.176  0.5684  0.4254 -0.4271
  711TMC3     C10514   1.283   3.499  15.082  0.1046  0.0358 -0.4251
  711TMC3     O10515   1.232   3.458  14.977 -0.2701 -0.0882  0.6738
  711TMC3     H10516   1.398   3.652  15.271 -1.0614  1.2073 -2.6119
  711TMC3    H110517   1.462   3.463  14.891  0.6898  1.4574 -0.3853
  711TMC3    H210518   1.719   3.389  15.227 -2.2380 -1.2064  1.9707
  711TMC3    C710519   1.615   3.284  15.007  0.1654  0.3199 -0.4584
  711TMC3    C810520   1.585   3.531  15.406  0.1687  0.1055 -0.0976
  711TMC3    O110521   1.697   3.218  15.068 -0.2745 -0.4715  1.1407
  711TMC3    O210522   1.480   3.548  15.465  0.2034  0.2074 -0.0491
  712MPD2     C10523   2.779   3.951  13.351  0.0796  0.3811 -0.7168
  712MPD2    C110524   2.699   4.051  13.294  0.0734 -1.0199 -0.2800
  712MPD2    C210525   2.656   4.160  13.361  0.2408  0.8729  1.0894
  712MPD2    C310526   2.682   4.175  13.496 -0.6436  0.3021 -0.1349
  712MPD2    C410527   2.741   4.073  13.562 -0.0938  0.0776 -0.1146
  712MPD2    C510528   2.781   3.962  13.492  0.5981 -0.1530  0.0169
  712MPD2     H10529   2.602   4.227  13.296 -0.9993 -0.5014  0.7088
  712MPD2    H110530   2.750   4.068  13.669 -0.8543  2.9155  0.0819
  712MPD2    H210531   2.818   3.868  13.292 -0.1212 -0.7631  0.7744
  712MPD2    H310532   2.817   3.877  13.549 -1.2167 -1.1316 -0.2787
  712MPD2     N10533   2.630   4.277  13.578  0.2984  0.0225 -0.1902
  712MPD2    H510534   2.672   4.292  13.669  0.6683  3.0473 -0.8599
  712MPD2    N110535   2.657   4.051  13.159  0.1749 -0.3359  0.1905
  712MPD2    H710536   2.614   4.134  13.119  0.6280  1.4375  3.3905
  713TMC3    C110537   2.504   4.469  13.621  0.7488  0.1316  0.0743
  713TMC3    C210538   2.619   4.536  13.670  0.8183  0.5738  0.0728
  713TMC3    C310539   2.611   4.674  13.694  0.3288 -0.1431  0.3154
  713TMC3    C410540   2.386   4.537  13.598 -0.0129  0.0799 -0.2843
  713TMC3    C510541   2.384   4.673  13.631  0.8046  0.6791 -0.0797
  713TMC3    C610542   2.492   0.017  13.663  0.2227  0.2188 -0.1787
  713TMC3     C10543   2.521   4.347  13.543 -0.0893 -0.1122  0.7022
  713TMC3     O10544   2.432   4.309  13.473  0.1404 -0.0104  0.5071
  713TMC3     H10545   2.716   4.489  13.684  0.0897 -2.0085 -3.2811
  713TMC3    H110546   2.304   4.490  13.546 -1.4005  1.3257  0.7686
  713TMC3    H210547   2.489   0.123  13.686  0.2677  0.5473 -1.7039
  713TMC3    C710548   2.251   0.015  13.636  0.7452 -0.2821 -0.6064
  713TMC3    C810549   2.727   0.029  13.730  1.2474  0.2774  0.3604
  713TMC3    O110550   2.168   4.720  13.546 -0.3586 -0.1991 -0.5475
  713TMC3    O210551   2.733   0.149  13.707 -0.2140  0.2146  0.1733
  714MPD2     C10552   4.464   2.561   1.870 -0.0482 -0.2513 -0.3866
  714MPD2    C110553   4.530   2.482   1.767 -0.0642 -0.5747  0.0540
  714MPD2    C210554   4.483   2.488   1.642  0.0905 -0.5547 -0.4639
  714MPD2    C310555   4.381   2.570   1.605 -0.5231 -0.1209 -0.1848
  714MPD2    C410556   4.318   2.634   1.705  0.1329 -1.1447 -0.0184
  714MPD2    C510557   4.354   2.629   1.836  0.4708 -0.5054 -0.1212
  714MPD2     H10558   4.513   2.428   1.557  0.8605 -0.8869  0.0459
  714MPD2    H110559   4.238   2.705   1.690 -1.0535 -2.6171 -0.6792
  714MPD2    H210560   4.512   2.564   1.967 -1.8968 -1.6995  0.5977
  714MPD2    H310561   4.307   2.690   1.913 -1.0426 -1.7624 -0.0431
  714MPD2     N10562   4.341   2.591   1.474 -0.1062 -0.7389  0.2222
  714MPD2    H510563   4.400   2.541   1.409 -0.6926 -1.1927  0.0330
  714MPD2    N110564   4.641   2.408   1.804  0.2002 -0.2570 -0.1399
  714MPD2    H710565   4.680   2.425   1.896 -1.5740  1.2741  0.3214
  715TMC3    C110566   0.113   2.282   1.761 -0.2607 -0.0187  1.1647
  715TMC3    C210567   0.175   2.180   1.705 -0.2127 -0.0062 -0.3169
  715TMC3    C310568   0.308   2.164   1.716  0.6904 -0.4596  0.9415
  715TMC3    C410569   0.183   2.375   1.831  0.5529 -0.3026 -0.0353
  715TMC3    C510570   0.319   2.352   1.848  0.6012  0.2123 -0.1360
  715TMC3    C610571   0.384   2.249   1.790 -0.4285 -0.5966 -0.1676
  715TMC3     C10572   4.710   2.321   1.713 -0.1128 -0.2075  0.2353
  715TMC3     O10573   4.685   2.274   1.604 -0.1805  0.2368 -0.0400
  715TMC3     H10574   0.119   2.106   1.649  1.2004 -1.1247 -0.2599
  715TMC3    H110575   0.138   2.473   1.840 -2.2620 -1.7165  1.4925
  715TMC3    H210576   0.490   2.242   1.810 -0.4440  1.1581  0.5508
  715TMC3    C710577   0.381   2.459   1.927 -0.5416  0.2350  0.1760
  715TMC3    C810578   0.372   2.053   1.637 -0.0310  0.1028 -0.0762
  715TMC3    O110579   0.498   2.485   1.905 -0.2614  0.4848  0.6714
  715TMC3    O210580   0.325   2.043   1.527  0.4160  0.8983  0.4315
  716MPD2     C10581   0.304   0.985   9.956 -0.2215  0.3599 -0.1356
  716MPD2    C110582   0.305   1.037   9.829  0.3007 -0.2195 -0.6200
  716MPD2    C210583   0.402   0.988   9.743 -0.3994 -0.2892  0.5037
  716MPD2    C310584   0.486   0.887   9.777  0.0001 -0.7296 -0.0513
  716MPD2    C410585   0.484   0.836   9.903 -0.4330 -0.1194 -0.0194
  716MPD2    C510586   0.391   0.889   9.991  0.0788 -0.4767 -0.2984
  716MPD2     H10587   0.422   1.019   9.641 -0.3521 -0.9030  0.3257
  716MPD2    H110588   0.550   0.762   9.947 -2.8641 -0.6603  2.7783
  716MPD2    H210589   0.238   1.017  10.035 -0.0580 -1.9400  0.9532
  716MPD2    H310590   0.408   0.839  10.086  1.0122  3.0343  1.3755
  716MPD2     N10591   0.584   0.862   9.687  0.6011  0.0198 -0.2527
  716MPD2    H510592   0.571   0.910   9.598 -1.7438  1.1982  0.7233
  716MPD2    N110593   0.223   1.151   9.803 -0.2846 -0.1351  0.0280
  716MPD2    H710594   0.181   1.188   9.888 -1.6467 -0.2651 -0.5852
  717TMC3    C110595   0.773   0.793   9.576 -0.0949  0.4144  0.2165
  717TMC3    C210596   0.768   0.905   9.493  0.2185  0.2640  0.3910
  717TMC3    C310597   0.838   0.889   9.380 -0.7799 -0.4962 -0.6703
  717TMC3    C410598   0.852   0.682   9.549 -0.2987 -0.0699  0.3850
  717TMC3    C510599   0.913   0.678   9.424  0.1722 -0.1463  0.1909
  717TMC3    C610600   0.906   0.780   9.341  0.4633 -0.2701  0.2001
  717TMC3     C10601   0.697   0.787   9.704 -0.1705 -0.2072  0.9476
  717TMC3     O10602   0.731   0.714   9.797 -0.4322  0.1068 -0.8183
  717TMC3     H10603   0.707   0.994   9.506  0.2092 -0.0961  2.8488
  717TMC3    H110604   0.882   0.603   9.617 -1.2015 -0.2689  0.5436
  717TMC3    H210605   0.962   0.769   9.249 -0.8507  1.5660 -0.8099
  717TMC3    C710606   0.987   0.560   9.384 -0.5981  0.8566  0.0540
  717TMC3    C810607   0.825   0.995   9.276  0.1197  0.6702  0.0584
  717TMC3    O110608   1.029   0.492   9.472  0.1917  0.2662  0.7917
  717TMC3    O210609   0.796   1.104   9.320  0.0394  0.2424 -0.4360
  718MPD2     C10610   0.034   0.037  12.957  0.2005 -0.5810 -0.9121
  718MPD2    C110611   0.006   4.718  12.826  0.6519  0.0319  0.0555
  718MPD2    C210612   4.601   4.686  12.793  0.0499  0.1029  0.6089
  718MPD2    C310613   4.504   4.680  12.895 -0.7017  0.0674 -0.0216
  718MPD2    C410614   4.528   4.720  13.021 -0.4752  0.4498 -0.4905
  718MPD2    C510615   4.661   0.036  13.049 -0.6327  1.1413  0.8368
  718MPD2     H10616   4.570   4.673  12.690 -1.2045 -1.0283  1.1274
  718MPD2    H110617   4.454   4.713  13.101  0.6058 -1.1688  0.3627
  718MPD2    H210618   0.137   0.057  12.982 -0.2497  0.5606  0.0452
  718MPD2    H310619   4.696   0.065  13.147 -0.3934  1.4493  0.6613
  718MPD2     N10620   4.377   4.644  12.846 -0.7715  0.0541  0.4181
  718MPD2    H510621   4.377   4.590  12.760  1.2984  2.0127 -0.8065
  718MPD2    N110622   0.105   4.711  12.722  0.1102  0.5853  0.2641
  718MPD2    H710623   0.199   0.011  12.753  0.2463  1.1598 -0.5750
  719TMC3    C110624   0.197   4.692  12.505 -0.5020 -0.0032 -0.0552
  719TMC3    C210625   0.177   4.622  12.388  0.2794  0.2932 -0.5421
  719TMC3    C310626   0.205   4.692  12.271 -0.2087  0.8961 -0.5632
  719TMC3    C410627   0.240   0.100  12.509 -0.6236  0.4965  0.0242
  719TMC3    C510628   0.275   0.159  12.392  0.0273 -0.6707 -0.0510
  719TMC3    C610629   0.266   0.091  12.274 -0.0169  0.4108 -0.1317
  719TMC3     C10630   0.087   4.662  12.599 -0.0892  0.2897 -0.0217
  719TMC3     O10631   4.714   4.599  12.549 -0.2000 -0.2989  0.1242
  719TMC3     H10632   0.125   4.528  12.379 -1.3520  1.3168 -1.8931
  719TMC3    H110633   0.215   0.172  12.586  1.0082  0.9330  0.1585
  719TMC3    H210634   0.284   0.139  12.178 -1.4488  0.8581 -0.1800
  719TMC3    C710635   0.314   0.295  12.373 -0.6072  0.2667  0.1570
  719TMC3    C810636   0.088   4.713  12.183  0.9630 -0.3186  0.6025
  719TMC3    O110637   0.352   0.325  12.262  0.1912  0.8857 -0.1581
  719TMC3    O210638   0.094   0.041  12.075 -1.2892  0.0617  0.0033
  720MPD2     C10639   2.483   1.337  14.124 -0.1623  1.1866 -0.3082
  720MPD2    C110640   2.565   1.388  14.024 -0.6282  0.3111 -0.3348
  720MPD2    C210641   2.700   1.366  14.025  0.3875 -1.0401 -0.3068
  720MPD2    C310642   2.754   1.302  14.134 -0.2986 -0.1964 -0.1684
  720MPD2    C410643   2.677   1.254  14.243  0.3099  0.3404 -0.0593
  720MPD2    C510644   2.538   1.276  14.235  0.4808  0.2180  0.3068
  720MPD2     H10645   2.758   1.417  13.950  0.4104 -1.1052 -0.3334
  720MPD2    H110646   2.725   1.200  14.325 -0.1049  0.0990  0.0220
  720MPD2    H210647   2.375   1.346  14.124 -0.4213 -1.9789  0.3620
  720MPD2    H310648   2.468   1.248  14.312  0.3624 -2.1070 -0.6557
  720MPD2     N10649   2.892   1.293  14.138 -0.1294  0.1999  0.1906
  720MPD2    H510650   2.935   1.346  14.062  0.8675 -0.7276  0.1145
  720MPD2    N110651   2.508   1.447  13.916  0.5573 -0.1136 -0.2007
  720MPD2    H710652   2.574   1.466  13.841  0.9056 -0.8192 -0.0700
  721TMC3    C110653   3.110   1.282  14.224  0.2409  0.2032 -0.3155
  721TMC3    C210654   3.169   1.318  14.339  1.1757 -0.3143  0.3464
  721TMC3    C310655   3.285   1.393  14.336  0.7112 -0.4291 -0.0686
  721TMC3    C410656   3.163   1.312  14.102  0.6432 -0.5505 -0.0866
  721TMC3    C510657   3.271   1.397  14.097  0.8216  0.2811 -0.9511
  721TMC3    C610658   3.332   1.435  14.212 -0.2662 -0.0534 -0.0488
  721TMC3     C10659   2.971   1.231  14.230  0.3396  0.0083 -0.4671
  721TMC3     O10660   2.943   1.160  14.329 -0.3279 -0.2832  0.2816
  721TMC3     H10661   3.128   1.292  14.436  2.1955  1.3652  1.2184
  721TMC3    H110662   3.112   1.292  14.009  0.7230 -0.9435 -0.0470
  721TMC3    H210663   3.427   1.486  14.209  0.5755 -1.5895  0.2933
  721TMC3    C710664   3.325   1.431  13.971  0.4108  0.2159 -0.5442
  721TMC3    C810665   3.376   1.402  14.458  0.2775 -0.9572 -0.4063
  721TMC3    O110666   3.320   1.339  13.885  0.0077  0.8950 -0.3292
  721TMC3    O210667   3.488   1.451  14.441  0.1237  0.0357  0.0095
  722MPD2     C10668   1.207   0.098  13.298 -0.6498 -0.2253 -0.5273
  722MPD2    C110669   1.212   0.228  13.246  0.2058 -0.1090  0.0629
  722MPD2    C210670   1.116   0.275  13.156  0.0193 -0.0705  0.7541
  722MPD2    C310671   1.018   0.186  13.112  1.2323  0.7926 -0.5672
  722MPD2    C410672   1.016   0.054  13.159  0.2141 -0.8247 -0.1580
  722MPD2    C510673   1.107   0.015  13.253 -0.2113 -0.1633 -0.3200
  722MPD2     H10674   1.129   0.378  13.125 -2.4302  0.5101  1.6874
  722MPD2    H110675   0.954   4.693  13.130 -2.5690  1.9400 -2.1834
  722MPD2    H210676   1.275   0.055  13.370 -1.9907  0.4316  1.1316
  722MPD2    H310677   1.109   4.635  13.283 -1.0937  0.0469  0.4349
  722MPD2     N10678   0.913   0.234  13.022  0.1668  0.5567 -0.3670
  722MPD2    H510679   0.926   0.329  12.990  1.8261 -0.3427 -2.3457
  722MPD2    N110680   1.319   0.315  13.293  0.2440 -0.8503 -0.1456
  722MPD2    H710681   1.321   0.409  13.256 -2.5136 -0.5077  0.5943
  723TMC3    C110682   0.767   0.206  12.837 -0.5407  0.4736 -0.3398
  723TMC3    C210683   0.694   0.118  12.765 -0.2278 -0.3937  0.6798
  723TMC3    C310684   0.643   0.154  12.640  0.5829 -0.4298 -0.0121
  723TMC3    C410685   0.783   0.334  12.795  0.1131 -0.3460  0.0719
  723TMC3    C510686   0.735   0.364  12.667 -0.0709  0.4946 -0.8828
  723TMC3    C610687   0.660   0.280  12.595 -0.4094 -0.6183 -0.1070
  723TMC3     C10688   0.836   0.144  12.949 -0.4425 -0.2258 -0.1925
  723TMC3     O10689   0.827   0.022  12.948 -0.2529  0.3955 -0.2041
  723TMC3     H10690   0.675   0.017  12.798  1.2372 -0.9412 -0.1903
  723TMC3    H110691   0.847   0.400  12.852 -2.6472  2.0696  0.3679
  723TMC3    H210692   0.620   0.307  12.498 -1.9140 -0.2500  0.6221
  723TMC3    C710693   0.769   0.493  12.598 -0.0657  0.1065 -0.5461
  723TMC3    C810694   0.626   0.049  12.536 -0.6558 -0.2726  0.7107
  723TMC3    O110695   0.765   0.500  12.475  0.2487 -0.0987  0.2204
  723TMC3    O210696   0.585   0.088  12.430 -0.1336  0.3654 -0.2812
  724TMC3    C110697   2.528   3.240  10.168  0.8174 -0.4870  0.8750
  724TMC3    C210698   2.412   3.264  10.092  0.6395  0.8577  0.2922
  724TMC3    C310699   2.405   3.382  10.016 -0.3883 -0.0621 -0.7785
  724TMC3    C410700   2.633   3.324  10.154  0.2703  0.8864 -0.2087
  724TMC3    C510701   2.629   3.435  10.070  0.1151 -0.7770  0.0832
  724TMC3    C610702   2.517   3.460  10.000 -0.7081  0.7230  0.0262
  724TMC3     C10703   2.562   3.109  10.218 -0.2137  0.3311  0.2786
  724TMC3     O10704   2.677   3.092  10.252 -0.3284 -0.2547  0.1483
  724TMC3     H10705   2.322   3.218  10.128  0.3511  0.7520 -0.5706
  724TMC3    H110706   2.724   3.293  10.204 -0.1312  0.1962  0.0939
  724TMC3    H210707   2.520   3.541   9.927 -0.9071  0.3963 -0.3478
  724TMC3    C710708   2.703   3.551  10.116 -0.0921 -0.1781 -0.0998
  724TMC3    C810709   2.280   3.410   9.956  0.5848  0.1469 -0.7009
  724TMC3    O110710   2.701   3.652  10.049 -0.0164 -0.4093  0.4269
  724TMC3    O210711   2.210   3.314   9.926  0.1378 -0.1904 -0.2276
  725TMC3    C110712   3.359   1.629  12.811 -0.4892  0.0309  0.0728
  725TMC3    C210713   3.306   1.621  12.686  0.2405  0.3401 -1.1782
  725TMC3    C310714   3.248   1.506  12.646  0.5559 -0.7830 -0.5078
  725TMC3    C410715   3.379   1.517  12.879  0.2151 -0.4053  0.6723
  725TMC3    C510716   3.331   1.397  12.836  0.4828 -0.6104  0.2099
  725TMC3    C610717   3.261   1.389  12.718 -0.2423 -0.2705 -0.8425
  725TMC3     C10718   3.467   1.716  12.830 -0.0133  0.7135 -0.0182
  725TMC3     O10719   3.469   1.783  12.934  0.7545 -0.5038  0.4685
  725TMC3     H10720   3.324   1.700  12.614  1.5740  0.6763 -0.4784
  725TMC3    H110721   3.432   1.521  12.973  1.1190  0.4966  0.1392
  725TMC3    H210722   3.209   1.299  12.688 -0.3774 -0.0716 -1.1977
  725TMC3    C710723   3.416   1.282  12.871 -0.0448  0.0244  0.1406
  725TMC3    C810724   3.129   1.506  12.564 -0.0548 -0.1981  0.0679
  725TMC3    O110725   3.489   1.293  12.968 -0.5249  0.4331 -0.9137
  725TMC3    O210726   3.042   1.423  12.588  0.3941  0.8545  0.1823
  726MPD2     C10727   2.168   2.979  10.965 -0.2409 -0.1003  1.1180
  726MPD2    C110728   2.077   3.015  10.867 -0.4255  0.0228  0.4565
  726MPD2    C210729   1.963   2.938  10.853 -0.4747 -0.0028 -0.7427
  726MPD2    C310730   1.938   2.829  10.936 -0.2712 -0.0038 -0.8163
  726MPD2    C410731   2.037   2.786  11.023  0.0515 -0.3431  0.1583
  726MPD2    C510732   2.154   2.861  11.038  0.3484 -0.5909 -0.4020
  726MPD2     H10733   1.882   2.965  10.786 -1.9678  0.1136  1.1233
  726MPD2    H110734   2.032   2.688  11.069  0.0049 -0.3052  0.2326
  726MPD2    H210735   2.251   3.049  10.964 -0.7694  0.5047 -0.2933
  726MPD2    H310736   2.236   2.822  11.098 -0.0299  0.1810  0.6052
  726MPD2     N10737   1.826   2.736  10.924  0.0999 -0.0673 -0.0982
  726MPD2    H510738   1.814   2.655  10.983 -1.5184 -1.3680 -2.2078
  726MPD2    N110739   2.103   3.139  10.808 -0.2166 -1.2364  0.2642
  726MPD2    H710740   2.173   3.196  10.855 -0.0249  0.0534 -1.5500
  727TMC3    C110741   2.064   3.321  10.681 -0.1190 -0.3561 -0.1564
  727TMC3    C210742   2.173   3.392  10.727  0.0497 -0.2307  0.1628
  727TMC3    C310743   2.167   3.527  10.712  0.6965  0.1715  0.1216
  727TMC3    C410744   1.966   3.379  10.611 -0.1751 -0.2965  0.4583
  727TMC3    C510745   1.973   3.510  10.591 -0.2295  0.2003 -0.8016
  727TMC3    C610746   2.077   3.591  10.638  0.4519 -0.2743  0.1354
  727TMC3     C10747   2.048   3.180  10.697 -0.5217  0.3802 -0.2339
  727TMC3     O10748   1.964   3.124  10.625  0.8419  0.4727 -1.0152
  727TMC3     H10749   2.247   3.341  10.787  0.6254 -0.9941 -1.2047
  727TMC3    H110750   1.880   3.320  10.578 -1.5795  1.4870  0.9322
  727TMC3    H210751   2.071   3.699  10.632  1.2629 -0.2647 -0.5000
  727TMC3    C710752   1.880   3.566  10.493  0.5723 -0.1440 -0.1805
  727TMC3    C810753   2.288   3.608  10.743 -0.7997  0.3233  0.3298
  727TMC3    O110754   1.826   3.486  10.419 -0.6564  0.3283  0.2061
  727TMC3    O210755   2.276   3.725  10.713  0.0355 -0.1601  0.8226
  728TMC3    C110756   0.092   1.977  15.360  1.1011 -0.1563  0.3858
  728TMC3    C210757   0.166   1.964  15.474  0.5242  0.0697 -0.2596
  728TMC3    C310758   0.284   2.032  15.480 -0.1694  0.1439 -0.2269
  728TMC3    C410759   0.128   2.055  15.255  0.1102  0.3185  0.0023
  728TMC3    C510760   0.246   2.123  15.258 -0.7182 -0.0822  0.4562
  728TMC3    C610761   0.326   2.111  15.370  0.5281 -0.0495  0.3659
  728TMC3     C10762   4.688   1.910  15.339  0.7969 -0.1103  0.4394
  728TMC3     O10763   4.648   1.902  15.224  0.4570 -0.3652  0.2959
  728TMC3     H10764   0.145   1.882  15.543 -0.3923  0.2699 -0.2970
  728TMC3    H110765   0.066   2.075  15.169 -1.5333 -0.2197  1.0405
  728TMC3    H210766   0.415   2.171  15.382  1.7954 -0.8249 -5.1612
  728TMC3    C710767   0.321   2.152  15.145 -0.0272 -0.1324 -0.0942
  728TMC3    C810768   0.386   1.990  15.578 -0.3076 -0.3737  0.1828
  728TMC3    O110769   0.309   2.060  15.063 -0.4572  0.7598 -0.6511
  728TMC3    O210770   0.342   1.921  15.665  0.0129  0.7112 -0.2776
  729MPD2     C10771   2.832   2.751  16.480  0.3379 -0.0715  0.9297
  729MPD2    C110772   2.906   2.732  16.594  0.0899  0.1279  0.1737
  729MPD2    C210773   2.844   2.692  16.707 -0.0549  0.2607 -0.2572
  729MPD2    C310774   2.711   2.656  16.705 -0.6866 -0.0407  0.7782
  729MPD2    C410775   2.639   2.671  16.594  0.2335  0.5894  0.3147
  729MPD2    C510776   2.698   2.728  16.481 -0.1213 -0.6380 -0.5305
  729MPD2     H10777   2.900   2.682  16.800 -0.3611 -2.7956 -0.4020
  729MPD2    H110778   2.531   2.656  16.591  0.1007  1.7112 -0.5329
  729MPD2    H210779   2.878   2.796  16.393 -0.8454  0.1961  0.4464
  729MPD2    H310780   2.643   2.731  16.388  0.3514  2.6123 -0.7041
  729MPD2     N10781   2.641   2.616  16.822  0.0523 -0.2125  0.1398
  729MPD2    H510782   2.540   2.614  16.813  0.1443  0.8343 -1.0748
  729MPD2    N110783   3.039   2.772  16.596 -0.5956 -0.1070  0.4295
  729MPD2    H710784   3.075   2.837  16.527 -2.3915  3.1023  2.5174
  730TMC3    C110785   2.599   2.617  17.056  0.1286  0.6516  0.3365
  730TMC3    C210786   2.656   2.608  17.182 -0.4124 -0.1800  0.0819
  730TMC3    C310787   2.608   2.692  17.280  0.1090  0.1643  0.4860
  730TMC3    C410788   2.497   2.701  17.031 -0.0706  0.4846  0.1940
  730TMC3    C510789   2.453   2.786  17.127 -0.2149 -0.2055  0.1502
  730TMC3    C610790   2.509   2.782  17.248 -0.9754 -0.0666 -0.2923
  730TMC3     C10791   2.691   2.583  16.948  0.1849 -0.2562 -0.3454
  730TMC3     O10792   2.807   2.565  16.977  0.4882  0.2230  0.2320
  730TMC3     H10793   2.749   2.558  17.201  1.1541  3.0252  0.8935
  730TMC3    H110794   2.454   2.706  16.932  1.1767 -0.7007 -0.3924
  730TMC3    H210795   2.474   2.850  17.326 -3.2929 -0.4308 -0.9920
  730TMC3    C710796   2.397   2.917  17.081 -0.5782 -0.5480  0.0595
  730TMC3    C810797   2.656   2.673  17.413  1.1181  0.5288 -0.8608
  730TMC3    O110798   2.402   2.927  16.960 -0.4331  0.0862  0.3959
  730TMC3    O210799   2.699   2.563  17.439 -0.0436 -0.3854 -0.2859
  731MPD2     C10800   2.671   1.653  11.692 -0.3021 -0.3074  0.6491
  731MPD2    C110801   2.764   1.550  11.728 -0.0399 -0.2528  0.5789
  731MPD2    C210802   2.744   1.479  11.845  1.1385  0.2268 -0.1799
  731MPD2    C310803   2.636   1.503  11.919  0.3590  1.0457  0.1794
  731MPD2    C410804   2.556   1.615  11.899  0.1272  0.3982  0.4363
  731MPD2    C510805   2.568   1.676  11.779 -0.5268  0.3716  0.0026
  731MPD2     H10806   2.805   1.392  11.867 -1.0651 -1.1330  0.6057
  731MPD2    H110807   2.479   1.646  11.968 -0.5600  0.5435 -0.4046
  731MPD2    H210808   2.686   1.707  11.599 -0.4301 -0.2531  0.6595
  731MPD2    H310809   2.508   1.763  11.757  1.4460  1.3722 -1.4999
  731MPD2     N10810   2.609   1.408  12.024  0.1191  1.3307  0.5299
  731MPD2    H510811   2.670   1.327  12.024 -0.2582  1.0425 -1.6453
  731MPD2    N110812   2.863   1.512  11.635  0.2183  0.1950 -0.3671
  731MPD2    H710813   2.849   1.547  11.541 -3.3797 -1.1650 -0.3147
  732TMC3    C110814   3.063   1.419  11.555 -0.1679  0.0451 -0.1364
  732TMC3    C210815   2.981   1.365  11.460  0.2271  0.9239 -0.2777
  732TMC3    C310816   3.036   1.259  11.384 -0.4977 -0.2112  0.7223
  732TMC3    C410817   3.180   1.363  11.584  0.3490 -0.2684  1.1321
  732TMC3    C510818   3.221   1.249  11.516  0.2157  0.3055  0.2400
  732TMC3    C610819   3.155   1.198  11.409  0.0323  0.2710  0.5866
  732TMC3     C10820   2.983   1.458  11.671 -0.3643  0.3708 -0.1301
  732TMC3     O10821   3.024   1.425  11.783  0.9267  0.4936  0.2170
  732TMC3     H10822   2.881   1.400  11.436 -0.7684 -3.0213 -1.7705
  732TMC3    H110823   3.236   1.402  11.668 -0.6383  2.9211  0.2877
  732TMC3    H210824   3.191   1.117  11.347  1.1010  0.9476  0.3197
  732TMC3    C710825   3.327   1.181  11.583 -0.1983  0.7730 -0.6402
  732TMC3    C810826   2.933   1.171  11.331 -0.0283 -0.1212 -0.9492
  732TMC3    O110827   3.339   1.185  11.706 -0.5518  0.2649  0.2888
  732TMC3    O210828   2.969   1.103  11.237 -0.0957  0.2260 -0.1285
  733TMC3    C110829   3.926   4.648  12.750 -0.0231 -0.3050 -0.4693
  733TMC3    C210830   4.027   4.636  12.839  0.0476  0.4533 -0.3055
  733TMC3    C310831   4.157   4.655  12.803  1.0523  0.3056 -0.2826
  733TMC3    C410832   3.957   4.687  12.623  0.0465 -0.3768 -0.5395
  733TMC3    C510833   4.092   4.702  12.589  0.5459  0.4985  0.2932
  733TMC3    C610834   4.197   4.688  12.677 -0.4027  0.2239  0.3246
  733TMC3     C10835   3.795   4.680  12.798 -0.0976 -0.5406  0.3648
  733TMC3     O10836   3.728   0.043  12.744 -0.1825  0.4910  0.1581
  733TMC3     H10837   4.013   4.614  12.944 -0.6749 -0.4287 -0.5798
  733TMC3    H110838   3.875   4.689  12.553  1.1617  0.9847 -1.8111
  733TMC3    H210839   4.287   0.020  12.651 -1.5894  2.3076  0.6409
  733TMC3    C710840   4.122   4.702  12.448  0.1357  0.3059 -0.1988
  733TMC3    C810841   4.260   4.681  12.903 -0.7138  0.0360  0.1309
  733TMC3    O110842   4.035   0.020  12.370  0.3598  0.4966 -0.0555
  733TMC3    O210843   4.229   4.683  13.019 -0.2597  0.1241 -0.5905
  734MPD2     C10844   1.522   2.483  12.024 -0.0740 -0.3460  0.4424
  734MPD2    C110845   1.457   2.394  11.944 -0.3391  0.3445  0.1854
  734MPD2    C210846   1.522   2.352  11.832 -0.1874 -0.1139 -0.0847
  734MPD2    C310847   1.644   2.391  11.795 -0.4753 -0.1948 -0.0542
  734MPD2    C410848   1.712   2.472  11.879 -0.4734 -0.0528 -0.0558
  734MPD2    C510849   1.653   2.521  11.992  0.6779  0.2597  0.4194
  734MPD2     H10850   1.472   2.283  11.765  0.0295  0.4381 -0.8158
  734MPD2    H110851   1.810   2.506  11.848 -0.6604  0.1174 -0.4678
  734MPD2    H210852   1.488   2.524  12.119  0.1064 -0.5784  0.6085
  734MPD2    H310853   1.710   2.590  12.054  0.0447  1.0936  0.0835
  734MPD2     N10854   1.701   2.331  11.681 -0.0284  0.4510  0.3796
  734MPD2    H510855   1.636   2.281  11.621  0.3660 -0.9699  1.1377
  734MPD2    N110856   1.338   2.325  11.992 -0.0214 -0.2351 -0.3328
  734MPD2    H710857   1.310   2.355  12.085 -0.7369  1.6632 -1.1436
  735TMC3    C110858   1.178   2.140  12.005  0.1885  0.3585 -0.3170
  735TMC3    C210859   1.108   2.057  11.919 -0.0463  0.4661  0.4184
  735TMC3    C310860   1.100   1.924  11.940 -0.0213 -0.5169  0.6434
  735TMC3    C410861   1.246   2.085  12.111 -0.6153 -0.1442 -0.0913
  735TMC3    C510862   1.231   1.953  12.138  0.2630  0.1477 -0.0258
  735TMC3    C610863   1.162   1.867  12.050  0.1231 -0.5010  0.5258
  735TMC3     C10864   1.272   2.219  11.929  0.5784 -0.1249  0.2402
  735TMC3     O10865   1.277   2.172  11.816 -0.4645 -0.2245 -0.3038
  735TMC3     H10866   1.050   2.100  11.838  1.6081  0.9102 -0.5458
  735TMC3    H110867   1.321   2.127  12.177 -1.8376 -0.4983  1.5003
  735TMC3    H210868   1.170   1.761  12.072 -0.0506 -1.1717 -2.6931
  735TMC3    C710869   1.341   1.893  12.210  0.6525 -0.0048  0.1777
  735TMC3    C810870   1.121   1.849  11.819 -0.0490  0.0328  0.6956
  735TMC3    O110871   1.448   1.946  12.194  0.3736  0.4647 -0.6851
  735TMC3    O210872   1.098   1.730  11.823 -0.0399 -0.3063 -0.0175
  736MPD2     C10873   1.327   1.557  12.371  0.6145  0.4631 -0.3856
  736MPD2    C110874   1.386   1.664  12.309  0.0374 -0.9383  0.2250
  736MPD2    C210875   1.514   1.654  12.252 -0.3271 -0.0495  0.2983
  736MPD2    C310876   1.586   1.530  12.254 -0.4632  0.2642  0.2119
  736MPD2    C410877   1.520   1.427  12.317 -0.9266 -0.2902  0.3033
  736MPD2    C510878   1.403   1.445  12.386  0.1679 -0.8399  0.2189
  736MPD2     H10879   1.555   1.735  12.192 -1.5920 -0.3341 -0.9770
  736MPD2    H110880   1.570   1.333  12.337  0.6415  0.2918 -0.9035
  736MPD2    H210881   1.224   1.557  12.406  0.3274  2.1676 -1.2279
  736MPD2    H310882   1.366   1.362  12.446 -3.3730  1.5617  1.3214
  736MPD2     N10883   1.709   1.512  12.189 -0.1467 -0.7218  0.0717
  736MPD2    H510884   1.739   1.415  12.178  0.9528 -0.3495 -0.1550
  736MPD2    N110885   1.300   1.770  12.270  0.4600 -0.5272  0.2509
  736MPD2    H710886   1.199   1.765  12.276  0.5054 -0.0606  1.3835
  737TMC3    C110887   1.880   1.593  12.036  0.1404 -0.2437  0.3615
  737TMC3    C210888   1.968   1.689  12.009 -0.1143 -0.1883 -0.2362
  737TMC3    C310889   2.043   1.689  11.893 -0.6774  0.4019  0.1983
  737TMC3    C410890   1.877   1.478  11.958  0.1679  0.3532 -0.4461
  737TMC3    C510891   1.954   1.484  11.843  0.3194  0.5327  0.2357
  737TMC3    C610892   2.042   1.583  11.809 -0.1376  0.3028 -0.3861
  737TMC3     C10893   1.791   1.618  12.148 -0.0581  0.8502 -0.0802
  737TMC3     O10894   1.791   1.731  12.190  0.4167  0.3371  0.8503
  737TMC3     H10895   1.956   1.787  12.054 -0.5799 -0.9731  1.3582
  737TMC3    H110896   1.803   1.402  11.981  1.4306  0.0595  2.6902
  737TMC3    H210897   2.109   1.576  11.723 -0.5989  1.7697 -0.8677
  737TMC3    C710898   1.939   1.362  11.757  0.1543 -0.0408 -0.3915
  737TMC3    C810899   2.088   1.821  11.855  0.0471  0.5112 -0.8621
  737TMC3    O110900   1.861   1.276  11.794 -0.2258 -0.5267  0.2935
  737TMC3    O210901   2.120   1.903  11.938  0.0474  0.5869  0.0985
  738MPD2     C10902   2.136   0.414  15.493  0.3264  0.3439  0.4042
  738MPD2    C110903   2.062   0.386  15.380 -0.2059  0.0432 -0.6094
  738MPD2    C210904   2.138   0.398  15.262 -0.5786 -0.1995 -0.0356
  738MPD2    C310905   2.268   0.441  15.247  0.1099  0.0263  0.7095
  738MPD2    C410906   2.329   0.488  15.359 -0.4728 -0.6276 -0.3194
  738MPD2    C510907   2.270   0.458  15.482  0.6756  0.4918 -0.0277
  738MPD2     H10908   2.089   0.360  15.173  1.2492 -0.3230 -1.0029
  738MPD2    H110909   2.434   0.513  15.357 -0.3945 -1.0382 -1.5973
  738MPD2    H210910   2.087   0.401  15.589  1.6947 -0.7080  0.9740
  738MPD2    H310911   2.329   0.479  15.570  0.8244  1.1692 -0.2917
  738MPD2     N10912   2.338   0.465  15.126 -0.8306  0.2897 -0.1569
  738MPD2    H510913   2.434   0.498  15.133 -0.2783 -1.3460  0.0765
  738MPD2    N110914   1.927   0.327  15.379 -0.0415  0.1755  0.1441
  738MPD2    H710915   1.872   0.327  15.294 -0.2595 -0.1512  0.2831
  739TMC3    C110916   2.380   0.457  14.886  0.4803  0.1673 -0.2780
  739TMC3    C210917   2.310   0.503  14.775  0.2653 -0.4648  0.2426
  739TMC3    C310918   2.374   0.542  14.664 -0.4660  0.0014 -0.2275
  739TMC3    C410919   2.516   0.451  14.896  0.0242 -0.5339 -0.3606
  739TMC3    C510920   2.576   0.503  14.788  0.2101  0.3250 -0.2108
  739TMC3    C610921   2.510   0.549  14.678 -0.3467  0.1685 -0.3072
  739TMC3     C10922   2.292   0.445  15.000 -0.8478  0.0747  0.3133
  739TMC3     O10923   2.191   0.381  14.976 -0.2170 -0.0243  0.4262
  739TMC3     H10924   2.202   0.506  14.768  0.5516  1.6010 -3.2557
  739TMC3    H110925   2.571   0.407  14.978 -0.3840 -2.4585 -1.1018
  739TMC3    H210926   2.580   0.557  14.596 -2.7895  1.0065 -2.2976
  739TMC3    C710927   2.715   0.475  14.765 -0.5455 -0.3932 -0.0159
  739TMC3    C810928   2.298   0.554  14.546 -1.1555 -0.2727 -0.5106
  739TMC3    O110929   2.769   0.526  14.667 -1.0534  1.0024  0.2645
  739TMC3    O210930   2.176   0.520  14.547 -0.0631  0.2803  0.6100
  740TMC3    C110931   2.663   1.774  14.016 -0.0422  0.0825  0.3319
  740TMC3    C210932   2.663   1.735  14.148 -0.7648  0.0294  0.9636
  740TMC3    C310933   2.767   1.659  14.190 -0.2182 -0.1357 -0.3409
  740TMC3    C410934   2.757   1.737  13.920 -0.5656 -0.3859 -0.4279
  740TMC3    C510935   2.863   1.668  13.966 -0.9803  0.1025  0.0949
  740TMC3    C610936   2.867   1.633  14.101 -0.7605  0.5563 -0.6438
  740TMC3     C10937   2.545   1.839  13.955  0.1815 -0.4229 -1.5112
  740TMC3     O10938   2.557   1.877  13.843 -0.1551  0.4436  0.4748
  740TMC3     H10939   2.577   1.764  14.208 -0.0310  2.1716  0.9663
  740TMC3    H110940   2.731   1.751  13.816 -1.2713 -3.4637 -0.6611
  740TMC3    H210941   2.953   1.572  14.128 -0.2571  2.0128  1.0440
  740TMC3    C710942   2.940   1.589  13.879  0.1861  0.0713 -0.0416
  740TMC3    C810943   2.759   1.609  14.321  0.6169  0.0280  0.4594
  740TMC3    O110944   2.984   1.481  13.915 -0.4246  1.2797  0.4839
  740TMC3    O210945   2.858   1.556  14.370 -0.0965 -0.4670  0.2522
  741TMC3    C110946   1.863   1.390  13.674 -1.3351  0.1782  0.0327
  741TMC3    C210947   1.819   1.373  13.802 -0.3135 -0.8967 -0.1016
  741TMC3    C310948   1.867   1.268  13.879  0.2361 -0.0153  0.5596
  741TMC3    C410949   1.966   1.325  13.617 -0.0266 -0.0616 -0.1873
  741TMC3    C510950   2.006   1.219  13.691  0.5400  0.1554  0.1943
  741TMC3    C610951   1.954   1.186  13.814  0.2230 -0.2242 -0.4334
  741TMC3     C10952   1.769   1.452  13.578 -0.4793  0.1906 -0.1177
  741TMC3     O10953   1.813   1.492  13.477  0.2750  0.3584  0.1897
  741TMC3     H10954   1.758   1.446  13.853 -0.9126 -1.9360  0.6452
  741TMC3    H110955   1.980   1.333  13.510  0.6302  2.3283  0.0864
  741TMC3    H210956   1.997   1.098  13.861  1.2497 -0.1840 -1.3014
  741TMC3    C710957   2.096   1.119  13.627  0.2643  0.7695 -0.7065
  741TMC3    C810958   1.763   1.211  13.970  0.4751  0.2216  0.4591
  741TMC3    O110959   2.125   1.016  13.682  0.2615  0.2452  1.0642
  741TMC3    O210960   1.655   1.262  13.960 -0.7225  0.4967  0.2829
  742TMC3    C110961   1.732   4.416  15.412 -0.3170  0.3784  0.3574
  742TMC3    C210962   1.650   4.382  15.305  0.9208  0.3890  0.4015
  742TMC3    C310963   1.709   4.287  15.225  0.1426  0.2143  0.3066
  742TMC3    C410964   1.840   4.339  15.456  0.1806  0.0093  1.0541
  742TMC3    C510965   1.878   4.240  15.380 -0.0806  0.6079  0.3540
  742TMC3    C610966   1.820   4.213  15.265  0.5425 -0.0496  0.0882
  742TMC3     C10967   1.699   4.533  15.485 -0.3855  0.1068  0.1816
  742TMC3     O10968   1.577   4.558  15.489  0.3982  0.0774  0.8381
  742TMC3     H10969   1.579   4.455  15.269 -1.9646 -0.9440  3.3429
  742TMC3    H110970   1.895   4.350  15.549  3.1363  0.5812 -0.7571
  742TMC3    H210971   1.862   4.136  15.202  1.0188  0.2721  0.0210
  742TMC3    C710972   1.990   4.154  15.413  0.2536 -0.0009 -0.1621
  742TMC3    C810973   1.657   4.246  15.091 -0.3898 -0.0527  0.2772
  742TMC3    O110974   1.999   4.048  15.354  0.4029  0.2041 -0.0345
  742TMC3    O210975   1.734   4.185  15.023 -0.1134 -0.6637 -0.2285
  743MPD2     C10976   0.210   4.305   1.604  0.6257 -1.0076  0.3477
  743MPD2    C110977   0.259   4.408   1.526 -0.2080 -0.3819  0.0174
  743MPD2    C210978   0.401   4.424   1.522 -0.4456 -0.5729  0.5556
  743MPD2    C310979   0.486   4.360   1.606 -0.1228 -0.8793  0.0137
  743MPD2    C410980   0.435   4.264   1.686  0.3864  0.2309  0.3299
  743MPD2    C510981   0.301   4.229   1.677 -0.5979 -0.0985 -0.2290
  743MPD2     H10982   0.440   4.507   1.465 -0.8785 -0.1037  0.9523
  743MPD2    H110983   0.500   4.209   1.753  0.1659  0.1953  0.5149
  743MPD2    H210984   0.102   4.291   1.613  0.8257 -1.3602  2.2133
  743MPD2    H310985   0.260   4.153   1.743 -0.7596 -0.3392 -0.6019
  743MPD2     N10986   0.629   4.405   1.614  0.6438  0.4152  0.1956
  743MPD2    H510987   0.650   4.480   1.549 -0.7059  1.2110  0.6846
  743MPD2    N110988   0.165   4.495   1.463 -0.0071 -0.0702  0.0938
  743MPD2    H710989   0.067   4.488   1.487 -0.2847 -0.0969 -1.0429
  744TMC3    C110990   0.079   4.685   1.354  0.1728  0.6704 -0.6030
  744TMC3    C210991   4.707   4.706   1.451 -0.1599 -0.0447 -1.0240
  744TMC3    C310992   4.585   0.019   1.416  0.2723  0.3045 -0.0893
  744TMC3    C410993   0.049   4.704   1.219  0.0195  0.4546  0.4594
  744TMC3    C510994   4.640   0.023   1.186 -0.3339  0.0527  0.1911
  744TMC3    C610995   4.551   0.037   1.287  0.2511 -0.0579  0.4638
  744TMC3     C10996   0.199   4.598   1.381  0.4250  0.0939 -0.4298
  744TMC3     O10997   0.298   4.613   1.316 -0.7425  0.1283  0.0979
  744TMC3     H10998   4.723   4.682   1.555 -0.6495 -0.0585 -0.9506
  744TMC3    H110999   0.120   4.684   1.140  0.2408  0.7716  0.5758
  744TMC3    H211000   4.453   0.078   1.267  0.8284  1.3240  0.4750
  744TMC3    C711001   4.596   0.023   1.049  0.2145  0.5377 -0.5423
  744TMC3    C811002   4.486   0.058   1.517  0.6334 -0.0232  0.0642
  744TMC3    O111003   4.471   0.017   1.036  0.4902  0.2914 -0.9913
  744TMC3    O211004   4.504   0.005   1.624  0.0874  0.3117  0.0734
  745TMC3    C111005   2.603   3.983  12.944  0.6202  0.0045 -0.5848
  745TMC3    C211006   2.512   3.891  12.910  0.5406 -0.3109 -0.4464
  745TMC3    C311007   2.398   3.931  12.851 -0.4644  0.0755  0.0555
  745TMC3    C411008   2.580   4.118  12.919 -0.4581  0.3204  0.2439
  745TMC3    C511009   2.460   4.156  12.875  0.1883  0.0105  0.2598
  745TMC3    C611010   2.365   4.066  12.842  0.3081 -0.4199 -0.3115
  745TMC3     C11011   2.670   3.947  13.064  1.0468 -0.4142 -1.0828
  745TMC3     O11012   2.696   3.827  13.080  0.5269  0.0531 -0.5908
  745TMC3     H11013   2.523   3.784  12.924 -0.9358 -0.0765  2.5884
  745TMC3    H111014   2.654   4.194  12.939 -0.7749 -0.0641  2.8256
  745TMC3    H211015   2.276   4.104  12.793 -0.6917 -1.5674  0.6124
  745TMC3    C711016   2.422   4.296  12.878  0.6162 -0.5456 -0.7862
  745TMC3    C811017   2.291   3.860  12.910 -0.0895 -0.6313 -0.2924
  745TMC3    O111018   2.303   4.314  12.871 -0.2512 -0.2702 -0.2066
  745TMC3    O211019   2.260   3.742  12.886 -0.5022 -0.3025 -0.3875
  746TMC3    C111020   0.234   1.238  10.968  0.0110 -0.1567 -0.5460
  746TMC3    C211021   0.342   1.180  10.896  0.0675 -0.0739 -0.2095
  746TMC3    C311022   0.304   1.065  10.819 -0.0544  0.0451 -0.5937
  746TMC3    C411023   0.105   1.199  10.965 -0.1828 -0.0415 -0.3126
  746TMC3    C511024   0.080   1.078  10.902 -0.3398  0.1100  0.2304
  746TMC3    C611025   0.182   1.002  10.842 -0.2793  0.1167  0.1861
  746TMC3     C11026   0.250   1.370  11.019 -0.9101  0.0099 -0.7370
  746TMC3     O11027   0.165   1.449  10.987  0.5904 -0.0406  0.3757
  746TMC3     H11028   0.432   1.234  10.869  0.2831 -1.8204 -2.9847
  746TMC3    H111029   0.026   1.261  11.006  0.4166  0.0918  0.6483
  746TMC3    H211030   0.164   0.906  10.795 -0.5361 -0.4731  1.4931
  746TMC3    C711031   4.669   1.023  10.882 -0.3695  0.0970 -0.1023
  746TMC3    C811032   0.389   1.018  10.720  0.0738  0.7241 -0.4846
  746TMC3    O111033   4.668   0.917  10.821  0.1064  0.4430 -1.3132
  746TMC3    O211034   0.384   0.903  10.691  0.1551  0.2169  0.2589
  747TMC3    C111035   2.462   1.239  10.845  0.5872  0.5319 -0.3349
  747TMC3    C211036   2.362   1.173  10.922 -0.6664 -0.5208  0.0256
  747TMC3    C311037   2.358   1.196  11.056 -0.1404 -0.0689  1.0879
  747TMC3    C411038   2.563   1.318  10.904  0.7157 -0.9592  0.5138
  747TMC3    C511039   2.559   1.323  11.044  0.3672 -0.5534 -0.2469
  747TMC3    C611040   2.455   1.275  11.117 -0.0513  0.0580  0.1968
  747TMC3     C11041   2.452   1.257  10.701  0.4512  0.5511 -0.2225
  747TMC3     O11042   2.553   1.310  10.647 -0.1953 -0.2456  0.2826
  747TMC3     H11043   2.288   1.103  10.886 -0.3076 -0.8740 -0.0248
  747TMC3    H111044   2.637   1.369  10.843 -2.0466 -0.1639 -2.1306
  747TMC3    H211045   2.460   1.280  11.225 -1.5146  0.0586  0.2752
  747TMC3    C711046   2.669   1.384  11.112 -0.3441 -0.2869  0.4681
  747TMC3    C811047   2.241   1.147  11.132  0.1853  0.0073  0.0050
  747TMC3    O111048   2.648   1.446  11.215  0.5267  0.0483 -0.1463
  747TMC3    O211049   2.170   1.052  11.097 -0.2088  0.7591 -0.1053
  748MPD2     C11050   3.815   1.053   1.822 -0.6150  0.5917  0.7722
  748MPD2    C111051   3.802   1.185   1.790  0.3297 -0.4775 -0.0201
  748MPD2    C211052   3.921   1.243   1.764  0.3153  0.0941 -0.0578
  748MPD2    C311053   4.048   1.183   1.756  0.5473  0.2569 -0.4435
  748MPD2    C411054   4.054   1.050   1.792  0.1096 -0.6417  0.0002
  748MPD2    C511055   3.938   0.986   1.822  0.3718 -0.2257 -0.5437
  748MPD2     H11056   3.922   1.349   1.741 -0.5243 -0.4199 -2.4634
  748MPD2    H111057   4.140   0.987   1.776  0.7594 -0.1619  1.6167
  748MPD2    H211058   3.737   0.980   1.840 -0.9304  0.4461 -1.1967
  748MPD2    H311059   3.935   0.879   1.841 -1.6902  0.1823  1.4196
  748MPD2     N11060   4.164   1.249   1.709 -0.8244  0.0183  0.5153
  748MPD2    H511061   4.153   1.342   1.670 -1.3749 -0.5921 -0.7835
  748MPD2    N111062   3.685   1.266   1.793 -0.6430 -0.3094  0.3378
  748MPD2    H711063   3.692   1.365   1.769  0.9340 -0.7967 -1.1700
  749TMC3    C111064   4.390   1.295   1.653 -0.4828 -0.1994 -0.4047
  749TMC3    C211065   4.515   1.288   1.703 -0.3365 -0.0056  0.0255
  749TMC3    C311066   4.595   1.398   1.694 -0.0984 -0.8033 -0.3027
  749TMC3    C411067   4.351   1.402   1.581 -0.1365  0.6995  0.8112
  749TMC3    C511068   4.436   1.508   1.566 -0.3068 -0.9825  0.6960
  749TMC3    C611069   4.560   1.514   1.626  0.3271  0.5560  1.2032
  749TMC3     C11070   4.295   1.197   1.701 -0.0797 -0.8251 -0.4872
  749TMC3     O11071   4.341   1.091   1.732 -1.0469  0.1643 -0.1165
  749TMC3     H11072   4.547   1.197   1.753  1.2120  1.0806  1.0157
  749TMC3    H111073   4.258   1.410   1.527 -0.4720  0.9204  1.4183
  749TMC3    H211074   4.631   1.595   1.618  2.7488 -1.4457  2.2246
  749TMC3    C711075   4.413   1.611   1.471 -0.0275  1.0746 -0.3751
  749TMC3    C811076   0.010   1.394   1.742 -0.2467 -0.1472  0.3238
  749TMC3    O111077   4.515   1.666   1.435  0.4263  0.4601  0.0972
  749TMC3    O211078   0.054   1.483   1.814 -0.4052 -0.1707 -0.4177
  750MPD2     C11079   0.921   3.056  11.385 -0.1809 -0.2937 -0.1436
  750MPD2    C111080   0.798   3.000  11.393 -0.5104 -0.1745  0.9664
  750MPD2    C211081   0.761   2.912  11.293 -0.0401 -1.1457 -0.1492
  750MPD2    C311082   0.844   2.881  11.184  0.1589 -1.0683  0.3490
  750MPD2    C411083   0.971   2.928  11.187  0.0896  0.1893 -0.6762
  750MPD2    C511084   1.007   3.015  11.289  0.2133  0.1751  0.7199
  750MPD2     H11085   0.664   2.865  11.296  0.3419 -1.8864  0.5424
  750MPD2    H111086   1.038   2.905  11.105 -1.3377  1.9036 -2.3433
  750MPD2    H211087   0.957   3.128  11.457  1.0137  0.7024 -1.7445
  750MPD2    H311088   1.108   3.053  11.283  0.0526  0.7788  1.9085
  750MPD2     N11089   0.807   2.794  11.072 -0.0394  0.1279  0.3420
  750MPD2    H511090   0.888   2.757  11.023  1.4513  4.3967 -0.3559
  750MPD2    N111091   0.711   3.045  11.495  0.7172  0.1906  0.1029
  750MPD2    H711092   0.747   3.095  11.575  1.6548  2.6216 -1.8638
  751TMC3    C111093   0.658   2.669  10.935  0.0792 -0.2768  0.3233
  751TMC3    C211094   0.544   2.597  10.935 -0.6445 -0.4954 -0.6446
  751TMC3    C311095   0.513   2.529  10.819  0.5826 -0.3665  0.3573
  751TMC3    C411096   0.742   2.683  10.822 -0.4848 -0.3340 -0.2945
  751TMC3    C511097   0.707   2.608  10.709 -0.0219 -0.0563  0.1552
  751TMC3    C611098   0.588   2.530  10.703  0.4458  0.0292  1.1124
  751TMC3     C11099   0.677   2.749  11.051 -0.1202 -0.6185 -0.4824
  751TMC3     O11100   0.570   2.780  11.105  0.4999 -0.4518  0.7763
  751TMC3     H11101   0.483   2.585  11.024  1.2606 -1.4837  0.5186
  751TMC3    H111102   0.823   2.754  10.820  0.2205 -1.1135  0.7655
  751TMC3    H211103   0.564   2.464  10.621  1.2928  3.0004 -1.5629
  751TMC3    C711104   0.781   2.633  10.586  0.4336  0.2217 -0.1947
  751TMC3    C811105   0.380   2.473  10.798  0.5249  1.0221 -0.6126
  751TMC3    O111106   0.894   2.677  10.585  0.0689  0.4689 -0.0729
  751TMC3    O211107   0.369   2.397  10.704  0.0820  0.0024  0.0556
  752TMC3    C111108   3.751   2.400  17.527 -0.6481  0.6486  0.1058
  752TMC3    C211109   3.680   2.488  17.605 -1.1190  0.2717  0.1135
  752TMC3    C311110   3.658   2.468   0.036 -0.0960 -1.7319  0.2745
  752TMC3    C411111   3.822   2.296  17.588  0.4624 -0.2874 -0.2970
  752TMC3    C511112   3.796   2.275   0.031 -0.4429 -0.0898  0.0023
  752TMC3    C611113   3.712   2.357   0.098  0.3289  0.0138  0.2816
  752TMC3     C11114   3.799   2.446  17.394  0.6796 -0.3440  0.6267
  752TMC3     O11115   3.907   2.398  17.362 -0.5548 -0.8460 -0.9881
  752TMC3     H11116   3.639   2.582  17.571 -1.2683  0.1399 -0.0680
  752TMC3    H111117   3.900   2.237  17.540 -0.3867 -2.0543  0.5040
  752TMC3    H211118   3.704   2.357   0.206  1.2741 -0.0968  0.3459
  752TMC3    C711119   3.813   2.139   0.074  0.4511 -0.1570  0.2232
  752TMC3    C811120   3.573   2.560   0.110  0.0793 -0.2820 -0.3927
  752TMC3    O111121   3.832   2.050  17.690 -0.1932 -0.0544  0.1557
  752TMC3    O211122   3.580   2.554   0.231 -0.6824  0.3574 -0.5848
  753TMC3    C111123   0.654   4.295  13.635 -0.2711  0.1276  0.0086
  753TMC3    C211124   0.698   4.269  13.765  0.1440 -0.2829  0.5474
  753TMC3    C311125   0.696   4.137  13.799 -0.2813 -0.3355  0.0372
  753TMC3    C411126   0.608   4.196  13.551 -0.7079 -0.1776 -0.0034
  753TMC3    C511127   0.605   4.065  13.593 -0.2780 -0.2022  0.2785
  753TMC3    C611128   0.653   4.032  13.713 -0.3220  0.3527 -0.1883
  753TMC3     C11129   0.645   4.431  13.591  0.3794  0.1836 -0.4216
  753TMC3     O11130   0.563   4.455  13.505 -0.0310  0.1809 -0.8539
  753TMC3     H11131   0.706   4.341  13.846  0.8105 -1.4260  1.4900
  753TMC3    H111132   0.552   4.217  13.460  1.2085  0.3890 -1.0525
  753TMC3    H211133   0.674   3.930  13.742  0.5996  0.3036 -1.0420
  753TMC3    C711134   0.605   3.966  13.492  0.0755 -0.6648  0.0664
  753TMC3    C811135   0.776   4.091  13.911  0.7776  0.2688  0.6653
  753TMC3    O111136   0.626   4.000  13.376 -0.1752 -0.0728 -0.0387
  753TMC3    O211137   0.784   3.969  13.920  0.0347  0.2369  0.1998
  754MPD2     C11138   4.719   2.587  13.072  0.4623  0.3892 -0.0024
  754MPD2    C111139   4.700   2.455  13.049 -0.4483 -0.2706 -0.0286
  754MPD2    C211140   4.577   2.398  13.063 -0.1105 -0.1818 -0.4609
  754MPD2    C311141   4.465   2.473  13.101  0.3681 -0.6237 -0.2188
  754MPD2    C411142   4.485   2.608  13.116  0.4376 -0.3126 -0.4412
  754MPD2    C511143   4.615   2.660  13.110  0.0636 -0.3535 -0.3181
  754MPD2     H11144   4.564   2.291  13.053 -0.0128 -0.2269 -0.1160
  754MPD2    H111145   4.407   2.677  13.143  0.3397 -0.4635 -0.3401
  754MPD2    H211146   0.089   2.633  13.043 -0.9276  0.6594 -4.0715
  754MPD2    H311147   4.627   2.764  13.139  0.7570 -0.5125 -0.0210
  754MPD2     N11148   4.338   2.415  13.119  0.1496  0.7430 -0.0709
  754MPD2    H511149   4.263   2.478  13.147  0.1898 -0.2766  2.2571
  754MPD2    N111150   0.095   2.380  13.029  0.4071 -0.3316 -0.4291
  754MPD2    H711151   0.178   2.435  13.008  1.8473 -1.5007  2.2773
  755MPD2     C11152   3.783   2.793  13.602 -0.0116  0.6472  0.0637
  755MPD2    C111153   3.704   2.702  13.551  0.2695 -0.0952  0.0129
  755MPD2    C211154   3.762   2.595  13.485  0.6126  0.1630  0.1478
  755MPD2    C311155   3.903   2.581  13.464  0.2929 -0.6228  0.1526
  755MPD2    C411156   3.979   2.688  13.512 -0.3780 -0.9912  0.1788
  755MPD2    C511157   3.916   2.783  13.586 -1.1116  0.7899 -0.7176
  755MPD2     H11158   3.694   2.515  13.459  1.2045 -0.5254  0.7166
  755MPD2    H111159   4.088   2.689  13.511 -0.4257  1.5555 -0.7719
  755MPD2    H211160   3.747   2.877  13.659 -1.6347 -1.2284  1.8206
  755MPD2    H311161   3.985   2.846  13.640 -1.7236  0.6971  0.1716
  755MPD2     N11162   3.963   2.472  13.402 -1.1754 -1.0635  0.2131
  755MPD2    H511163   4.062   2.487  13.385 -1.2284 -2.3938 -1.2745
  755MPD2    N111164   3.566   2.705  13.553 -0.2358 -0.2415  0.7504
  755MPD2    H711165   3.520   2.644  13.486 -1.2737  0.5979  0.6959
  756MPD2     C11166   0.199   3.502   9.859 -0.1779  0.5296 -0.6844
  756MPD2    C111167   0.142   3.459   9.973  0.6182  0.2989  0.0330
  756MPD2    C211168   0.011   3.496   9.999 -0.3583 -0.1319 -0.2206
  756MPD2    C311169   4.666   3.580   9.912 -0.7574  0.6627 -0.1864
  756MPD2    C411170   0.004   3.631   9.805  0.4695  0.3056 -0.0252
  756MPD2    C511171   0.132   3.589   9.784 -0.2416  0.6834 -0.0734
  756MPD2     H11172   4.688   3.452  10.085  0.3141  0.4682  0.4528
  756MPD2    H111173   4.677   3.694   9.733  0.3651  0.4095  0.1388
  756MPD2    H211174   0.298   3.469   9.832 -0.8021  0.1314 -2.4960
  756MPD2    H311175   0.174   3.613   9.687 -0.5362 -2.4178 -0.9693
  756MPD2     N11176   4.534   3.612   9.957  0.1369  0.0558  0.0531
  756MPD2    H511177   4.493   3.565  10.038 -0.4281  0.0964 -0.2127
  756MPD2    N111178   0.211   3.372  10.067  0.1019 -0.0902 -0.7640
  756MPD2    H711179   0.160   3.369  10.154  1.5250 -1.7670  0.0239
  757MPD2     C11180   4.029   2.930   9.942 -1.0512 -0.4006 -0.5674
  757MPD2    C111181   4.164   2.958   9.930  0.0331  0.5621  0.1698
  757MPD2    C211182   4.207   3.081   9.971 -0.2210  0.0694  0.1139
  757MPD2    C311183   4.113   3.179  10.001  0.3879 -0.2083 -0.1532
  757MPD2    C411184   3.980   3.146  10.014  0.1221  0.4668  0.5380
  757MPD2    C511185   3.946   3.023   9.978  0.4190  0.1022  0.1582
  757MPD2     H11186   4.311   3.109   9.961  0.3327 -1.0683  2.6105
  757MPD2    H111187   3.900   3.217  10.031  0.4165  0.6578  1.1573
  757MPD2    H211188   3.981   2.834   9.927 -1.6884 -0.0425 -0.8524
  757MPD2    H311189   3.841   2.997   9.980  0.6713 -0.9329 -0.0613
  757MPD2     N11190   4.173   3.307  10.035 -0.1597  1.1648  0.6074
  757MPD2    H511191   4.268   3.314  10.002 -0.5517  0.2768 -0.7205
  757MPD2    N111192   4.245   2.846   9.884 -0.2446  0.3063  0.4348
  757MPD2    H711193   4.207   2.756   9.856  1.1149 -1.0143  2.7933
  758MPD2     C11194   3.973   2.812  15.963 -0.0477  1.0370  0.3195
  758MPD2    C111195   4.066   2.718  15.995  0.4108 -0.7981 -0.3962
  758MPD2    C211196   4.061   2.661  16.121 -0.1038 -0.0709 -0.1911
  758MPD2    C311197   3.967   2.697  16.219 -0.0032 -0.8185  0.9231
  758MPD2    C411198   3.860   2.772  16.175  0.3765 -0.3075  0.3543
  758MPD2    C511199   3.873   2.843  16.059 -0.6331  0.3953 -0.0154
  758MPD2     H11200   4.141   2.594  16.152 -1.0630 -1.0333  0.1720
  758MPD2    H111201   3.772   2.785  16.236 -1.0560 -1.5438 -1.4468
  758MPD2    H211202   3.954   2.852  15.864  0.5910 -1.2022 -0.6957
  758MPD2    H311203   3.804   2.921  16.031 -2.0739 -0.8736 -0.0209
  758MPD2     N11204   3.971   2.646  16.351 -0.0671  0.1493 -0.0554
  758MPD2    H511205   3.895   2.674  16.413  0.1465  0.2972  0.1404
  758MPD2    N111206   4.164   2.690  15.904 -0.1477  0.6367  0.1518
  758MPD2    H711207   4.163   2.737  15.814 -0.5351  0.8492  0.2695
  759MPD2     C11208   4.265   0.099   9.780 -0.3958  0.8777  0.0045
  759MPD2    C111209   4.178   0.168   9.704  0.0534  0.1921  0.3136
  759MPD2    C211210   4.198   0.302   9.686  0.4178  0.0877 -0.0054
  759MPD2    C311211   4.294   0.372   9.759 -0.3417  0.4344 -1.1260
  759MPD2    C411212   4.384   0.300   9.840  0.5437  0.2236  0.4889
  759MPD2    C511213   4.368   0.166   9.840  0.8150 -0.5095 -0.3427
  759MPD2     H11214   4.128   0.351   9.619  1.8239  1.4401 -0.4836
  759MPD2    H111215   4.467   0.343   9.894  1.2450  0.7691 -1.0158
  759MPD2    H211216   4.253   4.717   9.799 -2.9030  1.2762  0.6841
  759MPD2    H311217   4.426   0.102   9.906 -0.1079 -0.3887  0.5947
  759MPD2     N11218   4.320   0.509   9.752 -0.4800 -0.0787  0.2113
  759MPD2    H511219   4.380   0.547   9.824  1.2563 -1.8285 -0.3050
  759MPD2    N111220   4.076   0.099   9.635 -0.0310 -0.3362  0.1076
  759MPD2    H711221   4.020   0.152   9.568  2.6790  2.4297  0.0769
  760MPD2     C11222   2.863   2.757  12.086  0.4448 -0.0192 -0.1567
  760MPD2    C111223   2.984   2.743  12.020  1.0666 -0.1062 -0.3990
  760MPD2    C211224   3.010   2.621  11.954 -0.6262 -0.0382 -0.2944
  760MPD2    C311225   2.917   2.522  11.957  0.8609  0.4955  0.6090
  760MPD2    C411226   2.796   2.539  12.023 -0.2532 -0.1977  0.2968
  760MPD2    C511227   2.772   2.657  12.089  0.0494 -0.6439 -0.4274
  760MPD2     H11228   3.110   2.605  11.918 -0.3879  0.6344  0.0652
  760MPD2    H111229   2.729   2.454  12.025  0.3984 -0.7266 -0.3499
  760MPD2    H211230   2.852   2.850  12.141  0.8684  0.5473 -1.0125
  760MPD2    H311231   2.678   2.668  12.141 -0.5675 -2.6578 -1.0999
  760MPD2     N11232   2.940   2.390  11.901 -0.3522 -0.0803 -0.6038
  760MPD2    H511233   2.869   2.318  11.915 -0.2494 -0.3157 -1.3053
  760MPD2    N111234   3.080   2.848  12.006 -0.1368 -0.2271 -0.3373
  760MPD2    H711235   3.142   2.836  11.926 -0.9583  1.7362 -1.2651
  761MPD2     C11236   4.625   2.346  10.940  0.1184  0.4127 -0.0526
  761MPD2    C111237   0.010   2.273  10.882  0.2896  0.4642 -0.5194
  761MPD2    C211238   0.136   2.328  10.867  0.4835  0.2302 -0.1142
  761MPD2    C311239   0.156   2.456  10.901 -0.0714  0.9684 -0.3017
  761MPD2    C411240   0.062   2.523  10.974 -0.6921 -0.1498 -0.3606
  761MPD2    C511241   4.660   2.465  10.998  0.0626 -0.3114  0.4451
  761MPD2     H11242   0.217   2.276  10.818  0.9052  1.9123 -1.2053
  761MPD2    H111243   0.083   2.623  11.010 -0.7224 -0.3131  0.1173
  761MPD2    H211244   4.522   2.311  10.942  0.2405 -0.0387 -1.9888
  761MPD2    H311245   4.588   2.524  11.054 -0.9155  0.9926 -2.1578
  761MPD2     N11246   0.279   2.528  10.880 -0.0950 -0.6910 -0.5502
  761MPD2    H511247   0.291   2.619  10.923 -1.3425  0.2240 -2.1553
  761MPD2    N111248   4.697   2.152  10.821 -0.7770 -0.1347 -0.0832
  761MPD2    H711249   4.602   2.117  10.822 -0.4101 -1.2175 -2.5769
  762MPD2     C11250   0.096   1.861  10.106 -0.3613  0.5943  0.1254
  762MPD2    C111251   0.157   1.795  10.210 -0.2202 -0.3447  0.1899
  762MPD2    C211252   0.281   1.734  10.198 -0.4374 -0.4115  1.0582
  762MPD2    C311253   0.363   1.772  10.093 -0.1398  0.4055 -0.3143
  762MPD2    C411254   0.314   1.840   9.988  0.1919 -0.6173 -0.2061
  762MPD2    C511255   0.180   1.870   9.985 -0.3766  0.6448 -0.4242
  762MPD2     H11256   0.314   1.665  10.275 -2.2700  0.7960  2.9263
  762MPD2    H111257   0.370   1.876   9.903 -1.5610  1.6010 -0.4483
  762MPD2    H211258   4.717   1.895  10.098 -0.4465  0.4451  0.6177
  762MPD2    H311259   0.136   1.915   9.897 -3.0358 -0.5730  0.2500
  762MPD2     N11260   0.491   1.712  10.093  0.1661 -0.0689 -0.0070
  762MPD2    H511261   0.515   1.647  10.167  0.7172 -0.6244 -0.6799
  762MPD2    N111262   0.087   1.786  10.340  0.3860  0.1233  0.4971
  762MPD2    H711263   0.145   1.732  10.404 -1.9751 -3.5060 -0.4143
  763MPD2     C11264   1.191   1.998  15.792 -0.1114  0.3143 -0.4001
  763MPD2    C111265   1.220   2.132  15.776  0.3357  0.3191  0.8173
  763MPD2    C211266   1.257   2.205  15.886 -0.7095 -0.2862  0.6963
  763MPD2    C311267   1.289   2.139  16.010  0.1800  0.2173 -0.2043
  763MPD2    C411268   1.276   1.998  16.019 -0.5766 -0.3021  0.3515
  763MPD2    C511269   1.223   1.931  15.907 -0.3566  0.7693 -0.4604
  763MPD2     H11270   1.246   2.312  15.879  0.8838 -0.4254 -3.7875
  763MPD2    H111271   1.303   1.942  16.107  1.3112  3.9218  2.4558
  763MPD2    H211272   1.154   1.934  15.713 -1.1480  2.1020 -1.3429
  763MPD2    H311273   1.211   1.825  15.887  2.9652  0.6415 -1.9278
  763MPD2     N11274   1.335   2.218  16.123  0.1736 -0.5624 -0.0537
  763MPD2    H511275   1.361   2.168  16.207  2.0665  0.3264 -0.1049
  763MPD2    N111276   1.211   2.197  15.651  0.5852  0.2995 -0.3670
  763MPD2    H711277   1.242   2.294  15.649 -0.3767  0.6491  0.9639
  764MPD2     C11278   3.720   3.627   0.098  0.3411 -1.1741  0.4398
  764MPD2    C111279   3.622   3.577   0.178 -0.4654 -0.1939 -0.0061
  764MPD2    C211280   3.638   3.597   0.313 -0.2120 -0.2279  0.4470
  764MPD2    C311281   3.746   3.671   0.362 -0.4905  0.1924 -0.8176
  764MPD2    C411282   3.835   3.729   0.272 -0.7208 -0.4406  0.3731
  764MPD2    C511283   3.814   3.716   0.143 -0.3377  0.0488 -0.7662
  764MPD2     H11284   3.563   3.559   0.381 -0.7282 -0.8208 -0.4554
  764MPD2    H111285   3.924   3.783   0.302 -0.7659  0.0122 -0.3148
  764MPD2    H211286   3.717   3.616  17.687 -2.1739  0.9179  0.2822
  764MPD2    H311287   3.889   3.764   0.082 -1.4997  1.1864 -1.3002
  764MPD2     N11288   3.767   3.676   0.504 -0.2041  0.2688 -0.1487
  764MPD2    H511289   3.713   3.620   0.569 -1.0746  0.4463 -0.7122
  764MPD2    N111290   3.520   3.486   0.138  0.2829 -0.5198  0.3768
  764MPD2    H711291   3.480   3.434   0.215  1.5598  1.2111  2.2070
  765MPD2     C11292   3.433   1.590  16.227 -0.2067 -0.3975 -0.3902
  765MPD2    C111293   3.503   1.682  16.155  0.7439 -0.0538 -0.0497
  765MPD2    C211294   3.631   1.654  16.109  0.0909  0.0261 -0.1402
  765MPD2    C311295   3.697   1.540  16.146 -0.3040 -1.3567 -0.1540
  765MPD2    C411296   3.635   1.457  16.232  0.0550 -0.0896  0.6649
  765MPD2    C511297   3.500   1.475  16.261 -0.5632 -0.0809 -0.3792
  765MPD2     H11298   3.677   1.723  16.039  0.9963 -1.0832 -0.6447
  765MPD2    H111299   3.681   1.364  16.266 -0.8996  0.0126  2.2189
  765MPD2    H211300   3.332   1.612  16.259  0.2683  1.6689 -0.3272
  765MPD2    H311301   3.455   1.394  16.317 -2.4160  1.2878  0.1380
  765MPD2     N11302   3.834   1.533  16.108  1.3679  0.9279  0.6340
  765MPD2    H511303   3.860   1.611  16.047  2.3836  1.2021  1.4306
  765MPD2    N111304   3.444   1.806  16.123  0.4380  0.7594 -0.2504
  765MPD2    H711305   3.347   1.825  16.144  0.4366 -0.7595  1.1360
  766MPD2     C11306   3.097   1.942  15.523 -0.2672 -0.4919  0.4404
  766MPD2    C111307   3.214   2.010  15.534 -0.6874  0.3267 -0.7099
  766MPD2    C211308   3.305   2.012  15.429 -0.3611  0.5543 -0.1585
  766MPD2    C311309   3.271   1.950  15.304  0.3623 -0.5103  0.6596
  766MPD2    C411310   3.146   1.892  15.291 -0.0910  1.1597 -0.2734
  766MPD2    C511311   3.064   1.885  15.407  0.4078 -0.1407  0.1904
  766MPD2     H11312   3.402   2.051  15.456  0.7608 -0.8730 -2.1599
  766MPD2    H111313   3.105   1.852  15.199  0.2538  1.4676 -0.5639
  766MPD2    H211314   3.024   1.927  15.602 -1.3463 -1.2122 -0.6736
  766MPD2    H311315   2.967   1.837  15.407  0.7039 -0.7166 -3.1376
  766MPD2     N11316   3.360   1.934  15.196  0.0130  0.1190 -0.2819
  766MPD2    H511317   3.327   1.872  15.122 -0.4657  0.6593 -0.5252
  766MPD2    N111318   3.259   2.076  15.652 -0.3774  0.5612 -0.4445
  766MPD2    H711319   3.356   2.105  15.648  0.3718 -1.9855 -0.6562
  767MPD2     C11320   2.941   2.173  15.103 -0.1266  0.1041 -0.4646
  767MPD2    C111321   3.076   2.186  15.076  0.4607 -0.1617  0.4609
  767MPD2    C211322   3.126   2.127  14.963 -0.7527 -0.5162  0.0669
  767MPD2    C311323   3.047   2.035  14.889 -0.7330 -0.1749  0.1162
  767MPD2    C411324   2.916   2.023  14.920 -0.6453 -0.8136 -0.0592
  767MPD2    C511325   2.859   2.094  15.027  0.7677 -0.0902 -0.1268
  767MPD2     H11326   3.230   2.146  14.940 -1.0431 -1.3197 -1.8765
  767MPD2    H111327   2.857   1.949  14.867  0.2520  0.2181 -2.4641
  767MPD2    H211328   2.901   2.229  15.187  1.5284  0.4427  0.0904
  767MPD2    H311329   2.755   2.084  15.054  0.8356 -0.6842 -0.0841
  767MPD2     N11330   3.113   1.967  14.785 -0.3839 -0.1427  0.2723
  767MPD2    H511331   3.211   1.989  14.792 -0.4076 -0.0771  0.3937
  767MPD2    N111332   3.154   2.265  15.161  0.0540 -0.2246  0.2989
  767MPD2    H711333   3.109   2.287  15.249 -0.8691  0.1013 -0.2529
  768MPD2     C11334   4.388   0.183  10.964  0.3696  0.0588 -0.8622
  768MPD2    C111335   4.402   0.320  10.937  0.0671  0.1202 -0.2321
  768MPD2    C211336   4.520   0.385  10.986 -0.0264 -0.2506  0.0795
  768MPD2    C311337   4.613   0.312  11.057  0.8201  0.2779  0.1877
  768MPD2    C411338   4.607   0.180  11.072 -0.1924 -0.3291  0.1975
  768MPD2    C511339   4.492   0.119  11.029 -0.6164  0.2252  0.2878
  768MPD2     H11340   4.521   0.494  10.993 -1.6353 -0.4605  3.8263
  768MPD2    H111341   4.687   0.128  11.123  0.8202 -0.2786 -1.3060
  768MPD2    H211342   4.307   0.117  10.936 -0.7239  0.7486  0.7283
  768MPD2    H311343   4.487   0.011  11.044  1.5476  0.1852  0.7912
  768MPD2     N11344   0.008   0.372  11.106 -0.0027 -0.5084  0.2807
  768MPD2    H511345   0.077   0.307  11.143  0.8201 -0.0333 -0.3975
  768MPD2    N111346   4.306   0.396  10.874  0.5694  0.4472 -0.0218
  768MPD2    H711347   4.340   0.490  10.856  3.0816  0.0699  2.7715
  769MPD2     C11348   0.550   3.389  14.830 -0.3870  0.1288  0.3481
  769MPD2    C111349   0.513   3.332  14.944 -0.0361 -0.1248  0.2624
  769MPD2    C211350   0.580   3.370  15.061  0.0257 -0.6179 -0.8936
  769MPD2    C311351   0.686   3.457  15.060  0.3128 -0.4451  0.0118
  769MPD2    C411352   0.732   3.497  14.936 -0.4375  0.6981  0.0807
  769MPD2    C511353   0.665   3.463  14.827 -0.3358 -0.4258  0.0682
  769MPD2     H11354   0.542   3.333  15.156 -2.0621  1.9499 -0.7442
  769MPD2    H111355   0.811   3.570  14.920 -0.1789  0.1326 -1.2105
  769MPD2    H211356   0.507   3.367  14.732  2.8821 -0.6582 -0.9305
  769MPD2    H311357   0.707   3.504  14.736 -1.6322  0.9168  0.0746
  769MPD2     N11358   0.741   3.497  15.182  0.0910 -0.4084  0.2573
  769MPD2    H511359   0.698   3.473  15.271 -0.2817 -2.0411 -0.3527
  769MPD2    N111360   0.413   3.231  14.936  0.5114 -0.2878  0.2968
  769MPD2    H711361   0.364   3.226  14.847 -1.0074  0.0806  1.1067
  770MPD2     C11362   4.286   2.663  15.307  0.5633  0.1958  0.1545
  770MPD2    C111363   4.321   2.618  15.181  0.3868 -0.1636 -0.0457
  770MPD2    C211364   4.412   2.691  15.114 -0.5028 -0.2713 -0.6599
  770MPD2    C311365   4.490   2.784  15.182  0.3688  0.4287  0.2531
  770MPD2    C411366   4.458   2.823  15.313 -0.7868  0.4547 -0.5069
  770MPD2    C511367   4.354   2.756  15.370 -0.2011  0.1008  0.2018
  770MPD2     H11368   4.446   2.667  15.013 -0.1731  1.5369 -0.9903
  770MPD2    H111369   4.504   2.908  15.360 -0.5866  1.6072 -2.7897
  770MPD2    H211370   4.208   2.607  15.358  1.0071  0.6121  1.2930
  770MPD2    H311371   4.314   2.787  15.466  1.8157 -1.2586  1.4788
  770MPD2     N11372   4.600   2.839  15.117 -0.1356  0.3591 -0.1608
  770MPD2    H511373   4.622   2.808  15.023  3.2403  0.6852  0.5086
  770MPD2    N111374   4.258   2.506  15.127  0.5265  0.5246  0.6594
  770MPD2    H711375   4.196   2.454  15.189 -2.5550  2.0089 -1.1751
  771MPD2     C11376   0.920   1.229  13.738 -0.3413  0.2793  0.3444
  771MPD2    C111377   0.879   1.357  13.717 -0.0044  0.6348  0.5480
  771MPD2    C211378   0.807   1.378  13.599  0.4586 -0.8602 -0.1991
  771MPD2    C311379   0.781   1.273  13.510 -0.2073 -0.3787  0.1484
  771MPD2    C411380   0.827   1.144  13.545  0.6327 -0.1757 -0.3072
  771MPD2    C511381   0.901   1.121  13.653  0.6826  0.0232 -0.5049
  771MPD2     H11382   0.772   1.477  13.575  0.7523 -1.3790 -2.8234
  771MPD2    H111383   0.805   1.062  13.477  1.0841 -1.6806  1.3498
  771MPD2    H211384   0.976   1.208  13.829  1.9350 -0.4009 -1.2212
  771MPD2    H311385   0.951   1.025  13.660 -1.1362 -0.9439 -0.7147
  771MPD2     N11386   0.710   1.308  13.393  0.1205  0.3789  0.0033
  771MPD2    H511387   0.709   1.406  13.367  0.3286  0.6409  0.9842
  771MPD2    N111388   0.897   1.467  13.809  0.5082  0.9170 -0.1993
  771MPD2    H711389   0.848   1.554  13.791 -1.2675 -0.5888 -2.7226
  772MPD2     C11390   0.555   2.068  14.041  0.3794  0.7948  0.2880
  772MPD2    C111391   0.573   1.937  13.994  0.5098 -0.5433  0.2146
  772MPD2    C211392   0.450   1.876  13.962 -0.1742  0.0817  0.1696
  772MPD2    C311393   0.323   1.929  13.974  0.8093 -0.4132 -0.2078
  772MPD2    C411394   0.317   2.063  14.007 -0.0646  0.2822 -0.4462
  772MPD2    C511395   0.428   2.133  14.038 -0.5822  0.1524  0.3647
  772MPD2     H11396   0.460   1.782  13.911  0.9125  0.5920 -0.5556
  772MPD2    H111397   0.222   2.115  14.017  1.5868  3.6194 -2.2899
  772MPD2    H211398   0.636   2.133  14.070  0.5631  0.4331  0.5930
  772MPD2    H311399   0.424   2.237  14.067 -0.2308  0.4401 -0.6316
  772MPD2     N11400   0.201   1.860  13.951  0.8928 -0.3914 -0.1803
  772MPD2    H511401   0.114   1.911  13.942  0.9685 -0.2024  0.1782
  772MPD2    N111402   0.701   1.863  13.981 -0.5291  0.2699 -0.2305
  772MPD2    H711403   0.690   1.777  13.927  0.2732  0.7659 -1.1864
  773MPD2     C11404   4.647   1.932   0.703 -0.5792 -0.5718  0.1986
  773MPD2    C111405   4.661   1.881   0.569  0.3096 -0.0220 -0.0834
  773MPD2    C211406   0.037   1.789   0.540  0.0110  0.0776  0.0185
  773MPD2    C311407   0.135   1.760   0.635  0.1117  0.7280  0.1340
  773MPD2    C411408   0.123   1.816   0.766 -0.5425  0.3366 -0.4659
  773MPD2    C511409   0.015   1.898   0.799  0.0865  0.2052 -0.5452
  773MPD2     H11410   0.057   1.747   0.442 -0.6472 -0.2022  0.0027
  773MPD2    H111411   0.186   1.779   0.846 -1.0312  0.8477  0.1515
  773MPD2    H211412   4.586   2.013   0.739  0.6793  0.5677 -0.2357
  773MPD2    H311413   0.002   1.946   0.896  2.6313  1.0641 -0.6175
  773MPD2     N11414   0.248   1.678   0.597 -0.6816  0.7124  0.2804
  773MPD2    H511415   0.245   1.631   0.507 -0.6355  0.1860  0.5544
  773MPD2    N111416   4.580   1.922   0.465  0.6970 -0.4176  0.6484
  773MPD2    H711417   4.622   1.912   0.373 -1.4745  0.4180 -0.4360
  774MPD2     C11418   4.406   1.388  13.059 -0.0871 -0.4337 -0.9449
  774MPD2    C111419   4.320   1.486  13.103  0.5980 -0.7832  0.0257
  774MPD2    C211420   4.366   1.615  13.141  0.5132  0.3189  0.0386
  774MPD2    C311421   4.498   1.645  13.122 -0.5246  0.0179  0.4312
  774MPD2    C411422   4.581   1.548  13.073  0.8895  0.2117 -0.3230
  774MPD2    C511423   4.539   1.422  13.048 -0.5412  0.2120 -0.1032
  774MPD2     H11424   4.309   1.689  13.196  2.9812  1.1371  1.5148
  774MPD2    H111425   4.685   1.571  13.055  0.0353  1.6259 -3.5094
  774MPD2    H211426   4.385   1.283  13.043 -2.0974 -0.0987 -0.5292
  774MPD2    H311427   4.610   1.354  13.003  0.1679 -1.0479  3.0010
  774MPD2     N11428   4.539   1.777  13.147 -0.0517  0.1449 -0.1246
  774MPD2    H511429   4.462   1.838  13.176  0.5160  1.3071 -1.0448
  774MPD2    N111430   4.188   1.444  13.133  0.0358  0.2493 -0.3154
  774MPD2    H711431   4.169   1.345  13.118 -0.3451  0.5512 -1.8960
  775MPD2     C11432   1.009   3.277  15.937 -0.1811  0.1537  0.5492
  775MPD2    C111433   0.948   3.384  15.999 -0.1836 -0.0332 -0.2900
  775MPD2    C211434   1.009   3.510  15.985 -0.1190 -0.3675  0.0752
  775MPD2    C311435   1.122   3.534  15.899 -0.0365 -0.2158  0.6982
  775MPD2    C411436   1.176   3.419  15.833  0.6051  0.1371  0.1176
  775MPD2    C511437   1.119   3.295  15.858 -0.4215 -0.7531 -0.3530
  775MPD2     H11438   0.955   3.593  16.030  3.1484  1.7130  0.2271
  775MPD2    H111439   1.265   3.415  15.771 -0.5906 -3.3340 -1.3644
  775MPD2    H211440   0.969   3.177  15.953 -0.6686  0.2967  0.2037
  775MPD2    H311441   1.152   3.203  15.813  1.2117  0.8629 -2.4741
  775MPD2     N11442   1.183   3.660  15.876 -0.4783  0.3503  0.1902
  775MPD2    H511443   1.232   3.664  15.787  0.4830  0.0249  0.7085
  775MPD2    N111444   0.832   3.350  16.072  0.0941  0.3152 -0.5303
  775MPD2    H711445   0.807   3.251  16.079  0.1329  0.4005  0.7130
  776MPD2     C11446   0.144   3.581  11.875 -0.1086  0.3355  0.0456
  776MPD2    C111447   0.252   3.543  11.797  0.7325  0.1933  0.2952
  776MPD2    C211448   0.284   3.621  11.690 -0.4512 -0.2281 -0.1893
  776MPD2    C311449   0.220   3.735  11.654 -0.2112  0.2687 -0.2568
  776MPD2    C411450   0.109   3.766  11.726 -0.2884  0.1641 -0.0586
  776MPD2    C511451   0.075   3.689  11.832  0.2803 -0.1370 -0.1485
  776MPD2     H11452   0.365   3.593  11.624 -1.0896 -1.3540 -0.4859
  776MPD2    H111453   0.048   3.846  11.688 -0.5605 -0.0379 -0.0447
  776MPD2    H211454   0.095   3.517  11.947 -0.9357  0.7070 -0.1958
  776MPD2    H311455   4.720   3.733  11.893  1.3848  1.2279  0.2895
  776MPD2     N11456   0.241   3.816  11.542 -0.4968 -0.4894 -0.2488
  776MPD2    H511457   0.201   3.907  11.525  0.5273  0.3472  1.8313
  776MPD2    N111458   0.318   3.422  11.828  0.2549 -0.2760 -0.3675
  776MPD2    H711459   0.280   3.356  11.895  1.3635 -1.0788 -0.5259
  777MPD2     C11460   0.374   0.971   0.911  0.0394  0.1407  0.6000
  777MPD2    C111461   0.445   0.857   0.946  0.6553 -0.1853  0.1272
  777MPD2    C211462   0.467   0.766   0.851 -0.1224 -0.0885  0.4645
  777MPD2    C311463   0.425   0.787   0.721 -0.1811  0.2245 -0.3553
  777MPD2    C411464   0.353   0.907   0.687 -0.1230  0.3379  0.2217
  777MPD2    C511465   0.331   1.003   0.784 -0.1756 -0.0528  0.1601
  777MPD2     H11466   0.507   0.668   0.871  1.7518  0.8878  1.4713
  777MPD2    H111467   0.311   0.931   0.590  0.6396 -1.9218 -0.6775
  777MPD2    H211468   0.347   1.047   0.985 -1.0357 -1.4234  1.8199
  777MPD2    H311469   0.290   1.101   0.766  1.8411  0.5624 -1.0977
  777MPD2     N11470   0.434   0.676   0.631 -0.4054 -0.8224 -0.4219
  777MPD2    H511471   0.475   0.589   0.664 -1.3266 -1.4648 -0.9700
  777MPD2    N111472   0.478   0.841   1.078  0.2735 -0.7898  0.5379
  777MPD2    H711473   0.450   0.912   1.146  3.8754  1.8129 -0.7213
  778MPD2     C11474   0.902   1.365  15.153  0.4718 -0.4234  0.8733
  778MPD2    C111475   0.879   1.255  15.077  0.1423 -0.0958 -0.5864
  778MPD2    C211476   0.960   1.235  14.967 -0.3080  0.5861  0.3752
  778MPD2    C311477   1.064   1.319  14.938 -0.0366 -0.4426 -0.1627
  778MPD2    C411478   1.088   1.428  15.026  0.1878  0.3430  0.2289
  778MPD2    C511479   1.003   1.448  15.130 -0.0429  0.1428 -0.7096
  778MPD2     H11480   0.952   1.143  14.911 -1.0969  0.2780  0.9785
  778MPD2    H111481   1.165   1.504  15.016  1.9402 -1.5045 -0.5608
  778MPD2    H211482   0.837   1.390  15.237  0.4716 -0.4441  0.8795
  778MPD2    H311483   1.021   1.528  15.201  0.5090 -0.7203  0.1276
  778MPD2     N11484   1.145   1.293  14.836 -0.9975 -0.8127 -0.4152
  778MPD2    H511485   1.127   1.209  14.782  1.0805 -0.1048 -2.2151
  778MPD2    N111486   0.779   1.167  15.108  0.7460 -0.4068  0.5248
  778MPD2    H711487   0.741   1.106  15.036  0.1403  1.0306 -0.3962
  779MPD2     C11488   1.019   0.325  14.602  0.3325 -0.0347  0.2954
  779MPD2    C111489   1.097   0.338  14.496 -0.3961  1.1582 -0.5148
  779MPD2    C211490   1.084   0.439  14.408 -0.4629  0.4133  0.4398
  779MPD2    C311491   0.996   0.541  14.428  0.0836  0.6149  0.9313
  779MPD2    C411492   0.912   0.525  14.539 -0.2685 -0.4834  0.8770
  779MPD2    C511493   0.923   0.421  14.622 -0.0473 -0.5682  0.3266
  779MPD2     H11494   1.154   0.444  14.326  2.7060  0.7691  3.1907
  779MPD2    H111495   0.836   0.601  14.557  0.8903  1.0983 -0.8768
  779MPD2    H211496   1.029   0.232  14.659  1.3985 -0.7778 -1.0892
  779MPD2    H311497   0.850   0.417  14.703 -1.8899  4.9248 -1.0384
  779MPD2     N11498   1.015   0.660  14.353  0.9054  0.0727 -0.6375
  779MPD2    H511499   1.067   0.648  14.266 -1.0436  2.2634 -2.1177
  779MPD2    N111500   1.192   0.241  14.463 -0.3639  0.5106  0.3279
  779MPD2    H711501   1.235   0.241  14.371  1.3929 -1.7202  1.1532
  780MPD2     C11502   0.651   4.185   1.346  0.2568  0.2565  0.8525
  780MPD2    C111503   0.564   4.214   1.249 -0.5308  0.6635 -0.5676
  780MPD2    C211504   0.601   4.260   1.125 -0.4489 -0.5731 -0.6011
  780MPD2    C311505   0.728   4.279   1.088  0.1830 -0.4388  0.1234
  780MPD2    C411506   0.822   4.242   1.180  0.8105  0.3487 -0.8096
  780MPD2    C511507   0.782   4.190   1.301  0.0631  1.6876 -0.5173
  780MPD2     H11508   0.530   4.277   1.044  0.9894 -1.4934 -2.0576
  780MPD2    H111509   0.929   4.249   1.166  0.9631  1.5786  1.1284
  780MPD2    H211510   0.618   4.140   1.439 -1.9528  1.1608  0.5274
  780MPD2    H311511   0.856   4.158   1.373  0.1660 -1.9769 -2.2306
  780MPD2     N11512   0.749   4.319   0.954  0.2369  0.5029 -0.4336
  780MPD2    H511513   0.668   4.330   0.894 -1.4691  1.7651  2.0925
  780MPD2    N111514   0.432   4.186   1.284  1.0069  0.1271 -0.8311
  780MPD2    H711515   0.413   4.143   1.374  0.8715 -0.9841 -1.3825
  781MPD2     C11516   2.550   2.229  11.882  0.3752 -0.3177  0.5827
  781MPD2    C111517   2.606   2.105  11.877  0.2534  0.5572  0.3239
  781MPD2    C211518   2.689   2.066  11.776 -0.6713  0.5185  0.7381
  781MPD2    C311519   2.722   2.151  11.668 -0.0112  0.1563 -0.1719
  781MPD2    C411520   2.666   2.274  11.671  0.1257 -0.3170  0.0506
  781MPD2    C511521   2.579   2.311  11.775 -0.6181 -0.1793  0.5720
  781MPD2     H11522   2.725   1.965  11.788 -2.1898 -0.2967 -1.5078
  781MPD2    H111523   2.689   2.346  11.593  0.7611 -0.8379 -0.2441
  781MPD2    H211524   2.494   2.266  11.967  0.7502 -1.3536  1.2894
  781MPD2    H311525   2.543   2.413  11.775  2.6287  1.0172 -3.1334
  781MPD2     N11526   2.806   2.119  11.557 -0.0688 -0.3229  0.4212
  781MPD2    H511527   2.819   2.192  11.487  0.8704 -0.6746  0.2368
  781MPD2    N111528   2.589   2.017  11.989 -0.3370  0.0558  0.3508
  781MPD2    H711529   2.662   1.950  12.011 -0.0767  0.3196  0.2864
  782MPD2     C11530   1.349   2.211  10.220 -0.1385 -0.0419  0.3558
  782MPD2    C111531   1.410   2.334  10.211  0.5785 -0.6270 -0.3234
  782MPD2    C211532   1.457   2.392  10.325  0.3982 -0.0843 -0.4139
  782MPD2    C311533   1.426   2.341  10.443  0.2995  0.4433 -0.0460
  782MPD2    C411534   1.368   2.214  10.452  0.2937 -0.5244  0.1883
  782MPD2    C511535   1.331   2.144  10.341 -0.2750 -0.1222 -0.8311
  782MPD2     H11536   1.508   2.487  10.329  0.8259 -0.3156 -0.2587
  782MPD2    H111537   1.363   2.164  10.548 -2.6270  1.7822  1.2378
  782MPD2    H211538   1.321   2.153  10.133 -0.8709  2.5407 -1.1328
  782MPD2    H311539   1.288   2.044  10.337 -2.9688  1.0323 -0.8416
  782MPD2     N11540   1.465   2.421  10.551  0.3653  0.1722  0.2744
  782MPD2    H511541   1.499   2.515  10.535  0.6244  0.3503  1.9599
  782MPD2    N111542   1.409   2.399  10.088  0.1153 -0.0568 -0.8635
  782MPD2    H711543   1.368   2.358  10.005  1.0700  1.5555 -2.1402
  783MPD2     C11544   0.623   2.617  10.248  0.6231  0.2762 -0.1756
  783MPD2    C111545   0.729   2.631  10.342 -0.5405 -1.2677  0.3412
  783MPD2    C211546   0.856   2.661  10.288  0.0678 -0.5782 -0.4344
  783MPD2    C311547   0.874   2.656  10.150  0.1410 -0.2747  0.4389
  783MPD2    C411548   0.771   2.642  10.061  0.3207  0.9848  0.1347
  783MPD2    C511549   0.652   2.626  10.117  0.3845 -0.5625  0.7511
  783MPD2     H11550   0.945   2.669  10.349 -0.4524  0.0105  0.2412
  783MPD2    H111551   0.776   2.650   9.953  0.8238  0.3789  0.1127
  783MPD2    H211552   0.523   2.598  10.284  0.4339 -0.9369 -1.3560
  783MPD2    H311553   0.572   2.630  10.043  2.8963 -2.4022 -2.0485
  783MPD2     N11554   1.010   2.670  10.108 -0.1100 -0.6233  0.1928
  783MPD2    H511555   1.090   2.661  10.170 -1.0318  1.4220  1.6740
  783MPD2    N111556   0.694   2.622  10.478  0.4045 -0.6041 -0.3194
  783MPD2    H711557   0.605   2.581  10.505 -0.2566  0.6523 -0.5939
  784MPD2     C11558   2.959   2.603   0.651 -0.5414  0.4515  0.5825
  784MPD2    C111559   2.920   2.678   0.764  1.0839  1.0064  0.1887
  784MPD2    C211560   2.915   2.815   0.758  0.3246  0.6245 -0.3850
  784MPD2    C311561   2.923   2.877   0.636  0.6932  0.7004  0.2051
  784MPD2    C411562   2.953   2.804   0.520 -0.0256  0.4206 -0.2305
  784MPD2    C511563   2.977   2.669   0.528  0.3340 -0.4285 -0.3283
  784MPD2     H11564   2.880   2.876   0.841  2.6167 -1.0318  1.8477
  784MPD2    H111565   2.988   2.844   0.425 -0.3085 -1.1866 -1.0045
  784MPD2    H211566   2.975   2.496   0.651 -2.3811  0.1803 -0.7971
  784MPD2    H311567   3.014   2.616   0.442  0.4682 -1.3458  0.2917
  784MPD2     N11568   2.895   3.015   0.627 -0.6193 -0.4025  0.4946
  784MPD2    H511569   2.874   3.049   0.720 -1.5931  1.7105 -0.4817
  784MPD2    N111570   2.906   2.619   0.891 -0.4019 -0.1821  0.1134
  784MPD2    H711571   2.912   2.675   0.976 -0.1508 -0.3634  0.2162
  785MPD2     C11572   3.547   1.340  10.365  0.4228  0.1148 -0.0280
  785MPD2    C111573   3.458   1.361  10.467 -0.6670 -0.4866  0.1220
  785MPD2    C211574   3.328   1.328  10.440  0.1332 -0.7660  0.2457
  785MPD2    C311575   3.284   1.282  10.316  0.2121 -0.0556  0.6023
  785MPD2    C411576   3.375   1.262  10.211  0.2954 -0.3969  0.0598
  785MPD2    C511577   3.511   1.286  10.241 -0.1271  0.6290  0.5010
  785MPD2     H11578   3.247   1.350  10.509 -0.0867 -0.7287 -0.0244
  785MPD2    H111579   3.351   1.225  10.112 -0.0668  1.9082 -0.7123
  785MPD2    H211580   3.653   1.362  10.369  0.3074  0.5700  0.4911
  785MPD2    H311581   3.590   1.278  10.167 -0.6026  0.0609  0.0499
  785MPD2     N11582   3.145   1.260  10.311  0.5908 -0.6155 -0.1218
  785MPD2    H511583   3.096   1.290  10.395  0.7457 -0.0066 -0.2477
  785MPD2    N111584   3.505   1.429  10.585 -0.8800  0.2236  0.2430
  785MPD2    H711585   3.603   1.455  10.579 -0.7283 -0.7575 -1.3117
  786MPD2     C11586   1.342   4.263  14.688 -0.2379 -0.2953 -0.5487
  786MPD2    C111587   1.466   4.213  14.705 -0.1241 -0.3306 -0.0124
  786MPD2    C211588   1.524   4.231  14.827 -0.2706 -0.2614 -0.7146
  786MPD2    C311589   1.461   4.282  14.940 -0.3759  0.3705  0.9433
  786MPD2    C411590   1.338   4.336  14.928  0.0223 -0.1961 -0.3744
  786MPD2    C511591   1.280   4.325  14.798 -0.4622  0.0794 -0.2945
  786MPD2     H11592   1.628   4.203  14.836 -0.6187 -2.0171 -2.2361
  786MPD2    H111593   1.285   4.387  15.007  2.7894  0.6581  0.9388
  786MPD2    H211594   1.286   4.242  14.597  0.7512 -1.4045 -0.8872
  786MPD2    H311595   1.182   4.369  14.781  0.1793  1.2932 -0.8574
  786MPD2     N11596   1.525   4.290  15.064  0.6511 -0.5826  0.0408
  786MPD2    H511597   1.479   4.341  15.138  1.9686  1.0706 -0.2977
  786MPD2    N111598   1.531   4.139  14.602  0.3237  0.5399  0.1783
  786MPD2    H711599   1.619   4.096  14.626 -0.0926 -0.5858 -0.3334
  787MPD2     C11600   1.903   3.732  14.793 -0.4812 -0.9098 -0.7049
  787MPD2    C111601   1.899   3.696  14.663 -0.4736 -0.1515  0.0053
  787MPD2    C211602   1.965   3.580  14.622 -0.0614  0.3334  0.1113
  787MPD2    C311603   2.023   3.500  14.714  0.1715 -1.0735  0.9188
  787MPD2    C411604   2.021   3.535  14.851  0.5351  0.2254 -0.3591
  787MPD2    C511605   1.949   3.649  14.890 -0.6695 -0.6758  0.6550
  787MPD2     H11606   1.967   3.553  14.518 -0.8162 -0.5057  0.3184
  787MPD2    H111607   2.063   3.472  14.928  0.2598  1.3012  0.6693
  787MPD2    H211608   1.852   3.823  14.823 -0.9998 -1.2799 -0.4597
  787MPD2    H311609   1.934   3.671  14.995 -1.6450  1.7352  0.0079
  787MPD2     N11610   2.087   3.382  14.668 -0.6100  0.0883 -0.0500
  787MPD2    H511611   2.114   3.373  14.570 -0.2298  0.0552  0.0558
  787MPD2    N111612   1.830   3.784  14.577  0.0262  0.0568 -0.6820
  787MPD2    H711613   1.812   3.879  14.606 -0.5432 -0.6711  1.3610
  788MPD2     C11614   2.584   1.296   1.268  0.4824 -0.3978 -0.1053
  788MPD2    C111615   2.627   1.297   1.132  0.5025  0.4247 -0.2915
  788MPD2    C211616   2.688   1.406   1.085  1.4401  0.1123 -0.3633
  788MPD2    C311617   2.713   1.510   1.165 -0.5659  0.2339 -0.0180
  788MPD2    C411618   2.661   1.515   1.291 -0.0643 -0.0844  0.1373
  788MPD2    C511619   2.587   1.410   1.341  0.3570 -0.9344  0.0486
  788MPD2     H11620   2.737   1.386   0.991 -1.5884 -1.5114 -1.5970
  788MPD2    H111621   2.675   1.599   1.358  0.6592  1.1131 -1.5115
  788MPD2    H211622   2.538   1.208   1.310  0.9808  0.0443  1.3689
  788MPD2    H311623   2.548   1.411   1.442 -0.0057  0.5741 -0.1142
  788MPD2     N11624   2.786   1.621   1.117  0.2025 -0.0284 -0.1480
  788MPD2    H511625   2.809   1.695   1.183  0.5443 -0.2317 -0.0384
  788MPD2    N111626   2.618   1.187   1.043 -0.3207 -0.4662 -0.3776
  788MPD2    H711627   2.643   1.200   0.945  1.5003 -0.9989  0.0162
  789MPD2     C11628   3.834   2.331  16.221  0.1493 -0.4379 -0.7121
  789MPD2    C111629   3.790   2.251  16.323  0.7369  1.1286  0.4000
  789MPD2    C211630   3.673   2.273  16.384 -0.2839  0.2712 -0.2408
  789MPD2    C311631   3.594   2.386  16.356 -1.0359 -0.4878 -0.2934
  789MPD2    C411632   3.645   2.469  16.255 -0.2808 -0.0805 -0.0860
  789MPD2    C511633   3.760   2.441  16.187  1.4372 -0.0820  0.0543
  789MPD2     H11634   3.642   2.199  16.456 -0.4135  0.5626  0.0052
  789MPD2    H111635   3.596   2.562  16.228 -0.1178  0.0067 -0.0860
  789MPD2    H211636   3.921   2.317  16.158 -0.0394  1.5306 -1.4200
  789MPD2    H311637   3.788   2.506  16.105  1.0099 -1.0145 -0.8349
  789MPD2     N11638   3.474   2.419  16.420  0.1599 -0.2063  0.0006
  789MPD2    H511639   3.432   2.508  16.399  1.7792  0.2879 -1.0673
  789MPD2    N111640   3.860   2.134  16.372  0.0414 -0.2367  0.4041
  789MPD2    H711641   3.819   2.081  16.448  0.2128  0.1117  0.7391
  790MPD2     C11642   0.304   4.139  13.741  0.7803 -0.6144  0.1913
  790MPD2    C111643   0.312   4.003  13.755 -0.0976 -0.3447 -0.5727
  790MPD2    C211644   0.258   3.917  13.655  0.5014  0.4896  0.5161
  790MPD2    C311645   0.210   3.969  13.531 -0.3345 -0.2911 -0.4835
  790MPD2    C411646   0.213   4.105  13.516 -0.6313  0.0256  0.0473
  790MPD2    C511647   0.268   4.182  13.619 -0.4600  0.0740 -0.8709
  790MPD2     H11648   0.262   3.808  13.660  0.0966  0.3292 -2.8973
  790MPD2    H111649   0.188   4.155  13.424 -3.5812 -1.1031  0.2253
  790MPD2    H211650   0.346   4.205  13.816 -0.7090 -1.2192  1.5624
  790MPD2    H311651   0.286   4.288  13.601 -2.1718  0.2993 -1.2547
  790MPD2     N11652   0.171   3.884  13.425  0.3956  0.2973  0.9849
  790MPD2    H511653   0.187   3.785  13.435  1.0939  0.0105 -3.0455
  790MPD2    N111654   0.355   3.953  13.883 -0.2176 -0.3429  0.2934
  790MPD2    H711655   0.357   4.019  13.961  1.3556 -0.8838  0.7027
  791MPD2     C11656   4.290   3.858  12.932  0.3719  0.3112 -0.3620
  791MPD2    C111657   4.332   3.735  12.981 -0.4750  0.7627 -0.6549
  791MPD2    C211658   4.239   3.638  12.985 -0.4339  0.3591  0.4750
  791MPD2    C311659   4.116   3.653  12.925  1.0119  0.5616  0.2207
  791MPD2    C411660   4.072   3.773  12.869  0.1325  0.3213 -0.2883
  791MPD2    C511661   4.165   3.875  12.877  0.2136 -0.1293 -0.1480
  791MPD2     H11662   4.266   3.541  13.026 -0.9455  1.1365  2.6551
  791MPD2    H111663   3.978   3.779  12.815 -1.7422 -1.2990  2.7716
  791MPD2    H211664   4.367   3.933  12.916  0.4411  0.1951 -0.5764
  791MPD2    H311665   4.146   3.970  12.829 -0.3818 -0.6752 -0.9879
  791MPD2     N11666   4.041   3.532  12.918 -0.2937 -0.4013  0.0074
  791MPD2    H511667   4.091   3.446  12.935  1.7352  0.9112  0.6318
  791MPD2    N111668   4.462   3.729  13.049  0.6178  0.0538 -0.1018
  791MPD2    H711669   4.516   3.815  13.044 -0.0849  0.5292  0.3774
  792MPD2     C11670   0.772   3.904  11.740 -0.1881 -0.4628 -0.3007
  792MPD2    C111671   0.868   3.859  11.645  0.2409  0.5310  0.5498
  792MPD2    C211672   0.838   3.752  11.563  0.0206 -0.1027  0.6590
  792MPD2    C311673   0.706   3.698  11.568  0.6553 -0.2500  0.2599
  792MPD2    C411674   0.615   3.741  11.665 -0.1663 -0.1050  0.4883
  792MPD2    C511675   0.651   3.843  11.749  0.3129  0.2305 -0.3224
  792MPD2     H11676   0.908   3.713  11.490 -1.1327 -0.2984 -0.3463
  792MPD2    H111677   0.519   3.691  11.667  0.0308 -0.6303 -3.1730
  792MPD2    H211678   0.798   3.986  11.807 -0.6656  1.2809 -2.2419
  792MPD2    H311679   0.578   3.873  11.824 -0.8858 -1.6030 -0.7788
  792MPD2     N11680   0.671   3.586  11.484 -0.5128 -0.2610 -0.2364
  792MPD2    H511681   0.578   3.550  11.504 -0.6766  0.0805 -0.4014
  792MPD2    N111682   0.979   3.938  11.620  0.2503 -0.3658  0.5217
  792MPD2    H711683   0.981   4.030  11.661 -0.6807  0.1606 -0.6164
  793MPD2     C11684   0.134   3.134  10.791 -0.7752  0.2192 -0.3238
  793MPD2    C111685   0.241   3.212  10.767  0.1400 -0.5945  0.1288
  793MPD2    C211686   0.315   3.266  10.869  0.0521 -0.2872  0.2316
  793MPD2    C311687   0.283   3.248  11.000 -0.4336  0.6524 -0.2558
  793MPD2    C411688   0.167   3.168  11.024  0.2550 -0.6642  0.0680
  793MPD2    C511689   0.094   3.112  10.921  0.6392 -0.1924  0.3756
  793MPD2     H11690   0.399   3.330  10.847  1.2563 -2.7134 -2.2844
  793MPD2    H111691   0.148   3.143  11.128  0.5744 -1.3276 -0.0325
  793MPD2    H211692   0.061   3.100  10.718 -0.9042 -0.7003  0.2299
  793MPD2    H311693   0.003   3.056  10.939  1.3421 -1.0925  1.1174
  793MPD2     N11694   0.370   3.301  11.088 -0.0975 -0.5961 -0.0767
  793MPD2    H511695   0.452   3.343  11.047 -0.9951  1.1434 -0.0725
  793MPD2    N111696   0.284   3.242  10.636  0.3932 -0.1657  0.0776
  793MPD2    H711697   0.360   3.308  10.620 -1.4578  2.1549  0.9146
  794MPD2     C11698   4.678   2.404  17.571  0.1189 -0.5648  0.2290
  794MPD2    C111699   4.547   2.374  17.594 -0.4366 -0.8600 -0.4929
  794MPD2    C211700   4.453   2.462  17.549  0.0187 -0.1218 -0.6932
  794MPD2    C311701   4.490   2.580  17.495  0.3606  0.0951 -0.4104
  794MPD2    C411702   4.626   2.605  17.481 -0.0567 -0.3893  0.0986
  794MPD2    C511703   4.722   2.525  17.531  0.0107  0.6546  0.1026
  794MPD2     H11704   4.346   2.447  17.548  0.0419  0.0664 -5.4638
  794MPD2    H111705   4.670   2.695  17.439  1.1230 -1.8482 -1.7900
  794MPD2    H211706   0.030   2.328  17.588 -0.5480 -1.6265 -1.5434
  794MPD2    H311707   0.104   2.551  17.537  0.4270 -1.3255  1.4129
  794MPD2     N11708   4.390   2.660  17.435 -0.2012  0.5587 -0.1628
  794MPD2    H511709   4.296   2.628  17.458 -0.4720  0.5349 -1.3169
  794MPD2    N111710   4.505   2.248  17.648  0.5616  0.5371 -0.4977
  794MPD2    H711711   4.409   2.223  17.631  0.3820  1.0216 -0.2142
  795MPD2     C11712   1.998   0.411  13.821 -0.8009  0.7109 -0.3658
  795MPD2    C111713   1.968   0.336  13.706  0.1563 -0.2806 -0.2772
  795MPD2    C211714   2.056   0.233  13.680  0.1046  0.8873  0.1151
  795MPD2    C311715   2.166   0.206  13.761 -0.0352  0.0335  0.1746
  795MPD2    C411716   2.196   0.285  13.871 -0.1090 -0.4418  0.4455
  795MPD2    C511717   2.104   0.381  13.901 -0.2443 -0.0233  0.1302
  795MPD2     H11718   2.046   0.176  13.588 -1.3939  0.7620  0.3530
  795MPD2    H111719   2.279   0.267  13.937 -0.8983  1.4835  1.9753
  795MPD2    H211720   1.946   0.504  13.840  0.1654  1.2272 -0.2796
  795MPD2    H311721   2.119   0.448  13.985 -1.0250  0.1064  0.1633
  795MPD2     N11722   2.254   0.105  13.741  0.6706  1.0739  0.3646
  795MPD2    H511723   2.337   0.109  13.799  0.1476  1.1617  1.1111
  795MPD2    N111724   1.870   0.373  13.608 -1.2124 -0.3486 -0.4468
  795MPD2    H711725   1.847   0.307  13.534 -0.4500 -0.2881 -0.7357
  796MPD2     C11726   1.562   1.945  15.866  0.3981  0.0647 -0.5253
  796MPD2    C111727   1.672   2.010  15.921 -0.3508 -0.1744 -0.4486
  796MPD2    C211728   1.712   2.133  15.858 -0.3090 -0.1096  0.5233
  796MPD2    C311729   1.652   2.171  15.740 -0.2661 -0.6924  0.0062
  796MPD2    C411730   1.557   2.091  15.689  1.4600 -0.2622  0.9984
  796MPD2    C511731   1.509   1.976  15.746 -0.1117  0.0937  0.2893
  796MPD2     H11732   1.808   2.177  15.885  0.5331  0.2598 -3.1493
  796MPD2    H111733   1.504   2.119  15.598  1.4628 -1.1154  0.7301
  796MPD2    H211734   1.516   1.862  15.919 -0.1030 -0.3101 -1.5556
  796MPD2    H311735   1.430   1.913  15.704 -0.3215  1.1543 -0.9170
  796MPD2     N11736   1.711   2.288  15.684  0.3605  0.0016 -0.0041
  796MPD2    H511737   1.770   2.342  15.745 -1.6135 -1.7595  3.4741
  796MPD2    N111738   1.728   1.953  16.033 -0.6951  0.5273  0.6187
  796MPD2    H711739   1.676   1.877  16.076 -0.0445  0.1303  0.7032
  797MPD2     C11740   2.839   1.192  17.404 -0.3427 -0.0630  0.0044
  797MPD2    C111741   2.923   1.305  17.412 -0.1698 -0.3269  0.0699
  797MPD2    C211742   2.881   1.420  17.354  0.3346 -1.3167  0.7724
  797MPD2    C311743   2.755   1.425  17.289 -0.6509 -0.6888 -0.8533
  797MPD2    C411744   2.682   1.313  17.275 -0.3940  0.2290 -0.0125
  797MPD2    C511745   2.721   1.193  17.336 -0.3572 -0.8018 -0.1656
  797MPD2     H11746   2.943   1.508  17.368  0.0962 -0.6528 -2.2411
  797MPD2    H111747   2.585   1.323  17.227  0.0057 -0.9800 -1.0698
  797MPD2    H211748   2.870   1.106  17.462  0.1506  1.5395  2.1160
  797MPD2    H311749   2.654   1.109  17.342 -0.3720 -0.8097 -0.4175
  797MPD2     N11750   2.720   1.546  17.234 -0.0100  0.4466  0.1356
  797MPD2    H511751   2.786   1.621  17.250  0.1177  0.2302  0.6321
  797MPD2    N111752   3.044   1.305  17.485 -0.3574 -0.0011 -0.1775
  797MPD2    H711753   3.094   1.393  17.475 -1.6508  0.3517 -3.6883
  798MPD2     C11754   3.042   2.045  17.538 -0.3202 -0.2814  0.1286
  798MPD2    C111755   3.019   1.945  17.451 -0.6186 -0.9247 -0.2834
  798MPD2    C211756   3.090   1.820  17.474  0.0173 -0.1598  0.1559
  798MPD2    C311757   3.159   1.796  17.585 -0.1135 -0.8864  0.1615
  798MPD2    C411758   3.177   1.905  17.677  0.9705 -0.9054 -0.1264
  798MPD2    C511759   3.119   2.027  17.653 -0.7732 -0.3136  0.6062
  798MPD2     H11760   3.073   1.745  17.398  3.1532 -0.1253 -0.5975
  798MPD2    H111761   3.237   1.894   0.070  3.1254 -0.8182 -1.5694
  798MPD2    H211762   2.988   2.139  17.536 -1.0896 -0.7518 -1.3938
  798MPD2    H311763   3.138   2.114   0.019  1.5550 -0.7663  0.5184
  798MPD2     N11764   3.211   1.663  17.608 -0.0983  0.4546 -0.3821
  798MPD2    H511765   3.200   1.600  17.529  2.4643 -1.1500  0.5386
  798MPD2    N111766   2.925   1.967  17.348  0.3164  0.0080  0.4437
  798MPD2    H711767   2.878   2.057  17.345  0.8038  0.2505  0.1348
  799MPD2     C11768   1.700   3.268  14.708  0.7625  0.3399  0.6146
  799MPD2    C111769   1.627   3.192  14.619 -0.5444  0.9735  0.1443
  799MPD2    C211770   1.537   3.251  14.529 -0.3679 -0.1434  0.1463
  799MPD2    C311771   1.534   3.390  14.516 -0.6455 -0.0569  1.0791
  799MPD2    C411772   1.604   3.458  14.604  0.5695 -0.2907 -0.3403
  799MPD2    C511773   1.684   3.402  14.693 -0.5304 -0.0077 -0.1441
  799MPD2     H11774   1.482   3.188  14.460 -2.5607  0.2349  1.5574
  799MPD2    H111775   1.597   3.566  14.599 -1.4991 -0.3067  2.2301
  799MPD2    H211776   1.759   3.223  14.787  0.0113  0.5303  1.2829
  799MPD2    H311777   1.731   3.471  14.762  0.0486  0.5735 -1.1167
  799MPD2     N11778   1.477   3.462  14.406 -0.5517 -0.4186  0.6961
  799MPD2    H511779   1.486   3.563  14.403 -0.5666 -0.4726 -1.1324
  799MPD2    N111780   1.634   3.057  14.621 -0.7375 -0.4085  0.0638
  799MPD2    H711781   1.557   3.004  14.580 -0.1474 -0.8220 -0.5280
  800MPD2     C11782   2.032   3.847  13.357  0.1126 -0.4342  0.7743
  800MPD2    C111783   2.067   3.975  13.338 -0.1618  1.0036 -0.3968
  800MPD2    C211784   2.131   4.000  13.221  0.1332  0.5474  0.0420
  800MPD2    C311785   2.167   3.909  13.121  0.3910  0.0919  0.0154
  800MPD2    C411786   2.115   3.778  13.143  0.1906 -0.0073 -0.6199
  800MPD2    C511787   2.057   3.750  13.267 -0.1162  0.4673  0.0096
  800MPD2     H11788   2.164   4.101  13.203  2.5139 -0.3124 -0.4450
  800MPD2    H111789   2.132   3.693  13.079  0.3174 -1.5355  1.4306
  800MPD2    H211790   1.989   3.815  13.451  0.6668 -0.6876  0.9376
  800MPD2    H311791   2.014   3.651  13.279 -0.0991  0.5000  0.3600
  800MPD2     N11792   2.253   3.943  13.015  0.0668 -0.2282  0.1604
  800MPD2    H511793   2.289   4.037  13.033  0.9517 -0.8437  1.5911
  800MPD2    N111794   2.061   4.062  13.449  0.1071 -0.0476 -0.3233
  800MPD2    H711795   2.025   4.028  13.538 -1.6100 -0.8526 -1.3210
  801MPD2     C11796   1.801   0.002  13.897  0.0271 -0.6938 -0.1753
  801MPD2    C111797   1.920   4.674  13.941  0.1586  0.3087 -0.8229
  801MPD2    C211798   1.992   0.028  14.028  0.6411 -0.4175  0.8299
  801MPD2    C311799   1.952   0.148  14.083 -0.2618 -0.4965 -0.2107
  801MPD2    C411800   1.825   0.188  14.051 -0.5087 -0.2790  0.1198
  801MPD2    C511801   1.755   0.115  13.959  0.2121  0.1088 -0.6769
  801MPD2     H11802   2.087   4.716  14.067  0.4658 -0.8612  0.8508
  801MPD2    H111803   1.778   0.273  14.099 -0.8260 -1.2971  1.6232
  801MPD2    H211804   1.742   4.683  13.818 -0.1954 -2.1217  0.7661
  801MPD2    H311805   1.660   0.152  13.922 -0.9729 -0.5823  1.7035
  801MPD2     N11806   2.024   0.219  14.176 -0.1175  0.3148  0.0605
  801MPD2    H511807   1.975   0.294  14.224 -1.9371 -0.6858 -0.2507
  801MPD2    N111808   1.978   4.554  13.889 -0.1649 -0.0540 -0.8676
  801MPD2    H711809   2.072   4.537  13.924  0.0576 -1.2353 -2.0598
  802MPD2     C11810   0.767   0.297  17.171  0.2974  0.4835  0.9829
  802MPD2    C111811   0.879   0.279  17.245  0.1198  0.1898  0.9192
  802MPD2    C211812   0.965   0.181  17.217  0.4244 -0.4138 -0.9543
  802MPD2    C311813   0.940   0.084  17.121  0.3742 -0.1413  0.5546
  802MPD2    C411814   0.826   0.105  17.045 -0.2904  0.0635 -0.0394
  802MPD2    C511815   0.738   0.203  17.076 -0.1858 -0.1229 -0.2058
  802MPD2     H11816   1.056   0.175  17.275 -0.8471  0.0021  1.1021
  802MPD2    H111817   0.791   0.039  16.966  1.2076  0.6513 -1.1903
  802MPD2    H211818   0.693   0.371  17.200  0.1793  0.2438  1.2937
  802MPD2    H311819   0.644   0.210  17.024  0.5642  0.2375 -1.5208
  802MPD2     N11820   1.031   4.703  17.091 -0.7297 -0.3227 -0.6842
  802MPD2    H511821   1.098   4.694  17.167  1.0725 -0.6784 -2.3058
  802MPD2    N111822   0.905   0.351  17.359  0.5696  0.3827 -0.0296
  802MPD2    H711823   0.963   0.296  17.422 -0.7589  0.1396  0.9725
  803MPD2     C11824   3.015   3.665  11.648  0.0186 -0.1162 -0.2379
  803MPD2    C111825   3.114   3.660  11.744 -0.2086 -0.2836 -0.9788
  803MPD2    C211826   3.087   3.595  11.862 -0.4766  0.7684  0.8823
  803MPD2    C311827   2.966   3.527  11.873 -0.6423  0.4224 -0.1344
  803MPD2    C411828   2.868   3.530  11.782 -0.3014 -0.4476  0.4069
  803MPD2    C511829   2.889   3.614  11.675 -0.4858 -0.8524  0.2180
  803MPD2     H11830   3.167   3.590  11.935  0.3893  3.0300  0.0801
  803MPD2    H111831   2.767   3.495  11.799 -1.9841  4.3574  0.3527
  803MPD2    H211832   3.027   3.728  11.561 -0.2786  0.4260  0.1097
  803MPD2    H311833   2.804   3.637  11.611  1.2172  1.3021 -1.2852
  803MPD2     N11834   2.935   3.449  11.986 -0.2075 -0.5442 -0.2921
  803MPD2    H511835   2.855   3.386  11.979  0.9219 -1.8589 -1.2538
  803MPD2    N111836   3.238   3.725  11.731 -0.0207  0.2562  1.0813
  803MPD2    H711837   3.300   3.730  11.811  2.0260  0.4524 -0.5310
  804MPD2     C11838   2.103   4.709  16.912 -0.2393  0.4739 -0.0441
  804MPD2    C111839   2.118   4.650  17.028  0.4101  0.3692  0.0857
  804MPD2    C211840   2.180   4.719  17.126  0.5459 -0.1248  0.0457
  804MPD2    C311841   2.228   0.119  17.103  0.8942  0.4799  0.3017
  804MPD2    C411842   2.224   0.177  16.981 -0.4523  0.4428 -0.3528
  804MPD2    C511843   2.159   0.105  16.885  0.4322  0.4052  0.5342
  804MPD2     H11844   2.182   4.677  17.226  2.1766 -1.5856 -0.6093
  804MPD2    H111845   2.273   0.269  16.952 -0.3557  0.3850 -0.3737
  804MPD2    H211846   2.036   4.675  16.834 -0.3153  0.4690  0.0229
  804MPD2    H311847   2.132   0.139  16.785 -2.0019 -0.4890  0.8923
  804MPD2     N11848   2.301   0.174  17.212  0.2550  0.1562  0.2247
  804MPD2    H511849   2.306   0.116  17.296 -1.6187  1.5118  1.2802
  804MPD2    N111850   2.071   4.519  17.059  0.3418 -0.6583  0.0445
  804MPD2    H711851   2.073   4.485  17.155  2.3017 -1.5028 -0.2770
  805MPD2     C11852   1.677   3.596  15.683 -0.1035 -0.0184 -0.2066
  805MPD2    C111853   1.744   3.520  15.592 -0.1660 -1.2204  0.2844
  805MPD2    C211854   1.864   3.460  15.629  0.3796  0.0072  0.3829
  805MPD2    C311855   1.907   3.480  15.760 -0.2016 -0.0424  0.9909
  805MPD2    C411856   1.828   3.548  15.849  0.2197  0.6019 -0.1039
  805MPD2    C511857   1.708   3.603  15.815  0.2045 -0.9557  0.1397
  805MPD2     H11858   1.910   3.398  15.553 -2.4944  0.4033 -1.6937
  805MPD2    H111859   1.858   3.573  15.950  1.8781  0.5338 -0.5771
  805MPD2    H211860   1.590   3.657  15.660 -0.0470  0.5903  1.1747
  805MPD2    H311861   1.653   3.664  15.886 -0.0816 -0.0626 -0.8427
  805MPD2     N11862   2.040   3.430  15.790 -0.0930  0.7141  0.3907
  805MPD2    H511863   2.100   3.385  15.721 -1.7178 -1.1925  0.2121
  805MPD2    N111864   1.709   3.504  15.456 -0.1455 -0.1214  0.3529
  805MPD2    H711865   1.777   3.480  15.384 -1.8620  0.0312 -1.3057
  806MPD2     C11866   2.549   2.836   0.547 -1.0047 -0.0572  0.9428
  806MPD2    C111867   2.549   2.921   0.648 -0.0890 -0.2371  0.0167
  806MPD2    C211868   2.563   3.055   0.621  0.2735  0.8609  0.2268
  806MPD2    C311869   2.568   3.104   0.491  0.5352  0.6357  0.3734
  806MPD2    C411870   2.578   3.009   0.388  0.5652 -0.0015 -0.3896
  806MPD2    C511871   2.580   2.877   0.423 -0.2015 -0.1161 -0.0050
  806MPD2     H11872   2.560   3.126   0.703 -1.3590  0.4781  0.4948
  806MPD2    H111873   2.587   3.027   0.282  0.3970 -0.3054 -0.4571
  806MPD2    H211874   2.557   2.730   0.571 -0.5346 -0.1872  0.2307
  806MPD2    H311875   2.598   2.799   0.351 -0.4765  1.1505 -1.4470
  806MPD2     N11876   2.560   3.244   0.467  0.2352  0.4798  0.0778
  806MPD2    H511877   2.545   3.305   0.546 -0.9555  0.0862  0.1731
  806MPD2    N111878   2.532   2.866   0.780 -0.1836  0.5202 -0.1331
  806MPD2    H711879   2.502   2.769   0.783  0.1043  0.5181  2.2086
  807MPD2     C11880   2.037   2.945   1.510  0.0224  0.2198  0.4833
  807MPD2    C111881   2.065   2.817   1.460  0.7266 -0.0503 -0.4947
  807MPD2    C211882   2.000   2.709   1.513 -0.2525 -0.4614 -0.7904
  807MPD2    C311883   1.911   2.732   1.616 -0.1536 -0.3334  0.3340
  807MPD2    C411884   1.886   2.860   1.667 -0.5782 -0.6864  0.0843
  807MPD2    C511885   1.951   2.967   1.611 -1.0673 -0.2570 -1.0344
  807MPD2     H11886   2.034   2.612   1.477 -0.0800  0.1209 -2.2080
  807MPD2    H111887   1.811   2.884   1.741 -0.2132 -0.9160  0.5293
  807MPD2    H211888   2.075   3.037   1.467  1.5532 -0.9715 -0.7128
  807MPD2    H311889   1.923   3.059   1.662 -0.0853 -1.2724  1.3188
  807MPD2     N11890   1.834   2.620   1.658  0.0962 -0.5869  1.1195
  807MPD2    H511891   1.866   2.529   1.626  1.0820  0.6560 -1.3917
  807MPD2    N111892   2.164   2.792   1.369  0.1592 -0.1379  0.3386
  807MPD2    H711893   2.180   2.695   1.341  1.5137  0.7317 -1.9163
  808MPD2     C11894   2.416   0.010  10.058  0.2181  0.4982 -0.5175
  808MPD2    C111895   2.407   4.705   9.918  0.9513  0.7351  0.2392
  808MPD2    C211896   2.489   0.053   9.833 -0.3006 -0.6264  0.2755
  808MPD2    C311897   2.578   0.155   9.879 -0.2341  0.2064  0.0280
  808MPD2    C411898   2.592   0.171  10.018 -0.5375  0.9031  0.0252
  808MPD2    C511899   2.508   0.103  10.099  0.2245 -0.5778 -0.0631
  808MPD2     H11900   2.481   0.035   9.727 -1.0831 -2.0325  0.5702
  808MPD2    H111901   2.657   0.247  10.060  1.4458 -0.4618 -0.5933
  808MPD2    H211902   2.369   4.670  10.133  2.5662 -0.6164 -0.0041
  808MPD2    H311903   2.519   0.115  10.206  0.0867  1.7866 -0.3287
  808MPD2     N11904   2.676   0.209   9.799 -0.2843  0.2888  1.2081
  808MPD2    H511905   2.759   0.247   9.842  1.5645 -1.9559 -0.3658
  808MPD2    N111906   2.328   4.609   9.861  0.1362  0.1693  0.7321
  808MPD2    H711907   2.321   4.620   9.761 -0.4858 -0.9770  0.6449
  809MPD2     C11908   2.892   0.970   9.134 -0.3400 -0.1149 -0.4402
  809MPD2    C111909   3.011   0.931   9.188 -0.4428 -0.1955  0.0214
  809MPD2    C211910   3.015   0.823   9.273 -0.1736 -0.0628 -0.0301
  809MPD2    C311911   2.916   0.734   9.277 -0.2295  0.0440 -0.2007
  809MPD2    C411912   2.802   0.764   9.202 -0.1537  0.1686  0.5583
  809MPD2    C511913   2.789   0.888   9.138 -0.6382  0.6387  0.0364
  809MPD2     H11914   3.093   0.803   9.345 -0.2296 -0.2175 -0.0126
  809MPD2    H111915   2.715   0.700   9.190  0.5733 -0.5676 -0.6592
  809MPD2    H211916   2.883   1.056   9.069  0.3399  0.6757  0.5119
  809MPD2    H311917   2.700   0.920   9.086 -0.4902 -0.6626 -1.0040
  809MPD2     N11918   2.940   0.611   9.343 -0.1153 -0.5138 -0.0083
  809MPD2    H511919   3.026   0.600   9.396  0.5061  2.2430 -0.4647
  809MPD2    N111920   3.124   1.017   9.187  0.1232  0.1113  0.6984
  809MPD2    H711921   3.212   0.986   9.226  0.9728  2.7769  0.8550
  810MPD2     C11922   2.392   4.341  10.253  1.2735 -0.3590  0.4382
  810MPD2    C111923   2.354   4.262  10.356 -0.3061 -0.0397  0.8815
  810MPD2    C211924   2.401   4.292  10.480 -0.0832 -0.8233 -0.2446
  810MPD2    C311925   2.482   4.400  10.502 -1.7113  0.8793  0.0880
  810MPD2    C411926   2.518   4.479  10.398  0.0642 -0.3231  0.2372
  810MPD2    C511927   2.473   4.450  10.271 -1.1147 -0.1235 -0.1284
  810MPD2     H11928   2.387   4.225  10.564 -0.2063  0.3107  0.6376
  810MPD2    H111929   2.582   4.566  10.414 -0.9389  0.1699  1.5213
  810MPD2    H211930   2.369   4.315  10.150 -1.1870 -1.9182  1.3760
  810MPD2    H311931   2.496   4.502  10.179 -3.5495  1.8198  0.3595
  810MPD2     N11932   2.554   4.414  10.619  0.1889  0.6886 -0.2160
  810MPD2    H511933   2.638   4.470  10.609 -0.6244  1.9251 -0.0861
  810MPD2    N111934   2.274   4.149  10.329 -0.8547  0.5303 -0.2861
  810MPD2    H711935   2.253   4.138  10.231  0.5096 -1.5036 -0.3379
  811MPD2     C11936   1.711   3.635   9.904 -0.0214 -0.2013 -0.2581
  811MPD2    C111937   1.737   3.747   9.975 -0.3178  0.3241 -0.0601
  811MPD2    C211938   1.651   3.847   9.960 -0.4782  0.4686  0.4302
  811MPD2    C311939   1.528   3.839   9.894  0.8011  0.2344  1.0161
  811MPD2    C411940   1.512   3.722   9.816 -0.4537  0.2087 -0.4500
  811MPD2    C511941   1.605   3.626   9.818  0.2564 -0.1979 -0.8073
  811MPD2     H11942   1.670   3.940  10.014  2.4722  0.0511  0.0896
  811MPD2    H111943   1.430   3.712   9.745 -0.2420  0.5828 -0.7503
  811MPD2    H211944   1.788   3.559   9.901  1.9733  1.8324 -1.0072
  811MPD2    H311945   1.583   3.537   9.760  1.3257 -1.3760  0.5993
  811MPD2     N11946   1.441   3.954   9.884 -0.5147 -0.5624 -0.1850
  811MPD2    H511947   1.476   4.041   9.922  0.7641 -1.8247  1.5406
  811MPD2    N111948   1.857   3.752  10.048 -0.3295 -0.4664  0.3520
  811MPD2    H711949   1.920   3.673  10.049 -1.4945 -1.3822  1.0390
  812MPD2     C11950   0.960   3.698  11.944  0.3422  0.1902 -0.1784
  812MPD2    C111951   0.895   3.763  12.047 -1.0725  0.2293 -0.0708
  812MPD2    C211952   0.849   3.685  12.150 -0.6609  0.0853  0.0199
  812MPD2    C311953   0.880   3.545  12.158  0.0772  0.1711 -0.2048
  812MPD2    C411954   0.946   3.489  12.052  0.2388  0.0403 -0.0789
  812MPD2    C511955   0.985   3.566  11.948 -1.2913 -0.6604  0.2514
  812MPD2     H11956   0.775   3.728  12.217 -0.5138  2.1992 -1.1956
  812MPD2    H111957   0.963   3.382  12.048  0.5875  0.1480 -1.4905
  812MPD2    H211958   0.999   3.752  11.859  1.2509 -0.8183 -0.3935
  812MPD2    H311959   1.044   3.522  11.869 -0.9369 -0.3268  0.3302
  812MPD2     N11960   0.843   3.472  12.275 -0.6853 -0.9170 -0.4638
  812MPD2    H511961   0.798   3.519  12.352  1.6792 -0.0745  0.3811
  812MPD2    N111962   0.878   3.903  12.046  0.4407 -0.3538  0.6845
  812MPD2    H711963   0.925   3.951  11.970  1.8843 -1.8933  0.6225
  813MPD2     C11964   4.482   0.826  12.448  0.3066  0.3059  0.0138
  813MPD2    C111965   4.562   0.775  12.548 -0.7587  0.3846 -0.6691
  813MPD2    C211966   4.497   0.708  12.650 -0.5966  0.1687 -0.1773
  813MPD2    C311967   4.363   0.685  12.652  0.3239 -0.6339  0.0891
  813MPD2    C411968   4.283   0.739  12.554  0.6476  0.7675  0.2267
  813MPD2    C511969   4.348   0.797  12.445 -0.0132 -0.7431  0.4026
  813MPD2     H11970   4.546   0.671  12.740 -0.8833 -1.6582 -0.7866
  813MPD2    H111971   4.175   0.737  12.562  1.0472 -1.0903  5.1433
  813MPD2    H211972   4.525   0.889  12.371  0.1430  0.4545  0.0444
  813MPD2    H311973   4.289   0.825  12.358 -0.6259  1.5509  1.5607
  813MPD2     N11974   4.320   0.627  12.770 -0.5611 -0.4115 -0.6169
  813MPD2    H511975   4.398   0.593  12.827 -0.9765 -0.9315 -0.3627
  813MPD2    N111976   4.695   0.810  12.573  0.9591  0.2165  0.1044
  813MPD2    H711977   0.007   0.790  12.666 -0.8916  1.2138  1.0369
  814MPD2     C11978   0.242   2.298  12.168  0.0303 -0.2334  0.0111
  814MPD2    C111979   0.341   2.270  12.073  0.9765  0.3618  0.0974
  814MPD2    C211980   0.442   2.359  12.048  0.2744 -0.1401  0.0720
  814MPD2    C311981   0.424   2.486  12.101 -0.0689  0.3386 -0.2436
  814MPD2    C411982   0.317   2.521  12.170  0.2054 -0.0214 -1.0835
  814MPD2    C511983   0.227   2.427  12.211  0.2194 -0.2969 -0.0391
  814MPD2     H11984   0.525   2.343  11.981  1.9556  0.5497  1.9774
  814MPD2    H111985   0.304   2.624  12.200  1.6049 -0.7225  1.9495
  814MPD2    H211986   0.162   2.230  12.196  0.2799 -0.6728 -0.3482
  814MPD2    H311987   0.150   2.464  12.278 -1.6357 -2.2109 -1.0882
  814MPD2     N11988   0.521   2.591  12.083  0.5440 -0.0586  0.3943
  814MPD2    H511989   0.485   2.685  12.096  1.2323  0.6130 -2.5673
  814MPD2    N111990   0.339   2.151  11.998  0.0729 -0.4189  0.2501
  814MPD2    H711991   0.398   2.143  11.916  1.9722  0.4013  1.5533
  815MPD2     C11992   1.070   1.226  11.646  0.3302 -0.0474 -0.2224
  815MPD2    C111993   1.055   1.096  11.701 -0.3549 -0.3530  0.1362
  815MPD2    C211994   0.943   1.072  11.786  0.7129 -0.3007  0.6182
  815MPD2    C311995   0.851   1.169  11.812 -0.8613  0.0466  0.5313
  815MPD2    C411996   0.876   1.296  11.764  0.2568  0.8947  0.4716
  815MPD2    C511997   0.986   1.327  11.682  0.7784  0.4424  0.7909
  815MPD2     H11998   0.924   0.974  11.827  0.2485  0.4741  2.2538
  815MPD2    H111999   0.809   1.377  11.792  0.6628  0.6295  2.1736
  815MPD2    H212000   1.151   1.256  11.580  0.9357  1.8892  1.4009
  815MPD2    H312001   1.001   1.432  11.661  0.5462  0.2921 -0.1267
  815MPD2     N12002   0.743   1.137  11.894 -0.2915 -0.0714 -0.4298
  815MPD2    H512003   0.740   1.044  11.935  0.4629  0.5764  1.0630
  815MPD2    N112004   1.161   1.011  11.668 -0.6115  0.3030  0.1323
  815MPD2    H712005   1.219   1.045  11.592  0.3851 -1.2862  0.1907
  816MPD2     C12006   0.285   4.345  17.140  1.0619  0.4301 -0.1636
  816MPD2    C112007   0.398   4.418  17.162 -0.4272 -0.1218  0.1533
  816MPD2    C212008   0.518   4.367  17.126  0.1628  0.4229 -0.7777
  816MPD2    C312009   0.538   4.237  17.079  0.3049  0.0053 -0.1009
  816MPD2    C412010   0.430   4.165  17.063  0.2974  0.6647 -0.3538
  816MPD2    C512011   0.306   4.217  17.093 -0.7821  0.1968 -0.1644
  816MPD2     H12012   0.603   4.433  17.139  0.7134 -0.6273  0.9543
  816MPD2    H112013   0.429   4.063  17.028  1.6346  0.5804 -0.1372
  816MPD2    H212014   0.185   4.379  17.163  0.1042 -2.3550 -0.1701
  816MPD2    H312015   0.222   4.148  17.090 -0.2148 -0.4352 -1.2550
  816MPD2     N12016   0.672   4.199  17.048 -0.1974  0.4966 -0.0028
  816MPD2    H512017   0.750   4.261  17.065 -1.0870  1.2503  1.2972
  816MPD2    N112018   0.393   4.551  17.218 -0.4204 -0.3256  0.5941
  816MPD2    H712019   0.302   4.591  17.242 -1.0903 -0.7603 -1.2081
  817MPD2     C12020   0.727   1.124   9.917 -0.7485  0.2123 -0.5540
  817MPD2    C112021   0.803   1.166   9.805  0.1614  0.3330 -0.1181
  817MPD2    C212022   0.763   1.282   9.740 -0.1401 -0.3438  1.3248
  817MPD2    C312023   0.645   1.350   9.769 -0.8351  0.3754  0.5861
  817MPD2    C412024   0.564   1.292   9.866  0.2770  0.2148  0.0237
  817MPD2    C512025   0.609   1.188   9.940  0.1179  0.2493  0.4215
  817MPD2     H12026   0.819   1.333   9.663  0.4689 -2.2276  0.5168
  817MPD2    H112027   0.475   1.344   9.899  0.6305 -0.3660  1.8468
  817MPD2    H212028   0.748   1.036   9.976 -2.1835 -1.4103 -2.4238
  817MPD2    H312029   0.553   1.151  10.024  0.8822  1.4500  1.4608
  817MPD2     N12030   0.613   1.466   9.692  0.7351 -1.1089 -0.4159
  817MPD2    H512031   0.681   1.489   9.620  1.9998 -2.1764  0.4445
  817MPD2    N112032   0.916   1.099   9.768  0.5968  0.4563 -0.4443
  817MPD2    H712033   0.963   1.139   9.688  1.6827 -2.2037 -1.1306
  818MPD2     C12034   4.399   1.369   9.734  0.0249 -0.0496 -0.7735
  818MPD2    C112035   4.399   1.284   9.846 -0.1025  0.3715  0.0437
  818MPD2    C212036   4.492   1.188   9.843 -0.2415  0.1902  0.1017
  818MPD2    C312037   4.553   1.143   9.732 -0.2559  0.7181  0.1589
  818MPD2    C412038   4.547   1.221   9.620  0.1046 -0.5660 -0.4882
  818MPD2    C512039   4.467   1.332   9.627 -0.0558 -0.0056  0.3226
  818MPD2     H12040   4.499   1.117   9.925  2.3879 -0.1771 -0.4366
  818MPD2    H112041   4.610   1.209   9.532  0.9487  0.1715  0.0086
  818MPD2    H212042   4.323   1.445   9.729 -0.7290 -0.9347 -2.6113
  818MPD2    H312043   4.477   1.387   9.534 -5.0224  1.7699  0.8405
  818MPD2     N12044   4.615   1.018   9.740  0.1257 -0.3454  0.2664
  818MPD2    H512045   4.627   0.966   9.827  0.5954 -3.1666 -1.5062
  818MPD2    N112046   4.304   1.296   9.949 -0.1703 -0.2611 -0.5777
  818MPD2    H712047   4.300   1.221  10.017  0.9068 -1.3514 -1.7293
  819MPD2     C12048   2.215   2.810  15.437 -0.0736  0.0314  0.2596
  819MPD2    C112049   2.199   2.678  15.408  0.5250 -0.9502  0.0964
  819MPD2    C212050   2.293   2.590  15.459 -0.7346  0.2915  0.4875
  819MPD2    C312051   2.413   2.630  15.513  0.1494 -0.2308 -0.4553
  819MPD2    C412052   2.427   2.759  15.548 -0.2160 -0.0465 -0.7060
  819MPD2    C512053   2.328   2.851  15.512 -0.3413 -0.3870  0.5543
  819MPD2     H12054   2.298   2.484  15.437  1.6668  0.3041  0.9838
  819MPD2    H112055   2.509   2.792  15.610 -1.3022  1.3428  0.0026
  819MPD2    H212056   2.151   2.885  15.394  2.3058 -0.3354 -3.8812
  819MPD2    H312057   2.341   2.955  15.538  0.8970 -0.0286 -1.5498
  819MPD2     N12058   2.511   2.534  15.553  0.3268  0.3251 -0.4852
  819MPD2    H512059   2.580   2.568  15.619  2.3957  1.2895 -3.1285
  819MPD2    N112060   2.074   2.648  15.340  0.6672  0.3035  0.0930
  819MPD2    H712061   2.017   2.724  15.304  1.5790  0.9747  0.0752
  820MPD2     C12062   1.322   3.077  14.934  0.8776  0.4338  0.4077
  820MPD2    C112063   1.455   3.103  14.954 -0.2140  0.0889  0.3559
  820MPD2    C212064   1.545   2.995  14.972  0.9676  1.2099  0.2057
  820MPD2    C312065   1.486   2.869  14.979  0.3883 -0.6344  0.4007
  820MPD2    C412066   1.351   2.846  14.946  0.5875  0.6610  0.0732
  820MPD2    C512067   1.273   2.952  14.919 -0.4602  0.0092 -1.2999
  820MPD2     H12068   1.644   3.022  15.006  0.4596  1.4682  1.5175
  820MPD2    H112069   1.320   2.744  14.931  0.8672  0.5230  0.4387
  820MPD2    H212070   1.261   3.162  14.904 -0.8132  0.2111  3.1723
  820MPD2    H312071   1.173   2.937  14.881 -0.4944  1.8191 -1.9388
  820MPD2     N12072   1.562   2.760  15.023 -0.1146 -0.1823 -0.3691
  820MPD2    H512073   1.514   2.677  15.054 -2.4874  0.6404 -1.8245
  820MPD2    N112074   1.489   3.240  14.964  0.3249 -1.0574 -0.3486
  820MPD2    H712075   1.421   3.311  14.939 -1.8099 -2.7209  0.8467
  821MPD2     C12076   2.394   4.594  12.884 -0.2204  0.0890  0.0649
  821MPD2    C112077   2.517   4.525  12.884  0.6067 -0.4623 -0.3880
  821MPD2    C212078   2.629   4.598  12.887  0.3822 -0.4578  0.2971
  821MPD2    C312079   2.626   0.016  12.903  0.3067  0.2080 -0.4204
  821MPD2    C412080   2.501   0.077  12.889  0.4460  0.2130  0.6128
  821MPD2    C512081   2.387   0.001  12.874  0.2905 -0.1519  0.3752
  821MPD2     H12082   2.725   4.548  12.888 -0.1380 -1.4431  0.4048
  821MPD2    H112083   2.500   0.183  12.868  0.3941 -0.3020 -2.0057
  821MPD2    H212084   2.302   4.542  12.863 -1.6606  1.4676  2.8948
  821MPD2    H312085   2.288   0.045  12.864  1.5152  1.9702 -2.3168
  821MPD2     N12086   2.741   0.092  12.884  0.4773  0.3684  0.1921
  821MPD2    H512087   2.741   0.190  12.859  0.0888  0.0410 -1.1086
  821MPD2    N112088   2.522   4.385  12.879 -0.2267  0.3981 -0.0182
  821MPD2    H712089   2.616   4.349  12.871 -0.9612 -1.2252 -1.3974
  822MPD2     C12090   2.744   4.411  15.719 -0.2051  0.4936 -0.1263
  822MPD2    C112091   2.781   4.340  15.830  0.2847 -0.5829  0.5241
  822MPD2    C212092   2.755   4.402  15.950 -0.7476 -0.1387  0.2236
  822MPD2    C312093   2.698   4.526  15.966 -0.2966 -0.3781  0.3561
  822MPD2    C412094   2.664   4.595  15.851  0.5751 -0.9615  0.5594
  822MPD2    C512095   2.689   4.534  15.733 -0.1859  0.3283 -0.3634
  822MPD2     H12096   2.775   4.337  16.034  0.2336  2.8736  2.3497
  822MPD2    H112097   2.630   4.698  15.843 -0.3042 -1.5778 -3.3865
  822MPD2    H212098   2.765   4.386  15.616  0.2199  1.6932 -0.3321
  822MPD2    H312099   2.664   4.576  15.636 -1.3780  2.6043  0.9414
  822MPD2     N12100   2.675   4.571  16.097 -0.1890 -0.1006  0.3657
  822MPD2    H512101   2.701   4.518  16.179 -0.8762  1.5874  1.6836
  822MPD2    N112102   2.845   4.216  15.822  1.0817  0.3829 -0.1968
  822MPD2    H712103   2.864   4.167  15.909 -5.6121  0.4319  1.3195
  823MPD2     C12104   2.396   4.412  16.897  0.1321 -0.1051  0.1185
  823MPD2    C112105   2.435   4.377  16.767  0.1364 -0.0900 -0.2957
  823MPD2    C212106   2.442   4.246  16.735  0.3912  0.3726  0.1524
  823MPD2    C312107   2.414   4.146  16.828  0.3519  0.6356 -0.0464
  823MPD2    C412108   2.369   4.183  16.954 -0.6828  0.2371  0.2985
  823MPD2    C512109   2.364   4.320  16.989 -0.5957 -0.3213 -0.1607
  823MPD2     H12110   2.474   4.209  16.638 -1.2159 -2.0886  0.5518
  823MPD2    H112111   2.353   4.105  17.027 -0.5203  2.2929  2.5109
  823MPD2    H212112   2.400   4.518  16.921  1.4896 -0.5027  1.5912
  823MPD2    H312113   2.336   4.347  17.091  0.5869 -1.1420  0.3876
  823MPD2     N12114   2.435   4.006  16.809 -0.3014 -0.0817 -0.6083
  823MPD2    H512115   2.429   3.948  16.892  2.3316 -1.4401 -1.3635
  823MPD2    N112116   2.484   4.478  16.679 -0.4376  0.5504  0.3594
  823MPD2    H712117   2.480   4.573  16.715  0.8659  1.1558 -1.1146
  824MPD2     C12118   2.970   3.385  15.640  0.3566  0.3210 -0.2665
  824MPD2    C112119   3.073   3.460  15.692 -0.3920  0.5218  0.0811
  824MPD2    C212120   3.197   3.400  15.694 -0.8071  0.4661 -0.0730
  824MPD2    C312121   3.219   3.274  15.641  0.6116  0.0531 -0.1489
  824MPD2    C412122   3.116   3.194  15.598  0.2737 -0.0770  0.0366
  824MPD2    C512123   2.993   3.248  15.604  0.1125 -0.2801  0.7279
  824MPD2     H12124   3.279   3.464  15.725 -0.2384 -1.4102  2.2654
  824MPD2    H112125   3.125   3.088  15.581  2.0201  0.6502 -3.5541
  824MPD2    H212126   2.867   3.417  15.630  0.2264 -0.1622 -0.4989
  824MPD2    H312127   2.907   3.192  15.567  0.6184  0.3863 -1.4359
  824MPD2     N12128   3.356   3.235  15.634 -0.0704  0.1422 -0.3229
  824MPD2    H512129   3.422   3.311  15.646  0.4812  0.0047 -2.4128
  824MPD2    N112130   3.063   3.591  15.728 -0.0179 -0.2421  0.0225
  824MPD2    H712131   3.134   3.620  15.795  0.1470 -1.2407  0.2902
  825MPD2     C12132   4.072   3.250  15.165 -0.2154 -0.1062 -0.2731
  825MPD2    C112133   3.981   3.319  15.235  0.3971 -0.1477 -0.4247
  825MPD2    C212134   3.964   3.457  15.209 -0.0028  0.2651 -0.4140
  825MPD2    C312135   4.042   3.511  15.103 -0.1247  0.6365 -0.4999
  825MPD2    C412136   4.136   3.437  15.042 -0.1363 -0.0082  0.2740
  825MPD2    C512137   4.155   3.307  15.078  0.7713 -0.1125 -0.3755
  825MPD2     H12138   3.891   3.516  15.264 -0.3402 -0.8155  0.3009
  825MPD2    H112139   4.198   3.492  14.973 -0.9968 -0.5703 -0.9495
  825MPD2    H212140   4.085   3.146  15.190  0.1054  0.7085  2.9710
  825MPD2    H312141   4.239   3.243  15.052 -0.6819 -0.9363 -3.0953
  825MPD2     N12142   4.014   3.636  15.042  0.2118 -0.5677 -0.1402
  825MPD2    H512143   4.059   3.661  14.955 -1.0285  0.9552 -0.3317
  825MPD2    N112144   3.900   3.250  15.322  0.0648  0.3045  0.2923
  825MPD2    H712145   3.917   3.151  15.339  1.5104  0.1306 -2.1155
  826MPD2     C12146   3.892   3.117  13.807  0.2244 -0.3750  0.0130
  826MPD2    C112147   3.930   3.175  13.691 -0.5640  0.1307 -0.3515
  826MPD2    C212148   3.836   3.251  13.624 -0.4414 -0.1013 -0.1300
  826MPD2    C312149   3.712   3.278  13.676  0.1464  0.0744 -0.3368
  826MPD2    C412150   3.688   3.224  13.802 -0.0359 -0.5817  0.4903
  826MPD2    C512151   3.770   3.134  13.864 -0.1405  0.1136 -0.0019
  826MPD2     H12152   3.861   3.295  13.528 -1.4591 -2.5898 -1.5452
  826MPD2    H112153   3.600   3.257  13.857  0.4882  3.8082 -1.2964
  826MPD2    H212154   3.954   3.046  13.860  2.1050 -0.6656 -2.5489
  826MPD2    H312155   3.751   3.097  13.964 -0.7608 -0.6485 -0.4068
  826MPD2     N12156   3.620   3.371  13.620  0.6236  0.1346 -0.0659
  826MPD2    H512157   3.522   3.372  13.648  0.7477  0.3018  0.3563
  826MPD2    N112158   4.059   3.153  13.642  0.0092 -0.2485 -0.3005
  826MPD2    H712159   4.114   3.088  13.698  1.5453  1.5201  0.2588
  827MPD2     C12160   0.400   0.520   9.590 -0.2513 -0.0559  0.9165
  827MPD2    C112161   0.353   0.406   9.639  0.0894  0.7256  0.2620
  827MPD2    C212162   0.278   0.330   9.556 -0.3919  0.4724  0.2740
  827MPD2    C312163   0.236   0.366   9.430  0.9436  0.1319 -0.2666
  827MPD2    C412164   0.272   0.489   9.389 -0.0691 -0.1563 -0.5921
  827MPD2    C512165   0.355   0.564   9.468 -0.3576  0.2803  0.0392
  827MPD2     H12166   0.243   0.230   9.581 -2.6317  0.8425 -1.3172
  827MPD2    H112167   0.241   0.529   9.294 -1.6137 -0.6666 -0.3048
  827MPD2    H212168   0.449   0.592   9.653 -1.4742  2.7107 -1.3213
  827MPD2    H312169   0.386   0.663   9.437 -1.7314  1.3481  2.1039
  827MPD2     N12170   0.172   0.271   9.343 -0.8817  0.3456 -0.1594
  827MPD2    H512171   0.129   0.190   9.386  1.8057 -0.8660  0.2357
  827MPD2    N112172   0.392   0.375   9.769 -0.0754 -0.7252 -0.1469
  827MPD2    H712173   0.461   0.432   9.817  1.1851 -2.0990 -0.3503
  828MPD2     C12174   3.316   4.606  12.650 -0.0125  0.2620  0.9800
  828MPD2    C112175   3.328   4.637  12.514  0.9528 -0.1640 -0.6844
  828MPD2    C212176   3.440   4.590  12.443 -0.4298  0.6713  0.3108
  828MPD2    C312177   3.537   4.511  12.499 -0.1883 -0.5097 -0.0563
  828MPD2    C412178   3.521   4.494  12.636  0.7762  0.5724 -0.1525
  828MPD2    C512179   3.420   4.542  12.712 -0.4344  0.2004  0.0917
  828MPD2     H12180   3.433   4.611  12.337 -1.4489  1.9677  0.6425
  828MPD2    H112181   3.592   4.438  12.695  1.9090  1.0828 -1.0157
  828MPD2    H212182   3.227   4.626  12.708 -0.1747 -1.2789  1.2615
  828MPD2    H312183   3.412   4.503  12.812  0.9253  0.3702  0.2616
  828MPD2     N12184   3.636   4.446  12.424  0.0334 -0.3118 -0.0215
  828MPD2    H512185   3.699   4.391  12.481 -0.3490  0.4138  1.1156
  828MPD2    N112186   3.222   4.703  12.446  0.2259 -0.4504  0.0085
  828MPD2    H712187   3.241   0.015  12.353  1.6676 -1.0677  0.0731
  829MPD2     C12188   3.261   0.182  11.623 -0.2369  0.0164  0.0683
  829MPD2    C112189   3.146   0.252  11.655  0.0452 -0.4122  0.2078
  829MPD2    C212190   3.078   0.227  11.773 -0.4450  0.3695 -0.0028
  829MPD2    C312191   3.136   0.142  11.869 -0.0095  0.1556 -0.1086
  829MPD2    C412192   3.250   0.076  11.833  0.1419  0.2165  0.3284
  829MPD2    C512193   3.319   0.106  11.718 -0.1412  0.1670  1.0435
  829MPD2     H12194   2.986   0.280  11.795 -2.3654 -2.4184 -1.3081
  829MPD2    H112195   3.296   0.011  11.907 -0.4600 -0.4449  0.1214
  829MPD2    H212196   3.304   0.189  11.524 -2.3871  0.9559 -0.8054
  829MPD2    H312197   3.417   0.063  11.705  0.1420  0.4973  2.0642
  829MPD2     N12198   3.082   0.120  11.997  0.1388 -0.1847  0.3333
  829MPD2    H512199   3.137   0.049  12.044 -0.3079 -0.6734  0.1113
  829MPD2    N112200   3.090   0.336  11.555 -1.0063 -0.5438 -0.0419
  829MPD2    H712201   3.152   0.345  11.475 -0.0067 -1.3289  0.6433
  830MPD2     C12202   3.152   2.553  15.717  0.1089  0.1459 -0.7864
  830MPD2    C112203   3.095   2.519  15.601 -0.4346  0.2096 -0.2415
  830MPD2    C212204   3.120   2.597  15.489 -0.2210  0.1948 -0.2263
  830MPD2    C312205   3.206   2.707  15.493 -0.7256  0.1905 -0.2738
  830MPD2    C412206   3.281   2.717  15.605 -0.1214 -0.7713  0.5168
  830MPD2    C512207   3.250   2.648  15.717  0.2211  0.1791  0.2369
  830MPD2     H12208   3.058   2.587  15.401  0.9021 -0.9004 -0.8988
  830MPD2    H112209   3.362   2.788  15.615 -1.1686  0.2969  1.3751
  830MPD2    H212210   3.144   2.497  15.809 -1.7129  0.8735 -0.5144
  830MPD2    H312211   3.300   2.669  15.811 -0.8774 -0.4061  0.9450
  830MPD2     N12212   3.233   2.798  15.387 -0.1298  0.3539  0.1480
  830MPD2    H512213   3.296   2.871  15.418  1.5307 -0.8106 -0.4984
  830MPD2    N112214   3.011   2.409  15.602 -0.8083 -0.1915 -0.5418
  830MPD2    H712215   2.980   2.376  15.693  0.2732  1.5089  0.4358
  831MPD2     C12216   2.948   4.349  16.382  0.3283 -0.2851 -0.3906
  831MPD2    C112217   2.989   4.279  16.272 -0.6286 -0.5547 -0.6150
  831MPD2    C212218   2.909   4.181  16.223  0.0836 -0.4675 -0.1113
  831MPD2    C312219   2.789   4.162  16.281 -1.0860  0.2800 -0.6768
  831MPD2    C412220   2.757   4.222  16.404  0.2999 -0.0182  0.5613
  831MPD2    C512221   2.838   4.322  16.451 -0.7420  0.0511  0.1355
  831MPD2     H12222   2.939   4.134  16.131  0.9421  2.6204 -1.4049
  831MPD2    H112223   2.683   4.187  16.475 -1.1516  1.7980 -0.0588
  831MPD2    H212224   3.014   4.422  16.426  0.3204  0.3224 -1.3844
  831MPD2    H312225   2.816   4.366  16.548 -0.5175 -1.4252  0.8590
  831MPD2     N12226   2.693   4.071  16.229  0.3819 -0.4521 -0.5868
  831MPD2    H512227   2.609   4.055  16.283 -0.2118 -1.8419 -1.9389
  831MPD2    N112228   3.105   4.307  16.201 -0.0916  0.3649  0.0806
  831MPD2    H712229   3.133   4.233  16.139  1.0603 -0.1413  1.2046
  832MPD2     C12230   1.276   0.691  17.365  0.3056 -0.2758  0.8609
  832MPD2    C112231   1.274   0.829  17.347  0.5337  0.4719 -0.2552
  832MPD2    C212232   1.167   0.887  17.282  0.1684 -0.0874 -0.5044
  832MPD2    C312233   1.070   0.808  17.226 -0.0066 -0.6732 -0.4540
  832MPD2    C412234   1.080   0.675  17.235 -0.4863  0.3015  0.6467
  832MPD2    C512235   1.180   0.617  17.305  0.3587 -0.8506  0.1004
  832MPD2     H12236   1.171   0.995  17.274  1.2042 -0.1411 -0.7223
  832MPD2    H112237   1.001   0.618  17.187 -0.7228 -0.0940  1.4978
  832MPD2    H212238   1.360   0.646  17.417  0.1108  0.3269  1.6942
  832MPD2    H312239   1.181   0.509  17.317 -0.2483 -0.8087  0.5216
  832MPD2     N12240   0.961   0.872  17.163 -0.1579 -0.5938  0.5188
  832MPD2    H512241   0.890   0.811  17.123 -1.0749  0.3539  0.6961
  832MPD2    N112242   1.378   0.896  17.407 -0.3031 -1.1049 -0.1769
  832MPD2    H712243   1.451   0.856  17.465  0.6508 -0.0906 -0.6754
  833MPD2     C12244   3.583   2.115  12.564  1.0328 -0.1479  0.2340
  833MPD2    C112245   3.539   2.213  12.471  0.0823  0.4645  0.5132
  833MPD2    C212246   3.556   2.186  12.332 -0.4805  0.2708 -0.6840
  833MPD2    C312247   3.612   2.069  12.292 -0.4879 -0.7289  0.3598
  833MPD2    C412248   3.651   1.970  12.384  0.4083 -0.1305 -0.2737
  833MPD2    C512249   3.639   1.998  12.519 -0.4980 -0.1046  0.5450
  833MPD2     H12250   3.533   2.259  12.255 -0.5822 -0.5755 -1.4663
  833MPD2    H112251   3.685   1.871  12.356  2.7808 -0.2206  2.9611
  833MPD2    H212252   3.577   2.126  12.671  2.2552  2.8327 -0.0102
  833MPD2    H312253   3.668   1.925  12.594 -0.4696 -1.5604 -0.8959
  833MPD2     N12254   3.612   2.050  12.150  0.2742 -0.4763 -0.5953
  833MPD2    H512255   3.570   2.130  12.105 -0.4037 -0.2867  0.3510
  833MPD2    N112256   3.493   2.336  12.521  0.2371  0.7850  0.8413
  833MPD2    H712257   3.512   2.360  12.617 -2.5255  1.3674  1.2446
  834MPD2     C12258   4.074   1.745  11.329  0.2896  0.3123 -0.0853
  834MPD2    C112259   3.994   1.668  11.411 -0.0825  1.2215  0.3456
  834MPD2    C212260   3.942   1.725  11.530  0.0435 -0.0201 -0.4543
  834MPD2    C312261   3.977   1.856  11.568 -0.8709  0.0682 -0.2207
  834MPD2    C412262   4.057   1.932  11.483 -0.4738 -0.4281 -0.1492
  834MPD2    C512263   4.104   1.875  11.363  0.9662 -0.1417 -0.4096
  834MPD2     H12264   3.868   1.671  11.588  0.0245 -1.8943 -2.2412
  834MPD2    H112265   4.081   2.037  11.490  0.5143 -0.3830 -4.0470
  834MPD2    H212266   4.114   1.715  11.233  0.2457  1.1833 -0.3787
  834MPD2    H312267   4.158   1.935  11.291 -1.6385  0.2268 -2.0476
  834MPD2     N12268   3.912   1.903  11.681 -0.3311  0.9438  0.3609
  834MPD2    H512269   3.860   1.831  11.731  1.4472 -0.4173  0.2595
  834MPD2    N112270   3.964   1.535  11.386  0.3798  0.2936  0.1849
  834MPD2    H712271   3.913   1.480  11.454  0.8317  0.1945  0.4370
  835MPD2     C12272   4.240   4.075  10.979  0.2129  0.3338 -0.0329
  835MPD2    C112273   4.117   4.139  10.962 -0.0623  0.0559  0.1721
  835MPD2    C212274   4.076   4.226  11.059  0.2012 -0.2422  0.2546
  835MPD2    C312275   4.146   4.249  11.172  0.4842  0.4001 -0.5273
  835MPD2    C412276   4.266   4.177  11.186  0.9184 -0.1056  0.1722
  835MPD2    C512277   4.315   4.094  11.090  0.5224 -0.8388  0.3037
  835MPD2     H12278   3.979   4.271  11.040 -0.2235 -0.8885  0.9084
  835MPD2    H112279   4.325   4.192  11.275 -0.9653 -1.9233  1.7144
  835MPD2    H212280   4.273   3.995  10.914  1.8766  1.7751 -0.9625
  835MPD2    H312281   4.406   4.038  11.105 -0.3526 -2.7601 -1.4419
  835MPD2     N12282   4.113   4.333  11.277 -0.0278 -0.2857 -0.3057
  835MPD2    H512283   4.169   4.336  11.361  0.6998 -1.1983 -0.7502
  835MPD2    N112284   4.031   4.120  10.849  0.2122 -0.1115  0.1474
  835MPD2    H712285   3.948   4.177  10.840  0.9655  1.2739  1.7913
  836MPD2     C12286   3.743   0.317  11.309  0.3478 -0.3939  0.2887
  836MPD2    C112287   3.706   0.244  11.422 -0.3597 -0.2057  1.0409
  836MPD2    C212288   3.627   0.305  11.520 -0.3234 -0.2195 -0.4639
  836MPD2    C312289   3.587   0.437  11.501  0.0149 -0.6302 -0.3106
  836MPD2    C412290   3.644   0.513  11.399 -0.2983  0.2930 -0.1123
  836MPD2    C512291   3.721   0.450  11.305 -0.0270 -0.4256 -0.0651
  836MPD2     H12292   3.605   0.245  11.607 -0.4854 -1.6663 -1.5163
  836MPD2    H112293   3.618   0.617  11.386  2.2840  0.7924 -1.2565
  836MPD2    H212294   3.806   0.272  11.233 -0.7993 -0.8776 -0.3806
  836MPD2    H312295   3.766   0.507  11.225  1.7455 -1.6420  0.0413
  836MPD2     N12296   3.495   0.502  11.584  0.1016 -0.1522 -0.2516
  836MPD2    H512297   3.462   0.592  11.550  0.4225  0.5436  1.2967
  836MPD2    N112298   3.752   0.108  11.423 -0.3004 -0.4316  0.8401
  836MPD2    H712299   3.807   0.077  11.344 -0.6220 -1.4706  1.0202
  837MPD2     C12300   1.569   4.591  10.163 -0.0661  0.0263 -0.4485
  837MPD2    C112301   1.461   4.606  10.077  0.8765 -0.1952 -0.2002
  837MPD2    C212302   1.428   0.010  10.027 -0.2146  0.3805  0.4023
  837MPD2    C312303   1.508   0.117  10.076  0.0020 -0.5376  0.2230
  837MPD2    C412304   1.609   0.101  10.171 -0.6236 -0.0535 -0.4809
  837MPD2    C512305   1.638   4.697  10.206  0.0876  0.1876  0.2025
  837MPD2     H12306   1.352   0.032   9.953 -0.2421 -0.6753  0.1269
  837MPD2    H112307   1.667   0.184  10.210  0.0228 -1.7426  2.1390
  837MPD2    H212308   1.593   4.493  10.203 -0.1701 -0.3063 -1.1814
  837MPD2    H312309   1.726   4.685  10.267 -1.7526  0.9511  2.9872
  837MPD2     N12310   1.494   0.234  10.004 -0.7310  0.4414 -0.0669
  837MPD2    H512311   1.415   0.237   9.939 -0.8583 -1.4029  0.0190
  837MPD2    N112312   1.390   4.502  10.021  0.4422 -0.3392  0.7619
  837MPD2    H712313   1.310   4.527   9.963  1.1955  0.5819  0.1204
  838MPD2     C12314   0.243   2.316  11.232 -0.4192  0.1135  0.5781
  838MPD2    C112315   0.229   2.421  11.307  0.8389  0.0887  0.4063
  838MPD2    C212316   0.118   2.441  11.385 -0.6604  0.3856  0.5054
  838MPD2    C312317   0.013   2.343  11.370 -0.2171 -0.2711 -0.3447
  838MPD2    C412318   0.026   2.237  11.284 -0.1977 -0.0186  1.1617
  838MPD2    C512319   0.146   2.217  11.217  0.8764  0.2648 -0.2393
  838MPD2     H12320   0.124   2.529  11.449  1.2031  1.3855 -1.0473
  838MPD2    H112321   4.675   2.161  11.269 -0.0402  0.4894 -2.4258
  838MPD2    H212322   0.323   2.302  11.160  0.6953 -0.1553  1.8695
  838MPD2    H312323   0.160   2.128  11.158  2.1664 -2.3832  4.0446
  838MPD2     N12324   4.618   2.364  11.443  0.1099 -0.3392 -0.7323
  838MPD2    H512325   4.617   2.451  11.497  1.2045 -1.0575  0.4525
  838MPD2    N112326   0.342   2.512  11.323 -0.1742  0.4573 -0.6275
  838MPD2    H712327   0.318   2.589  11.384 -0.4357  0.9882 -1.3996
  839MPD2     C12328   0.088   2.423  11.795  0.2563  0.1924 -0.0353
  839MPD2    C112329   0.160   2.337  11.718 -0.5669 -0.2156  0.0051
  839MPD2    C212330   0.281   2.372  11.681  0.4582  0.4943 -0.0529
  839MPD2    C312331   0.334   2.491  11.721  0.7289  0.3856 -0.5280
  839MPD2    C412332   0.266   2.578  11.807  0.2440  0.1612  0.0427
  839MPD2    C512333   0.141   2.541  11.838  0.7367  0.4763  0.7983
  839MPD2     H12334   0.336   2.306  11.616 -0.7988 -1.7989  1.2323
  839MPD2    H112335   0.300   2.673  11.847  0.0168  0.3363 -0.1758
  839MPD2    H212336   4.705   2.410  11.813  0.9014 -0.8196  3.1478
  839MPD2    H312337   0.084   2.604  11.905 -0.3152  0.5681 -0.1766
  839MPD2     N12338   0.458   2.522  11.652  0.1739  0.3282  0.5583
  839MPD2    H512339   0.492   2.451  11.588 -2.5002 -0.5032  0.0483
  839MPD2    N112340   0.111   2.218  11.668  0.0896  0.8439 -0.7801
  839MPD2    H712341   0.169   2.158  11.610 -1.1052 -1.5364  0.5134
  840MPD2     C12342   0.882   0.579  10.135 -0.2208 -0.0278  0.1934
  840MPD2    C112343   0.766   0.583  10.211  0.4209  0.3102 -0.6752
  840MPD2    C212344   0.759   0.659  10.321  0.0348 -0.6360 -0.1210
  840MPD2    C312345   0.871   0.721  10.374 -0.0874  0.1605  0.2433
  840MPD2    C412346   0.983   0.723  10.297 -0.3006 -1.1838 -0.3022
  840MPD2    C512347   0.988   0.658  10.181 -0.1924 -0.4824 -0.3751
  840MPD2     H12348   0.666   0.663  10.376  0.6958 -0.8181  0.9951
  840MPD2    H112349   1.075   0.774  10.325 -1.5194  0.0876  1.3507
  840MPD2    H212350   0.904   0.519  10.048  1.2044  1.3258 -0.3902
  840MPD2    H312351   1.075   0.671  10.118  1.4829 -0.1228  2.0669
  840MPD2     N12352   0.890   0.772  10.506 -0.0716  0.0119  0.1901
  840MPD2    H512353   0.977   0.813  10.540  0.5583 -0.1062 -1.3233
  840MPD2    N112354   0.663   0.502  10.166  0.6121 -0.3078 -0.1816
  840MPD2    H712355   0.675   0.445  10.083 -3.7303 -1.2059 -0.1738
  841MPD2     C12356   0.099   4.205  14.718  0.1430  0.4553  0.1467
  841MPD2    C112357   4.698   4.212  14.779 -0.2919  0.0961  0.2732
  841MPD2    C212358   4.645   4.335  14.811 -0.7580  0.0586 -0.3161
  841MPD2    C312359   4.723   4.448  14.789 -0.0235 -0.0080  0.4124
  841MPD2    C412360   0.125   4.438  14.730 -0.0785 -0.5897  0.7582
  841MPD2    C512361   0.172   4.316  14.697 -0.1485 -0.4520 -0.0287
  841MPD2     H12362   4.551   4.345  14.864  0.3514 -0.3475  1.7357
  841MPD2    H112363   0.189   4.524  14.714 -0.7362 -0.6039 -1.9461
  841MPD2    H212364   0.152   4.113  14.696  0.1964  0.5004  0.0870
  841MPD2    H312365   0.270   4.307  14.651  0.0376 -2.6438  0.8002
  841MPD2     N12366   4.668   4.575  14.830  0.1662 -0.8250 -0.0999
  841MPD2    H512367   4.576   4.572  14.872 -0.8707 -0.7839 -2.3418
  841MPD2    N112368   4.634   4.090  14.792 -0.1198  0.3762 -0.3505
  841MPD2    H712369   4.677   4.010  14.747 -2.1304 -1.6619  1.3427
  842MPD2     C12370   0.641   1.420  16.855 -0.2526  0.4785  1.0034
  842MPD2    C112371   0.568   1.317  16.904 -0.2466 -0.7305 -0.1949
  842MPD2    C212372   0.571   1.280  17.035 -0.2377  0.6998  0.0299
  842MPD2    C312373   0.640   1.359  17.126  0.0774  0.6121 -0.3270
  842MPD2    C412374   0.716   1.463  17.079 -0.7875 -0.2077 -0.5146
  842MPD2    C512375   0.727   1.483  16.943  0.5336  0.8591 -0.6511
  842MPD2     H12376   0.527   1.183  17.056 -2.5162  1.4400 -1.3302
  842MPD2    H112377   0.780   1.525  17.141 -2.5980  1.1328 -0.0211
  842MPD2    H212378   0.637   1.467  16.758 -0.5981  1.4705  1.4928
  842MPD2    H312379   0.799   1.556  16.906  1.2717  0.5096  0.0969
  842MPD2     N12380   0.653   1.309  17.263 -0.0421  0.2494 -0.0226
  842MPD2    H512381   0.740   1.334  17.309 -0.6833 -0.5301  1.5951
  842MPD2    N112382   0.484   1.256  16.809 -0.3714 -0.1186  0.0234
  842MPD2    H712383   0.482   1.313  16.725  1.1356  0.9987  0.7348
  843MPD2     C12384   2.199   1.315  17.368 -0.1778  0.3164 -0.0772
  843MPD2    C112385   2.219   1.237  17.480  0.5673 -0.4628 -0.0742
  843MPD2    C212386   2.334   1.260  17.550 -0.0649 -0.3769 -0.2324
  843MPD2    C312387   2.422   1.361  17.511 -0.3723 -0.3384  0.0169
  843MPD2    C412388   2.398   1.446  17.409 -0.2002 -0.0901  0.2941
  843MPD2    C512389   2.284   1.418  17.334 -0.1268 -0.9051  0.2276
  843MPD2     H12390   2.354   1.197  17.636  0.3891  0.8932  0.5909
  843MPD2    H112391   2.469   1.527  17.399 -1.2337  0.6293 -1.1259
  843MPD2    H212392   2.113   1.298  17.303  0.2183  0.4270 -0.6324
  843MPD2    H312393   2.256   1.485  17.253  0.3557 -2.5061 -1.2516
  843MPD2     N12394   2.542   1.380  17.581 -0.4158 -0.3364  0.3567
  843MPD2    H512395   2.576   1.476  17.578 -2.0470  0.3038  2.6009
  843MPD2    N112396   2.105   1.159  17.528  0.2028  0.3058 -0.3989
  843MPD2    H712397   2.026   1.151  17.466  1.3168  0.2678 -1.8244
  844MPD2     C12398   0.866   0.641  16.553  0.1027  0.7224 -0.4455
  844MPD2    C112399   0.960   0.548  16.596 -0.3520 -0.2417  0.1652
  844MPD2    C212400   1.043   0.584  16.701 -0.2137 -0.1070  1.0106
  844MPD2    C312401   1.043   0.713  16.752 -0.0907 -0.1094  0.5387
  844MPD2    C412402   0.956   0.803  16.706  0.2637 -0.4777  0.0739
  844MPD2    C512403   0.868   0.770  16.603 -0.1114  0.1378  1.2362
  844MPD2     H12404   1.116   0.516  16.743 -0.8543 -0.3350  1.7511
  844MPD2    H112405   0.961   0.905  16.744 -1.6029 -0.8857  1.4542
  844MPD2    H212406   0.794   0.612  16.477 -0.8781 -2.2235  1.6234
  844MPD2    H312407   0.802   0.840  16.554 -0.3189 -1.8305 -1.3248
  844MPD2     N12408   1.152   0.740  16.829  0.5818 -0.0892  0.3643
  844MPD2    H512409   1.221   0.669  16.852  1.0639  0.2029 -0.1881
  844MPD2    N112410   0.971   0.419  16.540  0.5936 -0.1180  0.5107
  844MPD2    H712411   1.028   0.357  16.596 -0.5359  0.6713  2.5337
  845MPD2     C12412   1.698   1.572  17.051 -0.1059 -0.5045 -0.1358
  845MPD2    C112413   1.573   1.548  17.094 -0.1125 -0.3556  0.3344
  845MPD2    C212414   1.516   1.422  17.091 -0.2757  0.2535 -0.2115
  845MPD2    C312415   1.594   1.314  17.045 -0.6948  0.6019  0.5062
  845MPD2    C412416   1.724   1.334  16.996 -0.7137 -0.1439  0.3591
  845MPD2    C512417   1.766   1.466  16.998 -0.3371 -0.0528 -0.1308
  845MPD2     H12418   1.412   1.409  17.117  0.2149 -0.2340  1.4808
  845MPD2    H112419   1.791   1.266  16.944 -0.0847  2.4015 -2.1760
  845MPD2    H212420   1.743   1.670  17.052 -1.8058  0.2703 -0.3321
  845MPD2    H312421   1.864   1.491  16.959 -0.1191 -1.4480 -0.4698
  845MPD2     N12422   1.536   1.187  17.052  0.1584 -0.2860  0.4860
  845MPD2    H512423   1.437   1.181  17.073  0.7081 -0.7385  2.9362
  845MPD2    N112424   1.492   1.649  17.149 -0.1910  0.7020 -0.1967
  845MPD2    H712425   1.399   1.622  17.181  0.4044 -2.2280 -0.9559
  846MPD2     C12426   3.195   1.598  13.432 -0.7331 -0.2001  0.0914
  846MPD2    C112427   3.120   1.712  13.442  0.1737 -0.2298  0.1613
  846MPD2    C212428   3.047   1.737  13.563  0.5030  0.0301 -0.3708
  846MPD2    C312429   3.041   1.634  13.652 -0.5963 -0.4599  0.2775
  846MPD2    C412430   3.130   1.524  13.651  0.7516  0.1911 -0.2947
  846MPD2    C512431   3.206   1.507  13.534  0.0111  0.0502  0.0964
  846MPD2     H12432   2.994   1.831  13.574  1.2263  0.5469 -1.3307
  846MPD2    H112433   3.132   1.451  13.731  1.2148  1.1741  0.5973
  846MPD2    H212434   3.258   1.581  13.346 -0.1938 -0.1327  0.4735
  846MPD2    H312435   3.275   1.423  13.529  0.5811  0.3513  2.9119
  846MPD2     N12436   2.962   1.663  13.763  0.4041  0.0216  0.3941
  846MPD2    H512437   2.910   1.750  13.762  0.6080  0.1204 -2.7617
  846MPD2    N112438   3.112   1.811  13.343 -0.3184  0.6867 -0.0768
  846MPD2    H712439   3.062   1.899  13.358 -0.1649  0.8687 -0.6266
  847MPD2     C12440   3.008   2.604  14.050  0.3979  0.8451  0.0496
  847MPD2    C112441   3.112   2.674  14.107  0.3079  0.1474 -0.3403
  847MPD2    C212442   3.173   2.617  14.226 -0.1791 -0.1317 -0.6048
  847MPD2    C312443   3.146   2.492  14.273  0.1198  0.3783  0.2639
  847MPD2    C412444   3.044   2.422  14.210 -0.4299 -0.1620 -0.9055
  847MPD2    C512445   2.982   2.481  14.101  0.3940  0.5181 -0.1467
  847MPD2     H12446   3.258   2.669  14.270 -1.6962  0.8188  1.2040
  847MPD2    H112447   3.019   2.319  14.235  0.2762 -0.2779 -0.6667
  847MPD2    H212448   2.961   2.636  13.958  0.6610 -1.4234 -0.8786
  847MPD2    H312449   2.914   2.410  14.055  1.2824 -1.5447  1.6637
  847MPD2     N12450   3.205   2.452  14.399 -0.0170 -0.1773 -0.1650
  847MPD2    H512451   3.272   2.515  14.441  0.1095  0.5000 -1.3773
  847MPD2    N112452   3.137   2.806  14.062  0.0548  0.5444 -0.0621
  847MPD2    H712453   3.075   2.841  13.990  0.3425 -0.2003 -0.6768
  848MPD2     C12454   0.705   1.187  16.452  0.7679  0.0864  1.3787
  848MPD2    C112455   0.777   1.239  16.557  0.4655 -0.1249  0.4522
  848MPD2    C212456   0.831   1.367  16.549  0.4595  0.0361  0.5641
  848MPD2    C312457   0.816   1.434  16.425  0.2448  0.0139  0.2185
  848MPD2    C412458   0.750   1.374  16.316  0.0432  0.8967 -0.4503
  848MPD2    C512459   0.705   1.246  16.332  0.6381  0.3351  0.4272
  848MPD2     H12460   0.867   1.415  16.639 -1.6776  0.4372  1.1967
  848MPD2    H112461   0.732   1.436  16.229 -1.6558  0.0521 -0.7048
  848MPD2    H212462   0.659   1.090  16.441 -2.0577  1.7161 -1.3572
  848MPD2    H312463   0.643   1.198  16.257  1.8006  0.4691 -0.5981
  848MPD2     N12464   0.856   1.562  16.411 -0.2259  0.4069  0.1001
  848MPD2    H512465   0.841   1.606  16.321 -1.2116 -1.7100 -0.7639
  848MPD2    N112466   0.779   1.175  16.686 -0.0915  0.0164 -0.7072
  848MPD2    H712467   0.833   1.223  16.758 -0.7082 -0.4341  0.0662
  849MPD2     C12468   0.147   1.189  13.938 -0.1108  0.0333 -0.4028
  849MPD2    C112469   0.259   1.121  13.973 -0.1326  0.1570 -0.2733
  849MPD2    C212470   0.261   1.054  14.090  0.0938  0.3714 -0.3971
  849MPD2    C312471   0.149   1.066  14.179 -0.2283 -0.8572  0.1010
  849MPD2    C412472   0.036   1.130  14.137 -0.3254  0.2204 -0.1639
  849MPD2    C512473   0.032   1.192  14.017 -0.0875 -0.4221 -0.5539
  849MPD2     H12474   0.351   1.005  14.124 -0.2105 -0.0605 -0.2097
  849MPD2    H112475   4.668   1.127  14.195  0.1774  2.1182  0.7356
  849MPD2    H212476   0.138   1.251  13.850 -1.0046 -3.2735 -2.6630
  849MPD2    H312477   4.665   1.241  13.983  0.3259 -0.1154 -1.2087
  849MPD2     N12478   0.159   1.012  14.308 -0.1393 -0.3136 -0.3661
  849MPD2    H512479   0.239   0.950  14.319  1.1785  1.7574  1.7064
  849MPD2    N112480   0.371   1.110  13.893  0.9225  0.8565 -0.4492
  849MPD2    H712481   0.436   1.043  13.934 -1.8168 -0.3914  1.8321
  850MPD2     C12482   2.467   3.927  14.995 -0.3383 -0.5635  0.4229
  850MPD2    C112483   2.507   3.801  15.006  0.2515  0.1790 -0.1422
  850MPD2    C212484   2.642   3.781  15.023  0.0800 -0.2628 -0.0561
  850MPD2    C312485   2.739   3.881  15.033  0.6491  0.5681 -0.2310
  850MPD2    C412486   2.688   4.011  15.023  0.0428 -0.5476 -0.0042
  850MPD2    C512487   2.554   4.029  15.004 -0.7024 -0.8634 -0.4519
  850MPD2     H12488   2.672   3.677  15.026  1.6965  0.2279  1.1801
  850MPD2    H112489   2.753   4.097  15.030 -0.2061 -0.2169 -1.6113
  850MPD2    H212490   2.363   3.940  14.969 -0.6502 -1.4278  1.2441
  850MPD2    H312491   2.514   4.129  14.996  0.6432 -0.4117 -1.4690
  850MPD2     N12492   2.874   3.858  15.058  0.2904  0.2662 -0.2141
  850MPD2    H512493   2.927   3.941  15.083  1.8129 -0.8256  0.2438
  850MPD2    N112494   2.413   3.695  14.985 -0.1839  0.2923  0.3539
  850MPD2    H712495   2.327   3.721  14.937 -1.4278 -2.0767  1.2511
  851MPD2     C12496   3.156   3.575  15.399  0.2943 -0.6556 -0.9043
  851MPD2    C112497   3.073   3.490  15.328  0.1632  0.2716  0.1594
  851MPD2    C212498   3.124   3.389  15.240 -0.2275 -0.3622 -0.4064
  851MPD2    C312499   3.254   3.352  15.251  0.4973  0.2577  0.6722
  851MPD2    C412500   3.334   3.434  15.332 -0.2572 -0.0316 -0.1085
  851MPD2    C512501   3.288   3.535  15.410 -0.0869 -0.9467 -0.1818
  851MPD2     H12502   3.056   3.335  15.176 -0.2730 -0.7776 -0.0124
  851MPD2    H112503   3.440   3.411  15.341  0.6736  3.3631 -2.1212
  851MPD2    H212504   3.131   3.658  15.465 -0.9165 -1.3067 -0.5404
  851MPD2    H312505   3.346   3.590  15.483  0.4371 -0.6261 -0.8404
  851MPD2     N12506   3.292   3.238  15.183 -0.4303 -0.0710 -0.7464
  851MPD2    H512507   3.218   3.197  15.128 -1.1658  1.0342 -0.5776
  851MPD2    N112508   2.936   3.526  15.339 -0.4826 -0.1284 -0.5971
  851MPD2    H712509   2.915   3.606  15.398  1.7851  0.3084 -0.3518
  852MPD2     C12510   2.790   1.763   9.940 -0.9476  0.2186 -0.5985
  852MPD2    C112511   2.883   1.738  10.045 -0.2831 -0.3431  0.6357
  852MPD2    C212512   2.997   1.826  10.050 -0.0068 -0.2498 -0.3119
  852MPD2    C312513   3.025   1.922   9.953  0.9120 -0.1357  0.2566
  852MPD2    C412514   2.932   1.933   9.844 -0.2119  0.5709 -0.0344
  852MPD2    C512515   2.820   1.859   9.848  0.5037 -0.1411  0.4577
  852MPD2     H12516   3.062   1.828  10.137 -0.1813 -1.8209 -0.1462
  852MPD2    H112517   2.944   2.009   9.768 -0.8933  1.1220  0.4095
  852MPD2    H212518   2.703   1.699   9.929 -1.5452  0.8185  0.6030
  852MPD2    H312519   2.748   1.870   9.767 -1.9335 -2.6502  2.2908
  852MPD2     N12520   3.144   1.994   9.974 -0.3135 -0.4556  0.5395
  852MPD2    H512521   3.210   1.954  10.040 -1.4185 -2.4078  0.4678
  852MPD2    N112522   2.861   1.633  10.131 -0.1361 -0.7225  0.0485
  852MPD2    H712523   2.940   1.607  10.190 -0.4187  2.0452  1.6723
  853MPD2     C12524   0.260   1.381  12.186  0.3219 -1.0379  0.0851
  853MPD2    C112525   0.139   1.322  12.165  0.0461 -0.4715  0.1024
  853MPD2    C212526   0.084   1.317  12.039 -0.6964  0.0961  0.0638
  853MPD2    C312527   0.158   1.357  11.927  0.1651  0.4412  0.0265
  853MPD2    C412528   0.288   1.394  11.951 -0.2642  0.7608 -0.4818
  853MPD2    C512529   0.336   1.413  12.077  0.1021  0.4624  0.0793
  853MPD2     H12530   4.709   1.274  12.025  0.5344 -1.6038 -3.4389
  853MPD2    H112531   0.362   1.417  11.874  0.4034 -1.6120 -0.5303
  853MPD2    H212532   0.313   1.400  12.278  1.0016 -0.5989 -0.3902
  853MPD2    H312533   0.437   1.450  12.090  0.0586  0.9532 -0.9427
  853MPD2     N12534   0.117   1.353  11.791 -0.5692 -0.5213  0.4728
  853MPD2    H512535   0.195   1.374  11.729 -2.3033  1.4949 -1.0402
  853MPD2    N112536   0.067   1.303  12.282  0.1535  0.3886  0.0210
  853MPD2    H712537   0.109   1.334  12.369 -2.3275  2.0630  0.6340
  854MPD2     C12538   1.434   1.449  12.723 -0.2257  0.2719 -0.2893
  854MPD2    C112539   1.571   1.476  12.703 -0.4815  0.5857 -0.8824
  854MPD2    C212540   1.666   1.396  12.765 -0.3080  0.0379 -0.0840
  854MPD2    C312541   1.634   1.281  12.835 -0.0852  0.0028 -0.2986
  854MPD2    C412542   1.499   1.269  12.866 -0.5764  0.5347 -0.0037
  854MPD2    C512543   1.402   1.356  12.817 -0.3041  0.8100  1.1037
  854MPD2     H12544   1.771   1.419  12.754 -0.1784 -0.4908  0.0341
  854MPD2    H112545   1.467   1.200  12.943 -0.8027 -1.8992 -2.2758
  854MPD2    H212546   1.362   1.507  12.667 -2.9879 -1.0629  1.9026
  854MPD2    H312547   1.301   1.321  12.836 -1.3713  3.5093  0.4693
  854MPD2     N12548   1.728   1.194  12.896  0.8313 -0.1249  0.4349
  854MPD2    H512549   1.693   1.145  12.978  1.0094  2.1752  1.8933
  854MPD2    N112550   1.604   1.585  12.617  0.2044 -0.7251  0.0150
  854MPD2    H712551   1.535   1.626  12.555  1.4286  1.3527  0.0256
  855MPD2     C12552   1.602   1.045  13.681 -0.9657  0.0398 -0.4483
  855MPD2    C112553   1.698   0.951  13.669  0.0961  0.2438  0.0334
  855MPD2    C212554   1.789   0.951  13.561 -0.1292 -0.1571 -0.6593
  855MPD2    C312555   1.771   1.034  13.452  0.3154 -0.2199 -0.2891
  855MPD2    C412556   1.663   1.122  13.460  0.7138 -0.6883 -0.0842
  855MPD2    C512557   1.582   1.128  13.574 -0.2399  0.2284 -0.2249
  855MPD2     H12558   1.881   0.895  13.571  0.6251  1.1006 -0.6258
  855MPD2    H112559   1.653   1.189  13.376  2.4774  2.4739  2.2408
  855MPD2    H212560   1.525   1.054  13.757 -2.5861 -0.6240 -2.0016
  855MPD2    H312561   1.498   1.197  13.575 -0.1732  0.3307 -1.4608
  855MPD2     N12562   1.857   1.053  13.340 -0.2492 -0.5823  0.5119
  855MPD2    H512563   1.826   1.131  13.282  1.7983  0.5206  0.8873
  855MPD2    N112564   1.717   0.862  13.771 -0.9981  0.0063 -0.5256
  855MPD2    H712565   1.807   0.815  13.773 -1.1530 -0.2674  0.1272
  856MPD2     C12566   4.040   1.918  13.525  0.5591  0.0537 -0.6766
  856MPD2    C112567   4.096   1.979  13.633 -0.3208  0.1725  0.4313
  856MPD2    C212568   4.025   2.069  13.703 -0.0071 -0.6079  0.0201
  856MPD2    C312569   3.894   2.103  13.671  0.0247 -0.0122 -0.7588
  856MPD2    C412570   3.839   2.027  13.571  0.2793  0.1340  0.7019
  856MPD2    C512571   3.912   1.935  13.495  0.8091  0.1535 -0.3734
  856MPD2     H12572   4.081   2.129  13.774 -3.4189  2.3559  0.2052
  856MPD2    H112573   3.736   2.029  13.536  1.4145  0.6912 -2.6603
  856MPD2    H212574   4.096   1.841  13.473  1.6736  0.6310 -0.3277
  856MPD2    H312575   3.860   1.893  13.410 -1.2254 -2.8267  2.3616
  856MPD2     N12576   3.827   2.211  13.735  0.6873  0.1738  0.7789
  856MPD2    H512577   3.740   2.239  13.691  1.2550  0.9102  0.1203
  856MPD2    N112578   4.227   1.961  13.676  0.2045 -0.5681 -0.6289
  856MPD2    H712579   4.265   2.011  13.755  0.8667  2.7053 -3.0293
  857MPD2     C12580   0.526   4.294  12.431 -0.7488  0.4083 -0.5204
  857MPD2    C112581   0.650   4.298  12.491 -0.2205 -0.4513  0.5973
  857MPD2    C212582   0.687   4.416  12.547  0.0295 -0.3573 -0.4582
  857MPD2    C312583   0.622   4.532  12.515 -0.1075  0.7141 -0.4711
  857MPD2    C412584   0.514   4.529  12.433  0.2424  0.8920  0.4981
  857MPD2    C512585   0.467   4.410  12.394  0.7515 -0.0714 -0.4252
  857MPD2     H12586   0.777   4.424  12.607  1.0194  0.4224 -2.0530
  857MPD2    H112587   0.459   4.622  12.419 -0.9311 -0.2993 -2.8020
  857MPD2    H212588   0.475   4.205  12.394  0.6086 -0.7267  0.3434
  857MPD2    H312589   0.372   4.398  12.343  0.4610  0.0314  0.0851
  857MPD2     N12590   0.667   4.649  12.571 -0.0541  0.0528  0.2379
  857MPD2    H512591   0.734   4.637  12.647  1.9323 -1.8349 -1.8363
  857MPD2    N112592   0.722   4.181  12.501 -0.4620 -0.6031 -0.6355
  857MPD2    H712593   0.680   4.096  12.466  0.3787 -0.7332 -1.3251
  858MPD2     C12594   1.076   2.701  16.658  0.0397  0.0461  0.0447
  858MPD2    C112595   1.207   2.733  16.627  0.1712 -0.1936  0.0527
  858MPD2    C212596   1.275   2.842  16.690  0.5572  0.9373  0.4654
  858MPD2    C312597   1.211   2.911  16.796 -0.0299 -0.1892 -0.1954
  858MPD2    C412598   1.077   2.880  16.820  0.1152  0.1434 -0.3832
  858MPD2    C512599   1.013   2.773  16.756  0.9115  0.6479  0.4070
  858MPD2     H12600   1.375   2.869  16.657  0.7198 -0.7538 -0.4190
  858MPD2    H112601   1.036   2.935  16.904 -0.8813  0.4748 -1.0835
  858MPD2    H212602   1.033   2.615  16.608 -0.3125  1.1940 -1.5859
  858MPD2    H312603   0.907   2.753  16.770  1.2444 -2.4823 -1.6380
  858MPD2     N12604   1.264   3.017  16.864 -0.1290 -0.8589  0.0853
  858MPD2    H512605   1.204   3.075  16.922  1.9895  0.6320  0.8113
  858MPD2    N112606   1.269   2.649  16.531  0.0666  0.3626  0.1679
  858MPD2    H712607   1.203   2.575  16.505 -1.7822  1.1147  2.7018
  859MPD2     C12608   0.216   0.807  15.969  0.0585  0.0145  0.8329
  859MPD2    C112609   0.167   0.782  15.839 -0.5135  0.0843  0.1935
  859MPD2    C212610   0.078   0.669  15.835  0.2437  0.4605 -0.2587
  859MPD2    C312611   0.048   0.595  15.948 -0.7804  0.1271  0.0012
  859MPD2    C412612   0.099   0.626  16.070  0.3702  0.5414 -0.5740
  859MPD2    C512613   0.192   0.731  16.078 -0.0253 -0.5471  0.2929
  859MPD2     H12614   0.035   0.648  15.738  0.0080  1.2073 -0.3151
  859MPD2    H112615   0.072   0.564  16.154  0.8240 -0.3239 -1.0650
  859MPD2    H212616   0.294   0.882  15.977  1.3547 -1.3721  1.0614
  859MPD2    H312617   0.237   0.750  16.175 -1.5954  0.6804  0.7724
  859MPD2     N12618   4.676   0.494  15.950 -0.7586  0.7005  0.1359
  859MPD2    H512619   4.665   0.449  16.040 -1.4672  0.9247  0.1589
  859MPD2    N112620   0.190   0.879  15.740 -0.0825 -1.0324 -0.0498
  859MPD2    H712621   0.245   0.958  15.771  0.4882 -1.1009 -0.8730
  860MPD2     C12622   2.679   1.037  11.295  0.4990  0.4197 -0.1815
  860MPD2    C112623   2.719   1.075  11.417  0.4246  0.0767 -0.2580
  860MPD2    C212624   2.642   1.061  11.525 -0.2282  0.8862  1.1351
  860MPD2    C312625   2.515   1.009  11.507  0.2682 -0.0335  0.3482
  860MPD2    C412626   2.466   0.971  11.385 -0.2265 -0.9154 -0.0163
  860MPD2    C512627   2.549   0.984  11.284 -0.0755  0.5113 -0.4294
  860MPD2     H12628   2.681   1.100  11.619  2.7801  1.2870 -0.3021
  860MPD2    H112629   2.366   0.931  11.375 -1.2436  1.8915 -1.0748
  860MPD2    H212630   2.735   1.049  11.203  1.4622 -2.1896  0.0700
  860MPD2    H312631   2.506   0.948  11.191  1.6279 -1.2455 -0.5407
  860MPD2     N12632   2.429   1.000  11.624  0.0351  0.0467  0.8307
  860MPD2    H512633   2.335   0.967  11.606 -0.0562  1.3022 -1.0471
  860MPD2    N112634   2.843   1.136  11.430 -0.0722  0.0391 -0.1211
  860MPD2    H712635   2.875   1.168  11.521 -0.5053 -1.0820  0.4246
  861MPD2     C12636   1.900   4.418  11.180  0.4215 -0.2693  0.4360
  861MPD2    C112637   1.802   4.421  11.274  0.4058  0.2721  0.2944
  861MPD2    C212638   1.669   4.410  11.234 -0.2242  0.1135 -0.1739
  861MPD2    C312639   1.634   4.389  11.101  0.8781  0.0506  0.0996
  861MPD2    C412640   1.734   4.378  11.015 -0.4889  1.3158 -0.0142
  861MPD2    C512641   1.861   4.393  11.050  0.7255 -0.1655 -0.2163
  861MPD2     H12642   1.593   4.420  11.311  1.4116 -0.7789  1.5413
  861MPD2    H112643   1.712   4.352  10.912  0.5021  2.3938 -0.5022
  861MPD2    H212644   2.006   4.428  11.202 -0.0566  3.0178  1.2340
  861MPD2    H312645   1.933   4.383  10.969  1.0597  1.0433 -0.0710
  861MPD2     N12646   1.502   4.397  11.043  0.6350  0.0859 -0.2125
  861MPD2    H512647   1.487   4.395  10.943 -1.4157 -0.3556  0.0981
  861MPD2    N112648   1.830   4.451  11.407 -0.2248  0.5024 -0.1433
  861MPD2    H712649   1.751   4.430  11.467  1.2143  0.1620  1.6055
  862MPD2     C12650   1.010   4.194  10.564 -0.8684  0.6186 -0.1267
  862MPD2    C112651   1.142   4.210  10.597  0.8594  0.2999 -0.4200
  862MPD2    C212652   1.218   4.100  10.586  0.4693  0.3035  0.3365
  862MPD2    C312653   1.171   3.976  10.547  0.6049  0.1389 -0.0381
  862MPD2    C412654   1.039   3.965  10.503  0.3674  0.0268 -1.3248
  862MPD2    C512655   0.953   4.079  10.516  0.1515 -0.7231 -0.0401
  862MPD2     H12656   1.323   4.113  10.609  0.6879 -0.8261 -0.0260
  862MPD2    H112657   0.990   3.877  10.463  2.0751 -1.6289  0.2327
  862MPD2    H212658   0.940   4.275  10.580  0.3399  1.8374 -1.0170
  862MPD2    H312659   0.845   4.073  10.507  0.2065  0.0371 -1.2147
  862MPD2     N12660   1.248   3.852  10.551  0.2837  0.9507 -0.3375
  862MPD2    H512661   1.197   3.771  10.516 -1.1006  1.1458  1.2033
  862MPD2    N112662   1.190   4.327  10.662 -0.0631 -0.0070  1.1856
  862MPD2    H712663   1.284   4.313  10.697  1.0041  0.4318 -1.5487
  863MPD2     C12664   4.582   2.340  16.711  0.3722 -0.7009  0.4071
  863MPD2    C112665   4.484   2.351  16.808 -0.7108  0.7025  1.0333
  863MPD2    C212666   4.506   2.310  16.939 -0.6528  0.5059 -0.2165
  863MPD2    C312667   4.633   2.266  16.975  0.3320  0.0630 -0.3303
  863MPD2    C412668   0.011   2.274  16.878  0.0569 -0.4351 -0.2742
  863MPD2    C512669   4.706   2.293  16.745  0.4184  0.4516 -1.1214
  863MPD2     H12670   4.420   2.316  17.005 -0.4008 -1.7261  0.3342
  863MPD2    H112671   0.113   2.262  16.911  1.1626  1.8974 -2.8146
  863MPD2    H212672   4.558   2.361  16.607 -0.0976  1.6702  1.0025
  863MPD2    H312673   0.053   2.280  16.664  1.0118 -0.1360 -0.5103
  863MPD2     N12674   4.668   2.216  17.109  0.1972  0.3947  0.2810
  863MPD2    H512675   0.044   2.211  17.123  0.1867  0.9975  0.5801
  863MPD2    N112676   4.355   2.398  16.760 -0.6137  0.1029 -0.1032
  863MPD2    H712677   4.363   2.412  16.660 -0.2642  0.4457 -0.0284
  864MPD2     C12678   0.403   3.598  17.497 -1.4670  0.9347 -0.0033
  864MPD2    C112679   0.467   3.510  17.412  0.6356  0.0657 -0.2778
  864MPD2    C212680   0.491   3.542  17.283 -0.3611 -0.0375  0.2623
  864MPD2    C312681   0.453   3.668  17.230 -0.5801  0.1212 -0.3721
  864MPD2    C412682   0.399   3.759  17.316 -0.8889  0.3864 -0.2683
  864MPD2    C512683   0.371   3.727  17.449  0.3597 -0.0324 -0.0609
  864MPD2     H12684   0.525   3.466  17.214 -0.5601 -0.4984  0.6678
  864MPD2    H112685   0.372   3.859  17.285  0.1387  0.5668 -0.5886
  864MPD2    H212686   0.369   3.579  17.598 -0.4360  2.1554  0.5788
  864MPD2    H312687   0.330   3.806  17.511  0.7611 -0.6149  0.9492
  864MPD2     N12688   0.472   3.705  17.099 -0.3808 -0.7017  0.2788
  864MPD2    H512689   0.443   3.800  17.078 -0.0350 -0.1763  2.1222
  864MPD2    N112690   0.495   3.380  17.458 -0.0506  0.4803  0.4081
  864MPD2    H712691   0.430   3.351  17.531 -0.3350  3.0443  1.1825
  865MPD2     C12692   0.296   3.845  16.253 -0.2924 -0.1130  0.0405
  865MPD2    C112693   0.305   3.757  16.356 -1.0562  0.3866  0.0007
  865MPD2    C212694   0.274   3.798  16.486 -0.6179 -0.0319  0.4603
  865MPD2    C312695   0.247   3.937  16.514 -0.3786  0.1073 -0.0973
  865MPD2    C412696   0.249   4.024  16.410  0.0102 -0.3293 -0.3368
  865MPD2    C512697   0.265   3.976  16.277  0.1906 -0.2746  0.1017
  865MPD2     H12698   0.287   3.737  16.574 -0.7114  0.2948  0.6973
  865MPD2    H112699   0.234   4.131  16.419  2.0115 -0.0911  0.1918
  865MPD2    H212700   0.323   3.824  16.151 -2.0752 -1.7263 -0.1094
  865MPD2    H312701   0.248   4.040  16.190 -0.6534 -0.1216  0.3790
  865MPD2     N12702   0.227   3.991  16.643  0.0750 -0.1189 -0.2206
  865MPD2    H512703   0.182   4.082  16.649  2.3462  1.0288 -0.4614
  865MPD2    N112704   0.333   3.628  16.320  0.3372  0.0189 -0.0345
  865MPD2    H712705   0.353   3.614  16.221 -0.0357  0.3645 -0.1573
  866MPD2     C12706   2.601   0.168  11.393  0.0595  0.2707  0.4754
  866MPD2    C112707   2.559   0.063  11.322  0.6353 -0.2244  1.0618
  866MPD2    C212708   2.429   0.065  11.277  0.3620  0.5451 -0.0511
  866MPD2    C312709   2.336   0.147  11.327  0.2562  0.0663  0.7458
  866MPD2    C412710   2.376   0.247  11.409  0.3286  0.2052  0.5523
  866MPD2    C512711   2.511   0.261  11.435 -0.2081  0.2504 -0.4903
  866MPD2     H12712   2.394   4.713  11.208 -1.3300  1.4357 -0.1637
  866MPD2    H112713   2.311   0.323  11.452 -0.1273  0.8783 -1.3195
  866MPD2    H212714   2.704   0.202  11.388  0.6645 -1.6256  0.2769
  866MPD2    H312715   2.541   0.342  11.500 -0.1139  0.2405 -0.5213
  866MPD2     N12716   2.197   0.151  11.297  0.2127 -0.1343 -0.8202
  866MPD2    H512717   2.147   0.217  11.356 -0.8618 -1.4255 -0.2987
  866MPD2    N112718   2.656   4.692  11.294 -0.1161  0.0074  0.0990
  866MPD2    H712719   2.755   4.706  11.314 -0.2845  0.5518  0.5539
  867MPD2     C12720   3.910   2.742   0.103  0.0595  0.3446 -0.5651
  867MPD2    C112721   3.878   2.806  17.689 -0.0090 -0.2802 -0.4968
  867MPD2    C212722   3.760   2.872  17.684 -0.0712 -0.1856  0.0721
  867MPD2    C312723   3.685   2.887   0.107  0.6595  1.0862  0.0492
  867MPD2    C412724   3.736   2.833   0.223  0.3339  0.1285  0.6305
  867MPD2    C512725   3.849   2.766   0.223  0.0186 -0.3711 -0.4730
  867MPD2     H12726   3.732   2.916  17.589  2.5011 -1.2655 -1.1973
  867MPD2    H112727   3.687   2.854   0.317 -2.4929 -1.2036 -0.5404
  867MPD2    H212728   4.008   2.697   0.110  0.1159  0.5605  0.0131
  867MPD2    H312729   3.890   2.717   0.310  1.4496 -0.2674 -1.0863
  867MPD2     N12730   3.569   2.967   0.114 -0.3967 -0.2652  0.1794
  867MPD2    H512731   3.522   2.984   0.202  2.5324  0.8485  1.5250
  867MPD2    N112732   3.969   2.802  17.580  0.2008 -0.1756 -0.3512
  867MPD2    H712733   4.054   2.747  17.588  1.3478  1.4717 -1.2346
  868MPD2     C12734   1.072   3.041  13.204 -0.3548  0.0341  0.5277
  868MPD2    C112735   1.039   2.928  13.277 -0.3026 -0.2374 -0.2022
  868MPD2    C212736   0.988   2.950  13.406 -0.2196 -0.4249 -0.0712
  868MPD2    C312737   0.966   3.077  13.450 -0.2690 -0.0100  0.4363
  868MPD2    C412738   0.998   3.186  13.374 -0.2645 -0.2839  0.2477
  868MPD2    C512739   1.051   3.162  13.250  0.2848 -0.5776  0.5415
  868MPD2     H12740   0.961   2.868  13.471 -0.2043 -0.3127  0.0777
  868MPD2    H112741   0.988   3.292  13.395 -3.6859 -0.3300 -1.0088
  868MPD2    H212742   1.125   3.027  13.110  1.1296 -1.4997  1.6062
  868MPD2    H312743   1.073   3.250  13.191 -4.3112  1.8572  2.4164
  868MPD2     N12744   0.889   3.096  13.569  0.6942 -0.2003 -0.1944
  868MPD2    H512745   0.870   3.192  13.598 -3.4337 -0.4369 -2.1150
  868MPD2    N112746   1.074   2.799  13.228  0.3929 -0.2907 -0.3387
  868MPD2    H712747   1.106   2.784  13.133  2.7936 -1.5604  0.6555
  869MPD2     C12748   1.371   0.350   1.466 -0.3351 -0.0680  0.0489
  869MPD2    C112749   1.445   0.441   1.535  0.3304 -0.2029 -0.1278
  869MPD2    C212750   1.518   0.537   1.462  0.6130 -0.4611 -0.6950
  869MPD2    C312751   1.504   0.552   1.327  0.1777 -0.3194 -0.4402
  869MPD2    C412752   1.419   0.463   1.266  0.4481  0.4621  0.1937
  869MPD2    C512753   1.352   0.368   1.332 -0.5089 -0.1827 -0.0541
  869MPD2     H12754   1.596   0.601   1.501 -1.6048  2.2173 -0.6249
  869MPD2    H112755   1.409   0.467   1.158  1.2341  1.0214  0.1416
  869MPD2    H212756   1.318   0.269   1.514 -0.1610 -0.3525 -0.2345
  869MPD2    H312757   1.285   0.301   1.280  0.9922 -2.2471  0.6753
  869MPD2     N12758   1.577   0.640   1.240 -0.1014 -0.2227 -0.4129
  869MPD2    H512759   1.560   0.622   1.141 -0.8399  0.9922 -0.5094
  869MPD2    N112760   1.454   0.434   1.674  0.0828 -0.1336  0.0300
  869MPD2    H712761   1.392   0.364   1.715 -0.1102  0.0555  0.0608
  870MPD2     C12762   1.760   4.419   1.907  0.1184  0.1818  0.6317
  870MPD2    C112763   1.699   4.308   1.959 -0.1124 -0.3389  0.1400
  870MPD2    C212764   1.661   4.203   1.870  1.1587  0.2785 -0.0830
  870MPD2    C312765   1.666   4.214   1.733 -0.1024 -0.6763 -0.6020
  870MPD2    C412766   1.713   4.334   1.684  0.5728 -0.4941 -0.0397
  870MPD2    C512767   1.766   4.429   1.768  0.5659  0.5092  0.0735
  870MPD2     H12768   1.610   4.124   1.923 -0.4205  1.0276 -0.4571
  870MPD2    H112769   1.713   4.351   1.577  1.2100 -0.1350  0.0219
  870MPD2    H212770   1.791   4.502   1.969  2.7839 -0.7021  0.4821
  870MPD2    H312771   1.803   4.521   1.724 -0.9400  1.2340  0.3154
  870MPD2     N12772   1.607   4.105   1.661  0.1764  0.5436  0.3266
  870MPD2    H512773   1.573   4.023   1.711  2.1873  0.2593  1.2191
  870MPD2    N112774   1.682   4.309   2.102  0.1979  0.3673  0.6682
  870MPD2    H712775   1.710   4.398   2.143  1.4800  0.7405 -0.9975
  871MPD2     C12776   3.038   3.608  16.498 -0.2026 -0.6090  0.4262
  871MPD2    C112777   2.953   3.534  16.575 -0.2068 -0.3136 -0.1990
  871MPD2    C212778   3.001   3.411  16.628 -0.5588 -0.0510  0.1078
  871MPD2    C312779   3.132   3.369  16.601 -0.5380 -0.1364 -0.3420
  871MPD2    C412780   3.211   3.449  16.533  0.1661 -1.0829 -0.5368
  871MPD2    C512781   3.166   3.568  16.480  0.2753  0.0024  0.2808
  871MPD2     H12782   2.941   3.349  16.693  0.0197  0.2390  0.9197
  871MPD2    H112783   3.305   3.416  16.490  1.4325  1.4020  0.3176
  871MPD2    H212784   3.009   3.706  16.461 -1.4530 -1.6331 -1.2899
  871MPD2    H312785   3.226   3.623  16.408 -0.0886  0.2253  0.1495
  871MPD2     N12786   3.176   3.236  16.631 -0.4436 -0.2178  0.3749
  871MPD2    H512787   3.116   3.170  16.680 -1.7350  1.5480  1.1590
  871MPD2    N112788   2.821   3.582  16.604  0.1072 -0.3686  0.2666
  871MPD2    H712789   2.796   3.674  16.569  1.0118  0.5163  1.9482
  872MPD2     C12790   3.590   1.753  13.683 -0.4403  0.0856  0.8234
  872MPD2    C112791   3.568   1.620  13.661 -0.1818  0.0574 -0.4208
  872MPD2    C212792   3.489   1.554  13.752 -0.1232 -0.0947 -0.2118
  872MPD2    C312793   3.438   1.618  13.867  0.2905 -0.5413  0.1748
  872MPD2    C412794   3.463   1.747  13.887  0.1338 -0.1460 -0.4659
  872MPD2    C512795   3.544   1.813  13.796 -0.5713 -0.1192 -0.4129
  872MPD2     H12796   3.470   1.449  13.733  0.5175 -0.0541 -1.0861
  872MPD2    H112797   3.421   1.803  13.970 -1.3107 -1.2506 -0.4433
  872MPD2    H212798   3.650   1.801  13.606 -1.6426  1.6587  0.8750
  872MPD2    H312799   3.558   1.920  13.810  1.2712 -0.5806  1.1698
  872MPD2     N12800   3.362   1.556  13.970 -0.5417  0.0172  0.4500
  872MPD2    H512801   3.332   1.614  14.049  1.8024  4.0925 -1.6078
  872MPD2    N112802   3.641   1.543  13.561  0.1818  0.1611 -0.5442
  872MPD2    H712803   3.637   1.441  13.562  1.7627  0.1235  1.5050
  873MPD2     C12804   1.246   1.072   1.096  0.2838  0.1617 -0.1082
  873MPD2    C112805   1.121   1.011   1.088 -0.3840  0.0847  0.3749
  873MPD2    C212806   1.116   0.887   1.026 -0.5145  0.3788 -0.6741
  873MPD2    C312807   1.238   0.826   0.989  0.1946 -0.2306 -0.9995
  873MPD2    C412808   1.358   0.892   1.007 -0.0835 -0.1741  0.2667
  873MPD2    C512809   1.360   1.023   1.048 -0.0215 -0.1723  0.1715
  873MPD2     H12810   1.025   0.829   1.018  0.3395 -1.0146 -0.1190
  873MPD2    H112811   1.450   0.864   0.957 -0.8945  0.8175 -1.7444
  873MPD2    H212812   1.254   1.170   1.141 -1.0021 -0.1581  0.8020
  873MPD2    H312813   1.451   1.081   1.058 -0.4479  0.8983 -2.1054
  873MPD2     N12814   1.229   0.699   0.937  0.2817 -0.2202 -0.2185
  873MPD2    H512815   1.139   0.664   0.906  0.9332  1.5769 -4.1477
  873MPD2    N112816   1.009   1.068   1.151  0.3842 -0.0295  0.4531
  873MPD2    H712817   1.022   1.149   1.210  3.0270 -0.3604  0.3420
  874MPD2     C12818   0.158   1.684  16.327  0.0968 -0.2113 -0.1896
  874MPD2    C112819   0.248   1.614  16.401  0.1869 -0.3811 -0.3272
  874MPD2    C212820   0.381   1.661  16.404  0.7370 -0.3995 -0.1449
  874MPD2    C312821   0.415   1.774  16.341  0.1652 -0.0905 -0.0940
  874MPD2    C412822   0.327   1.839  16.256 -0.2091  0.0658  0.1455
  874MPD2    C512823   0.198   1.792  16.251  0.1733  0.3945 -0.6694
  874MPD2     H12824   0.452   1.612  16.470 -0.1522 -1.0720  0.3181
  874MPD2    H112825   0.359   1.917  16.187 -0.9384 -0.2072 -0.5045
  874MPD2    H212826   0.055   1.650  16.326 -0.5114  1.6224  0.1276
  874MPD2    H312827   0.133   1.857  16.194 -0.3554  0.9665  0.5798
  874MPD2     N12828   0.546   1.813  16.349  0.3928  0.3952 -0.2524
  874MPD2    H512829   0.606   1.762  16.413 -0.0486 -0.8853 -0.8641
  874MPD2    N112830   0.207   1.488  16.457 -0.1170  0.5271  0.2307
  874MPD2    H712831   0.126   1.433  16.430 -0.6492  0.6286  1.5741
  875MPD2     C12832   1.781   4.489  14.770 -0.4349 -0.0393  0.2253
  875MPD2    C112833   1.654   4.527  14.799  0.1978  0.0436  1.1599
  875MPD2    C212834   1.619   4.585  14.917  1.1944  0.2526  0.4990
  875MPD2    C312835   1.718   4.611  15.005 -0.4222  0.7714 -0.1114
  875MPD2    C412836   1.846   4.567  14.976 -0.4019  0.6700  0.4956
  875MPD2    C512837   1.879   4.505  14.863  0.1331  0.1200  0.0531
  875MPD2     H12838   1.525   4.636  14.934  1.2675  1.3015 -2.3801
  875MPD2    H112839   1.926   4.599  15.042  1.2674  0.5740 -1.4901
  875MPD2    H212840   1.806   4.452  14.672 -1.1131 -0.1197  0.0851
  875MPD2    H312841   1.983   4.485  14.840 -0.7643 -2.0712 -2.1641
  875MPD2     N12842   1.704   4.690  15.123 -0.0011 -0.2241 -0.4894
  875MPD2    H512843   1.789   4.720  15.168 -0.7129  0.4835  0.3716
  875MPD2    N112844   1.558   4.539  14.700  0.1819  0.1751  0.2961
  875MPD2    H712845   1.472   4.572  14.743  0.5550  1.7098 -0.1353
  876MPD2     C12846   0.109   1.157  16.253 -0.7199  0.2421 -0.2816
  876MPD2    C112847   0.234   1.177  16.215 -0.3128 -0.6404 -1.0375
  876MPD2    C212848   0.331   1.093  16.259  0.0303  0.3147  0.6638
  876MPD2    C312849   0.295   0.992  16.351 -0.5039 -0.0692 -0.4021
  876MPD2    C412850   0.165   0.982  16.396  0.4600 -0.2008 -0.8915
  876MPD2    C512851   0.068   1.064  16.338 -0.3466 -0.0253 -0.1726
  876MPD2     H12852   0.430   1.091  16.215 -1.2985  1.1553 -2.3479
  876MPD2    H112853   0.137   0.896  16.457 -1.3543  1.9797  1.3125
  876MPD2    H212854   0.041   1.232  16.214 -1.4860 -0.9199 -1.1729
  876MPD2    H312855   4.689   1.036  16.356  0.0372 -1.8830 -0.8333
  876MPD2     N12856   0.390   0.894  16.383 -0.5225 -0.0672  0.1212
  876MPD2    H512857   0.471   0.885  16.324  0.3880 -0.2393  1.3874
  876MPD2    N112858   0.256   1.295  16.138  0.1299  0.2705 -0.2397
  876MPD2    H712859   0.176   1.356  16.124 -0.0145  0.2022  0.2779
  877MPD2     C12860   0.068   1.531  15.457 -0.3817  0.6074  0.7544
  877MPD2    C112861   0.189   1.597  15.477 -0.0614 -0.9378 -0.3937
  877MPD2    C212862   0.267   1.651  15.373  0.7743  0.2313  0.0070
  877MPD2    C312863   0.222   1.639  15.240 -0.5884 -0.7336  0.4499
  877MPD2    C412864   0.097   1.578  15.227 -0.2597 -0.4071 -0.9053
  877MPD2    C512865   0.020   1.531  15.331 -0.2614 -0.3981 -0.0039
  877MPD2     H12866   0.363   1.697  15.394  1.2365 -0.9065  0.3982
  877MPD2    H112867   0.066   1.545  15.128 -1.7662 -0.7761 -0.3118
  877MPD2    H212868   0.012   1.478  15.533 -0.4525 -2.3019 -1.2809
  877MPD2    H312869   4.645   1.487  15.324 -1.9287  3.1535  1.4598
  877MPD2     N12870   0.287   1.691  15.123  0.4084 -0.4801  1.0606
  877MPD2    H512871   0.239   1.668  15.036  1.5286  1.7010 -0.1237
  877MPD2    N112872   0.252   1.616  15.600 -0.1707 -0.3397 -0.1885
  877MPD2    H712873   0.346   1.656  15.596 -0.3913  0.3441  1.3503
  878MPD2     C12874   0.200   0.757  13.106  0.3837  0.1437  0.2061
  878MPD2    C112875   0.297   0.845  13.066  0.3489 -0.0783 -0.1829
  878MPD2    C212876   0.390   0.893  13.160 -0.6735  0.9095  0.4326
  878MPD2    C312877   0.400   0.835  13.284  0.5845 -0.0157  0.8341
  878MPD2    C412878   0.318   0.727  13.307 -0.2805 -0.0257 -0.5507
  878MPD2    C512879   0.211   0.704  13.226  0.2456  0.2469  0.7901
  878MPD2     H12880   0.470   0.960  13.132  0.5985 -0.4462  0.7815
  878MPD2    H112881   0.307   0.683  13.405 -1.4867 -1.0659 -1.1583
  878MPD2    H212882   0.119   0.716  13.045  0.1592  1.6297 -0.4961
  878MPD2    H312883   0.132   0.635  13.253  1.0122 -0.6976  0.6071
  878MPD2     N12884   0.492   0.884  13.380 -0.2129  0.0290  1.3237
  878MPD2    H512885   0.552   0.960  13.350  1.3009 -1.5780  0.2670
  878MPD2    N112886   0.279   0.871  12.930 -1.1244  0.2145  0.2884
  878MPD2    H712887   0.203   0.832  12.875 -0.4099 -2.1613  0.9889
  879MPD2     C12888   0.552   2.506  17.088  0.2919 -0.0462  0.0854
  879MPD2    C112889   0.574   2.368  17.094  0.4615 -0.1167  0.1907
  879MPD2    C212890   0.543   2.289  16.985  0.9157  0.7136  0.6962
  879MPD2    C312891   0.483   2.336  16.872 -0.1416  0.6029  1.3638
  879MPD2    C412892   0.458   2.471  16.864 -0.6677 -0.5456  0.0327
  879MPD2    C512893   0.482   2.548  16.971  0.6455 -0.3442  0.2251
  879MPD2     H12894   0.572   2.186  16.999 -1.1718 -0.0577 -0.7312
  879MPD2    H112895   0.403   2.516  16.782  1.6637  0.6701 -0.8703
  879MPD2    H212896   0.562   2.581  17.165  1.0252  0.5976 -0.6423
  879MPD2    H312897   0.451   2.652  16.966 -2.8062 -1.3282  0.9567
  879MPD2     N12898   0.437   2.256  16.768 -0.5753  0.2475  0.0965
  879MPD2    H512899   0.379   2.310  16.704 -0.8273 -1.9608 -1.5333
  879MPD2    N112900   0.640   2.325  17.210 -0.0913  0.0712  0.0032
  879MPD2    H712901   0.676   2.393  17.276 -1.9089  3.0954 -2.1482
  880MPD2     C12902   2.588   3.967   0.267 -0.0385  0.1818  0.4575
  880MPD2    C112903   2.525   3.926   0.384  0.8214  0.1932 -0.3231
  880MPD2    C212904   2.576   3.823   0.459 -0.7239  0.2650 -0.1931
  880MPD2    C312905   2.697   3.763   0.420  0.4527  1.0048 -0.4105
  880MPD2    C412906   2.769   3.820   0.311 -0.2297  0.2892  1.0756
  880MPD2    C512907   2.711   3.922   0.240 -0.1026  0.7437  0.1528
  880MPD2     H12908   2.523   3.788   0.547  0.8603 -1.0093  0.2354
  880MPD2    H112909   2.863   3.785   0.270 -1.2878 -0.1638 -0.9301
  880MPD2    H212910   2.560   4.049   0.201 -1.4162 -0.4757  0.2396
  880MPD2    H312911   2.751   3.960   0.147 -3.0144 -0.5040 -1.5799
  880MPD2     N12912   2.748   3.653   0.498 -0.3261  0.6264  0.0519
  880MPD2    H512913   2.710   3.648   0.592  0.3061  1.4037  0.3532
  880MPD2    N112914   2.391   3.977   0.394  0.1314 -0.7804  0.5233
  880MPD2    H712915   2.361   4.037   0.318 -1.3581  1.0026  2.5442
  881MPD2     C12916   1.651   3.913  17.443  0.0194  0.0771  0.1768
  881MPD2    C112917   1.757   3.999  17.454  0.4347 -0.5328  0.2919
  881MPD2    C212918   1.826   3.987  17.569 -0.4806 -0.1772 -0.5301
  881MPD2    C312919   1.775   3.936  17.692 -0.1731 -0.0376 -0.5140
  881MPD2    C412920   1.648   3.876  17.675  0.2543 -0.4461  0.1925
  881MPD2    C512921   1.592   3.867  17.554 -0.0415  0.2523  0.1185
  881MPD2     H12922   1.929   4.021  17.572 -0.2944 -0.8179  0.5782
  881MPD2    H112923   1.622   3.810   0.060  1.6508  0.7859  1.6372
  881MPD2    H212924   1.591   3.911  17.353  0.1435  2.1562  0.0582
  881MPD2    H312925   1.497   3.815  17.543 -0.4537  1.0336 -0.0254
  881MPD2     N12926   1.839   3.924   0.123  0.1762  0.0557 -0.0122
  881MPD2    H512927   1.783   3.888   0.200  1.1799 -0.9591  0.2384
  881MPD2    N112928   1.818   4.050  17.338  0.7708 -0.5259  0.2404
  881MPD2    H712929   1.767   4.026  17.254  1.9773  3.5928 -1.6958
  882MPD2     C12930   0.431   1.449  14.409  0.9305  1.0240 -0.0049
  882MPD2    C112931   0.361   1.555  14.461 -0.4992  0.1421  0.4122
  882MPD2    C212932   0.230   1.579  14.430 -0.5845 -0.1650 -0.3553
  882MPD2    C312933   0.175   1.494  14.333  0.0635  0.5675  0.8162
  882MPD2    C412934   0.246   1.392  14.276 -0.1068  0.4611 -0.0751
  882MPD2    C512935   0.375   1.369  14.311  0.1478  0.2201 -1.1156
  882MPD2     H12936   0.171   1.659  14.472 -1.8124  0.6281 -3.5650
  882MPD2    H112937   0.208   1.329  14.197  3.8593 -1.9281 -0.0750
  882MPD2    H212938   0.528   1.421  14.447  0.2059  0.0728  1.1635
  882MPD2    H312939   0.431   1.285  14.271 -0.6344 -0.3100 -1.1132
  882MPD2     N12940   0.039   1.501  14.287 -0.2955  0.2133 -0.4632
  882MPD2    H512941   4.709   1.423  14.250 -0.2894  0.1657 -0.3711
  882MPD2    N112942   0.423   1.630  14.566 -0.1751  0.2360  0.3936
  882MPD2    H712943   0.520   1.606  14.587 -0.1242  0.6083  0.5953
  883MPD2     C12944   2.225   1.616  16.300  0.1899  0.0407 -0.0547
  883MPD2    C112945   2.320   1.654  16.208 -0.0286  0.1560  0.0626
  883MPD2    C212946   2.454   1.663  16.241  1.1633 -0.4529  0.1262
  883MPD2    C312947   2.496   1.648  16.374 -0.3450 -0.8437  0.1466
  883MPD2    C412948   2.407   1.610  16.468 -0.1962  0.2653 -0.1709
  883MPD2    C512949   2.275   1.598  16.430 -0.1276 -0.6999  0.4683
  883MPD2     H12950   2.525   1.703  16.169  1.0072 -2.6090 -1.2121
  883MPD2    H112951   2.434   1.595  16.572 -0.5639  1.2630  0.0732
  883MPD2    H212952   2.117   1.614  16.290  0.3100 -1.8702 -1.0663
  883MPD2    H312953   2.199   1.577  16.504 -0.9392 -2.4118 -0.8588
  883MPD2     N12954   2.629   1.684  16.407 -0.3540 -0.0020 -0.3583
  883MPD2    H512955   2.690   1.707  16.330  1.2648  0.3062  1.0112
  883MPD2    N112956   2.292   1.716  16.085  0.3537 -0.5738 -0.3433
  883MPD2    H712957   2.370   1.759  16.036 -1.9784  2.1445 -1.6611
  884MPD2     C12958   3.950   2.041  15.473  0.2241 -0.6077 -0.1371
  884MPD2    C112959   3.942   2.136  15.374  0.1559 -0.3593  0.0317
  884MPD2    C212960   3.853   2.241  15.389  0.2935 -0.0269 -0.1364
  884MPD2    C312961   3.750   2.235  15.487 -0.3941  0.5941 -0.1702
  884MPD2    C412962   3.755   2.131  15.581  0.1399 -1.1239  0.0731
  884MPD2    C512963   3.857   2.042  15.576 -0.2372  0.8370  0.3592
  884MPD2     H12964   3.847   2.325  15.320 -0.3251 -1.0587 -1.3337
  884MPD2    H112965   3.685   2.116  15.663 -0.9131  0.7685 -0.4855
  884MPD2    H212966   4.031   1.970  15.482  1.7263  0.6609 -3.7215
  884MPD2    H312967   3.869   1.978  15.663  1.2438  0.4136 -0.1613
  884MPD2     N12968   3.650   2.338  15.480 -0.5081 -0.2004  0.4391
  884MPD2    H512969   3.648   2.410  15.409  0.1538  1.4549  2.1230
  884MPD2    N112970   4.033   2.144  15.271 -0.2474 -0.0758  0.6359
  884MPD2    H712971   4.006   2.208  15.198  0.9949 -1.4319 -1.0147
  885MPD2     C12972   2.473   2.479   0.253 -0.1495  0.8975 -0.0735
  885MPD2    C112973   2.469   2.356   0.195 -0.6810 -0.0849  0.5770
  885MPD2    C212974   2.439   2.343   0.060 -0.0565  0.0838 -0.2871
  885MPD2    C312975   2.397   2.461  17.685 -0.4206 -0.1313 -0.1588
  885MPD2    C412976   2.384   2.585   0.049  0.5997 -0.4744 -0.2155
  885MPD2    C512977   2.424   2.590   0.183  0.1627 -0.0178 -0.6097
  885MPD2     H12978   2.444   2.249   0.006  0.6669 -0.3855  0.5748
  885MPD2    H112979   2.350   2.678   0.005 -2.5146 -1.6525 -0.2460
  885MPD2    H212980   2.488   2.488   0.360 -2.4034 -0.3872  0.3461
  885MPD2    H312981   2.420   2.682   0.239 -0.6026 -1.2745  1.4018
  885MPD2     N12982   2.352   2.438  17.554  0.0500  0.1884 -0.5189
  885MPD2    H512983   2.348   2.339  17.528  3.5056 -0.3378  0.8524
  885MPD2    N112984   2.519   2.246   0.263 -0.2381 -0.1981 -0.2726
  885MPD2    H712985   2.541   2.256   0.361 -0.7006  0.7287 -0.2657
  886MPD2     C12986   3.666   0.849  15.513  0.1648 -0.1743  0.3147
  886MPD2    C112987   3.793   0.884  15.564 -0.7270 -0.5227 -0.1752
  886MPD2    C212988   3.838   1.009  15.531 -0.0353 -0.0888 -0.0962
  886MPD2    C312989   3.769   1.093  15.451 -0.3838  0.6130 -0.3335
  886MPD2    C412990   3.653   1.064  15.390 -0.8456  0.4959  0.0218
  886MPD2    C512991   3.600   0.938  15.423  0.5649  0.1651 -0.5621
  886MPD2     H12992   3.938   1.034  15.564  0.0964 -1.7858  0.7942
  886MPD2    H112993   3.598   1.132  15.326  0.3895  1.0831 -0.4220
  886MPD2    H212994   3.630   0.747  15.505 -0.9442  0.3301 -1.2224
  886MPD2    H312995   3.520   0.896  15.364  0.5726  0.1613 -0.5697
  886MPD2     N12996   3.820   1.217  15.418 -0.0737 -0.1936  0.2954
  886MPD2    H512997   3.770   1.251  15.336 -0.2454 -0.5436  0.2509
  886MPD2    N112998   3.877   0.799  15.632 -0.2165 -0.0849 -0.1068
  886MPD2    H712999   3.970   0.835  15.648 -0.4149  0.9121 -1.1707
  887MPD2     C13000   4.487   0.845  15.967  0.9251 -0.2873  1.0759
  887MPD2    C113001   4.359   0.875  15.940 -0.3856 -0.6438 -0.4303
  887MPD2    C213002   4.319   1.004  15.946  0.0849  0.3044  0.0583
  887MPD2    C313003   4.398   1.109  15.994  0.6729 -0.2641 -0.3130
  887MPD2    C413004   4.526   1.073  16.034 -0.0429 -0.0519  0.1887
  887MPD2    C513005   4.569   0.943  16.016 -0.0875  0.2530 -0.8800
  887MPD2     H13006   4.214   1.016  15.925 -0.2437 -1.6453  0.6191
  887MPD2    H113007   4.605   1.139  16.069 -0.8294  0.8290  0.2990
  887MPD2    H213008   4.532   0.750  15.945  1.1624 -0.0995  0.7471
  887MPD2    H313009   4.674   0.918  16.023 -0.0077  0.7199 -0.3488
  887MPD2     N13010   4.340   1.232  16.009  0.2787 -0.3732  0.2259
  887MPD2    H513011   4.252   1.243  15.961  0.6162  1.3097  0.0245
  887MPD2    N113012   4.272   0.784  15.885  0.1829  0.6693 -0.3898
  887MPD2    H713013   4.187   0.828  15.850 -0.4051 -0.1954 -0.0494
  888MPD2     C13014   1.678   1.171  14.961  0.0700  0.2143  0.3775
  888MPD2    C113015   1.590   1.276  14.982 -0.4123 -0.2431  0.4469
  888MPD2    C213016   1.605   1.390  14.912 -0.5320  0.1790 -0.2689
  888MPD2    C313017   1.721   1.408  14.833  0.5468  0.1588  0.0950
  888MPD2    C413018   1.821   1.311  14.836 -0.3479 -0.3049  0.0532
  888MPD2    C513019   1.789   1.190  14.886  0.2056  0.4876  0.0210
  888MPD2     H13020   1.536   1.472  14.933 -2.6273 -0.9517 -2.8481
  888MPD2    H113021   1.918   1.314  14.788 -0.1578 -0.2855  0.4398
  888MPD2    H213022   1.680   1.080  15.021 -1.7015  0.0435  0.1557
  888MPD2    H313023   1.868   1.116  14.879  2.2728  2.5549  1.2618
  888MPD2     N13024   1.731   1.514  14.741 -0.0135 -0.0364 -0.3610
  888MPD2    H513025   1.653   1.578  14.755 -0.2870 -0.8711  1.9796
  888MPD2    N113026   1.479   1.260  15.067 -0.2342  0.6153  0.4428
  888MPD2    H713027   1.428   1.346  15.086 -0.3068  0.7302 -0.2681
  889MPD2     C13028   0.835   0.772  12.528 -0.5632 -0.6569  0.1952
  889MPD2    C113029   0.774   0.731  12.646 -0.4460 -0.0269  0.0891
  889MPD2    C213030   0.778   0.821  12.751 -0.3025 -0.8391 -0.0333
  889MPD2    C313031   0.773   0.959  12.732  0.1552 -0.1645  0.2178
  889MPD2    C413032   0.808   1.000  12.603 -0.5537 -0.0641 -0.0455
  889MPD2    C513033   0.843   0.904  12.508 -0.2253 -0.4470  0.4066
  889MPD2     H13034   0.752   0.787  12.851  0.6493 -1.0031  0.1608
  889MPD2    H113035   0.817   1.105  12.577  1.7622 -0.2431  0.0345
  889MPD2    H213036   0.859   0.711  12.442  2.0775 -2.1196  1.9818
  889MPD2    H313037   0.889   0.933  12.415 -0.8786  0.7061  0.4470
  889MPD2     N13038   0.734   1.044  12.842  0.0225 -0.5060 -0.1014
  889MPD2    H513039   0.688   1.003  12.922 -0.6208  3.2641  1.4947
  889MPD2    N113040   0.770   0.599  12.688  0.1478 -0.6000 -0.1124
  889MPD2    H713041   0.766   0.580  12.787  0.6174 -2.1903 -0.4131
  890MPD2     C13042   0.628   2.419  14.855  0.0805 -0.5519  0.3890
  890MPD2    C113043   0.600   2.504  14.960 -0.3874  0.5810 -0.5847
  890MPD2    C213044   0.528   2.444  15.064  0.0153 -0.2287  0.0788
  890MPD2    C313045   0.472   2.319  15.056 -0.6968 -0.9841 -0.0785
  890MPD2    C413046   0.506   2.242  14.949  0.6800 -0.1281  0.7963
  890MPD2    C513047   0.583   2.294  14.843 -0.2678  0.0669  0.6281
  890MPD2     H13048   0.506   2.499  15.154  0.4239 -0.3690  0.2617
  890MPD2    H113049   0.469   2.142  14.933 -0.9421  0.5038  0.6763
  890MPD2    H213050   0.685   2.451  14.768  0.1285  1.5371  1.1855
  890MPD2    H313051   0.602   2.239  14.752 -1.1910 -2.2621  1.8490
  890MPD2     N13052   0.380   2.274  15.146  0.4473  0.2038  0.1249
  890MPD2    H513053   0.357   2.333  15.226 -1.2017 -1.5245  0.9239
  890MPD2    N113054   0.642   2.644  14.950 -0.6045  0.0479 -0.1807
  890MPD2    H713055   0.682   2.666  14.860 -1.3616  0.8643 -0.3178
  891MPD2     C13056   3.257   0.668  16.737  0.2031  0.2740 -0.0697
  891MPD2    C113057   3.163   0.665  16.836 -0.1384  0.5828  0.2195
  891MPD2    C213058   3.194   0.604  16.954 -0.4173  0.3192 -0.4404
  891MPD2    C313059   3.323   0.552  16.975 -0.8329 -0.5950 -0.2341
  891MPD2    C413060   3.423   0.568  16.872  0.0620  0.5035 -0.5786
  891MPD2    C513061   3.379   0.623  16.752  0.3855 -0.1814  0.2193
  891MPD2     H13062   3.135   0.597  17.044 -0.8318  0.4428 -0.7025
  891MPD2    H113063   3.529   0.547  16.878 -0.4317 -1.6893  0.1998
  891MPD2    H213064   3.234   0.729  16.651 -0.6885 -2.7309 -1.9876
  891MPD2    H313065   3.445   0.629  16.666  0.0465  0.4437  0.0086
  891MPD2     N13066   3.360   0.505  17.108 -0.0684  0.3417  0.8151
  891MPD2    H513067   3.290   0.519  17.181 -2.1095  1.9884 -1.4539
  891MPD2    N113068   3.042   0.716  16.810  0.9011  0.2349 -0.8358
  891MPD2    H713069   3.041   0.765  16.722  1.8064 -1.0439 -1.5512
  892MPD2     C13070   4.195   1.796  14.951  0.1815 -0.0570  0.3950
  892MPD2    C113071   4.112   1.832  14.847  0.5313 -0.1171  0.2800
  892MPD2    C213072   4.164   1.816  14.718  0.6370 -0.4380  0.6363
  892MPD2    C313073   4.291   1.758  14.694 -0.3809 -0.0137  0.4680
  892MPD2    C413074   4.366   1.719  14.798  0.5870  0.4311  0.2345
  892MPD2    C513075   4.320   1.744  14.926 -0.7544  0.3418  0.1681
  892MPD2     H13076   4.097   1.849  14.640  0.1161 -2.0521  0.3948
  892MPD2    H113077   4.460   1.667  14.783  0.8855  1.0295  0.0027
  892MPD2    H213078   4.169   1.809  15.056 -1.1355 -0.5222  0.1225
  892MPD2    H313079   4.378   1.714  15.012  0.7699  0.9068 -0.6772
  892MPD2     N13080   4.330   1.706  14.564  0.0873 -0.1974 -0.3410
  892MPD2    H513081   4.419   1.657  14.569  0.9129  1.2965 -0.3909
  892MPD2    N113082   3.983   1.896  14.862 -0.4107  0.2664 -0.3584
  892MPD2    H713083   3.932   1.917  14.777 -0.8456 -0.2889 -0.2360
  893MPD2     C13084   0.775   3.887   1.500 -0.9154  0.1187 -0.5425
  893MPD2    C113085   0.800   3.948   1.618  0.0560 -0.2577 -0.3746
  893MPD2    C213086   0.702   3.962   1.713 -0.9663 -0.0533  0.1869
  893MPD2    C313087   0.585   3.899   1.703 -0.1894  0.7373 -0.2019
  893MPD2    C413088   0.555   3.834   1.586  0.0665 -0.3101 -0.6468
  893MPD2    C513089   0.645   3.834   1.486  0.4312  0.1307 -0.6934
  893MPD2     H13090   0.729   4.020   1.801  0.1236 -2.1250  1.2009
  893MPD2    H113091   0.464   3.779   1.566  0.8808 -1.1866 -1.9192
  893MPD2    H213092   0.850   3.883   1.423  0.5609  2.3891  0.7735
  893MPD2    H313093   0.626   3.785   1.391 -0.1585  0.1124 -0.5681
  893MPD2     N13094   0.484   3.892   1.801 -0.0158  0.2885  0.0340
  893MPD2    H513095   0.391   3.868   1.768  0.6722  0.0707 -1.7288
  893MPD2    N113096   0.929   4.016   1.614  0.6382 -0.3177 -0.8517
  893MPD2    H713097   0.989   3.989   1.537  0.9798  0.7503 -0.9622
  894MPD2     C13098   3.829   2.138   1.010  0.2376  0.4743  0.4547
  894MPD2    C113099   3.880   2.143   1.143  0.4289  0.2288  0.1379
  894MPD2    C213100   3.987   2.221   1.167 -0.6476 -0.0465  0.5994
  894MPD2    C313101   4.055   2.282   1.065 -0.1165 -0.1334  0.3628
  894MPD2    C413102   4.012   2.262   0.935 -0.3699  0.4839  0.3899
  894MPD2    C513103   3.903   2.191   0.906  0.3683 -0.8573 -0.4763
  894MPD2     H13104   4.012   2.239   1.271 -3.1497 -0.9818  1.3601
  894MPD2    H113105   4.062   2.299   0.846  0.0693  1.3227  0.9876
  894MPD2    H213106   3.740   2.077   0.999  1.0607 -0.5229 -0.6942
  894MPD2    H313107   3.879   2.178   0.801 -0.1227  2.2687 -0.7484
  894MPD2     N13108   4.147   2.378   1.101 -0.1964 -0.7883 -0.1927
  894MPD2    H513109   4.153   2.392   1.201  1.2098  0.7219 -0.4834
  894MPD2    N113110   3.819   2.067   1.245  0.1286  0.6336 -0.0445
  894MPD2    H713111   3.877   2.063   1.328 -1.9372 -1.9616  1.2788
  895MPD2     C13112   2.780   1.005  13.643  0.6011 -0.0986 -0.1028
  895MPD2    C113113   2.859   1.020  13.530  0.3816 -0.0597 -0.1910
  895MPD2    C213114   2.970   0.943  13.517 -0.4868  0.2810 -0.6328
  895MPD2    C313115   3.010   0.854  13.614 -0.3768 -0.4567 -0.1325
  895MPD2    C413116   2.946   0.846  13.733  0.5176 -0.1639 -0.0405
  895MPD2    C513117   2.827   0.919  13.745  0.5878 -0.2523 -0.0108
  895MPD2     H13118   3.025   0.942  13.423  1.8037 -2.6792  0.7112
  895MPD2    H113119   2.979   0.776  13.810 -1.0992 -1.8211 -0.8482
  895MPD2    H213120   2.679   1.043  13.646 -0.1029 -2.0787  1.5665
  895MPD2    H313121   2.780   0.915  13.843 -1.9796 -0.3180 -1.2223
  895MPD2     N13122   3.125   0.770  13.578  0.2973  0.2390  0.1840
  895MPD2    H513123   3.178   0.792  13.494  0.4815  1.2017  0.5536
  895MPD2    N113124   2.813   1.098  13.418 -0.1694  0.3311  0.5779
  895MPD2    H713125   2.867   1.093  13.332 -0.9520 -1.7553  0.2172
  896MPD2     C13126   0.475   3.476   2.178 -0.0842  0.0293  0.2585
  896MPD2    C113127   0.490   3.456   2.046 -0.1351 -0.9206 -0.1796
  896MPD2    C213128   0.432   3.345   1.985  0.1924 -0.0568  0.1768
  896MPD2    C313129   0.345   3.265   2.054 -0.5888 -0.3471  0.0131
  896MPD2    C413130   0.323   3.289   2.186 -0.0078 -0.2884  0.4501
  896MPD2    C513131   0.393   3.394   2.251 -0.6327 -0.3309  0.0288
  896MPD2     H13132   0.457   3.314   1.884 -0.1937 -0.3975  0.1854
  896MPD2    H113133   0.259   3.228   2.248 -0.9658 -2.7472 -3.0123
  896MPD2    H213134   0.525   3.559   2.226  0.9263 -0.0076 -0.7286
  896MPD2    H313135   0.374   3.413   2.356  1.5644 -2.2027  0.7676
  896MPD2     N13136   0.286   3.160   1.976 -0.3062  0.5738 -0.2046
  896MPD2    H513137   0.320   3.127   1.886 -0.1501  0.4539 -0.1020
  896MPD2    N113138   0.582   3.537   1.985  0.7953  0.1895  0.1914
  896MPD2    H713139   0.647   3.576   2.053 -0.8100  0.8190  1.4073
  897MPD2     C13140   1.853   0.284  10.408 -0.2068  0.1183 -0.0888
  897MPD2    C113141   1.811   0.414  10.429 -0.1851  0.4206  0.0235
  897MPD2    C213142   1.796   0.452  10.564 -0.3838 -0.3417 -0.2535
  897MPD2    C313143   1.846   0.383  10.666  0.0434 -0.3092 -0.1915
  897MPD2    C413144   1.895   0.252  10.641  0.4609  0.6722 -0.2551
  897MPD2    C513145   1.889   0.206  10.511 -0.1288 -0.0390  0.5447
  897MPD2     H13146   1.736   0.539  10.590  0.3148  0.1281 -0.2311
  897MPD2    H113147   1.944   0.180  10.705  0.6676 -0.0901 -1.2631
  897MPD2    H213148   1.867   0.242  10.309  1.7912  2.2136 -0.6826
  897MPD2    H313149   1.925   0.104  10.497  2.2795  0.5186  2.5857
  897MPD2     N13150   1.846   0.441  10.794  0.2108 -0.0742 -0.5054
  897MPD2    H513151   1.792   0.526  10.807 -1.1257 -0.9652 -0.2067
  897MPD2    N113152   1.789   0.510  10.324 -0.3376 -0.6574  0.7629
  897MPD2    H713153   1.798   0.469  10.231 -0.3329 -0.2904  0.6050
  898MPD2     C13154   4.305   1.119  17.072  0.5220  0.3367 -0.5608
  898MPD2    C113155   4.285   1.099  17.206  0.3047 -0.0188  0.3691
  898MPD2    C213156   4.169   1.053  17.247 -1.0025 -0.1476 -0.2262
  898MPD2    C313157   4.068   1.024  17.152  0.5904  0.0419  0.1459
  898MPD2    C413158   4.092   1.037  17.023  0.4229 -0.0597  0.1998
  898MPD2    C513159   4.208   1.093  16.978 -0.4912 -0.2352 -0.5155
  898MPD2     H13160   4.161   1.041  17.354 -0.2063  0.0009 -0.1559
  898MPD2    H113161   4.018   1.022  16.944  1.0141  0.4148 -0.4466
  898MPD2    H213162   4.396   1.155  17.026  1.2830  0.4384  1.0318
  898MPD2    H313163   4.225   1.108  16.873 -1.0140 -2.4571 -0.9336
  898MPD2     N13164   3.939   0.991  17.202  0.1206  0.0315 -0.3856
  898MPD2    H513165   3.930   0.966  17.300  2.7472 -0.0254 -0.1728
  898MPD2    N113166   4.375   1.151  17.300 -0.0719  0.8791  0.1669
  898MPD2    H713167   4.335   1.156  17.393  0.6277  3.9723  0.3112
  899MPD2     C13168   4.414   1.619  17.465 -0.3764  0.6979  0.4725
  899MPD2    C113169   4.506   1.670  17.548 -0.8989  0.3966 -0.7467
  899MPD2    C213170   4.524   1.627  17.680  0.0522 -0.6263  0.1464
  899MPD2    C313171   4.446   1.515   0.032 -0.0405 -0.0134  0.3528
  899MPD2    C413172   4.360   1.449  17.638 -0.1084  0.1390 -0.3345
  899MPD2    C513173   4.349   1.504  17.510  0.8724  0.3706  0.1979
  899MPD2     H13174   4.592   1.674   0.052 -1.2960  1.9037 -0.2571
  899MPD2    H113175   4.292   1.375  17.676 -0.9102 -0.6714 -3.3669
  899MPD2    H213176   4.395   1.657  17.366  1.4692  1.0978  0.2664
  899MPD2    H313177   4.271   1.468  17.444  0.7815  0.4971  0.2352
  899MPD2     N13178   4.444   1.469   0.166 -0.7268 -0.2468  0.6268
  899MPD2    H513179   4.395   1.381   0.177  0.2775 -0.8351  0.4338
  899MPD2    N113180   4.558   1.791  17.493 -0.0122 -1.1217 -0.6058
  899MPD2    H713181   4.517   1.824  17.406 -0.1501 -0.6378 -0.3532
  900MPD2     C13182   0.028   3.721  12.781 -0.5857 -0.8498  0.9661
  900MPD2    C113183   4.675   3.610  12.781 -0.5629  0.7822 -0.0878
  900MPD2    C213184   4.551   3.608  12.717 -0.2688 -0.3200  0.5257
  900MPD2    C313185   4.506   3.727  12.663 -0.5012  0.5499 -0.4281
  900MPD2    C413186   4.588   3.845  12.653 -0.6949 -0.0092 -0.0198
  900MPD2    C513187   4.705   3.837  12.720  0.7061 -0.1399  0.0840
  900MPD2     H13188   4.485   3.523  12.707  1.0164 -1.1663 -0.7941
  900MPD2    H113189   4.569   3.936  12.597 -0.2558  0.6995  0.9778
  900MPD2    H213190   0.124   3.730  12.830 -0.4932  1.7992  0.3067
  900MPD2    H313191   0.038   3.929  12.729 -0.1466  0.4954 -1.0084
  900MPD2     N13192   4.380   3.721  12.592  0.1937  0.3246 -0.0266
  900MPD2    H513193   4.347   3.627  12.572 -1.9117  1.0834 -0.1576
  900MPD2    N113194   0.002   3.489  12.832 -0.5732 -0.2917  0.4457
  900MPD2    H713195   0.099   3.485  12.862 -0.0015 -1.2557 -1.5574
  901MPD2     C13196   4.450   2.428  12.681 -0.6639  0.2628 -0.6915
  901MPD2    C113197   4.570   2.443  12.623 -0.8904  0.1139  0.4193
  901MPD2    C213198   4.643   2.555  12.660  0.2040 -0.2559  0.3103
  901MPD2    C313199   4.597   2.663  12.733  0.5667  0.5890  0.8529
  901MPD2    C413200   4.465   2.645  12.772  0.2371 -0.1127  0.4019
  901MPD2    C513201   4.397   2.526  12.759  1.0767 -0.0884 -0.0258
  901MPD2     H13202   0.016   2.552  12.613 -0.0404  0.1670 -0.2252
  901MPD2    H113203   4.413   2.718  12.832 -1.6226  0.5180 -1.9327
  901MPD2    H213204   4.393   2.340  12.653 -0.3011 -0.2425  0.1611
  901MPD2    H313205   4.297   2.512  12.800  1.2404  0.9287  0.7011
  901MPD2     N13206   4.676   2.787  12.745 -0.2957  0.3933  0.0962
  901MPD2    H513207   0.046   2.790  12.707 -0.5972  0.8465 -0.6021
  901MPD2    N113208   4.605   2.337  12.536  0.3645 -0.3945 -0.1184
  901MPD2    H713209   4.537   2.263  12.527  1.0395 -1.3112  2.2978
  902MPD2     C13210   3.558   1.010  12.865  0.8613  0.3867  0.5903
  902MPD2    C113211   3.489   1.070  12.765  0.0723  0.2256  0.5586
  902MPD2    C213212   3.482   1.010  12.643  0.8110  0.2330  0.3137
  902MPD2    C313213   3.542   0.886  12.621  0.2463 -0.2782 -0.5639
  902MPD2    C413214   3.608   0.824  12.726  0.0285  0.1982  0.4438
  902MPD2    C513215   3.616   0.893  12.843 -0.5547  0.4344 -1.2359
  902MPD2     H13216   3.430   1.061  12.563  2.1538  2.5055  0.8879
  902MPD2    H113217   3.658   0.728  12.714  1.7790  0.7955  2.8845
  902MPD2    H213218   3.560   1.047  12.967 -1.8977  0.0151  0.7717
  902MPD2    H313219   3.678   0.847  12.919 -0.9632  0.5136 -0.8532
  902MPD2     N13220   3.544   0.818  12.498  0.6282  0.5673  0.7203
  902MPD2    H513221   3.588   0.727  12.488  1.0749  1.1596 -2.4814
  902MPD2    N113222   3.423   1.194  12.772 -0.5954  0.0121  0.1277
  902MPD2    H713223   3.378   1.216  12.683  1.4252  0.9294 -0.6521
  903MPD2     C13224   3.671   0.799  11.615 -0.2782 -0.3131 -0.7459
  903MPD2    C113225   3.578   0.841  11.708 -0.1522  0.1693 -0.4535
  903MPD2    C213226   3.490   0.942  11.674  0.2595  0.2525  0.0934
  903MPD2    C313227   3.491   1.006  11.544 -0.0894 -0.5362  0.1812
  903MPD2    C413228   3.590   0.963  11.461  0.5900 -0.4325 -0.1470
  903MPD2    C513229   3.682   0.859  11.491 -0.2238 -0.8401 -0.2463
  903MPD2     H13230   3.401   0.964  11.731 -1.3026  0.4650 -2.4083
  903MPD2    H113231   3.594   1.010  11.363  2.5526 -1.9077 -0.7717
  903MPD2    H213232   3.731   0.714  11.647  2.6811  1.9079 -0.3522
  903MPD2    H313233   3.766   0.830  11.429 -0.7058 -0.6849 -0.9786
  903MPD2     N13234   3.406   1.109  11.496  0.3486 -0.6356 -0.1549
  903MPD2    H513235   3.402   1.138  11.399  1.1199  0.0004  0.0061
  903MPD2    N113236   3.566   0.773  11.826  0.1533  0.6501  0.3247
  903MPD2    H713237   3.632   0.697  11.836  1.2322  1.3669 -1.2080
  904MPD2     C13238   3.349   0.415  14.093 -0.1066 -0.2385  0.0779
  904MPD2    C113239   3.271   0.499  14.012  0.0648  0.4257  0.0863
  904MPD2    C213240   3.337   0.616  13.957 -0.0856  0.0417 -0.3719
  904MPD2    C313241   3.471   0.653  13.989 -0.2276  0.1415 -0.1667
  904MPD2    C413242   3.536   0.576  14.080  0.3539  0.7417  0.1179
  904MPD2    C513243   3.473   0.462  14.129 -0.0662 -0.0220 -1.1013
  904MPD2     H13244   3.291   0.676  13.880 -0.9828 -1.2604 -0.8437
  904MPD2    H113245   3.630   0.600  14.129  0.1161  2.9918 -0.5399
  904MPD2    H213246   3.316   0.315  14.116 -0.4424 -0.4272 -1.2227
  904MPD2    H313247   3.540   0.412  14.198  0.0191 -0.9467 -1.8578
  904MPD2     N13248   3.537   0.771  13.927 -0.1251  0.1265 -0.0779
  904MPD2    H513249   3.486   0.813  13.850  0.7178  3.9110  1.4198
  904MPD2    N113250   3.138   0.461  13.976 -0.4219 -0.3694  0.6761
  904MPD2    H713251   3.093   0.522  13.908 -2.3489 -1.3327  1.0877
  905MPD2     C13252   2.771   0.655  13.433  0.2703 -0.3168  0.4910
  905MPD2    C113253   2.854   0.559  13.482  0.6733  0.2352 -0.5289
  905MPD2    C213254   2.954   0.512  13.401 -0.2856  0.1932 -0.2979
  905MPD2    C313255   2.973   0.555  13.274  0.3662 -0.7034  0.1304
  905MPD2    C413256   2.889   0.658  13.231 -0.0017 -0.8797 -0.1181
  905MPD2    C513257   2.788   0.702  13.312  0.7144  0.3241 -0.0240
  905MPD2     H13258   3.004   0.421  13.434  0.2140  0.8538  0.7816
  905MPD2    H113259   2.909   0.706  13.136 -0.5349 -1.3294 -0.4517
  905MPD2    H213260   2.700   0.705  13.498  1.2804 -0.3437  1.6268
  905MPD2    H313261   2.727   0.786  13.281 -0.6366 -0.8605 -0.6233
  905MPD2     N13262   3.072   0.504  13.184 -0.2301  0.4680  0.2549
  905MPD2    H513263   3.045   0.510  13.087 -2.8821 -0.7543  0.9125
  905MPD2    N113264   2.845   0.512  13.616  0.3480 -0.4813  0.4069
  905MPD2    H713265   2.908   0.443  13.653  0.2197 -1.1760 -0.6551
  906MPD2     C13266   0.898   0.641  11.424  0.9399  0.7842  0.5208
  906MPD2    C113267   0.868   0.613  11.291 -0.1754  0.0513 -0.7920
  906MPD2    C213268   0.843   0.477  11.256  0.5230  0.5796  0.0945
  906MPD2    C313269   0.832   0.372  11.350  0.3403 -0.4228 -0.4828
  906MPD2    C413270   0.858   0.405  11.482  0.2929  0.1448 -0.6708
  906MPD2    C513271   0.890   0.538  11.513 -0.0416 -0.4921  0.6290
  906MPD2     H13272   0.837   0.458  11.150  2.7984  0.7689 -0.0686
  906MPD2    H113273   0.855   0.327  11.558  0.4312  1.4547  0.6660
  906MPD2    H213274   0.923   0.744  11.446  0.8617  1.5790 -3.0818
  906MPD2    H313275   0.906   0.566  11.616  2.1692  2.2411 -0.4902
  906MPD2     N13276   0.797   0.240  11.319 -0.2135  0.1035 -0.1692
  906MPD2    H513277   0.791   0.173  11.395 -1.7628 -1.0048 -1.2738
  906MPD2    N113278   0.865   0.721  11.199  0.1636 -0.4630  0.0151
  906MPD2    H713279   0.897   0.813  11.229  1.2458 -1.1225  0.8618
  907MPD2     C13280   3.805   4.416  15.248 -0.2440 -0.0649  0.2783
  907MPD2    C113281   3.920   4.338  15.248  0.5499 -0.0557  0.4595
  907MPD2    C213282   4.020   4.357  15.338  0.4235 -0.2046  0.5381
  907MPD2    C313283   3.994   4.445  15.443 -0.0648  0.3083 -0.7404
  907MPD2    C413284   3.888   4.530  15.435  0.1839 -0.1749  0.0337
  907MPD2    C513285   3.795   4.512  15.339  0.3903 -1.1258  0.5267
  907MPD2     H13286   4.106   4.291  15.345 -0.1600 -0.8807  1.2645
  907MPD2    H113287   3.868   4.605  15.511  2.1346  2.0754 -1.6848
  907MPD2    H213288   3.722   4.400  15.180 -2.2554  1.4085  2.3786
  907MPD2    H313289   3.709   4.577  15.336  0.6544 -0.6986  2.3753
  907MPD2     N13290   4.085   4.444  15.548 -0.1246  0.5966 -0.0589
  907MPD2    H513291   4.162   4.379  15.536  1.5000  2.2196  1.8243
  907MPD2    N113292   3.935   4.226  15.161  0.0868  0.3210  0.3590
  907MPD2    H713293   4.015   4.167  15.179  0.3228  0.8176  0.9276
  908MPD2     C13294   1.853   0.144   9.620  0.1815 -0.2077 -1.0466
  908MPD2    C113295   1.856   0.115   9.754  0.6124  0.6235 -0.0998
  908MPD2    C213296   1.876   0.214   9.843 -0.0639 -0.4955 -0.1358
  908MPD2    C313297   1.895   0.347   9.795  0.2509 -0.1769 -0.4726
  908MPD2    C413298   1.911   0.370   9.660 -0.5645 -0.3144  0.0705
  908MPD2    C513299   1.904   0.265   9.573  0.6332 -0.0545 -0.4650
  908MPD2     H13300   1.862   0.187   9.947  1.2144 -0.8425 -0.0596
  908MPD2    H113301   1.925   0.468   9.617  0.4595 -0.5192 -0.0570
  908MPD2    H213302   1.829   0.078   9.538  1.6065 -2.2086  0.1739
  908MPD2    H313303   1.911   0.287   9.467 -1.0348 -0.6346 -0.6910
  908MPD2     N13304   1.913   0.456   9.887  0.0900 -0.2244 -0.1921
  908MPD2    H513305   1.908   0.430   9.985 -1.1587 -1.4223 -0.5776
  908MPD2    N113306   1.824   4.711   9.805  0.5287  0.1787  0.6736
  908MPD2    H713307   1.814   4.706   9.906 -1.0842 -1.7278  0.4173
  909MPD2     C13308   2.729   3.108  11.912  0.0590  0.4618 -0.0490
  909MPD2    C113309   2.710   3.214  11.831 -0.6670  0.4962 -0.1872
  909MPD2    C213310   2.604   3.291  11.873 -0.1147 -0.0101 -0.7107
  909MPD2    C313311   2.530   3.278  11.993 -0.4240  0.4794  0.7338
  909MPD2    C413312   2.558   3.173  12.072  0.6472 -0.7101  0.0626
  909MPD2    C513313   2.660   3.091  12.026 -1.0711  0.8008 -0.2858
  909MPD2     H13314   2.574   3.377  11.814  2.0955  0.1144 -1.6346
  909MPD2    H113315   2.519   3.140  12.167  1.6180  0.7256  0.9700
  909MPD2    H213316   2.788   3.020  11.887  0.2397  0.5156  0.1839
  909MPD2    H313317   2.689   3.016  12.100  1.1476  1.4107 -0.5545
  909MPD2     N13318   2.439   3.380  12.032  0.2194 -1.2235 -0.1977
  909MPD2    H513319   2.445   3.468  11.982  3.4684 -0.4453  1.5195
  909MPD2    N113320   2.776   3.234  11.716 -0.4126 -0.4783  0.2225
  909MPD2    H713321   2.749   3.315  11.662 -1.1870 -0.9890 -0.1528
  910MPD2     C13322   3.399   0.048  16.151 -0.3441 -0.4639  1.2226
  910MPD2    C113323   3.491   0.028  16.049 -0.7190 -0.1888 -0.0857
  910MPD2    C213324   3.481   0.117  15.942 -0.7121 -0.1055  0.1599
  910MPD2    C313325   3.397   0.223  15.935 -0.7680  0.5062 -0.2253
  910MPD2    C413326   3.320   0.251  16.046  0.5434 -0.0457  0.0631
  910MPD2    C513327   3.325   0.159  16.150  1.2457  0.2528  0.1895
  910MPD2     H13328   3.545   0.097  15.856  0.7487  0.1367  1.1837
  910MPD2    H113329   3.243   0.327  16.040  2.5101  1.8569 -1.1342
  910MPD2    H213330   3.376   4.708  16.236  0.4040 -3.1569 -0.5846
  910MPD2    H313331   3.263   0.157  16.240  2.9609  0.8417  1.3731
  910MPD2     N13332   3.388   0.312  15.825 -0.3545 -0.8028 -0.8625
  910MPD2    H513333   3.322   0.389  15.827 -1.8244 -2.0914  0.6889
  910MPD2    N113334   3.582   4.644  16.041 -0.8142  0.1520 -0.2935
  910MPD2    H713335   3.629   4.629  15.952 -3.3128  1.6507 -1.8716
  911MPD2     C13336   1.400   0.539  16.466  0.5732  0.1108 -0.5227
  911MPD2    C113337   1.442   0.662  16.520  0.0128 -1.2278  0.7768
  911MPD2    C213338   1.357   0.769  16.512  0.6638  0.1627  0.0645
  911MPD2    C313339   1.244   0.762  16.444 -0.0044  0.9016 -0.5047
  911MPD2    C413340   1.200   0.640  16.395 -0.5849 -0.5561  0.5727
  911MPD2    C513341   1.281   0.533  16.403 -0.0023 -0.2709 -0.2586
  911MPD2     H13342   1.392   0.858  16.563  0.4463 -0.0773  0.6214
  911MPD2    H113343   1.099   0.628  16.357  0.0417 -2.4869 -0.4990
  911MPD2    H213344   1.466   0.453  16.469  0.2891 -0.1095 -0.5857
  911MPD2    H313345   1.249   0.439  16.360  1.6296 -0.5629 -0.8018
  911MPD2     N13346   1.157   0.875  16.421  0.1016 -0.0934  0.4750
  911MPD2    H513347   1.077   0.857  16.361 -1.4550 -1.3193  2.8971
  911MPD2    N113348   1.565   0.655  16.594  0.5316  0.4323  0.3506
  911MPD2    H713349   1.602   0.560  16.598 -0.6617 -0.0766 -1.0820
  912MPD2     C13350   1.163   0.751  15.926  0.2922  0.3605 -1.1435
  912MPD2    C113351   1.063   0.751  16.018 -0.3415 -0.3093 -0.1563
  912MPD2    C213352   1.011   0.628  16.067 -0.4619  0.7108  0.1438
  912MPD2    C313353   1.073   0.512  16.023 -0.0071 -0.8556 -0.7148
  912MPD2    C413354   1.185   0.516  15.941 -0.4437  0.2329  1.4877
  912MPD2    C513355   1.221   0.636  15.893 -0.2916  0.2780 -0.0691
  912MPD2     H13356   0.926   0.629  16.135  0.1691 -2.2998  0.9684
  912MPD2    H113357   1.241   0.429  15.910 -2.9806 -1.3905  1.4731
  912MPD2    H213358   1.202   0.844  15.885  0.0745  1.8555  2.0476
  912MPD2    H313359   1.316   0.639  15.841  0.5439  0.0469  1.4392
  912MPD2     N13360   1.032   0.396  16.088  0.6680  0.3675  0.2196
  912MPD2    H513361   0.960   0.406  16.159  0.5589 -0.4935  0.2302
  912MPD2    N113362   1.011   0.880  16.045  0.1114 -0.4432 -0.4339
  912MPD2    H713363   1.045   0.961  15.994  2.9647 -0.7152  0.9948
  913MPD2     C13364   2.172   2.068   9.950 -0.1102 -0.3160  0.4442
  913MPD2    C113365   2.234   2.177  10.003 -0.2496 -0.0218 -0.8750
  913MPD2    C213366   2.197   2.303   9.955  0.7759 -0.2865 -0.6612
  913MPD2    C313367   2.112   2.317   9.848 -0.2052 -0.2855  0.1454
  913MPD2    C413368   2.046   2.208   9.808 -0.7778  0.1632  0.0642
  913MPD2    C513369   2.071   2.087   9.854 -0.1547  0.8118  0.5314
  913MPD2     H13370   2.238   2.383  10.015  2.2282 -1.6318  0.1497
  913MPD2    H113371   1.973   2.212   9.728 -1.7023 -2.1189  0.7691
  913MPD2    H213372   2.200   1.969   9.984  1.6562 -0.2719 -0.8832
  913MPD2    H313373   2.009   2.007   9.815  0.6214  0.6050 -0.2836
  913MPD2     N13374   2.073   2.437   9.794 -0.1718 -0.0338 -0.0356
  913MPD2    H513375   2.017   2.435   9.709  0.2874  2.0079 -0.3831
  913MPD2    N113376   2.332   2.151  10.096 -0.1547 -0.1532  0.2834
  913MPD2    H713377   2.356   2.057  10.128  0.5458  0.2574  0.9620
  914MPD2     C13378   4.167   1.953  11.966 -0.0374 -0.6028 -0.6280
  914MPD2    C113379   4.265   2.044  11.935 -0.1446  0.2288 -0.0268
  914MPD2    C213380   4.387   2.036  12.001  0.5378 -0.2336 -0.2174
  914MPD2    C313381   4.402   1.956  12.107  1.0836  0.1506 -0.8647
  914MPD2    C413382   4.302   1.866  12.141 -0.7249  0.5992  0.7029
  914MPD2    C513383   4.192   1.870  12.068  0.4869  0.1361 -0.7812
  914MPD2     H13384   4.468   2.106  11.981  0.2823  0.2783  0.5547
  914MPD2    H113385   4.321   1.794  12.220 -1.5169 -1.3490 -0.8624
  914MPD2    H213386   4.073   1.950  11.910 -0.5647 -0.9793  0.2735
  914MPD2    H313387   4.119   1.796  12.097  0.9126  0.1700  0.3647
  914MPD2     N13388   4.522   1.968  12.180  0.2728 -0.0876  0.1996
  914MPD2    H513389   4.585   2.041  12.148  2.1235 -1.8657 -0.1974
  914MPD2    N113390   4.232   2.131  11.827  0.3278 -0.4764  0.5507
  914MPD2    H713391   4.150   2.107  11.771 -0.0156 -0.3065  0.9767
  915MPD2     C13392   2.604   1.910  15.429  0.3131  0.6953  0.1131
  915MPD2    C113393   2.490   1.960  15.375  0.0293  0.0485  0.4119
  915MPD2    C213394   2.404   2.026  15.454  0.0299  0.1522 -1.0982
  915MPD2    C313395   2.429   2.045  15.584  0.0823 -0.5623 -0.2981
  915MPD2    C413396   2.539   1.988  15.640  0.0639  0.5704  0.5495
  915MPD2    C513397   2.630   1.919  15.563 -0.2404 -0.6196  0.7199
  915MPD2     H13398   2.308   2.063  15.420 -2.1312 -2.1019  2.5498
  915MPD2    H113399   2.562   1.994  15.746  0.9845 -1.1258  0.4466
  915MPD2    H213400   2.669   1.843  15.374 -1.5345  0.6948 -2.0573
  915MPD2    H313401   2.711   1.868  15.614  0.7406  0.6931  0.4735
  915MPD2     N13402   2.338   2.129  15.653 -0.1081 -0.5251  0.6046
  915MPD2    H513403   2.264   2.166  15.594  0.3875  0.5642  0.6588
  915MPD2    N113404   2.467   1.922  15.235 -0.3461 -0.6017 -0.6713
  915MPD2    H713405   2.539   1.872  15.184  0.0929  1.2128 -1.8176
  916MPD2     C13406   0.695   0.681  15.932  0.3707  0.5537 -0.7498
  916MPD2    C113407   0.671   0.562  16.003 -0.2195  0.4255 -0.5270
  916MPD2    C213408   0.696   0.442  15.938  0.1280 -0.4443 -0.9026
  916MPD2    C313409   0.754   0.440  15.811 -0.3511  0.0979 -0.0255
  916MPD2    C413410   0.793   0.559  15.747 -0.0641 -0.2772  0.0091
  916MPD2    C513411   0.759   0.680  15.809 -0.4489  0.2814 -0.3948
  916MPD2     H13412   0.678   0.343  15.979 -1.7003  0.8748  1.4420
  916MPD2    H113413   0.851   0.566  15.656  0.3649 -1.4873  0.1876
  916MPD2    H213414   0.662   0.777  15.970 -1.6424 -1.1239  1.6566
  916MPD2    H313415   0.790   0.771  15.758 -0.1596  1.1178  1.2513
  916MPD2     N13416   0.784   0.314  15.748 -0.1874 -0.1957 -0.2473
  916MPD2    H513417   0.750   0.228  15.790 -2.0524  0.7903  0.2680
  916MPD2    N113418   0.610   0.569  16.131  0.4272  0.1522  0.7454
  916MPD2    H713419   0.606   0.662  16.172 -0.5514 -0.2393  1.5346
  917MPD2     C13420   1.600   2.460  11.310 -0.2269  0.1128  0.1644
  917MPD2    C113421   1.571   2.541  11.422 -0.4554  0.1708 -0.2969
  917MPD2    C213422   1.646   2.654  11.442  0.5584 -0.2592  0.7145
  917MPD2    C313423   1.765   2.676  11.373  0.2409 -0.8537 -0.2736
  917MPD2    C413424   1.797   2.597  11.271 -0.1866  0.1987 -0.7538
  917MPD2    C513425   1.716   2.491  11.239 -0.0674 -0.7235  0.0309
  917MPD2     H13426   1.622   2.721  11.524 -1.8247  0.2361 -0.3961
  917MPD2    H113427   1.887   2.607  11.211  0.2960  2.3581  0.3345
  917MPD2    H213428   1.548   2.366  11.296  0.8474 -0.2229 -1.5689
  917MPD2    H313429   1.730   2.450  11.140  1.5258 -1.6277  0.6194
  917MPD2     N13430   1.860   2.776  11.399 -0.3463 -0.4559  0.0131
  917MPD2    H513431   1.953   2.753  11.367  0.3494 -1.3214  2.6242
  917MPD2    N113432   1.465   2.513  11.514  0.4942  0.6226 -0.5797
  917MPD2    H713433   1.445   2.588  11.580  0.7303  0.4799 -0.3437
  918MPD2     C13434   1.216   3.056  12.058  0.0116 -0.0109  0.7511
  918MPD2    C113435   1.282   2.947  12.111  0.1638  0.6323 -0.2111
  918MPD2    C213436   1.263   2.817  12.058  0.0119 -0.4888 -1.0678
  918MPD2    C313437   1.183   2.803  11.950  0.1624 -0.2086 -0.9417
  918MPD2    C413438   1.111   2.915  11.904  0.4350  0.4489  0.2395
  918MPD2    C513439   1.131   3.039  11.955  0.0335  0.2791 -0.3961
  918MPD2     H13440   1.320   2.736  12.103  0.3044  0.8343  0.9622
  918MPD2    H113441   1.054   2.904  11.813 -0.8245  1.9568  0.8540
  918MPD2    H213442   1.217   3.151  12.111  0.2872  0.3741  0.0614
  918MPD2    H313443   1.080   3.130  11.927  2.2841  1.2072 -1.4459
  918MPD2     N13444   1.175   2.675  11.887  0.1669  0.2063  0.1167
  918MPD2    H513445   1.240   2.604  11.918  0.0287 -1.0063 -2.3850
  918MPD2    N113446   1.364   2.957  12.225  0.0830 -0.3126 -0.3949
  918MPD2    H713447   1.418   2.876  12.254  1.7605 -0.1663 -3.0416
  919MPD2     C13448   2.223   2.036  11.693  0.3784  0.5998  0.0607
  919MPD2    C113449   2.157   1.932  11.639 -0.6707  0.5881 -0.4994
  919MPD2    C213450   2.135   1.924  11.501 -0.4223 -0.0104  0.4573
  919MPD2    C313451   2.190   2.014  11.411  0.2685  0.0498  0.4383
  919MPD2    C413452   2.268   2.111  11.465 -0.3163  0.6018  0.8048
  919MPD2    C513453   2.276   2.124  11.601 -0.4602 -0.4828  0.3201
  919MPD2     H13454   2.077   1.835  11.476 -1.4284  0.7683  0.0035
  919MPD2    H113455   2.323   2.184  11.406 -0.5427  0.8071  0.8481
  919MPD2    H213456   2.232   2.052  11.800  2.6519 -0.8043  0.1015
  919MPD2    H313457   2.334   2.209  11.636 -0.5272  0.6603 -2.3398
  919MPD2     N13458   2.157   2.008  11.270  0.5988 -0.3867 -0.5922
  919MPD2    H513459   2.199   2.077  11.208  2.7800 -0.3071  0.9636
  919MPD2    N113460   2.102   1.824  11.719 -0.4267 -0.3816  0.1633
  919MPD2    H713461   2.067   1.739  11.676  1.6369 -1.5284  0.7734
  920MPD2     C13462   2.068   2.361  10.358 -0.2752 -0.4721  0.0583
  920MPD2    C113463   1.999   2.247  10.365 -0.2036 -0.5159 -0.3748
  920MPD2    C213464   2.009   2.160  10.475  0.2842  0.1501 -0.4004
  920MPD2    C313465   2.108   2.175  10.567  0.0471 -0.5763 -0.2682
  920MPD2    C413466   2.193   2.282  10.552  0.3585 -0.4506  0.6380
  920MPD2    C513467   2.171   2.371  10.451  0.5699 -0.0198 -0.1682
  920MPD2     H13468   1.940   2.076  10.474 -1.2549  1.4035 -0.1888
  920MPD2    H113469   2.265   2.305  10.631  0.3053 -0.6101  0.7340
  920MPD2    H213470   2.058   2.437  10.282  0.6044 -1.3338 -0.9150
  920MPD2    H313471   2.239   2.455  10.447  2.0502 -1.1475  1.3150
  920MPD2     N13472   2.131   2.075  10.666  0.6921 -0.1479  0.1567
  920MPD2    H513473   2.054   2.009  10.672  1.7319 -1.3926 -0.2999
  920MPD2    N113474   1.894   2.216  10.279 -0.0592  0.8122 -0.0707
  920MPD2    H713475   1.858   2.122  10.296  1.2870 -0.2984 -3.2707
  921MPD2     C13476   2.404   0.996  17.176 -0.1297 -0.4925  0.0965
  921MPD2    C113477   2.392   0.980  17.035 -0.0825 -0.8474  0.3222
  921MPD2    C213478   2.269   0.969  16.982  0.3101  0.0703  0.5707
  921MPD2    C313479   2.158   0.960  17.071  0.1007 -0.3568 -0.2438
  921MPD2    C413480   2.171   0.968  17.206  0.5418 -0.3362  0.0926
  921MPD2    C513481   2.296   0.996  17.258 -0.9599  0.0929  0.2814
  921MPD2     H13482   2.255   0.959  16.874  0.6562  1.3552  0.4157
  921MPD2    H113483   2.080   0.944  17.259  0.7306 -0.1188  0.5090
  921MPD2    H213484   2.504   0.998  17.218 -0.2434 -0.0701  0.3456
  921MPD2    H313485   2.307   0.997  17.366 -0.0010  3.4142  0.1540
  921MPD2     N13486   2.031   0.924  17.024  0.3292 -0.6523 -0.3215
  921MPD2    H513487   1.966   0.885  17.091 -1.3592  1.4179 -0.7486
  921MPD2    N113488   2.510   0.959  16.961 -0.0509  0.2402  0.3661
  921MPD2    H713489   2.600   0.959  17.007  1.3243  0.6813 -2.3587
  922MPD2     C13490   2.790   2.858   0.169  0.3452  0.6083  0.5325
  922MPD2    C113491   2.793   2.970   0.080 -0.0326  0.9509 -0.2912
  922MPD2    C213492   2.733   2.946  17.650 -0.1768  0.4555  0.2431
  922MPD2    C313493   2.691   2.819  17.613 -0.5089  0.0295  0.6915
  922MPD2    C413494   2.699   2.715   0.007  0.5268 -0.0729 -0.1092
  922MPD2    C513495   2.749   2.731   0.131  0.1170  1.3930  0.1979
  922MPD2     H13496   2.735   3.023  17.574 -0.0192 -1.5506 -1.7997
  922MPD2    H113497   2.686   2.612  17.672  0.1015 -0.1126  0.1991
  922MPD2    H213498   2.838   2.872   0.265  1.5358 -0.4288  0.0890
  922MPD2    H313499   2.737   2.648   0.199 -2.2470  0.0187 -1.8837
  922MPD2     N13500   2.656   2.792  17.483 -0.4334 -0.2119 -0.0757
  922MPD2    H513501   2.622   2.870  17.428 -1.6291 -0.7809 -0.1319
  922MPD2    N113502   2.841   3.094   0.131 -0.7342 -0.1031 -0.5763
  922MPD2    H713503   2.860   3.111   0.229 -2.7455 -1.3253  0.0335
  923MPD2     C13504   0.675   1.160   8.819  0.3724 -0.5303  0.2149
  923MPD2    C113505   0.619   1.158   8.938  0.9706 -0.4547 -0.4686
  923MPD2    C213506   0.675   1.104   9.045 -0.5334 -0.3992  0.1053
  923MPD2    C313507   0.793   1.035   9.033  0.1610  0.4230 -0.3746
  923MPD2    C413508   0.851   1.034   8.909 -1.0055  0.5244  0.2976
  923MPD2    C513509   0.795   1.088   8.797  0.7839  0.2209  0.2405
  923MPD2     H13510   0.626   1.114   9.141  0.4893 -2.2451  0.8152
  923MPD2    H113511   0.938   0.971   8.894 -1.1630 -0.0055  1.6454
  923MPD2    H213512   0.627   1.195   8.728 -0.4828  0.8222  1.1851
  923MPD2    H313513   0.840   1.085   8.698 -0.3003 -0.9506 -0.2133
  923MPD2     N13514   0.851   0.964   9.145 -0.1125  0.1262  0.6635
  923MPD2    H513515   0.903   0.882   9.117 -0.6331  1.0565 -3.0554
  923MPD2    N113516   0.486   1.208   8.934  0.2903  0.2744 -0.3877
  923MPD2    H713517   0.452   1.234   8.842 -0.6728 -1.1496 -0.4206
  924MPD2     C13518   4.612   4.074  15.314 -0.2932 -0.6205  0.1490
  924MPD2    C113519   4.629   4.069  15.440 -0.7342 -0.6056  0.4076
  924MPD2    C213520   4.629   4.184  15.509 -0.6868 -0.2815  0.2953
  924MPD2    C313521   4.580   4.302  15.453 -0.7145  0.1775  0.4283
  924MPD2    C413522   4.561   4.301  15.318 -0.8518 -0.0927  0.0638
  924MPD2    C513523   4.584   4.185  15.245  0.5388  0.0978  0.3882
  924MPD2     H13524   4.636   4.187  15.618  1.4935 -2.6520  0.2181
  924MPD2    H113525   4.527   4.391  15.267 -1.7850 -1.0651 -1.0111
  924MPD2    H213526   4.612   3.979  15.261  0.0589 -0.1805 -0.6446
  924MPD2    H313527   4.568   4.180  15.138  0.5846  0.4082  0.3648
  924MPD2     N13528   4.541   4.417  15.528  0.9776 -0.1681  0.9400
  924MPD2    H513529   4.490   4.491  15.481  2.7368  0.0675 -0.5694
  924MPD2    N113530   4.646   3.944  15.499 -0.6047 -0.0780 -0.1324
  924MPD2    H713531   4.627   3.863  15.442  0.4761 -0.2098 -0.2984
  925MPD2     C13532   3.504   1.390  14.725  0.6641  0.4145  0.3091
  925MPD2    C113533   3.371   1.405  14.700  0.5542  0.7252 -0.1968
  925MPD2    C213534   3.290   1.405  14.810  0.1227 -0.7627 -0.9124
  925MPD2    C313535   3.344   1.391  14.939 -0.0542 -0.2564  0.0642
  925MPD2    C413536   3.477   1.369  14.952  0.3552 -0.2422 -0.5187
  925MPD2    C513537   3.556   1.367  14.844 -0.1863  0.3307  0.5088
  925MPD2     H13538   3.186   1.429  14.794  0.0493  1.5612  2.9590
  925MPD2    H113539   3.522   1.357  15.050 -0.1989  1.5515 -0.0527
  925MPD2    H213540   3.575   1.392  14.643 -0.1550  0.5327 -0.3879
  925MPD2    H313541   3.664   1.372  14.851 -0.2097  2.0494 -0.3691
  925MPD2     N13542   3.264   1.392  15.057 -0.0990 -0.0232 -0.3998
  925MPD2    H513543   3.304   1.364  15.146 -2.4190 -0.4827  0.5063
  925MPD2    N113544   3.311   1.392  14.578  0.9076 -0.0682  0.0532
  925MPD2    H713545   3.210   1.394  14.571  0.9804  1.3202 -0.5865
  926MPD2     C13546   1.742   4.213  13.399  0.6967 -0.1038 -0.2302
  926MPD2    C113547   1.646   4.302  13.441 -0.7776 -0.4377  0.1383
  926MPD2    C213548   1.613   4.410  13.357  0.1107  0.2468  0.5124
  926MPD2    C313549   1.678   4.422  13.234 -0.0607  0.7435 -1.2508
  926MPD2    C413550   1.771   4.336  13.199  0.1179 -0.3506  0.4312
  926MPD2    C513551   1.808   4.236  13.284 -0.2478  0.2752  0.0329
  926MPD2     H13552   1.529   4.475  13.375  0.4626  1.1881 -1.2880
  926MPD2    H113553   1.833   4.344  13.110 -1.4420 -0.5448 -0.6739
  926MPD2    H213554   1.761   4.122  13.455  1.2244 -0.4347 -0.9423
  926MPD2    H313555   1.882   4.165  13.250 -0.2073  0.7630 -0.9021
  926MPD2     N13556   1.648   4.528  13.149 -0.4902  0.0588  0.3596
  926MPD2    H513557   1.700   4.531  13.062 -0.4192 -1.1904  0.3691
  926MPD2    N113558   1.607   4.310  13.574  0.1468 -0.0782  0.0960
  926MPD2    H713559   1.542   4.379  13.609  0.9248  0.1416  1.1134
  927MPD2     C13560   1.725   2.208   0.737  0.3397 -0.4138  0.2162
  927MPD2    C113561   1.799   2.308   0.698 -0.3538 -0.0960  0.2996
  927MPD2    C213562   1.869   2.295   0.575  0.1535  0.5400 -0.2231
  927MPD2    C313563   1.843   2.186   0.489  0.6296 -0.0604 -0.4988
  927MPD2    C413564   1.765   2.086   0.537  0.4909 -0.6710  0.0323
  927MPD2    C513565   1.713   2.096   0.660  0.7057  0.6464 -0.3010
  927MPD2     H13566   1.930   2.378   0.542  1.7906 -1.6163 -2.6105
  927MPD2    H113567   1.745   2.000   0.475  0.1423 -0.6349  0.0950
  927MPD2    H213568   1.685   2.217   0.838 -1.6343 -0.8756 -0.5364
  927MPD2    H313569   1.656   2.011   0.698 -0.7902  0.0922 -3.7802
  927MPD2     N13570   1.912   2.183   0.362 -0.1025 -0.3386 -0.0461
  927MPD2    H513571   1.976   2.260   0.345  0.7932 -1.5069 -1.8912
  927MPD2    N113572   1.817   2.417   0.784  0.5770 -0.4180 -0.0130
  927MPD2    H713573   1.770   2.402   0.873 -1.0213 -1.2342 -0.9963
  928MPD2     C13574   4.554   4.721   0.750 -0.0141 -0.7232  0.2138
  928MPD2    C113575   4.670   0.046   0.811  0.5109  0.2494  0.2292
  928MPD2    C213576   0.044   0.095   0.728  0.1519 -0.0877 -0.1105
  928MPD2    C313577   0.024   0.105   0.591  0.5683  1.0334  0.2127
  928MPD2    C413578   4.632   0.054   0.538 -0.0219  0.4773 -0.0391
  928MPD2    C513579   4.538   0.001   0.614 -0.5761  0.5965  0.1034
  928MPD2     H13580   0.126   0.140   0.782  1.9761  0.7253 -3.5937
  928MPD2    H113581   4.603   0.070   0.435 -0.9274  0.6953  0.2503
  928MPD2    H213582   4.476   4.690   0.819 -0.9863  1.9675  0.3378
  928MPD2    H313583   4.447   4.694   0.565 -1.5935 -1.1043  3.0728
  928MPD2     N13584   0.111   0.179   0.509 -0.1570 -0.1157 -0.9234
  928MPD2    H513585   0.080   0.196   0.414 -0.8845  1.8339 -0.3382
  928MPD2    N113586   4.692   0.048   0.950 -0.2918  0.4278 -0.3296
  928MPD2    H713587   0.062   0.063   0.984 -1.4153  1.8220  2.1336
  929MPD2     C13588   0.135   0.692  10.437  0.1650 -0.4885  0.3424
  929MPD2    C113589   0.141   0.578  10.363 -0.0391  0.0357 -0.2123
  929MPD2    C213590   0.138   0.591  10.226  0.8272  1.0057  0.1998
  929MPD2    C313591   0.116   0.708  10.158  0.2634 -0.2437 -0.1290
  929MPD2    C413592   0.110   0.821  10.231 -0.8389 -0.7904 -0.2747
  929MPD2    C513593   0.130   0.813  10.366  0.4636 -0.0986 -0.7244
  929MPD2     H13594   0.153   0.502  10.166 -0.5124 -1.0949  3.0044
  929MPD2    H113595   0.108   0.918  10.183 -1.0748  0.1155  1.5637
  929MPD2    H213596   0.146   0.693  10.545  0.4127 -0.0918  0.3114
  929MPD2    H313597   0.120   0.903  10.425 -1.1923  0.0710 -1.2686
  929MPD2     N13598   0.102   0.722  10.016  0.4497 -0.1575 -0.4501
  929MPD2    H513599   0.087   0.813   9.974  1.3776 -0.4492 -1.4143
  929MPD2    N113600   0.150   0.457  10.438 -0.0807  0.2496  0.7747
  929MPD2    H713601   0.165   0.449  10.538  0.3604  0.2048  0.7044
  930MPD2     C13602   1.153   2.998  14.140  0.1799  0.4500 -0.1981
  930MPD2    C113603   1.277   2.939  14.134  0.3532 -0.0770 -0.0411
  930MPD2    C213604   1.303   2.832  14.049 -0.4870  0.0824  0.2359
  930MPD2    C313605   1.201   2.779  13.972 -0.3826 -0.5704 -0.6119
  930MPD2    C413606   1.070   2.825  13.988 -0.0881  0.1633 -0.3930
  930MPD2    C513607   1.049   2.932  14.073  0.0184  0.1687 -0.1019
  930MPD2     H13608   1.407   2.801  14.043 -0.2204  1.2350 -1.0559
  930MPD2    H113609   0.991   2.785  13.927  0.1381  1.6115 -1.6195
  930MPD2    H213610   1.126   3.086  14.196  0.1078  0.0282  0.4272
  930MPD2    H313611   0.950   2.969  14.093  0.5639  1.4135  0.2915
  930MPD2     N13612   1.223   2.700  13.853 -0.3595 -0.1137 -0.2399
  930MPD2    H513613   1.144   2.684  13.792 -0.9680 -2.7779  1.2729
  930MPD2    N113614   1.385   3.008  14.201  0.2978  0.2174  0.1651
  930MPD2    H713615   1.360   3.098  14.242  0.1347  0.1503  0.2105
  931MPD2     C13616   1.532   2.630   1.427  0.4843  0.3555 -0.4068
  931MPD2    C113617   1.638   2.550   1.385 -0.0316 -0.6129 -0.6721
  931MPD2    C213618   1.637   2.423   1.420  0.5543  0.3520  0.2417
  931MPD2    C313619   1.535   2.364   1.496 -0.0735  0.5159 -0.2244
  931MPD2    C413620   1.433   2.445   1.533 -0.3851 -0.3289 -0.2865
  931MPD2    C513621   1.432   2.574   1.496 -0.2513  0.0858 -0.4747
  931MPD2     H13622   1.720   2.358   1.394  0.7260 -0.2548  2.3296
  931MPD2    H113623   1.341   2.415   1.581 -1.2118  0.8630 -1.1294
  931MPD2    H213624   1.522   2.731   1.391 -0.3936  0.3296 -0.2365
  931MPD2    H313625   1.346   2.630   1.532  0.3315  1.1640 -0.7588
  931MPD2     N13626   1.530   2.226   1.534 -0.0355  0.0099 -0.4899
  931MPD2    H513627   1.447   2.196   1.585 -1.8112  4.1425 -0.9551
  931MPD2    N113628   1.732   2.612   1.301 -0.2833 -0.2095  0.3549
  931MPD2    H713629   1.704   2.708   1.285  0.5134  0.3539  2.3242
  932MPD2     C13630   4.375   0.906  11.167  0.2810  0.2575 -0.5928
  932MPD2    C113631   4.243   0.862  11.168  0.8333 -0.2774 -0.6306
  932MPD2    C213632   4.210   0.730  11.182 -0.1493 -0.6578  0.1365
  932MPD2    C313633   4.317   0.638  11.199 -0.4301 -0.8905 -0.2062
  932MPD2    C413634   4.443   0.682  11.197  0.5365 -0.4946 -0.1387
  932MPD2    C513635   4.470   0.811  11.193 -0.0725 -1.0990  0.4778
  932MPD2     H13636   4.106   0.701  11.175 -0.5308  1.2451 -2.0511
  932MPD2    H113637   4.524   0.610  11.200  0.8897 -0.0825  0.3296
  932MPD2    H213638   4.409   1.008  11.159  2.0575 -0.2409  0.4742
  932MPD2    H313639   4.575   0.837  11.190 -0.2390 -0.3654  0.9445
  932MPD2     N13640   4.305   0.504  11.235 -0.1948  0.0301 -0.1482
  932MPD2    H513641   4.394   0.464  11.263 -0.5762 -0.7575 -0.0487
  932MPD2    N113642   4.138   0.954  11.173  0.4575 -0.4078  0.4346
  932MPD2    H713643   4.053   0.914  11.135  0.0358  0.8474  0.0591
  933MPD2     C13644   4.293   0.192   1.695 -0.6136 -0.2122  0.0818
  933MPD2    C113645   4.322   0.233   1.571  0.3217 -0.0627 -0.0428
  933MPD2    C213646   4.261   0.343   1.524 -0.5259 -0.4944  0.5069
  933MPD2    C313647   4.164   0.412   1.598 -0.7262  0.0561 -0.3813
  933MPD2    C413648   4.133   0.376   1.727 -0.1587  0.2632  0.3973
  933MPD2    C513649   4.198   0.262   1.773 -0.5474  0.3665  0.5196
  933MPD2     H13650   4.303   0.386   1.433 -1.7446  0.1202  0.2375
  933MPD2    H113651   4.062   0.432   1.787  1.2907  1.2999  1.1631
  933MPD2    H213652   4.333   0.106   1.748  0.0296 -0.1895 -0.3652
  933MPD2    H313653   4.187   0.214   1.870 -1.2413  0.2883  0.3965
  933MPD2     N13654   4.121   0.540   1.549  0.7319 -0.7123 -0.2389
  933MPD2    H513655   4.158   0.573   1.460  0.0320  2.1796  0.5515
  933MPD2    N113656   4.414   0.168   1.481  0.5963 -0.2814  0.4403
  933MPD2    H713657   4.433   0.211   1.390 -0.9119 -1.2380 -0.3189
  934MPD2     C13658   0.364   2.868   2.231 -0.1806 -0.1242 -0.7215
  934MPD2    C113659   0.444   2.837   2.119  0.3277 -0.2638  0.8274
  934MPD2    C213660   0.429   2.725   2.038 -0.1982 -0.5640 -0.1044
  934MPD2    C313661   0.326   2.639   2.077 -0.1497 -0.2049  0.0522
  934MPD2    C413662   0.249   2.664   2.185 -0.0436 -0.1584  0.0212
  934MPD2    C513663   0.269   2.774   2.268  0.0204  0.1520  0.5845
  934MPD2     H13664   0.491   2.714   1.950 -0.2412 -1.4223 -0.0324
  934MPD2    H113665   0.174   2.592   2.215  0.3114  0.0418  1.3580
  934MPD2    H213666   0.358   2.963   2.282  1.4432 -1.3172  1.6851
  934MPD2    H313667   0.202   2.802   2.348 -0.0541 -1.5308  1.1147
  934MPD2     N13668   0.306   2.512   2.017  0.2962 -0.8569 -0.4566
  934MPD2    H513669   0.216   2.469   2.037  0.0218  0.1180  0.4244
  934MPD2    N113670   0.536   2.931   2.064  0.3551  0.0640 -0.4020
  934MPD2    H713671   0.564   2.914   1.968  2.8598  1.8944  0.0002
  935MPD2     C13672   0.748   1.704   1.544 -0.8091 -0.2025  0.0285
  935MPD2    C113673   0.636   1.729   1.475 -0.2296 -0.2003 -0.9625
  935MPD2    C213674   0.548   1.827   1.522 -0.0079 -0.1024  0.1807
  935MPD2    C313675   0.572   1.900   1.636  0.0808  0.4479  0.0937
  935MPD2    C413676   0.687   1.874   1.706  0.0304 -1.1548  0.3760
  935MPD2    C513677   0.771   1.773   1.660  0.8535 -0.5099 -0.4013
  935MPD2     H13678   0.456   1.845   1.467  1.1818  0.0564 -1.7611
  935MPD2    H113679   0.713   1.932   1.794 -0.3377 -0.1279 -0.1866
  935MPD2    H213680   0.831   1.642   1.511 -2.0581 -1.4111 -0.8606
  935MPD2    H313681   0.855   1.741   1.720  1.2163  0.4284 -0.4113
  935MPD2     N13682   0.491   2.001   1.689 -0.7710 -0.5597 -0.3881
  935MPD2    H513683   0.513   2.040   1.780 -2.2955 -0.3451 -0.1181
  935MPD2    N113684   0.601   1.657   1.356 -0.1501  0.4677 -0.3583
  935MPD2    H713685   0.511   1.681   1.316 -0.5120 -0.7195 -0.2617
  936MPD2     C13686   4.297   0.040  12.200  0.4298  0.4052 -0.8061
  936MPD2    C113687   4.341   4.700  12.311 -0.2296  0.8680 -0.1936
  936MPD2    C213688   4.475   4.662  12.330  0.2178  0.2049  0.1679
  936MPD2    C313689   4.564   4.705  12.230 -0.7434  0.0940 -0.6854
  936MPD2    C413690   4.520   0.046  12.108 -0.0790  0.0641  0.6406
  936MPD2    C513691   4.386   0.066  12.098  0.5351  0.0237 -0.4809
  936MPD2     H13692   4.518   4.599  12.407  0.4359 -0.4510 -0.4949
  936MPD2    H113693   4.583   0.049  12.020  1.0924  1.1710  1.5132
  936MPD2    H213694   4.191   0.057  12.185  0.0883 -0.1588  1.0257
  936MPD2    H313695   4.355   0.103  12.001  0.4603  0.1412 -0.4115
  936MPD2     N13696   4.699   4.681  12.259 -0.0153  0.2400  0.3878
  936MPD2    H513697   4.713   4.644  12.353  1.1269 -0.0745  0.0983
  936MPD2    N113698   4.261   4.680  12.427  0.4933 -0.3309  0.0033
  936MPD2    H713699   4.309   4.641  12.508 -0.7668  0.5551  1.1782
  937MPD2     C13700   2.026   1.112  11.587  0.4071 -0.4867 -0.9849
  937MPD2    C113701   2.082   1.237  11.585 -0.8706  0.5703  0.1544
  937MPD2    C213702   2.172   1.262  11.480  0.4887 -0.6629 -0.1965
  937MPD2    C313703   2.175   1.175  11.370  0.3670 -0.1456 -0.5282
  937MPD2    C413704   2.127   1.045  11.387 -0.2550 -0.5205  0.1476
  937MPD2    C513705   2.051   1.013  11.495  1.0812  0.0262 -0.0435
  937MPD2     H13706   2.210   1.363  11.486 -1.2216  0.1216 -2.7595
  937MPD2    H113707   2.133   0.961  11.318 -2.9733 -0.0552 -0.6498
  937MPD2    H213708   1.945   1.093  11.656  0.4707  1.2932 -0.4205
  937MPD2    H313709   1.985   0.927  11.493 -0.3136  1.1082  0.4521
  937MPD2     N13710   2.242   1.220  11.247  0.1080 -0.1454  0.2412
  937MPD2    H513711   2.275   1.316  11.248  0.1980 -0.1423 -2.4535
  937MPD2    N113712   2.038   1.351  11.660  0.4048  0.0941 -0.1329
  937MPD2    H713713   2.093   1.434  11.640  1.3958 -0.6816 -0.6087
  938MPD2     C13714   4.133   1.878   1.124 -0.5153  0.1364 -0.2654
  938MPD2    C113715   4.265   1.902   1.163  0.1238  0.2766 -0.3469
  938MPD2    C213716   4.311   1.821   1.265  0.2751 -0.6037  0.5717
  938MPD2    C313717   4.239   1.712   1.318 -0.3611  0.5909 -0.1117
  938MPD2    C413718   4.117   1.683   1.258 -0.3798  0.1071 -0.0218
  938MPD2    C513719   4.065   1.764   1.167  0.6349  0.3440 -0.1224
  938MPD2     H13720   4.406   1.837   1.314  1.1174  0.5109 -1.4234
  938MPD2    H113721   4.066   1.591   1.285 -0.9244  0.2464 -0.5929
  938MPD2    H213722   4.086   1.935   1.045  0.7144  0.8982 -0.4455
  938MPD2    H313723   3.970   1.741   1.121  2.3042 -3.3291 -1.7198
  938MPD2     N13724   4.287   1.617   1.410 -0.1214 -0.9367 -0.2573
  938MPD2    H513725   4.220   1.550   1.446  1.4019 -2.0272  0.5325
  938MPD2    N113726   4.342   2.015   1.121  0.3016 -0.7299  0.1453
  938MPD2    H713727   4.426   2.034   1.176 -1.8067 -0.3297  3.2405
  939MPD2     C13728   1.036   3.232   1.023  0.7862 -0.2958  0.6094
  939MPD2    C113729   0.959   3.297   0.934 -0.8688 -0.4640  0.2293
  939MPD2    C213730   1.013   3.346   0.816 -0.3308  0.0105 -0.0479
  939MPD2    C313731   1.146   3.324   0.786  0.9699 -0.4685  0.2773
  939MPD2    C413732   1.224   3.257   0.878 -0.2083 -0.1176  0.5034
  939MPD2    C513733   1.171   3.210   0.995  0.0821  0.2209 -0.1725
  939MPD2     H13734   0.959   3.399   0.738  2.1662  3.6106  0.7119
  939MPD2    H113735   1.328   3.231   0.864  0.3766  1.9483  1.0926
  939MPD2    H213736   0.991   3.194   1.114 -5.4532  0.6344 -2.1376
  939MPD2    H313737   1.236   3.159   1.065  0.4298  0.1306 -0.5600
  939MPD2     N13738   1.195   3.368   0.663 -0.0139 -0.4966 -0.4247
  939MPD2    H513739   1.135   3.416   0.598  2.2160 -0.2795 -2.3494
  939MPD2    N113740   0.824   3.295   0.956  0.3344 -0.6670  0.1971
  939MPD2    H713741   0.798   3.251   1.044 -0.6151 -0.2210  0.1390
  940MPD2     C13742   4.336   4.248  13.292 -0.2968  0.5751 -0.0954
  940MPD2    C113743   4.467   4.231  13.335 -0.1918 -0.8008 -0.3876
  940MPD2    C213744   4.568   4.279  13.257  0.4551  0.3793 -0.0607
  940MPD2    C313745   4.546   4.330  13.127 -0.2445 -0.4257  0.4439
  940MPD2    C413746   4.418   4.327  13.082 -0.4200 -0.0539  0.6476
  940MPD2    C513747   4.317   4.285  13.163 -0.9435 -0.0214  0.3610
  940MPD2     H13748   4.670   4.270  13.294 -0.2470 -1.0796  1.4840
  940MPD2    H113749   4.400   4.365  12.982 -2.4783 -1.7659  0.3589
  940MPD2    H213750   4.257   4.223  13.362  1.1371  2.1802  2.1073
  940MPD2    H313751   4.214   4.302  13.131 -1.0974  1.0281  1.4274
  940MPD2     N13752   4.648   4.374  13.043  0.8348  0.4338  0.3121
  940MPD2    H513753   4.610   4.404  12.954 -3.4015  4.4853  3.4757
  940MPD2    N113754   4.499   4.184  13.461 -0.0752  0.1951 -0.0549
  940MPD2    H713755   4.598   4.173  13.481 -0.2950 -0.5823  0.5696
  941MPD2     C13756   0.632   3.651   9.988 -0.4366 -0.2521  0.5879
  941MPD2    C113757   0.541   3.724   9.909 -0.0556  0.4402  0.5995
  941MPD2    C213758   0.421   3.757   9.964 -1.1925 -0.2100  0.3080
  941MPD2    C313759   0.386   3.732  10.093  0.3038 -0.1567  0.0706
  941MPD2    C413760   0.483   3.675  10.175  0.3404  0.1305 -0.9146
  941MPD2    C513761   0.603   3.640  10.121  0.2520 -0.3123 -0.5200
  941MPD2     H13762   0.362   3.816   9.895  1.1912  0.8984 -0.8179
  941MPD2    H113763   0.469   3.657  10.281  2.1570  2.1429 -0.3374
  941MPD2    H213764   0.724   3.612   9.947  0.3583  1.8864  0.3049
  941MPD2    H313765   0.679   3.607  10.191 -0.9015  0.3485  1.0317
  941MPD2     N13766   0.258   3.772  10.142  0.9730  0.2055 -1.1297
  941MPD2    H513767   0.230   3.736  10.233  0.6003  0.7730 -1.0179
  941MPD2    N113768   0.550   3.744   9.765 -0.2400  0.0216 -0.3258
  941MPD2    H713769   0.470   3.794   9.727 -0.1087  0.7837  0.3902
  942MPD2     C13770   4.032   0.830   9.279  0.1314 -0.1778 -0.2354
  942MPD2    C113771   4.028   0.956   9.222  0.3711  0.2067 -0.0229
  942MPD2    C213772   4.141   0.987   9.145 -0.3912  0.2638  0.2468
  942MPD2    C313773   4.257   0.905   9.139 -0.0159  0.3100  0.1867
  942MPD2    C413774   4.253   0.777   9.194 -0.5508 -0.1403 -0.0790
  942MPD2    C513775   4.136   0.740   9.258 -0.6324 -0.1969  0.0789
  942MPD2     H13776   4.152   1.085   9.101 -2.5672  0.8665  1.0612
  942MPD2    H113777   4.340   0.713   9.182  1.1042  1.5362  2.9590
  942MPD2    H213778   3.954   0.795   9.345 -0.9625  2.0730 -0.3073
  942MPD2    H313779   4.131   0.645   9.310 -1.3679 -0.3758 -0.3071
  942MPD2     N13780   4.361   0.958   9.066  0.4447 -0.0377  0.7998
  942MPD2    H513781   4.341   1.038   9.008 -1.9967 -0.0374  1.6341
  942MPD2    N113782   3.939   1.065   9.242 -0.2411  0.2512 -0.5838
  942MPD2    H713783   3.971   1.149   9.194  1.2372 -0.3002 -0.5590
  943MPD2     C13784   2.494   4.316   9.546 -0.8482  0.0177 -0.1194
  943MPD2    C113785   2.486   4.202   9.621  0.0966  0.3096 -0.2433
  943MPD2    C213786   2.525   4.211   9.749  1.5468  0.4251 -0.5166
  943MPD2    C313787   2.585   4.328   9.807  0.0308  0.3046  0.1115
  943MPD2    C413788   2.586   4.438   9.729  0.3980  0.6168  0.0541
  943MPD2    C513789   2.546   4.431   9.600  0.0253  0.0493  0.7476
  943MPD2     H13790   2.504   4.129   9.816 -1.3735  1.1922 -0.4857
  943MPD2    H113791   2.629   4.530   9.767  1.2142 -0.3402  1.4431
  943MPD2    H213792   2.462   4.311   9.442 -0.3822  0.7795 -0.2983
  943MPD2    H313793   2.543   4.512   9.528 -0.2621  0.3397  1.0904
  943MPD2     N13794   2.639   4.341   9.939 -0.4732 -0.1454  0.1186
  943MPD2    H513795   2.678   4.434   9.952  1.1159 -0.6538 -0.9314
  943MPD2    N113796   2.428   4.088   9.555 -0.2916  0.3185 -0.0327
  943MPD2    H713797   2.382   4.099   9.465 -1.8629  2.2176  0.9898
  944MPD2     C13798   2.894   2.707  11.530  0.3080  0.4480 -0.5893
  944MPD2    C113799   2.848   2.768  11.420  0.5306  0.2398 -0.6309
  944MPD2    C213800   2.736   2.858  11.434  0.2758 -0.4643 -0.0215
  944MPD2    C313801   2.681   2.879  11.562  0.3538 -0.6081  0.1467
  944MPD2    C413802   2.747   2.824  11.668 -0.4302  0.1998 -0.0408
  944MPD2    C513803   2.844   2.731  11.664 -0.5600 -0.3744 -0.1890
  944MPD2     H13804   2.687   2.911  11.353 -1.0864 -2.7253 -0.6748
  944MPD2    H113805   2.704   2.848  11.765 -0.1164 -0.0832  0.1672
  944MPD2    H213806   2.970   2.630  11.519  1.1745  1.0371  1.2018
  944MPD2    H313807   2.872   2.675  11.752  0.3018 -0.3856 -0.4709
  944MPD2     N13808   2.572   2.965  11.583  0.0581  0.4233 -0.7385
  944MPD2    H513809   2.537   3.010  11.498  0.1318 -0.8961 -1.4626
  944MPD2    N113810   2.912   2.738  11.298 -0.1891 -0.0853 -0.5786
  944MPD2    H713811   2.983   2.665  11.299  0.5471  0.6481  0.3130
    1TCq1    O113812   4.663   3.658  15.311 -0.0472 -0.4779  1.1213
    1TCq1    C113813   0.078   3.671  15.308 -0.1250 -0.2751 -0.6023
    1TCq1    O213814   0.140   3.700  15.406 -0.4911 -0.5301  0.8564
    1TCq1    C213815   0.099   3.758  15.194  0.1842 -0.1102  0.3652
    1TCq1    C313816   0.068   3.723  15.064 -0.6469 -0.6691 -0.4386
    1TCq1    C413817   0.096   3.808  14.963  0.0664  0.5598 -0.0943
    1TCq1    C513818   0.129   3.938  14.996  0.6020  0.1517 -0.1912
    1TCq1    C613819   0.145   3.971  15.130  0.4278  0.4079 -1.0250
    1TCq1    C713820   0.133   3.880  15.231 -0.2965 -0.4445  0.5977
    1TCq1    C813821   0.210   4.100  15.163  0.2985 -0.1531 -0.8242
    1TCq1    O413822   0.209   4.139  15.279  0.0428 -0.2648 -0.7443
    1TCq1    C913823   0.061   3.781  14.833  0.4363 -0.8700 -0.2396
    1TCq1    O513824   0.053   3.661  14.804  0.5349  0.3075  0.2886
    1TCq1    O613825   0.087   3.870  14.746 -0.2413  0.3295  0.0744
    1TCq1    H113826   4.611   3.659  15.228  1.1734 -0.8988  0.3640
    1TCq1    H213827   0.042   3.622  15.033 -0.1754 -0.8145 -0.3662
    1TCq1    H313828   0.131   4.012  14.916  0.1653 -0.2992 -0.6160
    1TCq1    H413829   0.153   3.905  15.334  0.8869  2.4941 -0.3544
    2MPD2     C13830   0.471   4.514  14.987  0.5939  0.1167 -0.5201
    2MPD2    C113831   0.496   4.408  14.904 -0.3310 -0.0670 -0.6727
    2MPD2    C213832   0.424   4.292  14.936  0.2664 -0.0797 -0.1657
    2MPD2    C313833   0.341   4.273  15.044 -0.5953 -0.0012  0.5287
    2MPD2    C413834   0.333   4.371  15.144 -0.1410 -0.0647 -0.1665
    2MPD2    C513835   0.408   4.484  15.107 -0.3364  0.0539 -0.0370
    2MPD2     H13836   0.439   4.200  14.881  0.5289 -0.1351 -0.0028
    2MPD2    H113837   0.291   4.357  15.243 -0.3838 -1.2412 -0.4276
    2MPD2    H213838   0.516   4.610  14.964  0.7156  0.3776  0.7901
    2MPD2    H313839   0.404   4.561  15.183  0.3588  0.0456  0.0085
    2MPD2     N13840   0.284   4.145  15.058 -0.3290  0.6894  0.2837
    2MPD2    H513841   0.274   4.092  14.971 -0.8407  0.7849  0.2863
    2MPD2    N113842   0.573   4.415  14.789  0.3083  0.1486 -0.4047
    2MPD2    H713843   0.614   4.507  14.775  0.7599  0.0809  0.4720
    3TMC2    C113844   0.679   4.393  14.571  0.7444  0.5093  0.3982
    3TMC2    C213845   0.779   4.481  14.598  0.7199  0.5700 -0.1287
    3TMC2    C313846   0.842   4.528  14.488 -0.3999  0.3494 -1.5850
    3TMC2    C413847   0.642   4.358  14.445  0.0295 -0.2029  0.9155
    3TMC2    C513848   0.717   4.400  14.343 -0.2099 -1.0538  0.9607
    3TMC2    C613849   0.817   4.491  14.361  0.7022  0.0352  0.0693
    3TMC2     C13850   0.589   4.333  14.681 -0.2433 -0.0865 -0.3418
    3TMC2     O13851   0.525   4.233  14.656 -0.0090  1.0414 -0.2711
    3TMC2     H13852   0.815   4.507  14.697 -0.8559  1.0549  0.3262
    3TMC2    H113853   0.555   4.297  14.425  0.3086  0.6744 -2.9876
    3TMC2    H213854   0.872   4.539  14.281 -0.4904  0.1668 -0.6631
    3TMC2    C713855   0.648   4.394  14.220 -1.4044  0.9078 -0.3456
    3TMC2    C813856   0.953   4.609  14.517  0.1926 -0.1744 -0.2264
    3TMC2    O113857   0.596   4.293  14.188  0.2143 -0.0925  0.7970
    3TMC2    O213858   0.950   0.007  14.497 -0.5301  0.3188 -0.5377
    3TMC2    O513859   1.033   4.528  14.596  0.1214 -0.2361 -0.3180
    3TMC2    H513860   1.000   4.436  14.592 -1.2113  0.2561 -0.6821
    4MPD2     C13861   0.010   0.384  13.206  0.3429  0.4827 -0.1225
    4MPD2    C113862   4.703   0.370  13.341  0.9558 -0.6461  0.3653
    4MPD2    C213863   0.085   0.373  13.432 -0.9976  0.1980  0.5145
    4MPD2    C313864   0.215   0.398  13.393 -0.0252  0.3691  0.6122
    4MPD2    C413865   0.241   0.399  13.260  0.1060 -0.1458  0.5812
    4MPD2    C513866   0.138   0.392  13.168  0.1354 -0.4518  0.2572
    4MPD2     H13867   0.073   0.368  13.540 -1.0757 -0.1857  0.4866
    4MPD2    H113868   0.340   0.402  13.218 -0.4989  4.2406 -0.5183
    4MPD2    H213869   4.660   0.385  13.127 -1.7822  1.9021  1.8466
    4MPD2    H313870   0.169   0.399  13.064  0.9491  0.4306  0.5527
    4MPD2     N13871   0.320   0.394  13.491  0.2475  0.0706 -0.6638
    4MPD2    H513872   0.289   0.382  13.588 -2.0382  1.8572 -1.1605
    4MPD2    N113873   4.567   0.331  13.384  0.2013  0.7839  0.0678
    4MPD2    H713874   4.555   0.302  13.480 -0.6616 -1.3054 -0.6732
    5TCq2    C113875   0.451   0.422  13.473 -0.6646 -0.0690  0.2784
    5TCq2    O213876   0.503   0.462  13.367  0.4130  0.0679 -0.2163
    5TCq2    C213877   0.541   0.410  13.586  0.1735  0.2285  0.1898
    5TCq2    C313878   0.655   0.483  13.574  0.3862 -0.1122 -0.2999
    5TCq2    C413879   0.735   0.486  13.681 -0.2370 -0.6131 -1.0375
    5TCq2    C513880   0.708   0.408  13.794  0.0705  0.1526 -0.0509
    5TCq2    C613881   0.592   0.334  13.793  0.9322  0.2227 -0.2216
    5TCq2    C713882   0.502   0.340  13.691  0.0804 -0.8489 -0.3338
    5TCq2    C813883   0.587   0.227  13.886  0.1885  0.5006  0.2238
    5TCq2    O413884   0.658   0.223  13.985  0.2895  0.2283 -0.4071
    5TCq2    C913885   0.847   0.576  13.679  0.3058 -0.2691  0.2407
    5TCq2    O513886   0.887   0.622  13.568 -0.0395  0.2045 -0.3973
    5TCq2    O613887   0.893   0.618  13.788 -0.6699 -1.2332 -0.8562
    5TCq2    H213888   0.688   0.545  13.492  0.9164  0.4253  0.3239
    5TCq2    H313889   0.766   0.429  13.883  0.8871  0.6523 -0.7084
    5TCq2    H413890   0.412   0.280  13.697 -0.5592 -0.0347 -1.6738
    6MPD1     C13891   2.799   0.773  12.572  1.2309 -0.8260  0.4590
    6MPD1    C113892   2.803   0.801  12.711  0.0939 -0.0256  0.2749
    6MPD1    C213893   2.923   0.778  12.777 -0.0958  0.2852  0.1507
    6MPD1    C313894   3.036   0.728  12.714  0.0598  0.5314  0.2428
    6MPD1    C413895   3.036   0.718  12.575  0.1813 -0.2578 -0.1222
    6MPD1    C513896   2.917   0.740  12.509 -0.0558 -0.4623 -0.2390
    6MPD1     H13897   2.936   0.801  12.883  2.5707  0.6428 -0.2687
    6MPD1    H113898   3.122   0.683  12.519  1.5252 -0.2672  1.9306
    6MPD1    H213899   2.718   0.809  12.509  1.8054 -2.1468 -1.0240
    6MPD1    H313900   2.924   0.721  12.403  0.0609  1.3903 -0.5771
    6MPD1     N13901   3.163   0.696  12.786  0.1659  0.6550  0.0818
    6MPD1    H513902   3.245   0.677  12.729 -1.3851 -1.9745 -1.2394
    6MPD1    N113903   2.688   0.823  12.787  0.0851 -1.4481 -0.0888
    6MPD1    H613904   2.630   0.887  12.734 -0.0705 -0.5453  1.1823
    6MPD1    H713905   2.710   0.868  12.875  0.0251  0.0249 -0.8366
    7MPD2     C13906   3.699   0.693  13.521  0.0659  0.3090 -0.5173
    7MPD2    C113907   3.700   0.597  13.426 -0.4763  0.1376  0.1767
    7MPD2    C213908   3.790   0.493  13.440 -0.2155 -0.4991 -0.1365
    7MPD2    C313909   3.889   0.494  13.527  1.0713  0.1219  0.8319
    7MPD2    C413910   3.897   0.598  13.619  0.8018 -0.6418  0.4847
    7MPD2    C513911   3.796   0.686  13.618  0.4894 -0.2847  0.2102
    7MPD2     H13912   3.786   0.412  13.368  0.5213 -0.9673  0.3587
    7MPD2    H113913   3.967   0.604  13.702 -0.8287  1.0503  1.7229
    7MPD2    H213914   3.635   0.780  13.529 -0.5651 -0.1234 -0.8989
    7MPD2    H313915   3.790   0.754  13.702  0.1184  1.9092 -1.5793
    7MPD2     N13916   3.979   0.395  13.512 -0.1939  0.0718  0.2449
    7MPD2    H513917   3.966   0.323  13.442 -0.3093  0.6675 -0.3433
    7MPD2    N113918   3.623   0.604  13.310  0.5984 -0.0270  0.0295
    7MPD2    H713919   3.605   0.515  13.263  0.3204 -0.1928  0.4524
    8TMC3    C113920   4.180   0.284  13.532  0.1848 -0.4386 -0.2206
    8TMC3    C213921   4.303   0.321  13.489  0.0101 -0.5787  0.0791
    8TMC3    C313922   4.350   0.254  13.379 -1.0477 -0.5023 -0.1114
    8TMC3    C413923   4.110   0.185  13.473  0.0527 -0.0246  0.8100
    8TMC3    C513924   4.147   0.146  13.349 -0.1161 -0.2335  0.4263
    8TMC3    C613925   4.277   0.161  13.309 -0.3952  0.1237 -0.9625
    8TMC3     C13926   4.104   0.398  13.568  0.9965 -0.3139 -0.8400
    8TMC3     O13927   4.156   0.487  13.632  0.0888  0.8096  0.1178
    8TMC3     H13928   4.370   0.389  13.541 -1.1328 -1.8404  3.2109
    8TMC3    H113929   4.015   0.152  13.515  0.2234  1.1388  2.1246
    8TMC3    H213930   4.301   0.118  13.213 -1.5602  1.3711 -1.8203
    8TMC3    C713931   4.047   0.181  13.249  0.1995  1.1640 -0.0653
    8TMC3    C813932   4.463   0.304  13.306  0.3765  0.1681 -0.7027
    8TMC3    O113933   3.938   0.207  13.290 -0.6503  0.0645 -0.1450
    8TMC3    O213934   4.458   0.295  13.185  0.0321 -0.0361 -0.3006
    9TMC3    C113935   3.318   0.679  12.961 -0.4935  0.7486  0.3211
    9TMC3    C213936   3.401   0.600  12.876  0.5385 -0.5440  0.2207
    9TMC3    C313937   3.528   0.567  12.919  0.0617 -0.4306  0.2537
    9TMC3    C413938   3.362   0.711  13.088 -0.5913  0.3589  0.4999
    9TMC3    C513939   3.485   0.678  13.133 -0.1076 -0.7833 -0.6211
    9TMC3    C613940   3.571   0.607  13.046  0.4599  0.0270  0.1746
    9TMC3     C13941   3.183   0.723  12.918  0.3854  0.0993  0.2846
    9TMC3     O13942   3.119   0.762  13.014  0.2457 -0.7520 -0.0293
    9TMC3     H13943   3.363   0.543  12.792  1.7034 -0.3174 -0.4711
    9TMC3    H113944   3.308   0.780  13.152  0.9002 -0.9754  3.1880
    9TMC3    H213945   3.676   0.593  13.069  0.2504 -1.4899  0.1852
    9TMC3    C713946   3.543   0.709  13.265  0.3154 -0.5711 -0.2594
    9TMC3    C813947   3.609   0.469  12.844 -0.3316 -0.2491  0.0206
    9TMC3    O113948   3.488   0.799  13.326 -0.1099 -0.1033  0.1572
    9TMC3    O213949   3.598   0.444  12.723 -0.0808  1.0506 -0.2605
   10MPD2     C13950   4.083   0.261  12.899  0.4615 -0.1243  0.0012
   10MPD2    C113951   4.017   0.248  13.016 -0.3634 -1.4484 -0.0872
   10MPD2    C213952   3.881   0.283  13.021  0.4346 -0.3653 -0.7202
   10MPD2    C313953   3.812   0.342  12.916 -0.1815 -0.3804  0.5445
   10MPD2    C413954   3.875   0.337  12.797  0.2679  0.1978  0.3683
   10MPD2    C513955   4.009   0.296  12.786 -0.6728 -0.3224  0.9722
   10MPD2     H13956   3.820   0.272  13.110  0.0434 -0.9960 -1.0716
   10MPD2    H113957   3.839   0.394  12.712  1.7766  1.3171  0.4922
   10MPD2    H213958   4.189   0.243  12.889  0.3887 -1.9945  2.7350
   10MPD2    H313959   4.052   0.302  12.686  0.8394 -0.6607  1.5910
   10MPD2     N13960   3.690   0.404  12.936 -0.6447  0.2015 -0.1190
   10MPD2    H513961   3.643   0.403  13.027 -0.3055  0.1156  0.0540
   10MPD2    N113962   4.093   0.198  13.124 -0.2053  1.3557  0.3718
   10MPD2    H713963   4.192   0.193  13.103 -0.6708 -1.9019 -1.1159
   11MPD2     C13964   0.475   4.456  13.989  0.1378  0.0963 -0.0565
   11MPD2    C113965   0.559   4.547  14.048  0.8677  1.1199  0.2250
   11MPD2    C213966   0.580   4.674  13.998 -0.4610  0.2630 -0.4691
   11MPD2    C313967   0.509   4.712  13.893  0.9408  0.0481  0.1671
   11MPD2    C413968   0.422   4.626  13.830  0.0995 -0.1411 -0.0873
   11MPD2    C513969   0.409   4.498  13.878  0.3982  0.4104 -0.5555
   11MPD2     H13970   0.639   0.019  14.058 -3.1767  2.6868 -0.6035
   11MPD2    H113971   0.366   4.647  13.740 -0.0965 -1.3108 -0.2315
   11MPD2    H213972   0.464   4.352  14.020 -0.4768 -0.7882 -3.3144
   11MPD2    H313973   0.346   4.433  13.818  2.2061 -1.3897 -0.4950
   11MPD2     N13974   0.509   0.117  13.843  0.6779  0.6181  0.2264
   11MPD2    H513975   0.462   0.127  13.753  0.6917  0.8155  0.2400
   11MPD2    N113976   0.634   4.519  14.169 -0.0405  0.3684  0.1503
   11MPD2    H713977   0.696   4.589  14.207 -1.0952  1.4673 -0.1255
    1MPD1     C13978   2.284   0.793  17.594 -0.7440  0.2862  0.2386
    1MPD1    C113979   2.388   0.866  17.644 -0.3414  1.1191  0.8259
    1MPD1    C213980   2.511   0.860  17.582  0.2384  0.1625  0.0660
    1MPD1    C313981   2.527   0.791  17.461  0.6531 -0.5403 -0.0602
    1MPD1    C413982   2.418   0.720  17.410  0.3628 -0.6606  1.0574
    1MPD1    C513983   2.295   0.722  17.477  0.3941  0.9273  0.5000
    1MPD1     H13984   2.595   0.915  17.622  0.8367 -1.8095  1.4630
    1MPD1    H113985   2.440   0.654  17.327 -0.1023  0.6580 -0.1295
    1MPD1    H213986   2.193   0.779  17.652 -0.1499 -0.0010  1.1018
    1MPD1    H313987   2.223   0.646  17.448  0.2406  2.5521 -3.4899
    1MPD1     N13988   2.653   0.766  17.400  0.0226 -0.4538  0.0693
    1MPD1    H513989   2.652   0.732  17.304  0.1279  1.2151 -0.5183
    1MPD1    N113990   2.379   0.935   0.069  0.3244 -0.1781 -0.1734
    1MPD1    H613991   2.295   0.990   0.080  0.7232  0.3265  0.3337
    1MPD1    H713992   2.452   1.006   0.064  0.0812  0.0542 -0.3509
    2MPD1     C13993   3.631   0.802   0.007  0.4476 -0.2249  0.0106
    2MPD1    C113994   3.510   0.839   0.073 -0.0089  0.6655 -0.7887
    2MPD1    C213995   3.392   0.854  17.692 -0.3405 -0.0661 -0.8208
    2MPD1    C313996   3.392   0.835  17.555  0.2274 -0.5718 -0.0513
    2MPD1    C413997   3.507   0.786  17.496  0.6035 -0.5349  0.7870
    2MPD1    C513998   3.624   0.772  17.568  0.1088  0.5945 -0.2943
    2MPD1     H13999   3.298   0.888   0.035 -0.3886  1.5387 -2.2930
    2MPD1    H114000   3.510   0.763  17.390 -0.1202  3.5585 -0.1136
    2MPD1    H214001   3.723   0.781   0.061  0.2778 -3.4210 -0.9636
    2MPD1    H314002   3.706   0.728  17.512 -0.6202 -1.3274  0.1138
    2MPD1     N14003   3.269   0.854  17.484 -0.1018 -0.3296  0.0864
    2MPD1    H514004   3.192   0.896  17.535  0.2143 -0.0490  0.3329
    2MPD1    N114005   3.507   0.846   0.213  0.5168  0.4151 -0.3891
    2MPD1    H614006   3.599   0.853   0.256  0.5095  2.2276 -0.6478
    2MPD1    H714007   3.448   0.918   0.256 -0.1637 -0.8344  0.7572
    3TMC3    C114008   3.105   0.834  17.313 -0.4295  0.1185 -0.4133
    3TMC3    C214009   3.081   0.878  17.185  0.7571  0.9278  0.4750
    3TMC3    C314010   2.942   0.897  17.154  0.1181 -0.1448  0.4225
    3TMC3    C414011   3.005   0.792  17.398  0.0086 -0.4793  0.3051
    3TMC3    C514012   2.878   0.787  17.351 -0.4299  0.2658 -0.0543
    3TMC3    C614013   2.842   0.831  17.227  0.8176  0.4974  0.1723
    3TMC3     C14014   3.245   0.810  17.353  0.4125  0.1670 -0.3313
    3TMC3     O14015   3.315   0.740  17.281 -0.1635  0.1596  0.2211
    3TMC3     H14016   3.162   0.899  17.116  0.8265  0.9643  0.5671
    3TMC3    H114017   3.020   0.738  17.491 -1.9817 -1.6946 -0.0904
    3TMC3    H214018   2.740   0.854  17.199  0.9742 -0.3240 -1.0511
    3TMC3    C714019   2.775   0.800  17.452 -0.6762  0.0349 -0.5194
    3TMC3    C814020   2.898   1.013  17.075  0.1952 -0.1627 -0.1583
    3TMC3    O114021   2.804   0.831  17.566 -0.3380 -0.5414  0.0617
    3TMC3    O214022   2.776   1.023  17.066  0.4254  0.5726  0.0393
    4MPD1     C14023   2.962   1.506  16.963  0.0149  0.1375  0.2555
    4MPD1    C114024   3.090   1.453  16.983  0.7110  0.3014 -0.6883
    4MPD1    C214025   3.100   1.317  17.005 -0.0904  0.0674 -0.8540
    4MPD1    C314026   2.987   1.233  17.004  0.2322 -0.7625  0.1807
    4MPD1    C414027   2.865   1.286  16.972 -0.6440 -0.1730 -0.3290
    4MPD1    C514028   2.856   1.420  16.955  0.5068  0.0563 -0.1795
    4MPD1     H14029   3.199   1.281  17.028  0.6237  1.5465 -1.6236
    4MPD1    H114030   2.772   1.230  16.975 -0.7092 -0.0435  0.0498
    4MPD1    H214031   2.936   1.611  16.957  2.3785  0.7315  0.3383
    4MPD1    H314032   2.760   1.468  16.945  0.6867  0.6190  0.7718
    4MPD1     N14033   3.004   1.098  17.042 -0.6842  0.1898 -0.0433
    4MPD1    H514034   3.100   1.065  17.051 -0.9741 -0.7359 -0.3332
    4MPD1    N114035   3.195   1.547  17.014 -0.1988  0.0563 -0.6742
    4MPD1    H614036   3.169   1.630  16.963 -0.7766  1.1776  1.4246
    4MPD1    H714037   3.288   1.513  16.990 -0.2655 -0.9717  0.5108
    1TCq1    O114038   4.057   2.159  12.662  0.1727  0.2374 -0.2263
    1TCq1    C114039   3.952   2.120  12.579 -0.5739  0.4642  0.5244
    1TCq1    O214040   3.958   2.056  12.473  0.3476  0.2288  0.1422
    1TCq1    C214041   3.879   2.246  12.575 -0.5830  0.1186  0.2709
    1TCq1    C314042   3.808   2.298  12.680 -0.6180  0.1762 -0.4160
    1TCq1    C414043   3.771   2.428  12.670 -0.2262  0.1843  0.2590
    1TCq1    C514044   3.818   2.515  12.570  0.0872  0.4594 -1.1088
    1TCq1    C614045   3.860   2.446  12.458  0.2299  1.1968 -0.7830
    1TCq1    C714046   3.903   2.314  12.455  0.1778  0.0232  0.2397
    1TCq1    C814047   3.865   2.518  12.334  0.2989  1.1477  0.4963
    1TCq1    O414048   3.919   2.457  12.244 -0.0351 -0.1089  0.3766
    1TCq1    C914049   3.758   2.490  12.799 -0.3879  0.8115 -1.0157
    1TCq1    O514050   3.744   2.615  12.803  0.1039 -0.4876 -0.0209
    1TCq1    O614051   3.787   2.417  12.899 -0.0992  0.4595 -0.0306
    1TCq1    H114052   4.044   2.248  12.701 -0.1392 -0.4615  1.2959
    1TCq1    H214053   3.806   2.236  12.769  3.1836 -0.1490 -0.5956
    1TCq1    H314054   3.800   2.622  12.575 -1.7541  0.0926  0.0141
    1TCq1    H414055   3.957   2.272  12.372 -2.5262  1.8936 -2.4569
    2MPD1     C14056   3.783   2.889  12.009  0.1370  0.8505  0.4660
    2MPD1    C114057   3.807   2.954  12.131  0.1986 -0.4137  0.4710
    2MPD1    C214058   3.829   2.871  12.240  0.2487 -0.0816 -0.4681
    2MPD1    C314059   3.816   2.727  12.229  0.4251  0.1380 -0.3736
    2MPD1    C414060   3.781   2.674  12.111 -0.6961 -0.2921  0.2563
    2MPD1    C514061   3.781   2.758  11.998  0.4263 -0.2057 -0.9036
    2MPD1     H14062   3.861   2.911  12.336 -1.4894  0.1926  0.0082
    2MPD1    H114063   3.751   2.571  12.101 -2.1900  0.1572 -0.0593
    2MPD1    H214064   3.750   2.948  11.925 -0.7324 -0.5274 -0.1560
    2MPD1    H314065   3.757   2.723  11.899  1.0415 -4.2631  0.3787
    2MPD1     N14066   3.826   2.649  12.343  0.0557 -0.2304 -0.6438
    2MPD1    H514067   3.845   2.702  12.428  2.1948  0.0696 -1.2878
    2MPD1    N114068   3.837   3.091  12.125  0.5725  0.3120  0.3267
    2MPD1    H614069   3.821   3.134  12.216  0.6458 -1.0979  1.0014
    2MPD1    H714070   3.784   3.138  12.052 -0.0696  2.0664  1.9142
    1TCq1    O114071   2.087   1.866   0.812  0.0007 -0.3928 -0.2582
    1TCq1    C114072   2.021   1.991   0.785 -0.1014 -0.3065 -0.2871
    1TCq1    O214073   1.980   2.061   0.874 -0.3412  0.1112  0.2863
    1TCq1    C214074   2.091   2.042   0.668 -0.0734  0.0988 -0.6907
    1TCq1    C314075   2.154   2.158   0.677  0.2973  0.2877 -0.7530
    1TCq1    C414076   2.224   2.198   0.563  1.0050 -0.5416 -0.7329
    1TCq1    C514077   2.255   2.109   0.464 -0.1420  0.5270  0.2732
    1TCq1    C614078   2.196   1.984   0.462  0.3672  0.1168 -0.5250
    1TCq1    C714079   2.121   1.949   0.572  0.5986 -0.5838  0.0167
    1TCq1    C814080   2.213   1.896   0.346 -0.0016  0.5810 -0.5206
    1TCq1    O414081   2.265   1.954   0.250 -0.1690 -0.2923 -0.3193
    1TCq1    C914082   2.314   2.306   0.583 -0.2434 -0.2931  0.3635
    1TCq1    O514083   2.268   2.404   0.646  0.1346  0.4845 -0.2750
    1TCq1    O614084   2.428   2.287   0.546  0.0688  0.2268  0.2163
    1TCq1    H114085   2.150   1.839   0.742  1.7367 -1.4575  1.7168
    1TCq1    H214086   2.139   2.221   0.764 -1.7235 -0.9607 -0.1795
    1TCq1    H314087   2.317   2.152   0.386  1.4720 -1.8079  0.2865
    1TCq1    H414088   2.053   1.865   0.569 -0.4066  0.3573 -3.6313
    2MPD1     C14089   2.141   1.456   0.095 -0.1114  0.1981  0.1457
    2MPD1    C114090   2.158   1.428   0.227  0.3932  0.3438  0.1153
    2MPD1    C214091   2.168   1.531   0.316  0.0441 -0.6109 -0.6229
    2MPD1    C314092   2.190   1.662   0.271  0.2437 -0.3176 -0.5566
    2MPD1    C414093   2.202   1.687   0.136 -0.0762 -0.0741  0.6206
    2MPD1    C514094   2.176   1.582   0.045  0.6222  0.0279  1.1377
    2MPD1     H14095   2.161   1.522   0.424 -2.4585  0.1141 -0.7224
    2MPD1    H114096   2.226   1.778   0.083 -0.5657 -1.9278 -2.8106
    2MPD1    H214097   2.117   1.378   0.024  0.6174  0.2151 -0.1128
    2MPD1    H314098   2.175   1.598  17.634 -3.0530 -2.3798  0.8183
    2MPD1     N14099   2.180   1.765   0.371 -0.1416  0.5155  0.2118
    2MPD1    H514100   2.158   1.738   0.466 -0.3725  0.2351  0.0786
    2MPD1    N114101   2.124   1.302   0.273 -0.5164 -0.4580 -1.0164
    2MPD1    H614102   2.163   1.273   0.362 -0.3390 -0.2919 -1.0398
    2MPD1    H714103   2.144   1.233   0.201  2.1055 -0.8762  0.1194
    1MPD1     C14104   0.649   1.661  12.195  0.4806 -0.4906 -0.8530
    1MPD1    C114105   0.714   1.731  12.096 -0.4858 -0.4365  0.0896
    1MPD1    C214106   0.819   1.674  12.025 -0.0743  0.3751 -0.1136
    1MPD1    C314107   0.873   1.560  12.066 -0.5841  0.2325  0.3064
    1MPD1    C414108   0.809   1.484  12.168  0.3052  0.3058  0.1718
    1MPD1    C514109   0.692   1.536  12.217 -0.5911 -0.3445 -0.6859
    1MPD1     H14110   0.864   1.724  11.940 -1.5604  0.4434 -0.8629
    1MPD1    H114111   0.827   1.377  12.180  1.5093  0.8344  3.1281
    1MPD1    H214112   0.556   1.701  12.235  0.2945 -0.4996 -1.2703
    1MPD1    H314113   0.633   1.474  12.284  0.3248 -0.1928  0.2728
    1MPD1     N14114   0.993   1.519  12.005 -0.5718 -0.4817  0.0167
    1MPD1    H514115   1.040   1.582  11.940  0.9220 -0.0187  1.5639
    1MPD1    N114116   0.658   1.854  12.050  0.2383  0.5731 -0.6266
    1MPD1    H614117   0.614   1.911  12.122 -0.2965 -1.9530  1.0680
    1MPD1    H714118   0.728   1.915  12.009  0.8228 -2.0993 -3.6201
    2MPD1     C14119   0.865   2.223  10.119  0.5709  0.4332 -0.3426
    2MPD1    C114120   0.799   2.102  10.105 -0.6519 -0.8669 -0.9096
    2MPD1    C214121   0.805   2.009  10.206 -0.4436 -0.7816 -0.2445
    2MPD1    C314122   0.899   2.027  10.308  0.4486 -0.2102 -0.2793
    2MPD1    C414123   0.971   2.144  10.320  0.6323 -0.1723 -0.0472
    2MPD1    C514124   0.964   2.234  10.219 -0.2592  0.0007  0.3667
    2MPD1     H14125   0.732   1.931  10.221 -2.5860  1.0810 -0.9445
    2MPD1    H114126   1.029   2.165  10.410  0.0166 -3.7959  1.1983
    2MPD1    H214127   0.849   2.305  10.050  0.7982  1.2484  0.5792
    2MPD1    H314128   1.021   2.325  10.234  0.9056 -0.4263 -1.5106
    2MPD1     N14129   0.910   1.935  10.412 -0.3076  0.3156  0.2037
    2MPD1    H514130   0.959   1.972  10.494 -0.6657 -1.5871  1.2675
    2MPD1    N114131   0.691   2.101  10.010  0.2053  0.0168  0.2303
    2MPD1    H614132   0.713   2.155   9.926 -0.0733  1.7356  1.2707
    2MPD1    H714133   0.672   2.004   9.985  0.7796  0.3692 -1.5635
    3MPD1     C14134   0.680   1.094  11.063 -0.1986 -0.2041  0.2296
    3MPD1    C114135   0.738   1.198  11.132 -0.0819  0.5164  1.4083
    3MPD1    C214136   0.779   1.306  11.060 -0.4612  0.3105 -0.3098
    3MPD1    C314137   0.753   1.312  10.927 -0.4853 -0.0524 -0.4020
    3MPD1    C414138   0.697   1.211  10.856 -0.1588  0.0071  0.1703
    3MPD1    C514139   0.667   1.095  10.930 -0.6436  0.3986  0.0496
    3MPD1     H14140   0.822   1.389  11.116 -0.5478 -0.0393  0.2668
    3MPD1    H114141   0.694   1.208  10.748 -2.1082 -1.1314  0.2606
    3MPD1    H214142   0.632   1.012  11.116 -1.1870  1.6602  2.2323
    3MPD1    H314143   0.621   1.011  10.880 -0.0702  1.1373 -1.7562
    3MPD1     N14144   0.807   1.426  10.863  0.4073 -0.2006  0.4960
    3MPD1    H514145   0.868   1.490  10.913 -1.4207  1.5293  0.5457
    3MPD1    N114146   0.770   1.188  11.265 -0.3445 -0.6278  0.6443
    3MPD1    H614147   0.694   1.144  11.317  0.6504 -1.7741  1.1218
    3MPD1    H714148   0.805   1.266  11.320 -0.5642 -1.1849  1.5894
    4MPD2     C14149   1.616   1.889  11.838  0.5456 -0.1062  0.6079
    4MPD2    C114150   1.586   1.760  11.803  0.7004 -0.2866 -0.0966
    4MPD2    C214151   1.660   1.708  11.693  0.6590  0.5709 -0.2342
    4MPD2    C314152   1.756   1.775  11.622  0.1957  0.0329  0.0746
    4MPD2    C414153   1.771   1.903  11.657  0.3566  0.2734  0.1924
    4MPD2    C514154   1.706   1.963  11.763 -0.2707  0.0988 -0.3002
    4MPD2     H14155   1.633   1.613  11.650  1.5323  0.4157 -0.4390
    4MPD2    H114156   1.844   1.967  11.609 -2.1474  1.7339 -1.6866
    4MPD2    H214157   1.564   1.933  11.922 -3.1634 -0.0144 -1.7555
    4MPD2    H314158   1.728   2.067  11.788 -0.1940  0.0636 -0.2214
    4MPD2     N14159   1.812   1.734  11.500  0.1018 -0.1366  0.2276
    4MPD2    H514160   1.858   1.802  11.441 -1.4297 -1.4669 -2.4890
    4MPD2    N114161   1.500   1.682  11.877  0.1061 -0.0003 -0.1424
    4MPD2    H714162   1.455   1.732  11.953  1.8295 -1.5008  1.8487
    5TMC3    C114163   1.404   1.483  11.964 -0.0681  0.5577 -0.1119
    5TMC3    C214164   1.268   1.507  11.966  0.0175 -0.4179  0.0341
    5TMC3    C314165   1.192   1.393  11.984 -0.9393 -0.3154  0.2023
    5TMC3    C414166   1.455   1.360  11.980 -0.2524 -0.9172 -0.4094
    5TMC3    C514167   1.369   1.251  11.963 -0.0371 -0.5646  0.1439
    5TMC3    C614168   1.238   1.264  11.968 -0.2005  0.1020 -0.3011
    5TMC3     C14169   1.489   1.547  11.864  0.3489  0.4272  0.2360
    5TMC3     O14170   1.546   1.467  11.789 -0.4805 -0.4921  0.3217
    5TMC3     H14171   1.231   1.608  11.956 -0.4666 -0.8808 -2.6628
    5TMC3    H114172   1.560   1.335  11.967  0.7755  2.8250  0.7795
    5TMC3    H214173   1.168   1.183  11.948 -0.1895 -0.3158  1.3486
    5TMC3    C714174   1.415   1.139  11.876 -0.8188 -0.0078 -0.2527
    5TMC3    C814175   1.062   1.406  12.044  0.8858 -0.3620  0.1944
    5TMC3    O114176   1.383   1.024  11.902  0.4410  0.0091  0.2720
    5TMC3    O214177   1.041   1.320  12.127  0.0228 -0.5816 -0.8867
    6TMC3    C114178   0.899   1.732  10.530 -0.2879 -0.2977  0.5148
    6TMC3    C214179   0.827   1.625  10.568  0.1932 -0.1970  0.3241
    6TMC3    C314180   0.864   1.561  10.683 -0.6027  0.1028 -0.1430
    6TMC3    C414181   1.031   1.744  10.574 -0.4732  1.0274 -0.1749
    6TMC3    C514182   1.069   1.668  10.682 -0.1282 -0.5214  0.5325
    6TMC3    C614183   0.986   1.574  10.736 -0.2203 -0.2271 -0.1265
    6TMC3     C14184   0.868   1.803  10.408 -0.1097 -0.6410  0.0208
    6TMC3     O14185   0.786   1.748  10.332  0.4140  0.1089  0.1152
    6TMC3     H14186   0.724   1.606  10.539  0.5278 -2.5109  0.6428
    6TMC3    H114187   1.098   1.816  10.528 -0.2019  2.6710  2.7624
    6TMC3    H214188   1.016   1.529  10.830 -0.5690 -0.7748 -0.2771
    6TMC3    C714189   1.205   1.672  10.745 -0.7040  0.7710  0.1090
    6TMC3    C814190   0.772   1.462  10.736 -0.8173 -0.3857 -0.3426
    6TMC3    O114191   1.240   1.577  10.813 -0.3805 -0.4850  0.0202
    6TMC3    O214192   0.681   1.424  10.668  0.1381  0.3421 -0.4017
    7MPD2     C14193   1.674   1.026  11.439 -0.7721  0.1558  0.5966
    7MPD2    C114194   1.684   1.155  11.468 -0.1144 -0.0985 -0.0269
    7MPD2    C214195   1.622   1.203  11.582 -0.5610  0.3607  0.0899
    7MPD2    C314196   1.545   1.128  11.665 -0.3350 -0.1359  0.1303
    7MPD2    C414197   1.549   0.994  11.640  0.4177  1.0510 -0.0636
    7MPD2    C514198   1.604   0.943  11.527  0.0307 -0.9650 -0.4361
    7MPD2     H14199   1.630   1.310  11.596 -1.4841  0.6070 -1.3198
    7MPD2    H114200   1.491   0.925  11.700  0.0194  0.9532 -0.5538
    7MPD2    H214201   1.733   0.980  11.361 -0.9845  1.7483 -0.5229
    7MPD2    H314202   1.600   0.836  11.506  1.3965 -1.4607  1.8473
    7MPD2     N14203   1.491   1.192  11.776  0.2143 -0.0063 -0.1145
    7MPD2    H514204   1.504   1.293  11.778 -1.1504  0.1574  0.1532
    7MPD2    N114205   1.763   1.247  11.396  0.0625  0.1204 -0.4988
    7MPD2    H714206   1.778   1.337  11.441 -2.0418  0.7031 -0.9733
    8TMC3    C114207   1.850   1.361  11.216 -0.5460 -0.2211 -0.0308
    8TMC3    C214208   1.777   1.417  11.118 -0.4246 -0.2059  0.2527
    8TMC3    C314209   1.736   1.545  11.126  0.0531 -0.4037 -0.3853
    8TMC3    C414210   1.903   1.442  11.314 -0.0593 -0.6825 -0.3266
    8TMC3    C514211   1.867   1.581  11.329 -0.1238 -0.4658 -0.0491
    8TMC3    C614212   1.779   1.632  11.233  0.1039 -0.0460 -0.2261
    8TMC3     C14213   1.802   1.236  11.265  0.0114 -0.5267  0.0086
    8TMC3     O14214   1.789   1.149  11.181 -0.2261  0.2284 -0.1643
    8TMC3     H14215   1.743   1.351  11.038  0.7297 -0.4903  0.0050
    8TMC3    H114216   1.966   1.393  11.387 -1.9539 -1.0769  1.0277
    8TMC3    H214217   1.740   1.730  11.259  0.2506 -0.8270  2.8559
    8TMC3    C714218   1.821   1.603  11.460 -0.0769  0.1942 -0.0661
    8TMC3    C814219   1.647   1.592  11.024  0.6502 -0.8184 -0.3286
    8TMC3    O114220   1.793   1.501  11.523  0.1248 -0.1789  0.6993
    8TMC3    O214221   1.586   1.501  10.967  0.1349  0.7391 -0.3734
    9MPD2     C14222   1.602   1.949  10.919 -0.1379  0.0798  0.5419
    9MPD2    C114223   1.569   1.817  10.929 -0.4377 -0.3182  0.1149
    9MPD2    C214224   1.456   1.766  10.873  1.1506  0.0814 -0.7112
    9MPD2    C314225   1.375   1.844  10.796 -0.3209  0.2558  0.2978
    9MPD2    C414226   1.419   1.972  10.777  0.3307 -0.1468  0.6054
    9MPD2    C514227   1.529   2.024  10.828 -0.2905 -0.2339 -0.1236
    9MPD2     H14228   1.436   1.661  10.886  1.7115 -0.1468 -1.7325
    9MPD2    H114229   1.354   2.037  10.721 -1.4595 -0.4461  2.3321
    9MPD2    H214230   1.697   1.992  10.947 -0.7485  0.9638  1.2656
    9MPD2    H314231   1.555   2.129  10.820  1.1186 -0.4813  1.2856
    9MPD2     N14232   1.253   1.797  10.737 -0.0676 -0.3196 -0.3182
    9MPD2    H514233   1.212   1.859  10.668  1.1230  0.2937 -0.4684
    9MPD2    N114234   1.641   1.730  11.018  0.5279  0.3312  0.0810
    9MPD2    H714235   1.706   1.776  11.080  1.3239  0.0954 -0.5702
    1MPD1     C14236   2.281   4.207  15.930  0.7611  0.0492 -0.1267
    1MPD1    C114237   2.310   4.202  16.061 -0.7153 -0.0798  0.1446
    1MPD1    C214238   2.208   4.169  16.152  0.5278  0.2302 -0.1656
    1MPD1    C314239   2.087   4.117  16.108  0.2156  0.2723 -0.0175
    1MPD1    C414240   2.072   4.103  15.970  0.3151  0.1769 -0.2059
    1MPD1    C514241   2.166   4.144  15.884  0.2654 -0.3272  0.1287
    1MPD1     H14242   2.226   4.182  16.259 -0.7480 -0.5593  0.1411
    1MPD1    H114243   1.990   4.048  15.926  1.2178 -1.6097  0.3322
    1MPD1    H214244   2.355   4.244  15.860  0.8814  1.8596  0.9638
    1MPD1    H314245   2.155   4.119  15.779  1.1206 -3.4621  0.7934
    1MPD1     N14246   1.980   4.080  16.189  0.5613  0.1263 -0.5832
    1MPD1    H514247   1.914   4.016  16.146  1.3931 -1.0289 -0.1420
    1MPD1    N114248   2.435   4.253  16.111 -0.9392  0.2988  0.1418
    1MPD1    H614249   2.520   4.231  16.060 -2.1653  1.2253 -2.3454
    1MPD1    H714250   2.436   4.231  16.210 -0.9553  2.0052  0.5206
    2MPD1     C14251   1.677   4.378  17.081 -0.4644  0.4182  0.2235
    2MPD1    C114252   1.712   4.441  16.968  0.0439 -0.0560 -0.3832
    2MPD1    C214253   1.710   4.382  16.850 -0.1613 -0.6900  0.5454
    2MPD1    C314254   1.694   4.244  16.849  0.0818  0.0839  0.4753
    2MPD1    C414255   1.641   4.178  16.959  0.2490  0.3989  0.5022
    2MPD1    C514256   1.639   4.246  17.078  0.8068 -0.2117  0.0786
    2MPD1     H14257   1.744   4.436  16.762 -0.2706  2.9122  2.7059
    2MPD1    H114258   1.612   4.074  16.964  0.1238  0.2247 -4.2674
    2MPD1    H214259   1.678   4.436  17.173  4.4828  1.3751 -0.4330
    2MPD1    H314260   1.604   4.197  17.168  1.0564 -1.7520 -0.6679
    2MPD1     N14261   1.726   4.169  16.734  0.2157 -0.5218  0.8046
    2MPD1    H514262   1.737   4.228  16.652 -0.3056  0.4534  1.4393
    2MPD1    N114263   1.746   4.579  16.954  0.5409 -0.2770  0.6106
    2MPD1    H614264   1.808   4.603  16.877  0.2105 -1.9623 -0.1798
    2MPD1    H714265   1.786   4.608  17.043  1.1755  0.7522 -0.0163
    3TCq2    C114266   1.702   4.036  16.707 -0.8717 -0.2457  0.3375
    3TCq2    O214267   1.658   3.954  16.792  0.1071 -0.2898  0.0711
    3TCq2    C214268   1.750   3.997  16.582 -0.7988 -0.4778 -0.4179
    3TCq2    C314269   1.738   3.862  16.548  0.1731 -0.3422  0.5268
    3TCq2    C414270   1.797   3.819  16.436  0.2392  0.8347  0.0487
    3TCq2    C514271   1.864   3.905  16.357 -0.3780  0.6644 -1.3215
    3TCq2    C614272   1.882   4.032  16.394 -0.2094 -0.2182  0.3243
    3TCq2    C714273   1.827   4.083  16.510 -0.4079  0.9200  0.0132
    3TCq2    C814274   1.968   4.117  16.319  0.2191 -0.1317  0.4452
    3TCq2    O414275   2.013   4.219  16.374  0.7368 -0.0886  0.2527
    3TCq2    C914276   1.786   3.683  16.408 -0.6435 -0.5504  0.3423
    3TCq2    O514277   1.709   3.621  16.485 -0.0468 -0.0031  0.9822
    3TCq2    O614278   1.815   3.659  16.289 -0.3104  0.0698  0.6612
    3TCq2    H214279   1.686   3.795  16.615 -1.0496 -0.9030 -0.9974
    3TCq2    H314280   1.914   3.870  16.268  0.8499 -1.8202  0.3296
    3TCq2    H414281   1.864   4.180  16.540  1.4350  0.6930 -1.5854
    1TCq1    O114282   3.774   3.026  13.322 -0.0133 -0.1116  0.3432
    1TCq1    C114283   3.867   3.125  13.307  0.7013  0.3069 -0.3951
    1TCq1    O214284   3.986   3.102  13.295 -0.1094 -0.1386  0.0459
    1TCq1    C214285   3.803   3.246  13.250  0.2585  0.0167 -0.1115
    1TCq1    C314286   3.672   3.247  13.203 -0.2177 -0.0354  0.8562
    1TCq1    C414287   3.626   3.369  13.165 -0.3171 -0.7087 -0.8535
    1TCq1    C514288   3.703   3.483  13.172  0.1810 -0.8408  0.1219
    1TCq1    C614289   3.835   3.472  13.207 -0.2474 -0.4245 -0.0548
    1TCq1    C714290   3.889   3.353  13.246 -0.6495 -0.0259  0.3251
    1TCq1    C814291   3.901   3.596  13.226 -0.0247 -0.1009  0.1415
    1TCq1    O414292   3.856   3.697  13.168  0.0109  0.0107 -0.2806
    1TCq1    C914293   3.489   3.376  13.121  0.3211  0.1266  0.0847
    1TCq1    O514294   3.436   3.489  13.119  0.6975  0.5754  0.5071
    1TCq1    O614295   3.424   3.271  13.117  0.7002 -0.0043  0.0407
    1TCq1    H114296   3.694   3.063  13.365  0.4465 -0.4159  1.4714
    1TCq1    H214297   3.606   3.161  13.203  1.2829 -1.1875 -0.5434
    1TCq1    H314298   3.659   3.575  13.137  0.3669 -0.5902  0.5429
    1TCq1    H414299   3.992   3.338  13.276 -0.1951  1.5309 -0.4584
    2MPD2     C14300   4.110   3.804  13.273 -0.4785  0.1722  0.6842
    2MPD2    C114301   4.113   3.684  13.333  0.3428 -0.3502 -0.3666
    2MPD2    C214302   4.222   3.644  13.417 -0.1413 -0.1112  0.1406
    2MPD2    C314303   4.338   3.718  13.422 -0.4401 -0.0087  0.1878
    2MPD2    C414304   4.333   3.844  13.365 -0.2387 -0.2861 -0.8220
    2MPD2    C514305   4.221   3.882  13.294  0.4933 -0.2314 -0.1299
    2MPD2     H14306   4.207   3.546  13.462 -0.9470 -0.9349 -1.8926
    2MPD2    H114307   4.414   3.916  13.361 -1.0168  0.6433  0.5348
    2MPD2    H214308   4.035   3.834  13.201 -0.1401  0.8269  0.6067
    2MPD2    H314309   4.213   3.973  13.235  0.0774  0.5164  1.0694
    2MPD2     N14310   4.439   3.659  13.494 -0.3143 -0.1591  0.3199
    2MPD2    H514311   4.430   3.565  13.529 -1.8165  0.9888  3.0416
    2MPD2    N114312   4.011   3.582  13.303 -0.4065 -0.2931  0.8751
    2MPD2    H714313   4.034   3.489  13.339 -1.5299 -1.2657 -0.9305
    3TCq1    O114314   0.174   3.568  13.963 -0.3367 -0.4264  0.2306
    3TCq1    C114315   0.079   3.649  13.911  0.1458 -0.1686 -0.0724
    3TCq1    O214316   0.069   3.771  13.932 -0.0434 -0.1193  0.3030
    3TCq1    C214317   4.714   3.592  13.816 -0.0711 -0.1657 -1.3479
    3TCq1    C314318   0.011   3.466  13.785  0.1881  0.2652 -0.0614
    3TCq1    C414319   4.711   3.431  13.653  0.1805 -0.3589  1.1548
    3TCq1    C514320   4.656   3.512  13.562 -0.3875  0.1781  0.3381
    3TCq1    C614321   4.636   3.642  13.602 -0.0752  0.1650  0.0634
    3TCq1    C714322   4.677   3.684  13.722 -0.1512  0.5533 -0.6386
    3TCq1    C814323   4.553   3.723  13.526  1.0592 -0.9528  0.0285
    3TCq1    O414324   4.584   3.835  13.500 -0.0054  0.0952  0.4423
    3TCq1    C914325   0.053   3.310  13.612 -0.8859  0.4451 -0.1733
    3TCq1    O514326   0.115   3.244  13.698  0.0886  0.4907  0.2967
    3TCq1    O614327   0.069   3.306  13.485 -0.5117  0.0088 -0.0987
    3TCq1    H114328   0.185   3.481  13.920 -0.4347  0.4441 -1.5715
    3TCq1    H214329   0.059   3.393  13.850  3.5583  0.6931 -2.0781
    3TCq1    H314330   4.634   3.485  13.460  0.5723 -1.6063  0.6052
    3TCq1    H414331   4.681   3.791  13.736 -1.1936  0.7535 -1.8581
    1MPD2     C14332   3.462   0.294  15.078  0.3849 -0.1547  0.4474
    1MPD2    C114333   3.350   0.294  15.153  1.0532 -0.4262 -0.3819
    1MPD2    C214334   3.305   0.169  15.212  0.8972  1.1004 -0.9049
    1MPD2    C314335   3.374   0.048  15.184  0.1635  0.1298 -0.3147
    1MPD2    C414336   3.491   0.059  15.119 -0.1327  0.6808 -0.7200
    1MPD2    C514337   3.526   0.178  15.062 -0.2393 -0.2193  0.6172
    1MPD2     H14338   3.213   0.161  15.268  1.7634  0.9202  0.5041
    1MPD2    H114339   3.554   4.695  15.104 -1.9360 -0.8942  0.9334
    1MPD2    H214340   3.502   0.385  15.035 -0.6554  0.5827  1.0207
    1MPD2    H314341   3.618   0.188  15.006 -0.3438  1.3711  0.7173
    1MPD2     N14342   3.313   4.653  15.212 -0.9059 -0.2274  0.0456
    1MPD2    H514343   3.214   4.660  15.236 -1.0520 -2.8888  0.2327
    1MPD2    N114344   3.278   0.417  15.180 -0.4418  0.2530  0.4762
    1MPD2    H714345   3.320   0.493  15.128  1.2190 -0.4697  0.7517
    2TMC3    C114346   3.087   0.555  15.241 -0.1959 -0.1002 -0.4031
    2TMC3    C214347   2.963   0.539  15.299 -0.3468  0.3627 -0.2068
    2TMC3    C314348   2.849   0.568  15.224  0.1785 -0.2875 -0.0318
    2TMC3    C414349   3.094   0.619  15.117  0.1255  0.2862 -0.1486
    2TMC3    C514350   2.979   0.652  15.052  0.0090  0.1741  0.4805
    2TMC3    C614351   2.860   0.629  15.101  0.2727  0.5850  0.2452
    2TMC3     C14352   3.152   0.426  15.246 -0.3814 -0.6866  0.1310
    2TMC3     O14353   3.080   0.341  15.294 -0.1466  0.3724  0.0057
    2TMC3     H14354   2.948   0.495  15.397 -0.4947  1.1096  0.1120
    2TMC3    H114355   3.191   0.632  15.071  1.2909 -2.9800  1.4144
    2TMC3    H214356   2.769   0.658  15.049  0.2528  0.5144  0.2410
    2TMC3    C714357   2.976   0.735  14.932  0.0825 -0.2795 -0.6746
    2TMC3    C814358   2.738   0.484  15.235 -0.4648  0.2998 -0.0917
    2TMC3    O114359   2.870   0.746  14.867 -0.1524 -0.3111  0.5196
    2TMC3    O214360   2.633   0.512  15.177 -0.2821  0.1991 -0.1922
    3TCq1    O114361   3.761   1.454  14.358 -0.7468  0.2359  0.7640
    3TCq1    C114362   3.860   1.358  14.389 -0.3156  0.5408 -0.4170
    3TCq1    O214363   3.977   1.387  14.394 -0.5654  0.1294  0.1999
    3TCq1    C214364   3.802   1.277  14.493 -0.1265 -0.2875 -0.0821
    3TCq1    C314365   3.869   1.243  14.611 -0.1697  0.6099 -0.2284
    3TCq1    C414366   3.822   1.155  14.701 -0.0121  0.5365  0.1009
    3TCq1    C514367   3.700   1.091  14.673 -0.2657  0.7626 -0.3801
    3TCq1    C614368   3.634   1.127  14.561  0.1405  0.3090  0.4258
    3TCq1    C714369   3.686   1.212  14.466 -0.1081 -0.2132 -0.4349
    3TCq1    C814370   3.502   1.069  14.526 -0.2744 -0.2555  0.0173
    3TCq1    O414371   3.464   1.061  14.410  0.0337 -0.1240  0.0661
    3TCq1    C914372   3.897   1.119  14.820 -0.3544  0.2692  0.0210
    3TCq1    O514373   3.852   1.030  14.897  0.1043  0.1526 -0.2851
    3TCq1    O614374   4.010   1.170  14.836  0.0978  0.3934 -0.3690
    3TCq1    H114375   3.672   1.421  14.380 -1.3288  1.0906 -0.3270
    3TCq1    H214376   3.965   1.289  14.628 -1.1457  1.9457  1.6666
    3TCq1    H314377   3.666   1.013  14.740 -0.3942  1.2749  0.1548
    3TCq1    H414378   3.629   1.230  14.376  1.2232 -0.5222 -1.3491
    4MPD2     C14379   3.207   0.976  14.551 -0.2647 -0.2553  0.1651
    4MPD2    C114380   3.305   0.965  14.646 -0.7074 -0.2965 -0.0790
    4MPD2    C214381   3.264   0.916  14.768  0.2044  0.1789 -0.4843
    4MPD2    C314382   3.132   0.862  14.785 -0.1449  0.7533  0.0293
    4MPD2    C414383   3.039   0.880  14.686 -0.0456  0.1213 -0.2418
    4MPD2    C514384   3.078   0.943  14.575  0.0193 -0.1343 -0.0841
    4MPD2     H14385   3.340   0.920  14.845  0.7876  0.2741 -1.0670
    4MPD2    H114386   2.937   0.843  14.680  0.2643 -1.1237  2.5126
    4MPD2    H214387   3.231   1.027  14.458 -0.5235  0.9368  0.7584
    4MPD2    H314388   3.010   0.969  14.495 -1.1121  2.1981  1.6132
    4MPD2     N14389   3.101   0.787  14.905 -0.1844  0.2412  0.6101
    4MPD2    H514390   3.180   0.776  14.969 -1.5656  0.3046  2.3095
    4MPD2    N114391   3.436   1.025  14.632  0.1086  1.0139 -1.3250
    4MPD2    H714392   3.492   1.040  14.715  1.6300 -0.8825 -1.9937
    5TMC2    C114393   3.014   4.464  15.259 -0.3277 -0.7245 -0.6787
    5TMC2    C214394   3.013   4.419  15.391 -0.0718  0.5157 -0.0436
    5TMC2    C314395   3.135   4.387  15.441  0.4129  0.1249  0.0750
    5TMC2    C414396   3.133   4.478  15.187 -0.2648 -0.0039 -0.3979
    5TMC2    C514397   3.246   4.442  15.248 -1.0659 -0.5291  0.1878
    5TMC2    C614398   3.251   4.396  15.377  0.3797 -0.3256  0.3699
    5TMC2     C14399   2.961   4.598  15.265  0.1141  0.6722 -0.4117
    5TMC2     O14400   3.033   4.691  15.244  0.2038 -0.1718 -0.4986
    5TMC2     H14401   2.922   4.401  15.448 -0.5182  0.4849 -0.7615
    5TMC2    H114402   3.129   4.522  15.088 -1.1048 -0.9062 -0.7777
    5TMC2    H214403   3.341   4.371  15.432 -0.3856 -2.1177  0.8087
    5TMC2    C714404   3.358   4.523  15.202  0.5293 -0.2965  0.1704
    5TMC2    C814405   3.132   4.334  15.574 -0.3711 -0.1608  0.1737
    5TMC2    O114406   3.474   4.492  15.198  0.5373 -0.5517 -0.1159
    5TMC2    O214407   3.205   4.252  15.620  0.4909  0.0999 -0.2184
    5TMC2    O514408   3.059   4.412  15.649 -0.2862  0.3260  0.5547
    5TMC2    H514409   3.006   4.482  15.605 -0.9388  0.4647  1.5553
    6MPD2     C14410   2.581   0.219  15.238 -0.7450  0.7854 -0.8264
    6MPD2    C114411   2.721   0.234  15.257 -0.0593  0.3741 -0.1656
    6MPD2    C214412   2.803   0.121  15.266 -0.0613 -0.5684 -0.2262
    6MPD2    C314413   2.752   4.720  15.249  0.1819  0.2034 -0.4828
    6MPD2    C414414   2.618   4.704  15.245  0.1543 -0.0156 -0.4205
    6MPD2    C514415   2.536   0.088  15.233 -0.6076 -0.1423 -0.6855
    6MPD2     H14416   2.908   0.144  15.275  0.1314 -1.5981  0.1328
    6MPD2    H114417   2.573   4.606  15.247 -2.1679  1.0641  0.4087
    6MPD2    H214418   2.513   0.303  15.238 -1.8178 -0.0827  2.8380
    6MPD2    H314419   2.431   0.071  15.217 -0.8022 -0.5899  1.0964
    6MPD2     N14420   2.827   4.602  15.262 -0.3391  0.0625 -0.3367
    6MPD2    H514421   2.775   4.515  15.255  2.1877 -1.5160  0.6592
    6MPD2    N114422   2.787   0.356  15.268  0.3764  0.0899 -0.4744
    6MPD2    H714423   2.885   0.351  15.292  0.6899  0.9158 -1.5884
  945NH3     N114424   4.525   4.686  13.955  0.2851  0.3087  0.2240
  945NH3     H214425   4.579   0.041  13.988 -0.7511  1.0048  0.2413
  945NH3     H314426   4.484   4.647  14.039 -1.1991  2.3442  0.4402
  945NH3     H414427   4.444   0.004  13.911 -0.7194 -1.9026 -0.0265
  946SOD     NA14428   2.452   2.651  14.863 -0.0352  0.4312  0.0690
  947SOD     NA14429   2.777   1.216  16.344  0.0883 -0.4364 -0.3359
  948SOD     NA14430   0.066   2.307   0.524 -0.3191 -0.1573  0.1288
  949SOD     NA14431   2.140   4.444  13.209 -0.3472 -0.0501 -0.0912
  950SOD     NA14432   1.779   4.520   3.043 -0.0033 -0.1752  0.0385
  951SOD     NA14433   1.988   3.648  16.152 -0.4788 -0.2939 -0.4504
  952SOD     NA14434   2.984   3.665  12.914  0.0466 -0.1179  0.4568
  953SOD     NA14435   0.114   1.658   1.967  0.2684  0.7861 -0.5585
  954SOD     NA14436   3.777   1.026  10.711  0.2178 -0.3843  0.0997
  955SOD     NA14437   0.466   2.877  12.632  0.6458  0.0445 -0.3664
  956SOD     NA14438   3.969   3.524  16.894 -0.0103 -0.3301 -0.2254
  957SOD     NA14439   0.004   0.056  11.457  0.0478 -0.4196  0.5924
  958SOD     NA14440   2.744   3.178   9.492  0.5309  0.2810  0.0532
  959SOD     NA14441   0.512   1.946  17.064 -0.5420 -0.3334 -0.2531
  960SOD     NA14442   3.623   0.213  12.677 -0.3166  0.2232  0.1895
  961SOD     NA14443   2.497   2.598   9.677  0.1031  0.3553 -0.3518
  962SOD     NA14444   2.962   3.390   9.598 -0.0605  0.5275  0.0833
  963SOD     NA14445   0.980   3.676   9.754 -0.1798  0.2512 -0.1062
  964SOD     NA14446   1.440   2.458  14.050 -0.5400  0.1748  0.1991
  965SOD     NA14447   1.496   3.377   2.363  0.2926 -0.0011 -0.1942
  966SOD     NA14448   3.965   1.884  14.204  0.2663 -0.2553  0.4234
  967SOD     NA14449   1.710   1.235   1.658 -0.2550  0.4116  0.2974
  968SOD     NA14450   4.018   4.523   9.924 -0.3583 -0.5341  0.0714
  969SOD     NA14451   3.843   3.627  11.995 -0.3189 -0.5596 -0.2551
  970SOD     NA14452   3.517   2.934  10.975  0.4254 -0.0756  0.3141
  971SOD     NA14453   2.909   4.448  14.830 -0.1924 -0.0301  0.3371
  972SOD     NA14454   4.075   4.370   4.655 -0.1807  0.3471 -0.2051
  973SOD     NA14455   0.969   2.787   0.722 -0.3032  0.5567 -0.2730
  974SOD     NA14456   3.564   3.689   1.574  0.4029  0.1632  0.0993
  975SOD     NA14457   1.522   1.998   2.509  0.0828 -0.2794 -0.6627
  976SOD     NA14458   2.566   0.765   1.613  0.0532 -0.2383  0.0935
  977SOD     NA14459   1.072   3.637  11.331  0.2249  0.2201  0.4298
  978SOD     NA14460   1.132   1.078   0.590 -0.4193  0.5664  0.2368
  979SOD     NA14461   2.104   3.374  12.642 -0.1260 -0.2179 -0.1314
  980SOD     NA14462   4.646   4.490  13.916  0.3856 -0.0320 -0.3471
  981SOD     NA14463   4.144   2.630   8.896 -0.0581 -0.1814 -0.0367
  982SOD     NA14464   3.227   2.718   2.343 -0.0394  0.1335  0.4373
  983SOD     NA14465   1.833   0.926  15.480 -0.3166  0.6979  0.3125
  984SOD     NA14466   4.079   3.025  12.139  0.5089  0.3382  0.1635
  985SOD     NA14467   1.106   1.502   2.360  0.0460  0.1703 -0.0501
  986SOD     NA14468   4.343   0.229  10.317  0.1597 -0.2824 -0.5088
  987SOD     NA14469   0.908   2.170  15.063 -0.0264  0.4254  0.0399
  988SOD     NA14470   3.991   3.960  11.947 -0.1754  0.3433 -0.1646
  989SOD     NA14471   3.715   1.736  16.971  0.5748  0.2978  0.1570
  990SOD     NA14472   0.966   3.665   5.646  0.2456  0.2516  0.1994
  991SOD     NA14473   4.655   3.468  14.795 -0.2381  0.8295 -0.2047
  992SOD     NA14474   4.375   0.420  16.374 -0.3014 -0.0787 -0.2624
  993SOD     NA14475   3.456   3.968  10.385  0.1206 -0.2416 -0.3483
  994SOD     NA14476   3.317   3.891  10.693 -0.2566  0.3018  0.0353
  995SOD     NA14477   0.793   3.866  14.633  0.0942  0.2150 -0.6113
  996SOD     NA14478   4.261   3.751   2.775  0.3464 -0.2604 -0.0178
  997SOD     NA14479   1.955   3.103  13.139  0.0222  0.4723  0.0720
  998SOD     NA14480   1.010   3.493   9.179 -0.1433 -0.0757  0.0497
  999SOD     NA14481   4.375   3.319  12.993  0.4765  0.4898 -0.3388
 1000SOD     NA14482   0.261   2.348   0.746  0.2188 -0.1804  0.4008
 1001SOD     NA14483   0.071   3.837  14.533  0.5670  0.4233 -0.3753
 1002SOD     NA14484   0.995   0.171  12.189 -0.1645 -0.2182  0.3275
 1003SOD     NA14485   4.451   4.325   9.582 -0.8006 -0.1327 -0.4280
 1004SOD     NA14486   4.171   2.456  10.995  0.2235  0.0508  0.2324
 1005SOD     NA14487   3.669   0.127  10.739 -0.2857 -0.1332  0.3429
 1006SOD     NA14488   2.371   1.835   7.798 -0.2372 -0.1977 -0.1866
 1007SOD     NA14489   0.823   4.053  14.912  0.5286 -0.0376  0.0927
 1008SOD     NA14490   3.903   0.048  15.783  0.3356  0.2892  0.1519
 1009SOD     NA14491   1.145   4.360   8.719 -0.0678  0.0885 -0.4251
 1010SOD     NA14492   3.868   2.752  12.916 -0.0602 -0.0473  0.0832
 1011SOD     NA14493   3.743   2.830   8.222  0.2079  0.0371 -0.3286
 1012SOL     OW14494   0.931   1.052   7.949 -0.1725  0.7760 -0.1670
 1012SOL    HW114495   1.023   1.073   7.966 -0.0686 -1.5364  2.2431
 1012SOL    HW214496   0.900   0.994   8.019 -0.0860  1.6054  0.5570
 1013SOL     OW14497   2.403   1.254   3.967 -0.2840 -0.5946  0.4174
 1013SOL    HW114498   2.421   1.160   3.974  0.7685 -0.4764 -0.6709
 1013SOL    HW214499   2.461   1.287   3.898 -0.9411 -0.4786 -0.0753
 1014SOL     OW14500   2.862   1.404   8.173 -0.9021  0.6979  0.1370
 1014SOL    HW114501   2.899   1.330   8.127  0.3025 -0.0330  2.2898
 1014SOL    HW214502   2.898   1.462   8.106  1.3140  0.3679  1.0423
 1015SOL     OW14503   2.445   3.763  11.153  0.1469 -0.0895  0.3932
 1015SOL    HW114504   2.470   3.856  11.155 -2.4848  0.5975  1.3953
 1015SOL    HW214505   2.466   3.745  11.061  0.1828  1.9791 -0.0086
 1016SOL     OW14506   2.793   2.711   2.685  0.2570 -0.1796 -0.2016
 1016SOL    HW114507   2.701   2.699   2.710  0.2633  0.0502 -0.0604
 1016SOL    HW214508   2.799   2.807   2.678  0.9036 -0.2675 -0.8879
 1017SOL     OW14509   0.563   1.451   7.897 -0.5435  0.0891  0.3274
 1017SOL    HW114510   0.599   1.373   7.940  1.1978  0.5559 -0.2944
 1017SOL    HW214511   0.532   1.421   7.812  0.1223  0.8182 -0.1709
 1018SOL     OW14512   1.859   0.716  12.464 -0.0787 -0.8163 -0.5376
 1018SOL    HW114513   1.843   0.808  12.488  0.3969 -0.6086 -0.9955
 1018SOL    HW214514   1.773   0.680  12.445 -0.2142 -0.8551  0.1570
 1019SOL     OW14515   2.359   0.358  13.098 -0.0673 -0.0866  0.3176
 1019SOL    HW114516   2.304   0.344  13.021  2.5534  0.6314 -1.6622
 1019SOL    HW214517   2.331   0.438  13.142 -0.1809 -0.0346  0.1527
 1020SOL     OW14518   3.529   3.370   5.537  0.3107 -0.0502 -0.3501
 1020SOL    HW114519   3.585   3.308   5.491  1.7309  0.9823 -0.0174
 1020SOL    HW214520   3.547   3.356   5.630  2.1112 -0.0409 -0.7028
 1021SOL     OW14521   2.714   3.359   2.399 -0.0506 -0.0006  0.0929
 1021SOL    HW114522   2.721   3.442   2.352  0.1519  0.0144  0.1529
 1021SOL    HW214523   2.647   3.321   2.342  0.2595 -0.4777  0.0467
 1022SOL     OW14524   3.189   1.569   8.571 -0.5794 -0.2346 -0.4885
 1022SOL    HW114525   3.164   1.504   8.504  0.5133  0.3263 -1.4348
 1022SOL    HW214526   3.166   1.649   8.524 -2.5461 -1.1947 -1.2015
 1023SOL     OW14527   0.046   4.136   0.862 -0.1174 -0.1868  0.2411
 1023SOL    HW114528   0.073   4.062   0.916  0.7657 -0.8517 -1.1151
 1023SOL    HW214529   4.712   4.094   0.797  2.4004  0.1895 -2.2173
 1024SOL     OW14530   3.028   0.922  16.609 -0.8745 -0.0491  0.0225
 1024SOL    HW114531   3.070   1.008  16.614  0.1669 -0.4286 -2.1465
 1024SOL    HW214532   2.978   0.940  16.529 -0.4757 -1.0225 -0.4594
 1025SOL     OW14533   3.719   3.294  11.972 -0.1638 -0.2921  0.1894
 1025SOL    HW114534   3.804   3.334  11.950 -0.3969  0.9228  1.4968
 1025SOL    HW214535   3.676   3.360  12.026  1.6793  0.4318  0.7892
 1026SOL     OW14536   3.592   3.086   7.647  0.3352  0.5904  0.5001
 1026SOL    HW114537   3.593   3.110   7.554 -0.6434  1.0023  0.6013
 1026SOL    HW214538   3.502   3.058   7.660  0.7837 -2.1359 -2.3483
 1027SOL     OW14539   2.349   2.842  13.139  0.2121  0.1626  0.1671
 1027SOL    HW114540   2.425   2.785  13.137 -1.1973 -1.6687 -0.7959
 1027SOL    HW214541   2.294   2.805  13.208 -1.0402 -1.3973 -1.6791
 1028SOL     OW14542   3.542   2.811   9.885 -0.0507 -0.0061  0.5274
 1028SOL    HW114543   3.482   2.759   9.938  0.8897 -0.7795  0.8326
 1028SOL    HW214544   3.608   2.826   9.953 -0.6692 -2.3242  1.6112
 1029SOL     OW14545   3.363   3.858   8.494 -0.2759  0.1774 -0.7466
 1029SOL    HW114546   3.378   3.920   8.422  0.5792  1.0844  0.2037
 1029SOL    HW214547   3.427   3.891   8.557 -1.4323  0.3364  0.3212
 1030SOL     OW14548   1.139   1.976   4.669 -0.2241  0.1083 -0.1044
 1030SOL    HW114549   1.192   2.002   4.744 -1.4711  0.2587  0.7306
 1030SOL    HW214550   1.136   2.054   4.613 -1.5079  0.9912  1.2059
 1031SOL     OW14551   3.950   2.789   4.912  0.7469 -0.1377  0.5841
 1031SOL    HW114552   3.893   2.779   4.836  0.0870  0.4699  0.9910
 1031SOL    HW214553   4.010   2.716   4.897  0.8010  0.0097  0.0951
 1032SOL     OW14554   3.644   4.481   7.933 -0.5109  0.2956 -0.2452
 1032SOL    HW114555   3.720   4.538   7.922 -1.2043  1.3659  0.5108
 1032SOL    HW214556   3.585   4.537   7.881  0.1994  1.9881  0.7641
 1033SOL     OW14557   2.010   1.795   2.661  0.3687  0.6859  0.3054
 1033SOL    HW114558   1.989   1.821   2.751 -2.7940  0.7751 -0.4387
 1033SOL    HW214559   2.073   1.725   2.678 -0.1018 -0.0266 -0.8560
 1034SOL     OW14560   1.224   4.261   2.848  0.1674  0.3585 -0.4578
 1034SOL    HW114561   1.272   4.339   2.819  1.4842 -0.4301 -0.4014
 1034SOL    HW214562   1.146   4.312   2.871 -1.0456 -1.0857 -1.4301
 1035SOL     OW14563   0.267   2.973   7.525 -0.1673  0.0459 -0.0904
 1035SOL    HW114564   0.262   2.911   7.597  1.5857  0.5049  0.4311
 1035SOL    HW214565   0.349   2.951   7.481  0.1711  0.9474  0.0931
 1036SOL     OW14566   3.890   1.215   2.649  0.3364 -0.1530  0.1826
 1036SOL    HW114567   3.978   1.189   2.620  0.3053 -0.3877  0.2964
 1036SOL    HW214568   3.902   1.245   2.739 -2.9502  0.9787  0.2503
 1037SOL     OW14569   2.808   4.069  15.346 -0.1273  0.5633  0.1654
 1037SOL    HW114570   2.840   4.096  15.432 -1.3804 -1.5070  1.2650
 1037SOL    HW214571   2.731   4.017  15.364 -1.7228  2.8639  0.0350
 1038SOL     OW14572   1.525   2.280   4.056  0.5466 -0.0762 -0.2554
 1038SOL    HW114573   1.454   2.301   4.117 -0.1538 -0.2699 -1.0149
 1038SOL    HW214574   1.582   2.220   4.105 -0.2666 -0.8497 -0.2712
 1039SOL     OW14575   1.239   2.658  15.847 -0.2154  1.1960  0.0176
 1039SOL    HW114576   1.309   2.704  15.800 -0.1727  1.6820  0.5527
 1039SOL    HW214577   1.242   2.713  15.926 -0.5812  1.3730 -0.0959
 1040SOL     OW14578   4.491   2.763   4.535  0.2104  0.2212 -0.1613
 1040SOL    HW114579   4.436   2.773   4.457 -0.6443  1.4855  0.6074
 1040SOL    HW214580   4.485   2.671   4.560  0.6768  0.2634  0.1121
 1041SOL     OW14581   0.091   2.943   5.993 -0.4321  0.3272  0.3159
 1041SOL    HW114582   0.081   2.853   6.025  2.7055  0.2500  1.0865
 1041SOL    HW214583   0.152   2.982   6.057 -1.2249  1.2849  0.4831
 1042SOL     OW14584   2.485   2.819   7.985  0.0331  0.3513  0.2507
 1042SOL    HW114585   2.447   2.881   8.048  3.5551  1.1822  1.5116
 1042SOL    HW214586   2.574   2.813   8.020  0.3431  0.3075 -0.5669
 1043SOL     OW14587   2.925   0.116  13.336  0.0792  0.3627  0.6189
 1043SOL    HW114588   2.906   0.034  13.382 -3.2494 -0.2184 -1.8106
 1043SOL    HW214589   2.970   0.159  13.408  0.0986 -0.8984  1.3633
 1044SOL     OW14590   4.455   4.351   3.516 -0.2276 -0.1612 -0.5673
 1044SOL    HW114591   4.452   4.440   3.481  1.5481 -0.3997 -1.3297
 1044SOL    HW214592   4.544   4.345   3.551 -0.5331  1.3818  0.4693
 1045SOL     OW14593   2.675   1.019   3.738  0.0037  0.6213 -0.2227
 1045SOL    HW114594   2.674   0.997   3.644  0.4247 -1.2261  0.2102
 1045SOL    HW214595   2.612   0.956   3.773  1.3759 -1.5077 -1.6196
 1046SOL     OW14596   4.091   0.091   8.934 -0.5078 -0.8570  0.3726
 1046SOL    HW114597   4.027   0.063   8.998  0.1678 -0.9606  1.0023
 1046SOL    HW214598   4.094   0.187   8.931  0.8743 -1.0231 -3.6180
 1047SOL     OW14599   2.023   1.780   8.684  0.0560 -0.1777 -0.1594
 1047SOL    HW114600   2.116   1.770   8.704 -0.0343 -0.4837  0.0982
 1047SOL    HW214601   2.023   1.797   8.589 -1.0381 -0.6750 -0.2466
 1048SOL     OW14602   1.935   3.374   9.159 -0.7780  0.1051  0.4173
 1048SOL    HW114603   1.991   3.321   9.215 -1.2079  0.2028  0.9324
 1048SOL    HW214604   1.858   3.319   9.151 -0.0116 -0.8721 -0.2071
 1049SOL     OW14605   3.569   0.203  14.442 -0.1173  0.0203  0.2568
 1049SOL    HW114606   3.497   0.266  14.435 -0.3009 -0.0978  1.1357
 1049SOL    HW214607   3.514   0.126  14.460  1.5290 -1.2546 -0.1162
 1050SOL     OW14608   1.453   0.415   5.016 -0.0129  0.8680 -0.2198
 1050SOL    HW114609   1.541   0.378   5.011 -1.1973 -1.9964  0.3411
 1050SOL    HW214610   1.473   0.505   4.990  2.5714  0.3871  0.0917
 1051SOL     OW14611   1.694   1.859   0.038  0.1533 -0.0394  0.0016
 1051SOL    HW114612   1.656   1.922   0.099 -1.9761  1.9349 -3.3915
 1051SOL    HW214613   1.698   1.786   0.100  2.1405 -0.5480 -0.7037
 1052SOL     OW14614   0.142   4.576  14.011  0.9544  0.1580  1.0463
 1052SOL    HW114615   0.237   4.567  14.005  0.6972 -1.3052 -0.8183
 1052SOL    HW214616   0.123   4.543  14.099 -0.9871  1.7858  1.2204
 1053SOL     OW14617   4.143   4.401  14.181 -0.6469 -0.2156  0.5029
 1053SOL    HW114618   4.103   4.370  14.100  0.6685  1.8217 -0.9361
 1053SOL    HW214619   4.077   4.464  14.210  0.0039  1.1095 -0.9255
 1054SOL     OW14620   1.905   0.430   8.445  0.3186  0.2580 -0.1841
 1054SOL    HW114621   1.958   0.408   8.368  0.3308  2.0204 -0.6695
 1054SOL    HW214622   1.869   0.347   8.475  0.7346  0.3396  0.5427
 1055SOL     OW14623   4.545   2.489   5.554  0.0606 -0.1970 -0.6300
 1055SOL    HW114624   4.628   2.458   5.591  0.2346  0.3496 -0.5572
 1055SOL    HW214625   4.500   2.527   5.629 -1.5940 -1.1313 -1.1607
 1056SOL     OW14626   4.350   0.817  11.506  0.1232 -0.0487 -0.3265
 1056SOL    HW114627   4.400   0.889  11.468  0.7407 -1.4193 -2.1150
 1056SOL    HW214628   4.338   0.756  11.433  1.1325 -0.5932 -0.0389
 1057SOL     OW14629   2.448   0.386   2.437  0.0424 -0.3044  0.2754
 1057SOL    HW114630   2.358   0.407   2.412  0.0581  0.2597  0.6862
 1057SOL    HW214631   2.480   0.471   2.407 -1.5595  0.4717  0.7960
 1058SOL     OW14632   0.480   4.692  16.491  0.5299 -0.7405 -0.7216
 1058SOL    HW114633   0.433   0.046  16.460  0.8245 -0.5291 -0.6364
 1058SOL    HW214634   0.431   4.669  16.571 -0.6602  0.6165 -1.0537
 1059SOL     OW14635   3.106   3.523   4.798 -0.0290  0.0108 -0.2138
 1059SOL    HW114636   3.088   3.434   4.769 -0.8051  0.0830  0.0460
 1059SOL    HW214637   3.188   3.544   4.752 -0.1442 -0.0690 -0.4565
 1060SOL     OW14638   1.783   2.272   7.070  0.2154  0.0056 -0.0749
 1060SOL    HW114639   1.868   2.279   7.027 -0.3384  0.4719 -1.0882
 1060SOL    HW214640   1.796   2.285   7.164 -1.6131  1.5028 -0.0376
 1061SOL     OW14641   1.108   1.138   4.608  0.2979  0.1330 -0.4898
 1061SOL    HW114642   1.163   1.076   4.655 -0.3340 -1.6534 -2.0873
 1061SOL    HW214643   1.051   1.074   4.566 -0.3239  0.1014  0.4229
 1062SOL     OW14644   4.046   0.747   5.195 -0.1070 -0.1720  0.7140
 1062SOL    HW114645   4.071   0.655   5.199  0.9885  0.1917  2.5131
 1062SOL    HW214646   3.955   0.742   5.168  0.0016 -0.3301  0.3827
 1063SOL     OW14647   2.667   1.113  16.172 -0.2648 -0.3599  0.7924
 1063SOL    HW114648   2.574   1.122  16.151 -0.3349 -1.6178  0.5307
 1063SOL    HW214649   2.670   1.019  16.151 -1.3700 -0.0207 -0.8883
 1064SOL     OW14650   0.164   2.115   0.647 -0.2681 -0.4084 -0.5939
 1064SOL    HW114651   0.114   2.060   0.707  1.2431  0.2386  1.2361
 1064SOL    HW214652   0.239   2.061   0.624  1.4393  1.8128 -0.2629
 1065SOL     OW14653   3.864   1.174   5.678 -0.7205  0.3046  0.3388
 1065SOL    HW114654   3.789   1.146   5.730  1.1023 -0.7925  2.3727
 1065SOL    HW214655   3.826   1.242   5.622  1.3452  1.2918  0.1417
 1066SOL     OW14656   0.018   0.895   1.631 -0.8324  0.2025  0.1711
 1066SOL    HW114657   0.090   0.894   1.567 -0.2092 -0.3607  0.8947
 1066SOL    HW214658   0.055   0.834   1.695 -0.7938  1.0371  0.9345
 1067SOL     OW14659   0.360   2.879   3.981  0.1467  0.1356 -0.3202
 1067SOL    HW114660   0.362   2.834   3.897  3.4660  0.6921 -0.5674
 1067SOL    HW214661   0.345   2.969   3.953  1.6336  0.5088  0.0784
 1068SOL     OW14662   3.033   4.158  15.189  0.5541  0.4455  0.5168
 1068SOL    HW114663   2.979   4.108  15.250 -1.9409  2.5698  0.0537
 1068SOL    HW214664   3.117   4.145  15.232  1.0373 -0.3306 -0.6416
 1069SOL     OW14665   0.856   4.402  13.352  0.0566  0.2836 -0.1983
 1069SOL    HW114666   0.793   4.445  13.295 -1.3900  0.1003  1.2719
 1069SOL    HW214667   0.925   4.398  13.285  0.4041  1.9219  0.0607
 1070SOL     OW14668   3.361   0.859  15.080 -0.1018 -0.0437  0.4681
 1070SOL    HW114669   3.446   0.880  15.043 -0.6790 -0.0658 -0.8627
 1070SOL    HW214670   3.381   0.791  15.144  0.5513 -0.8933 -0.6335
 1071SOL     OW14671   4.042   2.332   0.587 -0.0288 -0.0997 -0.4858
 1071SOL    HW114672   4.084   2.411   0.620  2.3119 -1.4174 -0.2913
 1071SOL    HW214673   4.095   2.260   0.622 -0.8608 -0.7777 -0.6030
 1072SOL     OW14674   3.169   1.139   6.859  0.3598  0.6023 -0.2191
 1072SOL    HW114675   3.087   1.112   6.901  0.8274  0.1311  0.4012
 1072SOL    HW214676   3.211   1.053   6.858  1.5801  1.1835  0.4491
 1073SOL     OW14677   3.589   4.303  17.548 -0.1893  0.8605  0.2242
 1073SOL    HW114678   3.499   4.322  17.524  0.9429  4.4866 -1.0884
 1073SOL    HW214679   3.587   4.233  17.614  1.0515 -1.5093 -2.2582
 1074SOL     OW14680   3.261   4.192   3.713 -0.1447  0.0802 -0.9023
 1074SOL    HW114681   3.235   4.249   3.640  0.4200  0.4140 -0.8391
 1074SOL    HW214682   3.314   4.126   3.668 -0.3596 -1.3013  0.9215
 1075SOL     OW14683   2.711   4.534   0.781 -0.6454  0.0426  0.1853
 1075SOL    HW114684   2.780   4.481   0.821 -0.0887  0.8984  0.3502
 1075SOL    HW214685   2.643   4.503   0.842 -3.8305  1.3472 -2.7309
 1076SOL     OW14686   0.156   0.526   3.491 -0.1759 -0.5278  0.2182
 1076SOL    HW114687   0.126   0.440   3.519 -1.1648  0.1333  1.1911
 1076SOL    HW214688   0.077   0.556   3.448  1.3008  1.4921 -1.0771
 1077SOL     OW14689   4.452   2.787   5.186  0.2866  0.8322  0.2866
 1077SOL    HW114690   4.455   2.769   5.092 -1.1912  1.1888  0.1821
 1077SOL    HW214691   4.358   2.774   5.199  0.4547 -1.5061 -0.7507
 1078SOL     OW14692   4.624   3.521   6.873 -0.2923 -0.0070  0.3303
 1078SOL    HW114693   4.546   3.469   6.852 -1.4845  2.4592 -1.3021
 1078SOL    HW214694   4.678   3.522   6.794  1.6091 -0.4160  1.6205
 1079SOL     OW14695   1.855   0.915   1.793  0.3623  0.1308  0.1556
 1079SOL    HW114696   1.807   0.935   1.874 -1.4410  0.6053 -1.0333
 1079SOL    HW214697   1.940   0.898   1.833  0.7573 -0.8741 -1.1287
 1080SOL     OW14698   2.980   2.109   8.581 -0.4554 -0.6499  0.0777
 1080SOL    HW114699   2.944   2.104   8.670 -0.8827 -3.4111 -0.2345
 1080SOL    HW214700   3.074   2.116   8.598 -0.0615  1.3114 -2.9401
 1081SOL     OW14701   2.517   4.221   6.784 -0.0734 -0.1186 -0.2901
 1081SOL    HW114702   2.575   4.270   6.725 -1.6639  1.5955 -0.4278
 1081SOL    HW214703   2.567   4.142   6.805  0.4159  0.5301  1.0238
 1082SOL     OW14704   0.021   2.815   4.810 -0.0701  0.2808 -0.0577
 1082SOL    HW114705   0.040   2.752   4.880  1.3732  0.0135 -0.6843
 1082SOL    HW214706   0.054   2.762   4.737  0.5100 -1.0183  1.1364
 1083SOL     OW14707   0.475   0.324   8.119 -0.0842 -0.7013  0.2296
 1083SOL    HW114708   0.404   0.263   8.141  0.0648  0.1405  3.0108
 1083SOL    HW214709   0.534   0.305   8.192 -1.1031  0.9909  1.4918
 1084SOL     OW14710   0.110   3.496   4.084 -0.0536  0.4000  0.2359
 1084SOL    HW114711   0.050   3.424   4.099  2.4468 -1.7008  0.1939
 1084SOL    HW214712   0.188   3.448   4.055 -0.8632 -0.4686 -0.4681
 1085SOL     OW14713   1.523   0.112   1.667 -0.1356 -0.7106 -0.0846
 1085SOL    HW114714   1.569   0.166   1.603  0.7168  1.7889  2.6625
 1085SOL    HW214715   1.591   0.058   1.707  1.8295  0.3798 -1.9254
 1086SOL     OW14716   4.488   2.384   6.805  0.0917 -0.8368 -0.4310
 1086SOL    HW114717   4.455   2.316   6.745 -1.1780 -1.3617  0.8738
 1086SOL    HW214718   4.551   2.336   6.859 -0.4259  1.3226  2.0553
 1087SOL     OW14719   0.594   4.217   9.922  0.2669  0.8363 -0.2099
 1087SOL    HW114720   0.620   4.167   9.999 -0.8600 -1.2270 -1.1762
 1087SOL    HW214721   0.508   4.178   9.910 -0.0172  1.0677  1.1577
 1088SOL     OW14722   3.731   0.400   3.314  0.2944 -0.6090  0.2837
 1088SOL    HW114723   3.693   0.312   3.321  0.8552 -1.0588 -2.3208
 1088SOL    HW214724   3.824   0.379   3.320  0.3467 -0.2914  0.5920
 1089SOL     OW14725   2.968   3.265   5.311 -0.1939 -0.0102 -0.3040
 1089SOL    HW114726   2.980   3.293   5.402 -1.5922  0.8072 -0.3773
 1089SOL    HW214727   2.970   3.343   5.256 -1.2259  0.4250  0.2823
 1090SOL     OW14728   1.831   1.354   9.883  0.4665 -0.0184 -0.5930
 1090SOL    HW114729   1.897   1.329   9.819  0.4973  0.6868 -0.8397
 1090SOL    HW214730   1.790   1.425   9.833 -1.1419  0.6759  1.7055
 1091SOL     OW14731   0.631   2.668   8.912 -0.5214  0.5033 -0.0023
 1091SOL    HW114732   0.605   2.642   8.823  0.0876 -0.7012  0.1653
 1091SOL    HW214733   0.655   2.760   8.906 -1.7051  0.9409  1.8784
 1092SOL     OW14734   3.889   4.702   8.759 -0.6635 -0.2120 -0.1259
 1092SOL    HW114735   3.963   0.026   8.796  1.0135 -1.7794 -1.4455
 1092SOL    HW214736   3.873   4.633   8.824 -0.5498  1.0912  1.2839
 1093SOL     OW14737   1.454   2.855   5.203 -0.1818  0.5139 -0.3911
 1093SOL    HW114738   1.408   2.844   5.287  0.2711 -0.3090 -0.2543
 1093SOL    HW214739   1.516   2.782   5.202 -1.9726 -1.0409  1.7111
 1094SOL     OW14740   1.674   2.792  16.800 -0.3384 -0.5987 -0.1750
 1094SOL    HW114741   1.653   2.704  16.829  1.4859 -0.9640 -0.0211
 1094SOL    HW214742   1.600   2.843  16.833 -0.8699 -0.1030 -2.1043
 1095SOL     OW14743   0.121   4.583   6.837  0.8173 -0.3113  0.2889
 1095SOL    HW114744   0.214   4.560   6.841  1.1989  0.6911 -2.2977
 1095SOL    HW214745   0.134   4.678   6.839  0.4408 -0.1975 -2.0198
 1096SOL     OW14746   3.823   3.534   8.243 -0.0405  0.1913 -0.2789
 1096SOL    HW114747   3.872   3.604   8.202 -0.3636 -0.4519 -1.7711
 1096SOL    HW214748   3.884   3.496   8.307 -0.1975  1.3181  0.5413
 1097SOL     OW14749   1.462   4.472   3.611 -0.3468  0.4476 -0.0190
 1097SOL    HW114750   1.455   4.379   3.633 -1.0778  1.2501  3.1547
 1097SOL    HW214751   1.531   4.479   3.545  0.4470  0.4711  0.8171
 1098SOL     OW14752   0.139   3.014   5.553  0.0620 -0.2180 -0.3491
 1098SOL    HW114753   0.079   2.944   5.524 -0.8911 -0.0617  1.2035
 1098SOL    HW214754   0.167   2.970   5.634 -0.6917 -0.5694 -0.2707
 1099SOL     OW14755   2.571   0.829   8.291  0.1040 -0.2239  0.3868
 1099SOL    HW114756   2.637   0.884   8.334 -2.0365  0.1801  3.1834
 1099SOL    HW214757   2.601   0.744   8.323 -0.0117  0.0431  1.2159
 1100SOL     OW14758   4.295   1.088   4.197 -0.3585  0.4636  0.1493
 1100SOL    HW114759   4.320   1.150   4.129 -1.3841  1.9583  1.1192
 1100SOL    HW214760   4.201   1.080   4.180 -0.5554 -2.4819  2.6323
 1101SOL     OW14761   0.919   0.206   1.269 -0.6447  0.4185  0.3887
 1101SOL    HW114762   0.964   0.261   1.334  0.4443  0.0446 -0.0486
 1101SOL    HW214763   0.884   0.135   1.323 -0.5019  1.0177  1.2863
 1102SOL     OW14764   0.947   2.404  15.095  0.6481 -0.3876  0.1597
 1102SOL    HW114765   0.981   2.476  15.041  0.1880 -0.5213 -0.3065
 1102SOL    HW214766   0.879   2.443  15.151  0.1890 -0.8994 -0.0421
 1103SOL     OW14767   0.766   1.326   7.439 -0.2969 -0.3951  0.8407
 1103SOL    HW114768   0.757   1.241   7.395 -0.8967  2.0537 -3.7131
 1103SOL    HW214769   0.824   1.298   7.511 -0.3831 -0.3421  0.9306
 1104SOL     OW14770   2.147   4.378   4.050 -0.0199 -0.1564  0.1437
 1104SOL    HW114771   2.084   4.331   4.104  0.1998 -0.4800  0.1178
 1104SOL    HW214772   2.196   4.422   4.119 -0.7862 -0.8996  1.1513
 1105SOL     OW14773   0.592   2.611   8.655  0.2695 -0.0995  0.8628
 1105SOL    HW114774   0.665   2.560   8.620  0.3511 -0.1470  1.1052
 1105SOL    HW214775   0.539   2.610   8.575  1.4561  0.6988  0.0743
 1106SOL     OW14776   3.369   0.627   4.551 -0.0227  0.1933 -0.3157
 1106SOL    HW114777   3.329   0.673   4.477  0.4645  1.6174  0.3075
 1106SOL    HW214778   3.296   0.645   4.610  0.1259 -0.4121  0.0484
 1107SOL     OW14779   1.662   2.098   7.515  0.2566  0.2063 -0.3897
 1107SOL    HW114780   1.610   2.176   7.535 -1.2954 -0.9548  0.1432
 1107SOL    HW214781   1.728   2.096   7.585  0.9160  1.2967 -0.9712
 1108SOL     OW14782   3.931   1.499   2.027  0.3561  0.1845  0.9126
 1108SOL    HW114783   3.885   1.574   1.990  0.1012 -0.2858  0.2665
 1108SOL    HW214784   3.904   1.505   2.118  0.4818  0.7473  0.9092
 1109SOL     OW14785   2.399   3.539   3.818 -0.6154  0.0836  0.4880
 1109SOL    HW114786   2.420   3.446   3.810 -0.0950  0.0542  2.0365
 1109SOL    HW214787   2.327   3.546   3.756  0.7171  2.1432 -0.8542
 1110SOL     OW14788   0.481   0.649   4.520  0.6740 -0.0634  0.3273
 1110SOL    HW114789   0.533   0.640   4.440 -0.6867 -0.7294 -0.4746
 1110SOL    HW214790   0.437   0.564   4.527  1.1164 -0.2754  0.5203
 1111SOL     OW14791   3.782   4.100  16.577  0.2408 -0.4270 -0.3369
 1111SOL    HW114792   3.740   4.118  16.661 -0.9878  1.1013 -1.2610
 1111SOL    HW214793   3.874   4.113  16.599  0.0086  0.4339  0.1141
 1112SOL     OW14794   2.852   3.775  12.746 -0.6316  0.1299  0.1923
 1112SOL    HW114795   2.781   3.712  12.733 -0.8181  0.1646  1.0594
 1112SOL    HW214796   2.909   3.759  12.670  1.1604 -0.1430  1.5842
 1113SOL     OW14797   0.294   1.463   3.118 -0.2862  0.7203 -0.0653
 1113SOL    HW114798   0.290   1.461   3.022  0.8918 -0.0739 -0.0860
 1113SOL    HW214799   0.378   1.421   3.134  1.2350  3.8774  0.2471
 1114SOL     OW14800   1.103   0.519  13.926 -0.3940 -0.2846  0.0246
 1114SOL    HW114801   1.042   0.563  13.867  0.0549  2.1489  1.3400
 1114SOL    HW214802   1.050   0.447  13.961 -2.0952  0.9017 -0.1154
 1115SOL     OW14803   2.493   3.744   5.054  0.2776 -0.0323 -0.0934
 1115SOL    HW114804   2.423   3.681   5.035  0.6588  0.4562 -3.1484
 1115SOL    HW214805   2.567   3.696   5.015  0.5615  1.5803 -1.5279
 1116SOL     OW14806   2.047   0.533   6.264 -0.7665 -0.2182 -0.0803
 1116SOL    HW114807   2.105   0.578   6.203 -2.0332  1.2886 -0.1485
 1116SOL    HW214808   2.096   0.452   6.284  0.0572  0.8919  2.3381
 1117SOL     OW14809   1.287   2.152   0.216 -0.1331  0.2749  0.1779
 1117SOL    HW114810   1.192   2.160   0.219 -0.3876 -2.3979 -0.7401
 1117SOL    HW214811   1.310   2.225   0.274  0.8460 -1.3894  1.8762
 1118SOL     OW14812   0.203   3.518   7.590  0.0755 -0.3503  0.5608
 1118SOL    HW114813   0.292   3.501   7.623 -0.6473 -2.1329  1.5967
 1118SOL    HW214814   0.200   3.438   7.538 -2.4085  0.4526 -0.4983
 1119SOL     OW14815   4.676   1.605   7.404 -0.1771 -0.1669  0.0943
 1119SOL    HW114816   4.598   1.653   7.376  1.5628  0.3501 -3.7993
 1119SOL    HW214817   0.012   1.631   7.334  0.4775  0.9196  1.0653
 1120SOL     OW14818   3.251   4.302   6.437  0.6003 -0.2869 -0.3512
 1120SOL    HW114819   3.250   4.308   6.341 -1.1938 -0.6517 -0.3575
 1120SOL    HW214820   3.332   4.350   6.453  2.0366 -3.3472  1.3808
 1121SOL     OW14821   3.375   3.424   8.266 -0.1237  0.0704  0.4035
 1121SOL    HW114822   3.377   3.487   8.337 -0.3566 -0.7226  1.1048
 1121SOL    HW214823   3.450   3.454   8.214 -0.8452  1.0707 -0.0561
 1122SOL     OW14824   0.524   4.115   7.625  0.2755 -0.3093  0.5388
 1122SOL    HW114825   0.596   4.083   7.571 -0.1284  0.3739 -0.4035
 1122SOL    HW214826   0.453   4.073   7.576  0.3997  1.6227 -1.3148
 1123SOL     OW14827   3.632   3.407   5.217  0.2718  0.0934  0.0950
 1123SOL    HW114828   3.651   3.469   5.287  0.6585 -0.3385  0.3706
 1123SOL    HW214829   3.543   3.382   5.239  0.7095 -1.2263  0.3591
 1124SOL     OW14830   4.635   4.415   8.417 -0.0057  0.2035  0.6417
 1124SOL    HW114831   4.721   4.451   8.400  0.5623 -1.9488 -1.0240
 1124SOL    HW214832   4.654   4.327   8.450 -0.7803  0.0988  0.8279
 1125SOL     OW14833   1.483   3.154   2.482  0.3034  0.0738  0.7496
 1125SOL    HW114834   1.494   3.079   2.425  0.3367  2.9392 -3.0568
 1125SOL    HW214835   1.426   3.117   2.549 -0.0887  0.0954  0.4245
 1126SOL     OW14836   3.713   2.386   8.837  0.4414 -0.2050 -0.2008
 1126SOL    HW114837   3.699   2.334   8.916 -1.7300  1.0644  0.2444
 1126SOL    HW214838   3.715   2.315   8.774 -0.0588  1.1886 -1.7760
 1127SOL     OW14839   3.025   0.015   8.047  0.4837 -0.0695 -0.3060
 1127SOL    HW114840   3.052   0.026   8.138 -1.7115 -2.8969  0.6919
 1127SOL    HW214841   3.107   0.049   8.012  0.7705 -1.2331 -0.7395
 1128SOL     OW14842   2.801   1.958   6.015 -0.3073  0.4982 -0.2267
 1128SOL    HW114843   2.800   2.011   6.095 -2.8246  1.0152 -0.5941
 1128SOL    HW214844   2.761   1.879   6.052 -1.0100  1.0190  0.1225
 1129SOL     OW14845   1.345   1.588   9.594 -0.0469  0.3089  0.3548
 1129SOL    HW114846   1.327   1.520   9.660  0.7281 -0.9371 -0.7241
 1129SOL    HW214847   1.328   1.668   9.643 -0.4146  1.1994 -1.2446
 1130SOL     OW14848   0.435   3.932   7.423  0.1827  0.3837 -0.7480
 1130SOL    HW114849   0.488   3.986   7.364  0.8793  0.4094 -0.1040
 1130SOL    HW214850   0.459   3.840   7.409 -1.6264 -0.3675  1.1847
 1131SOL     OW14851   1.999   3.186  16.104 -0.4179  0.0010 -0.1168
 1131SOL    HW114852   1.912   3.166  16.136 -1.2774  1.6788 -1.3435
 1131SOL    HW214853   1.976   3.187  16.011  1.9324  0.0472 -0.7195
 1132SOL     OW14854   3.810   3.055   4.488  0.6657  0.0608  0.3768
 1132SOL    HW114855   3.758   2.977   4.508 -0.2711  0.4581 -0.5160
 1132SOL    HW214856   3.747   3.124   4.513 -0.0513 -0.7523  0.8228
 1133SOL     OW14857   0.677   3.455   4.931 -0.4942  0.2369  0.0946
 1133SOL    HW114858   0.657   3.407   4.850  2.4211 -0.0993 -0.4209
 1133SOL    HW214859   0.771   3.472   4.927 -1.0148  2.2299 -3.9517
 1134SOL     OW14860   0.297   1.912  10.967 -0.2609 -0.6350 -0.1098
 1134SOL    HW114861   0.281   2.004  10.946  0.3214 -0.1293  1.6333
 1134SOL    HW214862   0.368   1.920  11.031  1.2442  0.9680 -1.9637
 1135SOL     OW14863   3.254   1.359   4.455 -0.3105  0.0241 -0.1892
 1135SOL    HW114864   3.271   1.437   4.509  1.4847 -0.0627 -0.6103
 1135SOL    HW214865   3.198   1.314   4.518 -1.1063 -0.2731 -1.1173
 1136SOL     OW14866   0.577   2.854  16.119 -0.2784  0.7317 -0.7903
 1136SOL    HW114867   0.531   2.877  16.200 -0.0211 -0.6392 -0.2569
 1136SOL    HW214868   0.498   2.857  16.066 -0.7910 -0.2018 -0.0642
 1137SOL     OW14869   0.068   2.136   5.950  0.7050  0.6321  0.0118
 1137SOL    HW114870   0.110   2.176   5.874  0.0957  0.1695 -0.5679
 1137SOL    HW214871   0.011   2.207   5.980 -0.3442 -0.9033  1.6336
 1138SOL     OW14872   3.410   1.649   4.864 -0.1430  0.4956  0.0414
 1138SOL    HW114873   3.450   1.736   4.860  0.8338 -0.0252 -1.6286
 1138SOL    HW214874   3.429   1.622   4.954 -1.0342 -1.2391 -0.2981
 1139SOL     OW14875   0.578   0.792  14.863 -0.1215 -0.0484 -0.3298
 1139SOL    HW114876   0.624   0.875  14.873  1.5977 -1.0433 -0.0706
 1139SOL    HW214877   0.617   0.739  14.932 -0.2590 -0.6468 -0.7055
 1140SOL     OW14878   3.338   3.650   9.803  0.2049  0.3794 -1.0108
 1140SOL    HW114879   3.327   3.741   9.775 -0.4295 -0.1974 -2.6367
 1140SOL    HW214880   3.382   3.660   9.887 -0.0365  0.3493 -0.8788
 1141SOL     OW14881   3.268   0.201   6.618  0.5303  0.2838  0.0214
 1141SOL    HW114882   3.340   0.201   6.554  1.8907  1.5572  1.5589
 1141SOL    HW214883   3.304   0.190   6.706  0.2641  1.4864  0.2849
 1142SOL     OW14884   2.540   0.227   8.123 -0.4938  0.6343  0.4282
 1142SOL    HW114885   2.479   0.191   8.058 -0.7115  1.7592  0.0202
 1142SOL    HW214886   2.626   0.196   8.093 -1.3180 -0.9599 -0.3223
 1143SOL     OW14887   3.849   0.091   5.294 -0.0349 -0.0831 -0.0263
 1143SOL    HW114888   3.873   0.057   5.380 -1.9546 -2.2835 -0.3799
 1143SOL    HW214889   3.916   0.047   5.242 -0.1917 -0.8891  0.4560
 1144SOL     OW14890   2.174   1.170   7.352 -0.0204  0.1164  0.4621
 1144SOL    HW114891   2.169   1.256   7.394 -0.9567  0.0338  0.5178
 1144SOL    HW214892   2.139   1.199   7.268 -1.3521  1.8620  1.6127
 1145SOL     OW14893   2.322   2.680  12.255  0.1095 -0.0810 -0.3325
 1145SOL    HW114894   2.250   2.742  12.248  0.6878  0.4606 -1.3856
 1145SOL    HW214895   2.372   2.725  12.187 -0.1489 -1.7550 -1.6442
 1146SOL     OW14896   0.063   0.702  12.820 -0.1075  0.3266 -0.4403
 1146SOL    HW114897   0.079   0.612  12.792 -0.2329  0.4001 -0.7459
 1146SOL    HW214898   4.715   0.689  12.883  1.7371 -2.6855  1.0212
 1147SOL     OW14899   4.342   0.594  14.817  0.0787 -0.0085  0.2350
 1147SOL    HW114900   4.323   0.651  14.892  1.1872 -0.0694  0.5627
 1147SOL    HW214901   4.351   0.663  14.752  2.8483  1.9214  2.6274
 1148SOL     OW14902   0.231   1.443   6.166  0.8188  0.1641  0.2909
 1148SOL    HW114903   0.231   1.509   6.097 -2.2903 -0.3344 -0.2302
 1148SOL    HW214904   0.186   1.487   6.238 -2.7541  0.0089 -1.7941
 1149SOL     OW14905   4.682   3.387  16.726  0.2859  0.0317  0.2418
 1149SOL    HW114906   4.644   3.471  16.752 -3.2147 -1.8401  1.1492
 1149SOL    HW214907   4.620   3.329  16.770  1.4783  0.4627  2.4739
 1150SOL     OW14908   4.214   0.778   5.530  0.2380 -0.2165 -0.3536
 1150SOL    HW114909   4.302   0.742   5.516  0.9106  0.9831  0.7774
 1150SOL    HW214910   4.200   0.757   5.622  4.0566  1.9612  0.7289
 1151SOL     OW14911   1.774   1.781   5.929 -0.5426 -0.6202  0.5621
 1151SOL    HW114912   1.771   1.745   5.841  0.3267 -0.5730  0.5085
 1151SOL    HW214913   1.682   1.783   5.952 -0.8448 -1.1341 -0.6207
 1152SOL     OW14914   4.075   2.155  10.509 -0.1056 -0.1540 -0.3844
 1152SOL    HW114915   4.004   2.104  10.469 -0.8523  1.5135 -1.1788
 1152SOL    HW214916   4.048   2.142  10.600  1.5202  0.0945  0.1298
 1153SOL     OW14917   0.301   3.686   6.643  0.3711  0.1859 -0.0499
 1153SOL    HW114918   0.290   3.599   6.680 -0.4742  0.1974 -0.2692
 1153SOL    HW214919   0.283   3.729   6.726  0.5327  0.1515  0.0027
 1154SOL     OW14920   2.733   3.387   6.341  0.4054  0.3502 -0.0887
 1154SOL    HW114921   2.734   3.482   6.354  0.9577  0.2842  0.3464
 1154SOL    HW214922   2.646   3.360   6.371  1.5059 -1.3081  1.6033
 1155SOL     OW14923   2.889   3.736   4.241 -0.2214 -0.2978  0.2260
 1155SOL    HW114924   2.794   3.733   4.234 -0.2226 -1.9624  0.9973
 1155SOL    HW214925   2.908   3.811   4.297 -2.4135  0.4511 -0.0210
 1156SOL     OW14926   0.867   4.378   8.096  0.0808 -0.5093  0.2484
 1156SOL    HW114927   0.830   4.460   8.062  0.5033 -1.1586 -1.7923
 1156SOL    HW214928   0.955   4.372   8.060 -0.0816  0.9812 -0.4222
 1157SOL     OW14929   3.465   2.130  11.135  0.0666  0.2953 -0.1496
 1157SOL    HW114930   3.555   2.103  11.118 -0.6033 -2.1583  0.1689
 1157SOL    HW214931   3.475   2.221  11.164 -2.1079  0.5488 -0.2208
 1158SOL     OW14932   1.554   2.156   5.422 -0.2438 -0.1755 -0.1199
 1158SOL    HW114933   1.649   2.148   5.435 -0.1772  2.7916  1.4167
 1158SOL    HW214934   1.534   2.194   5.508  2.8603  0.6921  0.2390
 1159SOL     OW14935   2.421   1.558  10.009 -0.3642  0.6077 -0.9279
 1159SOL    HW114936   2.501   1.573  10.060  0.2019 -2.1442 -1.0143
 1159SOL    HW214937   2.354   1.613  10.049  1.0259  1.4326  0.2494
 1160SOL     OW14938   2.497   0.771   3.871 -0.8467 -0.4134  0.4205
 1160SOL    HW114939   2.555   0.695   3.864  1.0689  1.0467  0.7046
 1160SOL    HW214940   2.417   0.743   3.827  0.2095 -0.4301 -1.4601
 1161SOL     OW14941   0.746   2.183   8.325  0.0182 -0.0093  1.1140
 1161SOL    HW114942   0.704   2.230   8.252  1.1483  1.3865  1.3853
 1161SOL    HW214943   0.759   2.245   8.396 -0.4593  0.7602  0.5263
 1162SOL     OW14944   2.199   2.803   2.869 -0.2469  0.4036 -0.1915
 1162SOL    HW114945   2.295   2.804   2.866 -0.2779  2.2286 -0.6020
 1162SOL    HW214946   2.186   2.760   2.953 -1.1105 -0.5820 -0.8291
 1163SOL     OW14947   0.049   1.810  11.004 -0.2076  0.4013  0.1998
 1163SOL    HW114948   0.004   1.882  11.049  0.0220  0.0137  1.0500
 1163SOL    HW214949   0.137   1.841  10.987  0.0795 -0.8522 -0.6366
 1164SOL     OW14950   0.013   0.590   2.712 -0.2276  0.4369 -0.0847
 1164SOL    HW114951   0.049   0.502   2.718  2.2849  1.3899 -1.1326
 1164SOL    HW214952   0.084   0.633   2.664  0.0900  1.4198  1.2687
 1165SOL     OW14953   0.891   0.627   0.909  0.0327 -0.3172  0.4921
 1165SOL    HW114954   0.878   0.579   0.827 -0.1714 -0.0167  0.3497
 1165SOL    HW214955   0.856   0.714   0.891  1.4039  0.2945  0.8053
 1166SOL     OW14956   1.535   2.336   6.966  0.2581 -0.3106 -0.2404
 1166SOL    HW114957   1.498   2.404   7.022 -0.4453  1.4507 -2.8681
 1166SOL    HW214958   1.607   2.310   7.024 -0.7498  1.2414  1.7203
 1167SOL     OW14959   3.264   1.682  10.450  0.1435 -0.4826  0.1914
 1167SOL    HW114960   3.269   1.770  10.487  0.6234 -0.9162  1.1594
 1167SOL    HW214961   3.347   1.661  10.408  0.7951 -0.3207  1.3884
 1168SOL     OW14962   1.537   4.585   5.419 -0.2140  0.2613  0.3889
 1168SOL    HW114963   1.620   4.578   5.466 -0.1420 -1.5493 -0.0188
 1168SOL    HW214964   1.497   4.666   5.451 -1.5198 -0.7302  1.2577
 1169SOL     OW14965   1.170   0.345   4.341 -0.3786  0.1246 -0.3147
 1169SOL    HW114966   1.156   0.388   4.256  2.6129  2.2091  0.2117
 1169SOL    HW214967   1.178   0.254   4.312 -0.6111 -0.4980  1.6145
 1170SOL     OW14968   1.294   3.646  15.621 -0.2382  0.3785 -0.0327
 1170SOL    HW114969   1.373   3.619  15.573  0.6792  1.2285  1.0041
 1170SOL    HW214970   1.245   3.672  15.542 -2.1039  1.4176  1.4792
 1171SOL     OW14971   3.886   2.512   5.653  0.0940  0.2456  0.1683
 1171SOL    HW114972   3.952   2.457   5.612 -0.9701  0.9561 -2.4645
 1171SOL    HW214973   3.913   2.515   5.745  0.6838  0.1729 -0.0072
 1172SOL     OW14974   4.549   3.293  15.101 -0.0163 -0.2684 -0.0928
 1172SOL    HW114975   4.520   3.371  15.054  0.9777  2.4839  3.9682
 1172SOL    HW214976   4.642   3.298  15.078 -0.5951 -0.5050 -2.5523
 1173SOL     OW14977   4.061   1.245   2.257 -0.8066  0.7569 -0.1185
 1173SOL    HW114978   4.062   1.329   2.302 -0.0553  0.5284  0.3044
 1173SOL    HW214979   4.089   1.267   2.168  0.6686 -1.8790 -0.3003
 1174SOL     OW14980   2.447   4.045  11.795  0.2136  0.1563  0.0938
 1174SOL    HW114981   2.445   4.080  11.884  1.3494  0.3970  0.0141
 1174SOL    HW214982   2.470   4.122  11.743 -0.2447 -1.0305 -1.8809
 1175SOL     OW14983   0.462   1.278   4.425  0.3888 -0.4262  0.0741
 1175SOL    HW114984   0.373   1.313   4.416 -0.2759 -2.1285 -0.0760
 1175SOL    HW214985   0.497   1.332   4.354  2.8887  0.1001  1.7402
 1176SOL     OW14986   3.283   4.244  13.927  0.3027  0.2190  0.4681
 1176SOL    HW114987   3.364   4.210  13.965  0.9208  1.5394  0.3301
 1176SOL    HW214988   3.222   4.205  13.989 -0.7020  2.3658  0.8278
 1177SOL     OW14989   1.126   3.799  15.128  0.3338 -0.2914  0.5441
 1177SOL    HW114990   1.058   3.735  15.109 -0.0678  0.0351  0.8833
 1177SOL    HW214991   1.100   3.868  15.067 -0.1775 -1.9177 -1.1009
 1178SOL     OW14992   2.661   2.286   7.553 -0.3770 -0.0842 -0.5568
 1178SOL    HW114993   2.639   2.370   7.592  0.5818 -0.1897  0.2314
 1178SOL    HW214994   2.670   2.316   7.463  0.2961  0.7180 -0.2187
 1179SOL     OW14995   3.575   0.377  13.667  0.6024 -0.4366  0.6242
 1179SOL    HW114996   3.603   0.350  13.580  0.1689 -0.4793  0.5003
 1179SOL    HW214997   3.630   0.455  13.670  0.3185 -0.2638  1.3599
 1180SOL     OW14998   3.896   3.406   0.496 -0.1861 -0.2219 -0.5185
 1180SOL    HW114999   3.901   3.311   0.504  1.0177 -0.2696 -1.9490
 1180SOL    HW215000   3.873   3.419   0.404  2.6734  2.9550 -0.7949
 1181SOL     OW15001   3.717   4.450  16.623  0.0992 -0.4747 -0.3234
 1181SOL    HW115002   3.711   4.386  16.551  0.4480  0.2779 -1.0207
 1181SOL    HW215003   3.623   4.460  16.636  0.0301 -2.9802  1.1143
 1182SOL     OW15004   3.415   0.408   8.511 -0.4160  0.0308  0.4526
 1182SOL    HW115005   3.395   0.442   8.598 -1.1854  0.3607  0.1393
 1182SOL    HW215006   3.380   0.319   8.515 -0.0681 -0.1409 -0.4163
 1183SOL     OW15007   2.332   4.155   1.298  0.3923 -1.1390  0.0798
 1183SOL    HW115008   2.278   4.212   1.244  0.8608 -1.0046 -0.2451
 1183SOL    HW215009   2.350   4.088   1.232  1.6350  0.2607 -1.0064
 1184SOL     OW15010   4.266   1.458   7.417  0.2955 -0.2188 -0.3008
 1184SOL    HW115011   4.353   1.433   7.387  1.1359 -0.4259  2.2617
 1184SOL    HW215012   4.284   1.547   7.447  0.1381 -0.7122  1.3006
 1185SOL     OW15013   2.777   0.030   7.221 -0.5923  0.2864  0.2549
 1185SOL    HW115014   2.768   0.124   7.238  3.8258  0.6479  0.6613
 1185SOL    HW215015   2.798   4.713   7.305  0.3319 -2.5018 -1.3373
 1186SOL     OW15016   0.649   3.274   2.916  0.5566  0.3410  0.4870
 1186SOL    HW115017   0.565   3.299   2.879  0.4180 -0.0547  0.5356
 1186SOL    HW215018   0.634   3.190   2.959  1.1079  2.2923  4.4954
 1187SOL     OW15019   3.146   2.044  10.792  0.0623 -0.2297  0.7247
 1187SOL    HW115020   3.151   2.119  10.851 -2.5243  0.2423  0.3312
 1187SOL    HW215021   3.184   1.976  10.849 -1.0051 -1.2302  0.2431
 1188SOL     OW15022   2.431   3.047  12.641  0.2238  0.4169  0.7387
 1188SOL    HW115023   2.359   2.985  12.656  0.4334  0.1265  0.5514
 1188SOL    HW215024   2.426   3.057  12.546  3.6138  3.3333  0.9026
 1189SOL     OW15025   4.119   3.682   3.001  0.1657  0.1845 -0.5982
 1189SOL    HW115026   4.038   3.680   3.052 -1.2343 -3.0274 -2.9209
 1189SOL    HW215027   4.157   3.599   3.032 -2.4167 -2.3836 -4.3440
 1190SOL     OW15028   0.760   1.739   6.481 -0.2408  0.3768 -0.2915
 1190SOL    HW115029   0.713   1.799   6.538 -0.3202 -0.2673  0.3153
 1190SOL    HW215030   0.749   1.784   6.397  0.5970 -1.1002 -1.2021
 1191SOL     OW15031   2.211   0.412   5.159  0.4939 -0.0974  0.4967
 1191SOL    HW115032   2.165   0.353   5.219  1.3287  0.3839  1.6034
 1191SOL    HW215033   2.158   0.489   5.182 -0.7822 -0.9399  0.3917
 1192SOL     OW15034   3.929   2.048   8.524 -0.1040 -0.1920  0.1936
 1192SOL    HW115035   3.835   2.048   8.508 -0.0525  1.5229 -0.2194
 1192SOL    HW215036   3.939   2.119   8.588 -0.6764  0.2600 -0.2091
 1193SOL     OW15037   3.300   3.238   3.286  0.2646 -0.2847 -0.5754
 1193SOL    HW115038   3.256   3.261   3.204  1.7017  0.9087 -1.0247
 1193SOL    HW215039   3.360   3.174   3.247  0.1742 -2.8746  3.5148
 1194SOL     OW15040   3.443   3.709   5.470  0.7079 -0.3194 -0.2864
 1194SOL    HW115041   3.504   3.765   5.517 -0.1888  0.4546 -0.0620
 1194SOL    HW215042   3.392   3.675   5.543 -1.8210  1.7062 -1.0972
 1195SOL     OW15043   1.583   4.320   3.058 -0.1285  0.4922 -0.6151
 1195SOL    HW115044   1.516   4.357   3.116 -1.4793  2.2664 -3.2880
 1195SOL    HW215045   1.546   4.241   3.019  0.8752  0.9879 -2.5888
 1196SOL     OW15046   4.299   4.538   0.205  0.8315  0.2003  0.0648
 1196SOL    HW115047   4.287   4.443   0.216 -0.2252  0.2284 -0.8449
 1196SOL    HW215048   4.265   4.570   0.289 -1.7109 -1.3596 -0.3615
 1197SOL     OW15049   4.536   0.478   3.885  0.2441 -0.1277 -0.0035
 1197SOL    HW115050   4.537   0.536   3.961 -1.1367 -0.2315  0.1023
 1197SOL    HW215051   4.447   0.442   3.894  0.1630  0.3060  0.9188
 1198SOL     OW15052   2.258   2.114   4.075  0.4075 -0.2936 -0.0193
 1198SOL    HW115053   2.326   2.056   4.112  0.2940 -1.2421 -1.2857
 1198SOL    HW215054   2.250   2.076   3.987 -3.4555  0.9740 -0.2016
 1199SOL     OW15055   4.485   1.970   9.646  0.3896  0.3624 -0.2145
 1199SOL    HW115056   4.528   1.999   9.726 -1.1613 -0.2329  0.8458
 1199SOL    HW215057   4.425   1.903   9.680 -0.0670  0.9719  0.1912
 1200SOL     OW15058   4.458   3.831   0.628  0.4167  0.4011 -0.0941
 1200SOL    HW115059   4.512   3.797   0.700 -0.3378  0.8523  0.6813
 1200SOL    HW215060   4.477   3.780   0.550  2.1106  3.3431 -1.5834
 1201SOL     OW15061   2.499   1.533   7.126  0.1178 -0.2035  0.2166
 1201SOL    HW115062   2.428   1.512   7.186 -0.0765  1.1970  0.4588
 1201SOL    HW215063   2.516   1.623   7.153  3.2111 -1.1398  1.4148
 1202SOL     OW15064   4.182   0.456   0.546  0.5963 -0.3942  0.5191
 1202SOL    HW115065   4.115   0.521   0.569  1.9368  1.5473 -1.0719
 1202SOL    HW215066   4.141   0.424   0.466  0.8157  0.2206  0.1615
 1203SOL     OW15067   1.137   4.623   9.829  0.2669  0.3920  0.5534
 1203SOL    HW115068   1.078   4.596   9.900  0.5688  0.3486  0.7842
 1203SOL    HW215069   1.077   4.683   9.784 -0.3758 -0.7648 -0.1463
 1204SOL     OW15070   3.681   3.780   5.873  0.2913 -0.3773  0.3891
 1204SOL    HW115071   3.633   3.711   5.918 -0.6393  0.3643  0.5452
 1204SOL    HW215072   3.688   3.849   5.939 -1.3300 -1.3318  1.5619
 1205SOL     OW15073   0.018   3.705  16.715  0.1089  0.0759  0.4573
 1205SOL    HW115074   0.080   3.633  16.727  0.6226  0.2057 -1.3820
 1205SOL    HW215075   4.663   3.677  16.762  0.5032  0.9959  1.6672
 1206SOL     OW15076   3.333   1.780  12.030 -0.8727  0.1363  0.3751
 1206SOL    HW115077   3.294   1.719  11.967  3.1418 -0.8863 -1.0955
 1206SOL    HW215078   3.399   1.721  12.065 -1.2768 -0.3542  0.3187
 1207SOL     OW15079   2.345   2.347   5.930  0.3660 -0.3599 -0.0563
 1207SOL    HW115080   2.255   2.378   5.917  0.5337 -0.5968 -1.8348
 1207SOL    HW215081   2.350   2.270   5.872 -1.2316 -1.7474  1.6623
 1208SOL     OW15082   3.220   3.916   3.539  0.1935 -0.0979 -0.0256
 1208SOL    HW115083   3.230   3.823   3.518 -0.0251 -0.0939 -0.1492
 1208SOL    HW215084   3.146   3.940   3.483  0.1307  0.7544  0.4256
 1209SOL     OW15085   0.799   2.693   2.231  0.4557  0.3214  0.7270
 1209SOL    HW115086   0.798   2.689   2.135  0.6899 -0.8582  0.7689
 1209SOL    HW215087   0.733   2.630   2.258 -2.3250  3.0299  0.2354
 1210SOL     OW15088   1.104   4.592   3.047  0.2880  0.0420  0.1269
 1210SOL    HW115089   1.022   4.591   3.097  0.9860 -1.3639  1.2237
 1210SOL    HW215090   1.088   4.514   2.995 -1.6527  1.1137 -0.8812
 1211SOL     OW15091   3.665   2.021   5.259  0.1318 -0.4214 -0.2629
 1211SOL    HW115092   3.753   2.029   5.294 -0.2208  1.0906  0.2645
 1211SOL    HW215093   3.679   2.063   5.174 -1.1264  1.5102  0.4871
 1212SOL     OW15094   3.883   1.530   4.572 -0.3190  0.0794 -0.0288
 1212SOL    HW115095   3.823   1.459   4.595  0.4610 -1.0749 -1.5770
 1212SOL    HW215096   3.957   1.521   4.632 -0.1443 -0.2679 -0.2969
 1213SOL     OW15097   2.071   2.726  12.533  0.4187 -0.2100 -0.2740
 1213SOL    HW115098   2.073   2.635  12.503  3.0942 -0.4979  0.8179
 1213SOL    HW215099   2.032   2.765  12.454 -0.5546 -2.3278 -0.8503
 1214SOL     OW15100   4.682   4.110   4.476 -0.1368  0.5140 -0.6346
 1214SOL    HW115101   4.612   4.151   4.527 -1.0094 -0.2405 -1.2340
 1214SOL    HW215102   4.632   4.029   4.468  0.0366  0.5743 -2.3352
 1215SOL     OW15103   3.989   3.047   5.162  0.0985 -0.1300  0.3159
 1215SOL    HW115104   4.072   3.011   5.132  1.6106  2.9399  0.7593
 1215SOL    HW215105   3.946   2.968   5.194 -1.0697  0.3713 -0.0293
 1216SOL     OW15106   4.174   3.507   1.300  0.2594 -0.3627  0.1069
 1216SOL    HW115107   4.093   3.543   1.335  0.2910 -0.8215  0.6468
 1216SOL    HW215108   4.173   3.537   1.209 -0.1539 -2.8852 -0.7157
 1217SOL     OW15109   0.277   0.457   8.442  0.2555  0.2049  0.3203
 1217SOL    HW115110   0.352   0.398   8.442  1.1107  1.2823 -0.3427
 1217SOL    HW215111   0.274   0.491   8.531  2.2705 -1.6351  1.0848
 1218SOL     OW15112   1.621   0.907   2.626 -0.6856  0.3585  0.1601
 1218SOL    HW115113   1.640   0.814   2.612 -1.2383  0.1814  0.5984
 1218SOL    HW215114   1.708   0.944   2.641 -1.1693  0.7644  1.8802
 1219SOL     OW15115   0.185   3.287   4.820 -0.4507  0.5160  0.3401
 1219SOL    HW115116   0.182   3.304   4.914  2.7434 -2.0142  0.9039
 1219SOL    HW215117   0.192   3.191   4.821  0.8141  0.6188  1.6100
 1220SOL     OW15118   0.528   3.147  12.964  0.0366  0.4712  0.1501
 1220SOL    HW115119   0.557   3.116  12.878 -0.1827 -0.1914  0.3154
 1220SOL    HW215120   0.606   3.141  13.019  1.3653  0.7084 -1.7355
 1221SOL     OW15121   4.548   2.733   0.093  0.2557 -0.0958  0.0548
 1221SOL    HW115122   4.585   2.723   0.005 -3.3669 -0.8234 -1.3816
 1221SOL    HW215123   4.629   2.736   0.143  0.6867  1.6371 -0.7377
 1222SOL     OW15124   1.874   0.804   8.013  0.2710 -0.1222 -0.1896
 1222SOL    HW115125   1.863   0.896   8.036  1.9563  0.5261 -1.9365
 1222SOL    HW215126   1.847   0.806   7.921  0.6723 -0.6932 -0.3198
 1223SOL     OW15127   4.362   3.046   4.045 -0.2743 -0.4428 -0.4417
 1223SOL    HW115128   4.428   3.035   4.113 -1.5098  0.7998  0.9499
 1223SOL    HW215129   4.283   3.045   4.099 -1.0509  0.3089 -1.5592
 1224SOL     OW15130   2.388   4.712   5.829 -0.0827  0.1659  0.5378
 1224SOL    HW115131   2.459   4.680   5.885  2.2538  2.2677 -1.2152
 1224SOL    HW215132   2.422   4.716   5.740 -0.8813 -0.3485  0.2098
 1225SOL     OW15133   2.645   3.655   9.719  0.6781 -0.1356 -0.0722
 1225SOL    HW115134   2.667   3.748   9.727 -0.8868  0.2323 -0.1913
 1225SOL    HW215135   2.724   3.602   9.735  0.6436 -1.0624 -2.9765
 1226SOL     OW15136   3.867   2.847   3.744  0.5817  0.5798  0.0960
 1226SOL    HW115137   3.878   2.835   3.649  0.3260  2.9490 -0.2536
 1226SOL    HW215138   3.951   2.881   3.774  0.1383  2.5355 -0.8615
 1227SOL     OW15139   2.379   2.391   3.021 -0.2253  0.1087  0.2839
 1227SOL    HW115140   2.403   2.313   2.970 -1.0262  1.8336 -2.7319
 1227SOL    HW215141   2.303   2.412   2.967 -0.2291 -1.1035 -0.1761
 1228SOL     OW15142   2.080   2.768   6.946  0.2451 -0.0289  0.1060
 1228SOL    HW115143   1.995   2.768   6.902  0.7220  3.2967 -0.8003
 1228SOL    HW215144   2.059   2.727   7.030  0.9013 -0.7587 -0.0874
 1229SOL     OW15145   0.948   1.362  17.231 -0.2448  0.1848 -0.2721
 1229SOL    HW115146   0.937   1.270  17.210 -1.9859 -0.3083  2.7879
 1229SOL    HW215147   0.967   1.391  17.142  1.3450  1.4309  0.4672
 1230SOL     OW15148   0.312   1.860   5.026 -0.1098  0.2385 -0.0811
 1230SOL    HW115149   0.267   1.869   5.110 -1.8439 -0.1579 -0.9617
 1230SOL    HW215150   0.238   1.828   4.974 -0.4838 -0.7184  1.0347
 1231SOL     OW15151   0.789   2.453   8.522 -0.1640 -0.0594  0.5139
 1231SOL    HW115152   0.863   2.478   8.577 -0.6676 -0.2338  1.2762
 1231SOL    HW215153   0.811   2.498   8.440 -0.2774  0.9684  1.0533
 1232SOL     OW15154   3.830   4.144   3.593  0.1886  0.1783 -0.2503
 1232SOL    HW115155   3.900   4.119   3.533  0.2957  0.9650 -0.4613
 1232SOL    HW215156   3.810   4.054   3.618  1.1049  0.2912  0.8906
 1233SOL     OW15157   2.508   2.103   6.986 -0.6574  1.0724  0.0223
 1233SOL    HW115158   2.528   2.053   6.907  0.7245 -0.4829  1.3375
 1233SOL    HW215159   2.571   2.079   7.054 -2.2672 -1.5382  0.6198
 1234SOL     OW15160   2.400   2.072  13.495 -0.1139 -0.1860  0.0216
 1234SOL    HW115161   2.390   2.144  13.556 -1.6702 -2.4077  2.3688
 1234SOL    HW215162   2.326   2.086  13.435 -0.1925  0.6744  0.3185
 1235SOL     OW15163   2.962   3.940   3.377 -0.1294  0.1728 -0.1933
 1235SOL    HW115164   2.870   3.921   3.356 -0.4991  1.1736  0.5166
 1235SOL    HW215165   3.014   3.907   3.304  1.4941  2.1758  0.0668
 1236SOL     OW15166   2.472   3.071   7.663 -0.4151  0.2264 -0.1932
 1236SOL    HW115167   2.410   3.141   7.685 -1.0979 -0.3559 -0.2598
 1236SOL    HW215168   2.506   3.061   7.752  1.4834 -2.3825 -1.2381
 1237SOL     OW15169   2.216   2.681   7.542  0.6815 -0.5901  0.2556
 1237SOL    HW115170   2.268   2.694   7.621  1.2336 -0.1139 -0.1846
 1237SOL    HW215171   2.242   2.758   7.491  1.2937 -0.0248  1.4313
 1238SOL     OW15172   2.120   2.608   4.876 -0.6336  0.4575 -0.1442
 1238SOL    HW115173   2.092   2.611   4.967 -1.5204 -0.0897 -0.3997
 1238SOL    HW215174   2.132   2.698   4.845  1.0180  0.4548  0.4846
 1239SOL     OW15175   1.373   1.489   6.174 -0.3094  0.0529  0.4060
 1239SOL    HW115176   1.340   1.399   6.182  1.4582 -0.7436 -1.1615
 1239SOL    HW215177   1.453   1.473   6.124 -0.0272  0.2754  0.7920
 1240SOL     OW15178   1.306   4.114   5.966  0.0827 -0.3895  0.2545
 1240SOL    HW115179   1.329   4.031   5.924 -1.9965  0.7089 -3.0424
 1240SOL    HW215180   1.394   4.150   5.959  0.1442 -0.6120 -0.1106
 1241SOL     OW15181   0.722   4.223   4.635 -0.4650  0.2575 -0.0922
 1241SOL    HW115182   0.721   4.312   4.671 -0.6557  0.2333 -0.0365
 1241SOL    HW215183   0.632   4.194   4.646 -1.3500  2.5938 -1.3693
 1242SOL     OW15184   3.632   4.530   8.694  0.4111 -0.1026  0.7431
 1242SOL    HW115185   3.713   4.580   8.700  0.3984  0.1724 -1.4420
 1242SOL    HW215186   3.662   4.453   8.743  1.2018 -0.6717 -0.6224
 1243SOL     OW15187   2.491   1.447  11.492 -0.6092 -0.0553 -0.4682
 1243SOL    HW115188   2.435   1.427  11.568  0.8878 -1.1522  0.3492
 1243SOL    HW215189   2.570   1.473  11.540 -0.5880 -1.5523  0.3173
 1244SOL     OW15190   0.079   3.015   6.321  0.4006 -0.3936  0.7362
 1244SOL    HW115191   0.016   3.079   6.287  0.8073  0.2605  1.2195
 1244SOL    HW215192   0.161   3.028   6.274  0.6035  0.9447  1.4659
 1245SOL     OW15193   3.322   2.730   3.113 -0.1442 -0.2226 -0.1803
 1245SOL    HW115194   3.293   2.821   3.115  3.0815  0.7800  1.8030
 1245SOL    HW215195   3.257   2.690   3.171  1.1736 -2.9824 -0.6487
 1246SOL     OW15196   2.441   1.273   6.443 -0.5480 -0.7408  0.2203
 1246SOL    HW115197   2.378   1.300   6.510  0.8857  0.0134  1.2508
 1246SOL    HW215198   2.517   1.256   6.498  0.6190  2.0384 -0.5212
 1247SOL     OW15199   3.680   3.865   1.494  0.0776  0.9021  0.3075
 1247SOL    HW115200   3.773   3.867   1.469  0.4406  1.0521  1.6743
 1247SOL    HW215201   3.642   3.941   1.452 -2.7744 -1.5168 -1.4489
 1248SOL     OW15202   4.424   4.011  10.632  0.3008  0.4123  0.0330
 1248SOL    HW115203   4.415   3.917  10.647 -2.9529  0.5575 -1.1057
 1248SOL    HW215204   4.508   4.034  10.673 -0.7428  0.3674  2.1645
 1249SOL     OW15205   3.082   0.567   5.440  0.2373 -0.0031 -0.4491
 1249SOL    HW115206   3.020   0.515   5.491  0.0006  0.2380 -0.4931
 1249SOL    HW215207   3.017   0.622   5.396  1.3074  1.6806  0.0991
 1250SOL     OW15208   0.486   1.383   5.911 -0.3682 -0.3645 -0.3473
 1250SOL    HW115209   0.395   1.380   5.882 -0.3023  2.6750 -0.9648
 1250SOL    HW215210   0.538   1.404   5.832  1.3284  2.1107  1.3940
 1251SOL     OW15211   1.702   0.977   7.103  0.3624 -0.4967  0.1900
 1251SOL    HW115212   1.762   0.917   7.060 -0.1966 -1.3840  0.6521
 1251SOL    HW215213   1.740   1.059   7.073 -2.0541  0.2991 -0.7049
 1252SOL     OW15214   2.127   2.108   6.726  0.1421 -0.4711  0.0563
 1252SOL    HW115215   2.172   2.106   6.810  0.3417 -1.0189 -0.0620
 1252SOL    HW215216   2.192   2.146   6.667  2.5342 -2.0784  1.6378
 1253SOL     OW15217   3.407   3.280  16.907  0.0974 -0.1131  0.4114
 1253SOL    HW115218   3.315   3.265  16.928  0.2762  0.2694  1.4794
 1253SOL    HW215219   3.451   3.258  16.990  0.7007  0.2327  0.1864
 1254SOL     OW15220   3.617   3.593  15.272 -0.4729  0.3979  0.4938
 1254SOL    HW115221   3.654   3.520  15.323 -1.6174  0.4062  1.3352
 1254SOL    HW215222   3.694   3.646  15.249 -0.6318  0.7484  0.7748
 1255SOL     OW15223   2.590   0.298   8.426 -0.3258  0.1603  0.0434
 1255SOL    HW115224   2.515   0.351   8.399 -0.3664  0.6449  1.1006
 1255SOL    HW215225   2.639   0.311   8.345  0.6354 -0.9842  0.4489
 1256SOL     OW15226   1.885   1.544   3.464  0.2097 -0.1358  0.2400
 1256SOL    HW115227   1.979   1.545   3.448  0.0336  0.7640 -0.7859
 1256SOL    HW215228   1.871   1.452   3.485  0.6125 -0.3254 -0.3133
 1257SOL     OW15229   0.012   3.300   9.576 -0.0775  0.3790 -0.3166
 1257SOL    HW115230   4.699   3.340   9.655  0.9137  1.6904 -0.5285
 1257SOL    HW215231   0.075   3.237   9.612  2.8472  2.6717 -1.4041
 1258SOL     OW15232   0.082   1.412   3.855  0.3015 -0.3810  0.1670
 1258SOL    HW115233   0.003   1.366   3.884 -0.2876  0.6062  0.1186
 1258SOL    HW215234   0.057   1.438   3.767  0.6089  2.2152  0.8709
 1259SOL     OW15235   0.582   0.976   2.846 -0.2304  0.0958 -0.7602
 1259SOL    HW115236   0.640   0.937   2.911 -0.8765 -0.1433 -0.3213
 1259SOL    HW215237   0.611   0.915   2.777  2.2083  0.7736 -0.2962
 1260SOL     OW15238   2.805   1.979   8.755 -0.2135  0.1281 -0.8282
 1260SOL    HW115239   2.822   1.885   8.751  0.2754  0.1385  1.0018
 1260SOL    HW215240   2.714   1.986   8.781 -0.2140 -2.9584 -0.0174
 1261SOL     OW15241   2.666   2.198   1.939  0.4660 -0.2808  0.0881
 1261SOL    HW115242   2.597   2.139   1.972  0.3894 -0.5530 -0.5614
 1261SOL    HW215243   2.734   2.137   1.911 -0.0459 -0.4707 -0.7371
 1262SOL     OW15244   4.293   0.605   0.148 -0.2201 -0.1129 -1.1346
 1262SOL    HW115245   4.222   0.660   0.179 -0.5948 -1.4715  0.4162
 1262SOL    HW215246   4.355   0.614   0.220  2.9962  0.9559 -4.0007
 1263SOL     OW15247   2.363   4.587  15.714 -0.1489  0.1398  0.5460
 1263SOL    HW115248   2.291   4.562  15.772 -1.4223  1.4994 -0.4369
 1263SOL    HW215249   2.414   4.642  15.774  0.9696  1.0601 -1.2555
 1264SOL     OW15250   0.058   0.325  16.222  0.3931  0.2748  0.1737
 1264SOL    HW115251   4.710   0.385  16.246 -0.5325 -1.4180  1.6486
 1264SOL    HW215252   0.108   0.318  16.304 -0.1650  2.0372  0.6846
 1265SOL     OW15253   2.812   4.560   1.364  0.1158  0.5369  0.2438
 1265SOL    HW115254   2.822   4.612   1.284  2.7199  0.9230  0.8138
 1265SOL    HW215255   2.900   4.569   1.401  0.4071 -0.9900 -0.0643
 1266SOL     OW15256   0.444   4.023  10.279 -0.0076 -0.0204  0.1516
 1266SOL    HW115257   0.367   4.078  10.264 -0.1898 -0.6329 -1.2037
 1266SOL    HW215258   0.422   3.944  10.230  0.0821  1.0216 -1.5857
 1267SOL     OW15259   4.509   0.551   7.605  0.7342  0.1413 -0.4143
 1267SOL    HW115260   4.444   0.513   7.664 -2.4802  4.3048 -1.3149
 1267SOL    HW215261   4.459   0.536   7.525  2.0357  0.3892 -1.2858
 1268SOL     OW15262   0.815   0.202   2.475 -0.1493  0.1882 -0.3148
 1268SOL    HW115263   0.880   0.154   2.423 -2.3872 -1.1439 -1.8500
 1268SOL    HW215264   0.799   0.280   2.423  2.2796 -1.1172 -3.0310
 1269SOL     OW15265   1.996   3.072   2.206 -0.1164 -0.7782 -0.0768
 1269SOL    HW115266   2.086   3.086   2.234 -0.4408 -0.8588  0.9832
 1269SOL    HW215267   1.980   2.981   2.181  1.2538 -1.8336  2.9286
 1270SOL     OW15268   3.093   1.851  16.974  0.1875 -0.1668 -0.4719
 1270SOL    HW115269   3.058   1.786  17.035  0.1826 -1.6480 -2.0344
 1270SOL    HW215270   3.153   1.900  17.030  1.4810 -0.9803 -1.1254
 1271SOL     OW15271   1.192   1.340   9.981  0.3007 -0.3968  0.6506
 1271SOL    HW115272   1.131   1.312  10.049  0.7480 -1.3220  0.6659
 1271SOL    HW215273   1.259   1.391  10.027 -1.0710  1.3106  0.7240
 1272SOL     OW15274   2.512   2.412   6.933  0.1395 -0.5941 -0.4926
 1272SOL    HW115275   2.602   2.415   6.965  0.1368  0.2224 -0.5488
 1272SOL    HW215276   2.495   2.323   6.963 -0.0001 -0.2861  0.3566
 1273SOL     OW15277   4.280   4.185   0.657 -0.2214  0.2001  0.0659
 1273SOL    HW115278   4.208   4.236   0.694  0.3033  0.3606  0.8651
 1273SOL    HW215279   4.247   4.096   0.649 -0.7571  0.3504  0.6466
 1274SOL     OW15280   2.337   2.469   9.584 -0.1005  0.1730 -0.0406
 1274SOL    HW115281   2.252   2.504   9.558  1.3415  3.3760 -0.5186
 1274SOL    HW215282   2.321   2.379   9.609 -1.5618  0.3957 -0.2133
 1275SOL     OW15283   1.622   2.970   2.269 -0.0999  0.0956  0.0684
 1275SOL    HW115284   1.527   2.979   2.271  0.0441  1.7684 -0.4316
 1275SOL    HW215285   1.633   2.956   2.175 -1.0677  0.0197 -0.0295
 1276SOL     OW15286   0.369   2.381  13.385  0.3178  0.3033  0.0578
 1276SOL    HW115287   0.409   2.300  13.417 -0.5899  0.2824  1.1496
 1276SOL    HW215288   0.356   2.361  13.292  1.0135  0.1184  0.0008
 1277SOL     OW15289   4.456   4.239   6.449 -0.8818  0.0481 -0.0139
 1277SOL    HW115290   4.455   4.194   6.533 -1.5912  0.9720  0.4788
 1277SOL    HW215291   4.544   4.210   6.427 -0.6284  1.3906 -0.7565
 1278SOL     OW15292   0.852   1.565   0.800  0.0110 -0.2315 -0.4376
 1278SOL    HW115293   0.916   1.554   0.729 -0.3969  1.6646 -1.1042
 1278SOL    HW215294   0.856   1.472   0.825  0.6569  0.3696  1.6653
 1279SOL     OW15295   2.536   1.989   2.755  0.0920  0.5263  0.8692
 1279SOL    HW115296   2.533   1.913   2.698 -1.6555  1.1210  0.1756
 1279SOL    HW215297   2.599   1.966   2.823  1.1290 -0.1854 -0.3362
 1280SOL     OW15298   1.388   0.427  10.690  0.0981  0.0572  0.5688
 1280SOL    HW115299   1.306   0.442  10.737  0.4257 -1.0479  1.4954
 1280SOL    HW215300   1.436   0.498  10.733  3.9912 -1.5837 -1.0758
 1281SOL     OW15301   1.187   3.886   0.270 -0.3807  0.1695 -0.1947
 1281SOL    HW115302   1.185   3.827   0.345 -0.6523 -0.3563 -0.6151
 1281SOL    HW215303   1.110   3.859   0.220 -1.3709 -0.2595  1.5922
 1282SOL     OW15304   1.281   1.590  17.530 -0.5024 -0.1697 -0.0378
 1282SOL    HW115305   1.311   1.510  17.487 -0.4793 -0.2511  0.1299
 1282SOL    HW215306   1.346   1.599  17.600 -0.0085 -1.5226 -0.3265
 1283SOL     OW15307   1.403   3.038   3.787 -0.5298  0.1389  0.0778
 1283SOL    HW115308   1.442   3.089   3.858  0.8592  1.4908 -1.6651
 1283SOL    HW215309   1.440   2.952   3.804  0.2843  0.3703 -0.5027
 1284SOL     OW15310   1.597   2.928   9.098  0.1949 -0.5950  0.0672
 1284SOL    HW115311   1.533   2.892   9.037 -2.9112 -0.0584  2.9668
 1284SOL    HW215312   1.634   3.001   9.048  1.6137 -0.4577  1.3122
 1285SOL     OW15313   3.085   4.461  13.057 -0.3514 -0.3894  0.0105
 1285SOL    HW115314   2.996   4.495  13.047 -1.3053 -3.0318 -0.3583
 1285SOL    HW215315   3.120   4.525  13.120 -3.3396  2.0969 -0.8442
 1286SOL     OW15316   1.812   1.746   9.788 -0.5526  0.1816 -0.0866
 1286SOL    HW115317   1.875   1.794   9.735 -2.1364 -0.2685 -2.4135
 1286SOL    HW215318   1.730   1.791   9.767 -1.0002 -0.6494 -0.1481
 1287SOL     OW15319   2.891   2.220  12.941 -0.1400 -0.2974  0.2075
 1287SOL    HW115320   2.869   2.153  12.877 -0.0412  0.6815 -0.8410
 1287SOL    HW215321   2.958   2.264  12.888  0.3463  1.4206  2.2382
 1288SOL     OW15322   3.622   3.107  16.117  0.2513 -0.1243  0.2195
 1288SOL    HW115323   3.576   3.160  16.183 -0.4055 -1.5554  0.8957
 1288SOL    HW215324   3.709   3.142  16.135  0.4085 -0.2983 -0.1848
 1289SOL     OW15325   2.803   3.757   6.931  0.4218 -0.6037  0.3464
 1289SOL    HW115326   2.734   3.820   6.909 -0.4145 -1.9697 -0.9745
 1289SOL    HW215327   2.772   3.699   7.001 -0.0261  1.6271  1.9850
 1290SOL     OW15328   4.256   0.724   0.461 -0.2885  0.2053 -0.0270
 1290SOL    HW115329   4.274   0.814   0.491  2.6903 -0.2432 -0.4694
 1290SOL    HW215330   4.309   0.671   0.521 -0.7857  1.6534  1.7278
 1291SOL     OW15331   1.147   2.510   6.573  0.2346  0.0940 -0.6565
 1291SOL    HW115332   1.081   2.447   6.603  0.3953 -0.1048 -0.7223
 1291SOL    HW215333   1.226   2.459   6.592 -0.5598 -0.6684  0.6064
 1292SOL     OW15334   3.989   1.801   8.078  0.3386  0.2195 -0.4133
 1292SOL    HW115335   4.037   1.811   7.996  0.8487 -0.4753 -0.1982
 1292SOL    HW215336   3.925   1.734   8.052  1.1611 -1.0396  0.7833
 1293SOL     OW15337   4.587   2.736   6.271 -0.0882 -0.1150  0.7923
 1293SOL    HW115338   4.529   2.673   6.313 -1.4435 -0.0180 -0.9159
 1293SOL    HW215339   4.533   2.805   6.233 -0.7650 -1.7665 -1.2861
 1294SOL     OW15340   0.772   0.013  16.027  0.4160  0.2266  0.4277
 1294SOL    HW115341   0.831   4.701  16.093  0.5277 -0.4604 -0.0390
 1294SOL    HW215342   0.790   4.681  15.952  0.0736  1.0698 -0.2814
 1295SOL     OW15343   3.326   1.145  10.877  0.2281 -0.3858  0.0420
 1295SOL    HW115344   3.278   1.070  10.840 -0.6482 -1.1592  2.7605
 1295SOL    HW215345   3.341   1.185  10.791 -1.1708  1.2157  0.5392
 1296SOL     OW15346   3.532   1.819   0.239 -0.1591  0.0814  0.3618
 1296SOL    HW115347   3.614   1.804   0.286 -1.7538 -1.8567  2.4511
 1296SOL    HW215348   3.471   1.755   0.272 -1.4701 -0.4000 -2.9617
 1297SOL     OW15349   1.254   2.464  14.874  0.6057  0.3091 -0.0227
 1297SOL    HW115350   1.297   2.443  14.790  0.0991 -1.4263  0.1495
 1297SOL    HW215351   1.321   2.443  14.939 -0.3234 -3.1767 -0.1863
 1298SOL     OW15352   4.332   4.530  17.451 -0.4719  0.8009  0.2395
 1298SOL    HW115353   4.283   4.551  17.371  2.4144  2.0904 -1.2023
 1298SOL    HW215354   4.265   4.555  17.514  2.1912  1.9349  2.6540
 1299SOL     OW15355   4.313   3.932   6.991 -0.5085  0.0759 -0.7971
 1299SOL    HW115356   4.284   3.848   6.957 -1.1941 -0.5587  1.3159
 1299SOL    HW215357   4.312   3.911   7.085  0.2988  1.5858 -0.4457
 1300SOL     OW15358   0.264   2.250   2.692  0.0437  0.1583  0.3594
 1300SOL    HW115359   0.247   2.322   2.632 -0.3650  1.3727  1.9480
 1300SOL    HW215360   0.315   2.192   2.636 -0.0006  0.5780 -0.1141
 1301SOL     OW15361   0.705   4.017   4.432 -0.3382 -0.4854 -0.0370
 1301SOL    HW115362   0.701   4.059   4.518 -1.1429 -0.5928 -0.0232
 1301SOL    HW215363   0.758   3.941   4.454 -0.8855 -0.6310  0.7660
 1302SOL     OW15364   2.600   3.172   5.824 -0.3697  0.3045  0.1180
 1302SOL    HW115365   2.651   3.250   5.806 -0.6920 -0.0066 -2.1251
 1302SOL    HW215366   2.669   3.110   5.800 -0.5913  0.5596 -1.1949
 1303SOL     OW15367   3.311   4.003  10.880 -0.4163  0.2003  0.3552
 1303SOL    HW115368   3.355   3.965  10.955  0.1952 -0.8173 -0.5178
 1303SOL    HW215369   3.304   4.093  10.912 -0.4179  0.6435 -0.8529
 1304SOL     OW15370   0.700   0.376   1.447  0.3567 -0.1401  0.4347
 1304SOL    HW115371   0.656   0.341   1.369  0.8704 -1.1994  0.6187
 1304SOL    HW215372   0.793   0.376   1.423 -0.1950 -0.6899 -1.7590
 1305SOL     OW15373   0.367   3.793  15.841 -0.7344  0.0829  0.1484
 1305SOL    HW115374   0.351   3.885  15.863 -0.2863  0.3305 -0.5674
 1305SOL    HW215375   0.353   3.794  15.746 -0.4388  0.2615  0.1077
 1306SOL     OW15376   1.501   2.347   5.632  0.7447 -0.2554  0.3995
 1306SOL    HW115377   1.529   2.395   5.554 -0.5684 -0.9026 -0.4756
 1306SOL    HW215378   1.565   2.377   5.696 -0.3173 -1.1437  1.8636
 1307SOL     OW15379   2.960   3.384   5.571  0.3211 -0.3615 -0.7340
 1307SOL    HW115380   2.884   3.442   5.577  1.3926  0.7514  1.6705
 1307SOL    HW215381   3.022   3.431   5.626 -0.7491  2.0448 -1.5767
 1308SOL     OW15382   0.386   0.849   6.234 -0.1849  0.2227  0.4532
 1308SOL    HW115383   0.432   0.787   6.291 -1.2365  0.5207  1.6430
 1308SOL    HW215384   0.356   0.919   6.293 -0.5027 -0.1365  0.7191
 1309SOL     OW15385   0.825   2.928   4.107  0.2554 -0.0351  0.0759
 1309SOL    HW115386   0.781   2.888   4.181  0.2860  1.3001  0.8234
 1309SOL    HW215387   0.913   2.915   4.143 -0.6484 -2.0473  1.5337
 1310SOL     OW15388   2.897   1.132   2.476  0.2304  0.0818  0.5271
 1310SOL    HW115389   2.880   1.070   2.547  0.0203  1.3916  1.6146
 1310SOL    HW215390   2.838   1.093   2.411 -0.3556 -1.4724  1.9776
 1311SOL     OW15391   4.165   3.809   3.712  0.2181 -0.4191  0.0578
 1311SOL    HW115392   4.209   3.866   3.649 -2.5407  1.4239 -0.1855
 1311SOL    HW215393   4.096   3.870   3.739  0.4867  0.8775 -2.1685
 1312SOL     OW15394   3.580   1.725   5.313  0.4305  0.5456 -0.4483
 1312SOL    HW115395   3.663   1.740   5.359 -0.2585 -0.7988  1.2543
 1312SOL    HW215396   3.536   1.811   5.315 -0.6653 -0.0282  0.1751
 1313SOL     OW15397   2.008   0.628   4.471 -0.0088 -1.3431  0.3469
 1313SOL    HW115398   2.031   0.705   4.420 -1.1213 -1.4091 -0.2747
 1313SOL    HW215399   1.915   0.626   4.445  0.0590  0.3440  0.0148
 1314SOL     OW15400   2.412   3.469   1.910  0.4625  0.1090 -0.2996
 1314SOL    HW115401   2.468   3.546   1.904  1.5943 -0.5722  1.2015
 1314SOL    HW215402   2.331   3.493   1.866  1.0069 -1.6010 -2.2298
 1315SOL     OW15403   2.924   2.736   1.928  0.3955  0.6052 -0.4062
 1315SOL    HW115404   2.855   2.742   1.863  0.1291  0.3530 -0.1513
 1315SOL    HW215405   2.917   2.824   1.965 -0.3639  0.1519  0.5318
 1316SOL     OW15406   0.112   4.525   6.200 -0.2259  0.3461 -0.3307
 1316SOL    HW115407   0.030   4.511   6.246  0.1949  0.5712  0.4765
 1316SOL    HW215408   0.128   4.437   6.167 -1.2273 -0.3585  1.0914
 1317SOL     OW15409   3.628   0.011   1.552 -0.0759 -0.5096 -0.2540
 1317SOL    HW115410   3.693   0.057   1.605  1.4686 -0.7265 -1.9406
 1317SOL    HW215411   3.661   0.031   1.464  0.8502  1.7301  0.5939
 1318SOL     OW15412   1.733   4.240   3.804 -0.1176  0.1922 -0.0632
 1318SOL    HW115413   1.820   4.230   3.842 -0.4123  0.3316  0.6492
 1318SOL    HW215414   1.694   4.154   3.794  2.1803 -1.2885  3.5814
 1319SOL     OW15415   3.248   2.744   1.421 -0.4604 -0.4307 -0.0450
 1319SOL    HW115416   3.343   2.737   1.405 -0.9108 -2.3828 -1.8691
 1319SOL    HW215417   3.225   2.755   1.329 -1.1253  2.0291  0.4352
 1320SOL     OW15418   1.652   4.251  16.306 -1.0300 -0.3056  0.4539
 1320SOL    HW115419   1.703   4.308  16.364 -1.2302 -0.4349  0.7568
 1320SOL    HW215420   1.581   4.305  16.272  0.7355  1.0907 -1.0694
 1321SOL     OW15421   2.579   4.586  14.330 -0.3948  0.0176 -0.1525
 1321SOL    HW115422   2.623   4.514  14.375  0.1429  1.0613  0.9710
 1321SOL    HW215423   2.510   4.530  14.293  2.5974 -3.0834 -1.0980
 1322SOL     OW15424   3.243   0.279   1.203  0.0148  0.2277 -0.1907
 1322SOL    HW115425   3.325   0.321   1.177  0.5275  0.4099  1.7227
 1322SOL    HW215426   3.286   0.207   1.249 -1.9474 -1.6893 -1.3349
 1323SOL     OW15427   4.019   4.039   3.424 -0.1460 -0.4286 -0.0871
 1323SOL    HW115428   4.049   3.963   3.375  0.9103  0.0491 -0.1745
 1323SOL    HW215429   4.099   4.090   3.436 -1.6936  2.0291 -0.2554
 1324SOL     OW15430   3.109   2.222   7.411  0.4088 -0.5172  0.1543
 1324SOL    HW115431   3.061   2.238   7.493 -1.8047 -1.9469 -0.8587
 1324SOL    HW215432   3.186   2.179   7.447  2.2270  1.7466 -1.0391
 1325SOL     OW15433   4.026   2.693   0.696 -0.2593 -0.1790  0.4676
 1325SOL    HW115434   4.100   2.638   0.673 -0.4060  0.0583 -0.5777
 1325SOL    HW215435   3.977   2.629   0.748  0.9817  0.8860  2.9335
 1326SOL     OW15436   4.199   0.066  10.411  0.0137  0.1977  0.0792
 1326SOL    HW115437   4.244   0.017  10.480  1.5832  2.3192  0.5693
 1326SOL    HW215438   4.107   0.044  10.419 -0.0685 -0.0629 -1.5522
 1327SOL     OW15439   4.083   3.492   8.349  0.0138 -0.5088  0.1039
 1327SOL    HW115440   4.117   3.574   8.384  0.0638 -0.2111 -0.6395
 1327SOL    HW215441   4.118   3.424   8.408  0.3577 -0.3036  0.1359
 1328SOL     OW15442   0.582   0.679   8.350  0.3383 -0.3915  0.5700
 1328SOL    HW115443   0.572   0.679   8.445 -1.2079  0.7591  0.3986
 1328SOL    HW215444   0.675   0.704   8.356 -0.3373  1.5838  2.7956
 1329SOL     OW15445   1.852   0.164  13.370  0.1020 -0.6751  0.1173
 1329SOL    HW115446   1.942   0.135  13.362  0.1665 -0.3752 -0.2137
 1329SOL    HW215447   1.815   0.079  13.396 -0.0432 -0.0428  1.9946
 1330SOL     OW15448   2.350   1.876   6.556  0.2340  0.6314  0.7651
 1330SOL    HW115449   2.353   1.786   6.523  0.2112  1.0585 -0.4025
 1330SOL    HW215450   2.257   1.892   6.544  0.4540 -0.8491 -2.7981
 1331SOL     OW15451   0.129   3.602  14.549 -0.1607  0.0464 -0.0168
 1331SOL    HW115452   0.111   3.607  14.643 -1.5592  1.8248 -0.3778
 1331SOL    HW215453   0.091   3.516  14.528 -1.3754  0.6579 -0.3553
 1332SOL     OW15454   0.817   3.781   5.797  0.2852 -0.3534 -0.0548
 1332SOL    HW115455   0.831   3.754   5.887 -1.7832 -1.4516 -0.0586
 1332SOL    HW215456   0.791   3.874   5.794  1.5203 -0.0389 -1.1649
 1333SOL     OW15457   4.177   2.340   3.539 -0.1658  0.2650  0.8683
 1333SOL    HW115458   4.166   2.348   3.633 -0.8637 -2.1877  0.9900
 1333SOL    HW215459   4.149   2.425   3.504  0.0427  0.1124  0.3330
 1334SOL     OW15460   1.730   1.937   6.689  0.2734 -0.5857 -0.3112
 1334SOL    HW115461   1.726   1.993   6.612  2.0873  2.6908  1.9482
 1334SOL    HW215462   1.639   1.910   6.699 -0.7717  3.1028  0.3719
 1335SOL     OW15463   3.322   2.217   1.741  0.0357  0.4903 -0.2565
 1335SOL    HW115464   3.374   2.147   1.779  0.3797  0.9598  0.1376
 1335SOL    HW215465   3.315   2.280   1.813  0.6445 -1.0874  1.1652
 1336SOL     OW15466   2.337   2.092  17.459  0.2228  0.0986 -0.8019
 1336SOL    HW115467   2.280   2.040  17.404 -0.3476  0.9058 -0.9794
 1336SOL    HW215468   2.317   2.047  17.541  0.8501  0.8271 -0.2343
 1337SOL     OW15469   2.173   2.509   0.882 -0.2837 -0.2766  0.0434
 1337SOL    HW115470   2.209   2.463   0.806  0.4247  1.2273 -0.5392
 1337SOL    HW215471   2.201   2.594   0.848 -0.2691 -0.8585 -1.4374
 1338SOL     OW15472   1.126   3.398   5.419 -0.2518  0.0638 -0.1768
 1338SOL    HW115473   1.156   3.462   5.354 -0.2994  0.2086 -0.0564
 1338SOL    HW215474   1.033   3.396   5.397  0.2118  0.0406 -2.1461
 1339SOL     OW15475   1.936   0.723   7.480 -0.3797 -0.3070  0.5699
 1339SOL    HW115476   1.862   0.767   7.439 -1.5838 -0.5141  2.5375
 1339SOL    HW215477   2.007   0.788   7.476 -1.6778  1.0476 -0.7401
 1340SOL     OW15478   3.529   2.610  13.015  0.4299 -0.4665 -0.2972
 1340SOL    HW115479   3.603   2.671  13.006 -0.0770  0.1659 -0.1596
 1340SOL    HW215480   3.518   2.583  12.924 -2.6466 -0.5192  0.1000
 1341SOL     OW15481   1.222   2.197   2.103 -0.4035 -0.0472  0.5521
 1341SOL    HW115482   1.312   2.228   2.113 -0.7919  1.1555  0.3489
 1341SOL    HW215483   1.179   2.274   2.141  1.4160  1.0972  0.2444
 1342SOL     OW15484   4.112   2.242   4.597 -0.4469  0.1265  0.0709
 1342SOL    HW115485   4.163   2.204   4.525  0.8231 -1.4879  1.8179
 1342SOL    HW215486   4.150   2.326   4.624  0.9434 -0.0831 -1.2122
 1343SOL     OW15487   4.622   0.777   7.693 -0.2819  0.0276 -0.0818
 1343SOL    HW115488   4.586   0.774   7.782  0.3990  1.7874  0.2516
 1343SOL    HW215489   4.575   0.701   7.658 -0.7277  0.5804 -0.6748
 1344SOL     OW15490   1.810   2.772   6.419  0.3682  0.0383 -0.2448
 1344SOL    HW115491   1.776   2.841   6.362  0.5630  1.3019  1.1678
 1344SOL    HW215492   1.724   2.743   6.450 -0.6936  1.9194 -1.4416
 1345SOL     OW15493   3.567   3.328   3.813 -0.0934 -0.2380 -0.1518
 1345SOL    HW115494   3.510   3.286   3.750 -0.8441  3.4926 -1.9592
 1345SOL    HW215495   3.544   3.419   3.791  2.2852  1.4822  4.3166
 1346SOL     OW15496   1.104   4.337  12.926  0.1744 -0.4271 -0.3903
 1346SOL    HW115497   1.186   4.379  12.903 -1.2341  2.8806  0.6264
 1346SOL    HW215498   1.102   4.275  12.854  2.7205 -1.4509  0.4132
 1347SOL     OW15499   3.737   3.966  11.104  0.4248 -0.1240  0.1744
 1347SOL    HW115500   3.714   3.974  11.196 -1.1551 -1.0045 -0.1273
 1347SOL    HW215501   3.815   3.914  11.121 -0.2041 -0.8076  1.0097
 1348SOL     OW15502   2.891   2.926   1.496 -0.1388 -0.2795 -0.0310
 1348SOL    HW115503   2.885   3.012   1.454 -1.4301 -0.6679 -0.6605
 1348SOL    HW215504   2.848   2.875   1.427  1.2032 -1.3256 -0.0739
 1349SOL     OW15505   2.744   2.176   6.765 -0.1831  0.4264 -0.9067
 1349SOL    HW115506   2.651   2.153   6.756 -0.3967 -0.0038  2.2938
 1349SOL    HW215507   2.762   2.230   6.688 -0.5324  1.0584 -0.5462
 1350SOL     OW15508   2.102   3.122   1.843 -0.0696  0.7695 -0.3870
 1350SOL    HW115509   2.176   3.135   1.903 -2.4816  0.5173  2.6961
 1350SOL    HW215510   2.143   3.145   1.760  1.2445  1.6237  0.4787
 1351SOL     OW15511   2.885   4.169   1.848  0.8494 -0.3494  0.2629
 1351SOL    HW115512   2.903   4.233   1.917  0.1969  2.3274 -2.0277
 1351SOL    HW215513   2.881   4.225   1.770  1.9087 -2.6408 -1.4123
 1352SOL     OW15514   2.420   0.145   4.966 -0.3929 -0.7136  0.6632
 1352SOL    HW115515   2.469   0.226   4.977  0.9096 -1.8306  3.0322
 1352SOL    HW215516   2.412   0.116   5.057 -0.7617 -0.9793  0.5489
 1353SOL     OW15517   1.833   2.494   5.454 -0.3187 -0.0715 -0.5998
 1353SOL    HW115518   1.825   2.467   5.362 -1.7240  1.8322 -1.0535
 1353SOL    HW215519   1.879   2.427   5.503 -1.9989 -0.0250  1.0610
 1354SOL     OW15520   0.631   1.751  16.709  0.0749  0.1405 -0.2824
 1354SOL    HW115521   0.623   1.793  16.795  2.3074 -0.6948  0.3403
 1354SOL    HW215522   0.725   1.732  16.703 -0.2208 -0.8803 -1.6769
 1355SOL     OW15523   3.715   1.727  11.167  0.2943  0.2468 -0.0687
 1355SOL    HW115524   3.773   1.781  11.112 -0.2104  0.4789 -0.3727
 1355SOL    HW215525   3.785   1.668  11.195 -0.2800 -0.7615 -0.8073
 1356SOL     OW15526   3.927   2.954   2.472 -0.5141  0.0243 -0.2898
 1356SOL    HW115527   3.876   2.874   2.463  2.9324 -2.2868  0.8593
 1356SOL    HW215528   3.873   3.015   2.421  2.7295  0.6287 -3.0052
 1357SOL     OW15529   3.970   3.611   4.012 -0.0100 -0.0630 -0.7973
 1357SOL    HW115530   3.920   3.602   3.931 -3.3977 -1.2994  1.4044
 1357SOL    HW215531   3.969   3.519   4.040  2.6816  0.5358  1.2346
 1358SOL     OW15532   1.309   3.181   3.094  0.2012 -0.0035 -0.2988
 1358SOL    HW115533   1.246   3.193   3.165 -0.0470 -2.1814 -0.1504
 1358SOL    HW215534   1.354   3.264   3.075  2.1290 -1.1921 -0.9474
 1359SOL     OW15535   4.334   4.460  10.915 -0.1542 -0.0419 -0.4625
 1359SOL    HW115536   4.393   4.433  10.844 -0.0335 -0.1042 -0.3383
 1359SOL    HW215537   4.247   4.437  10.885 -0.4751 -2.2072  2.1842
 1360SOL     OW15538   2.167   1.005   5.807 -0.3683  0.4049 -0.3094
 1360SOL    HW115539   2.172   0.992   5.713 -0.4375  2.8377 -0.6329
 1360SOL    HW215540   2.242   1.063   5.821  0.1787 -1.0607  2.8503
 1361SOL     OW15541   3.323   2.991   2.964  0.2092  0.2749  0.2978
 1361SOL    HW115542   3.293   2.950   2.883  3.8620  0.8544 -1.3698
 1361SOL    HW215543   3.306   3.083   2.943 -1.7691 -0.0259  0.6106
 1362SOL     OW15544   4.163   1.219  10.495  0.4184 -0.1968 -0.0015
 1362SOL    HW115545   4.221   1.280  10.542 -0.0206  0.1229  0.1278
 1362SOL    HW215546   4.225   1.200  10.425  1.3915  1.0987  0.5098
 1363SOL     OW15547   2.985   3.290   2.785  0.2308 -0.1294  0.3346
 1363SOL    HW115548   2.913   3.267   2.727  1.1183  0.7502 -1.1177
 1363SOL    HW215549   2.988   3.206   2.830 -3.4050  0.2210  1.2676
 1364SOL     OW15550   4.010   0.576   4.717  0.7624  0.2739  0.5517
 1364SOL    HW115551   4.011   0.495   4.767  2.1655 -0.9527 -1.4572
 1364SOL    HW215552   3.961   0.541   4.642 -1.1423  0.6978  1.5927
 1365SOL     OW15553   4.708   2.917  10.415 -0.1490  0.9606  0.7027
 1365SOL    HW115554   0.052   2.968  10.459  2.2683 -3.0043  1.5107
 1365SOL    HW215555   0.015   2.884  10.331  1.5188 -0.8441  2.0298
 1366SOL     OW15556   2.697   4.614  17.462 -0.2461  0.1396 -0.5489
 1366SOL    HW115557   2.703   4.585  17.553 -1.1242  3.8529  0.7023
 1366SOL    HW215558   2.604   4.606  17.442  0.1027  0.7241 -2.4319
 1367SOL     OW15559   4.230   4.569   2.686  0.3308  0.3223 -0.2933
 1367SOL    HW115560   4.222   4.662   2.710  1.0054  0.7263 -1.6628
 1367SOL    HW215561   4.165   4.535   2.747 -0.9976  3.2417 -0.0741
 1368SOL     OW15562   1.705   1.762   4.407 -0.6134 -0.3007  0.1157
 1368SOL    HW115563   1.718   1.850   4.441  0.9854  0.7616 -3.2158
 1368SOL    HW215564   1.793   1.734   4.379 -1.1326 -2.8108  0.9308
 1369SOL     OW15565   1.552   3.291   4.744 -0.7240 -0.0535 -0.4088
 1369SOL    HW115566   1.493   3.277   4.818  0.5158 -1.1444  0.3613
 1369SOL    HW215567   1.510   3.369   4.706  0.7672  0.5809 -0.7375
 1370SOL     OW15568   0.396   0.133   5.002 -0.0769 -0.4525 -0.5874
 1370SOL    HW115569   0.481   0.090   5.009  1.9774  3.5234 -1.2133
 1370SOL    HW215570   0.375   0.096   4.916 -1.1877 -0.7503 -0.1963
 1371SOL     OW15571   4.256   3.014  14.009 -0.4275 -0.1263  0.0428
 1371SOL    HW115572   4.245   2.960  13.931  1.0952 -1.4239  0.7503
 1371SOL    HW215573   4.312   3.082  13.972 -0.9296  0.1684 -0.1923
 1372SOL     OW15574   0.458   4.655  15.551 -0.0132 -0.2676  0.0979
 1372SOL    HW115575   0.374   4.608  15.549 -0.9761  1.4686 -0.2517
 1372SOL    HW215576   0.447   4.688  15.640  0.2324  3.0432 -1.1013
 1373SOL     OW15577   3.390   2.662  16.073  0.6019  0.5319 -0.8409
 1373SOL    HW115578   3.295   2.659  16.089  0.2772  1.8020 -2.5234
 1373SOL    HW215579   3.405   2.580  16.026  0.0724 -0.3789  0.5643
 1374SOL     OW15580   1.031   4.247   8.545  0.8645 -0.9713  0.3045
 1374SOL    HW115581   1.098   4.224   8.480  1.0622  0.0215  0.1504
 1374SOL    HW215582   0.953   4.228   8.492  0.9709 -0.8900  0.1147
 1375SOL     OW15583   3.957   0.989   6.743  0.5520  0.8479 -0.0081
 1375SOL    HW115584   3.941   1.022   6.832 -0.6052 -0.2933  0.2146
 1375SOL    HW215585   4.009   1.059   6.704  1.2867  2.2576  3.4467
 1376SOL     OW15586   4.444   2.402   2.514 -0.4473  0.0527 -0.0474
 1376SOL    HW115587   4.403   2.395   2.600  0.4387  1.3788  0.4841
 1376SOL    HW215588   4.372   2.455   2.477 -1.7952 -1.0327  1.0362
 1377SOL     OW15589   3.298   0.900   6.797 -0.2840 -0.3913  0.1641
 1377SOL    HW115590   3.236   0.843   6.842 -1.4312 -0.0372 -0.9522
 1377SOL    HW215591   3.345   0.838   6.741 -1.3933 -0.6982 -0.4350
 1378SOL     OW15592   1.592   3.162   1.975 -0.3733  0.6410 -0.2636
 1378SOL    HW115593   1.573   3.125   1.889 -2.5688 -0.5276  0.7301
 1378SOL    HW215594   1.688   3.158   1.971 -0.2001 -0.4387  4.2543
 1379SOL     OW15595   0.213   2.540   3.027 -0.1375 -0.5161 -0.2671
 1379SOL    HW115596   0.242   2.450   3.009  1.2705 -0.3031  0.9556
 1379SOL    HW215597   0.121   2.530   3.051  0.1627 -0.6762  0.8125
 1380SOL     OW15598   0.439   3.347  16.729 -0.7382  0.3888 -0.1162
 1380SOL    HW115599   0.414   3.402  16.655 -2.3362  3.1417  2.4961
 1380SOL    HW215600   0.358   3.332  16.777 -1.2865  0.1340 -1.1058
 1381SOL     OW15601   1.562   0.869   1.634 -0.0787  0.2358 -0.0021
 1381SOL    HW115602   1.543   0.832   1.548 -2.0738  0.1671  0.4715
 1381SOL    HW215603   1.596   0.792   1.678  1.3477  0.2582 -1.0584
 1382SOL     OW15604   4.209   0.134   7.871  0.4191  0.3738 -0.0958
 1382SOL    HW115605   4.142   0.120   7.939  0.8436  0.8586  0.4164
 1382SOL    HW215606   4.164   0.151   7.788  1.5282 -0.3415 -0.8318
 1383SOL     OW15607   2.453   0.885   4.334  0.2391  0.7808 -0.1581
 1383SOL    HW115608   2.364   0.905   4.304  1.0382  0.1483 -2.8692
 1383SOL    HW215609   2.440   0.914   4.425 -1.5045  2.9410 -1.0994
 1384SOL     OW15610   2.816   0.500   8.984 -0.1068  0.1677  0.1201
 1384SOL    HW115611   2.871   0.423   8.997 -1.1750 -0.5248  0.5069
 1384SOL    HW215612   2.781   0.517   9.072  2.2733  0.6062  0.9743
 1385SOL     OW15613   3.562   4.135   6.330 -0.4118  0.5096  0.3941
 1385SOL    HW115614   3.491   4.178   6.378 -1.4076  0.1121 -0.7104
 1385SOL    HW215615   3.567   4.197   6.257 -0.3704  0.3105  0.2262
 1386SOL     OW15616   3.358   2.688  16.399  0.0791  0.0241 -0.0861
 1386SOL    HW115617   3.402   2.744  16.335  0.7957  0.3237  0.6834
 1386SOL    HW215618   3.279   2.743  16.403 -1.2739 -1.9383  0.1710
 1387SOL     OW15619   3.838   3.961  17.089  0.7240  0.4200 -0.0915
 1387SOL    HW115620   3.753   3.990  17.122 -0.8208 -2.3637 -1.6152
 1387SOL    HW215621   3.884   3.939  17.170 -1.1127 -1.7363  0.3788
 1388SOL     OW15622   3.183   2.792   9.499 -0.0215 -0.2304  0.0172
 1388SOL    HW115623   3.177   2.748   9.415  1.0070  0.5096 -0.4523
 1388SOL    HW215624   3.163   2.715   9.551  0.7010 -0.0960  0.4959
 1389SOL     OW15625   2.022   2.281  13.134 -0.0374 -0.1506  0.2159
 1389SOL    HW115626   1.948   2.226  13.160  1.4381 -3.1173 -1.7704
 1389SOL    HW215627   2.027   2.266  13.039  0.4525 -1.3555  0.4275
 1390SOL     OW15628   2.486   4.552   2.469 -0.2894  0.2903 -0.3667
 1390SOL    HW115629   2.552   4.482   2.466 -0.8720 -0.3312  1.3798
 1390SOL    HW215630   2.464   4.572   2.378  0.4333 -1.1409 -0.8476
 1391SOL     OW15631   2.178   4.545  12.300 -0.3178 -0.5538  0.1392
 1391SOL    HW115632   2.179   4.631  12.258 -1.2206 -0.8811 -0.5589
 1391SOL    HW215633   2.272   4.528  12.297 -0.8778 -3.1265 -2.9038
 1392SOL     OW15634   3.356   4.511   5.634  0.3225  0.0522  0.0709
 1392SOL    HW115635   3.361   4.607   5.631  2.7733 -0.0190  1.5689
 1392SOL    HW215636   3.266   4.489   5.611 -0.0516  1.9787 -0.3810
 1393SOL     OW15637   4.264   4.172   9.867  0.2247 -0.1559  0.0482
 1393SOL    HW115638   4.254   4.100   9.804 -2.0186  0.4435 -0.2932
 1393SOL    HW215639   4.315   4.134   9.938  0.3583  0.7706  0.4343
 1394SOL     OW15640   2.998   0.235   3.523 -0.8605 -0.0967  0.6732
 1394SOL    HW115641   2.968   0.277   3.442 -0.9484 -0.0852  0.7122
 1394SOL    HW215642   3.069   0.181   3.488 -1.1621 -0.7309  1.0480
 1395SOL     OW15643   3.747   1.279   9.921  0.6675 -0.2671 -0.0093
 1395SOL    HW115644   3.824   1.231   9.890  0.9578  0.1070  0.1413
 1395SOL    HW215645   3.688   1.216   9.963  0.5942 -0.1260  0.1009
 1396SOL     OW15646   4.339   4.542  15.248  0.0204  0.1480  0.0959
 1396SOL    HW115647   4.283   4.611  15.212  1.4645  0.1342 -2.1033
 1396SOL    HW215648   4.401   4.595  15.298 -0.4959 -1.2834  2.2835
 1397SOL     OW15649   4.107   1.429   2.507 -0.1406  0.3064  0.6362
 1397SOL    HW115650   4.174   1.466   2.565 -2.7767  1.9006  2.6159
 1397SOL    HW215651   4.128   1.338   2.526  1.2689  0.4863 -0.0476
 1398SOL     OW15652   3.325   1.811   0.687 -0.2650  0.0070  0.2033
 1398SOL    HW115653   3.287   1.871   0.622  1.3078  0.6582 -0.1327
 1398SOL    HW215654   3.408   1.859   0.694  0.0224 -0.2032 -1.8696
 1399SOL     OW15655   2.006   0.707  11.939  0.1108  0.4879 -0.3201
 1399SOL    HW115656   1.987   0.708  12.033 -0.1580 -1.7650 -0.3388
 1399SOL    HW215657   2.026   0.613  11.933  1.7575  0.9290 -1.6546
 1400SOL     OW15658   2.534   2.235  10.749 -0.2831 -0.1366  0.3553
 1400SOL    HW115659   2.441   2.215  10.756  0.0808 -1.1153  2.3660
 1400SOL    HW215660   2.528   2.327  10.773 -2.1548 -0.8472  2.6344
 1401SOL     OW15661   1.844   1.334   0.261 -0.3942  0.0172 -0.3429
 1401SOL    HW115662   1.934   1.324   0.231 -0.4200  2.0110 -1.0779
 1401SOL    HW215663   1.834   1.429   0.268 -1.7861  0.2417 -6.0851
 1402SOL     OW15664   1.990   4.488   3.501  0.0554 -0.6719  0.5996
 1402SOL    HW115665   2.048   4.521   3.570 -0.3638  1.2247  0.0508
 1402SOL    HW215666   2.009   4.557   3.437 -0.8351 -1.5562 -0.6371
 1403SOL     OW15667   3.995   0.154  11.111  0.1623 -0.2461  0.1868
 1403SOL    HW115668   4.072   0.106  11.140  0.9842  0.5066 -0.7477
 1403SOL    HW215669   3.942   0.081  11.078 -0.4870 -0.1885  1.1125
 1404SOL     OW15670   0.252   2.889   7.889  0.5502 -0.6724  1.3264
 1404SOL    HW115671   0.193   2.824   7.849 -1.3043  1.5260  0.5106
 1404SOL    HW215672   0.232   2.972   7.846 -1.8570 -0.8439  2.1435
 1405SOL     OW15673   1.038   4.139   7.661  0.2656 -0.4671 -0.6955
 1405SOL    HW115674   1.015   4.231   7.667  0.4404 -0.6023  2.1295
 1405SOL    HW215675   1.079   4.128   7.747  2.8336 -0.6039 -1.9254
 1406SOL     OW15676   3.101   4.658  17.101  0.5734  0.1104 -0.1658
 1406SOL    HW115677   3.079   0.025  17.083  1.6205  0.3542 -0.1918
 1406SOL    HW215678   3.020   4.627  17.140  0.9848  1.9351  2.0866
 1407SOL     OW15679   2.311   3.217   4.317 -0.1353  0.3828 -0.6487
 1407SOL    HW115680   2.261   3.237   4.237  2.1116  0.0288 -2.1300
 1407SOL    HW215681   2.379   3.284   4.307  1.5708 -1.0370  1.3805
 1408SOL     OW15682   4.077   3.932  11.391 -0.1433 -0.2743  0.9018
 1408SOL    HW115683   4.139   3.874  11.435  1.9599  0.8492 -0.5998
 1408SOL    HW215684   3.997   3.900  11.432 -1.0418  1.3664  0.4300
 1409SOL     OW15685   3.511   2.598   2.022 -0.0019  0.6070 -0.1618
 1409SOL    HW115686   3.458   2.525   1.991  3.1074 -1.0442 -1.6021
 1409SOL    HW215687   3.489   2.660   1.952  0.2964  3.4773  2.2901
 1410SOL     OW15688   3.831   1.727   3.561 -0.1082 -0.1672  0.1137
 1410SOL    HW115689   3.921   1.738   3.529  0.6236  1.3039  2.6744
 1410SOL    HW215690   3.807   1.820   3.562 -2.2889 -0.7358 -0.7976
 1411SOL     OW15691   0.669   2.235   9.216 -0.0228 -0.0207  0.2641
 1411SOL    HW115692   0.695   2.170   9.151  2.1891  2.1267 -1.0240
 1411SOL    HW215693   0.687   2.316   9.169 -1.5599 -0.5993 -1.3154
 1412SOL     OW15694   4.064   0.733   6.109 -0.0243  0.6768 -0.5824
 1412SOL    HW115695   4.151   0.744   6.147  0.1932 -0.1476 -0.8423
 1412SOL    HW215696   4.024   0.668   6.167  1.4452  2.0016  1.9157
 1413SOL     OW15697   1.971   4.034  11.755 -0.0917  0.2089 -0.9707
 1413SOL    HW115698   2.015   4.108  11.797  0.9822 -0.7774 -0.3643
 1413SOL    HW215699   1.995   4.058  11.665 -0.9211  2.3458 -0.6238
 1414SOL     OW15700   3.153   3.470  16.925 -0.5922  0.3427 -0.4530
 1414SOL    HW115701   3.226   3.507  16.876  0.0527 -1.8130 -1.0895
 1414SOL    HW215702   3.173   3.378  16.907 -1.6583 -0.3115  1.7028
 1415SOL     OW15703   2.546   1.957   5.849  0.3806  0.5130  0.0093
 1415SOL    HW115704   2.597   1.996   5.920 -0.2554  0.9623  0.2129
 1415SOL    HW215705   2.606   1.968   5.775  1.4281  1.4399  1.0006
 1416SOL     OW15706   4.238   1.521  12.143 -0.1857  0.0649 -0.4532
 1416SOL    HW115707   4.294   1.457  12.099  0.8937  0.0121  0.9718
 1416SOL    HW215708   4.289   1.531  12.224 -0.5350 -0.7887 -0.1239
 1417SOL     OW15709   3.727   0.087   4.935 -0.1264  0.6187 -0.1284
 1417SOL    HW115710   3.764   0.142   5.004  0.1779  1.1198 -0.7010
 1417SOL    HW215711   3.642   0.067   4.976 -1.1428  0.6733 -2.2224
 1418SOL     OW15712   2.494   0.158   3.249  0.1342  0.5178 -0.5153
 1418SOL    HW115713   2.513   0.161   3.155  1.3866  0.2237 -0.2658
 1418SOL    HW215714   2.429   0.088   3.240  1.0280 -0.1907 -1.5220
 1419SOL     OW15715   2.493   1.794   7.153 -0.2612 -0.1165  0.6114
 1419SOL    HW115716   2.472   1.881   7.187  2.3756  0.9314 -0.4453
 1419SOL    HW215717   2.420   1.789   7.090 -0.2024  1.8485  0.3888
 1420SOL     OW15718   4.160   0.755  14.181  0.7521 -0.6124 -0.5571
 1420SOL    HW115719   4.153   0.782  14.272 -0.0239  0.7613 -1.0164
 1420SOL    HW215720   4.247   0.791  14.165  0.6884 -1.1366 -2.1467
 1421SOL     OW15721   3.072   3.854   9.461  0.1189 -0.0892  0.0642
 1421SOL    HW115722   2.986   3.887   9.435 -0.2862 -2.6783 -1.9068
 1421SOL    HW215723   3.082   3.914   9.535  3.3440  0.2751 -0.6800
 1422SOL     OW15724   2.614   2.549  11.479 -0.6709 -0.7482 -0.3351
 1422SOL    HW115725   2.545   2.579  11.419 -0.5255 -1.3343 -0.7955
 1422SOL    HW215726   2.607   2.623  11.539  0.5831 -0.9721  0.0738
 1423SOL     OW15727   3.218   3.511  13.278  0.5578  0.0419 -0.5032
 1423SOL    HW115728   3.300   3.512  13.229  1.4808 -0.1446  1.0273
 1423SOL    HW215729   3.191   3.419  13.271  0.6254 -0.0104 -0.0862
 1424SOL     OW15730   0.761   2.755   8.135  0.2075 -0.3651 -0.1426
 1424SOL    HW115731   0.765   2.741   8.041 -0.6543  0.4736 -0.3047
 1424SOL    HW215732   0.785   2.848   8.138 -1.9444  0.2591 -2.5372
 1425SOL     OW15733   3.312   4.453  11.921  0.3511  0.0962 -0.4262
 1425SOL    HW115734   3.280   4.363  11.926  1.1706 -0.1081  1.2690
 1425SOL    HW215735   3.355   4.450  11.836 -0.3584 -2.8817 -0.6540
 1426SOL     OW15736   4.684   3.331   7.352  0.2532 -0.2454  0.7627
 1426SOL    HW115737   4.685   3.316   7.258 -0.7296  2.6200  0.3078
 1426SOL    HW215738   4.622   3.264   7.381 -1.5659  0.7126 -0.9441
 1427SOL     OW15739   0.286   3.767   6.026  0.0042 -0.3875  0.0132
 1427SOL    HW115740   0.284   3.705   6.098 -0.6612  1.5835  1.6858
 1427SOL    HW215741   0.381   3.782   6.027 -0.2577  1.0701  1.5324
 1428SOL     OW15742   2.071   4.180   6.275  0.1850 -0.0185  0.1918
 1428SOL    HW115743   2.081   4.130   6.194 -0.6655 -0.2694  0.2449
 1428SOL    HW215744   2.108   4.265   6.251  0.8214 -0.1242  0.8141
 1429SOL     OW15745   3.473   2.969   4.170  0.1364  0.1883 -0.3160
 1429SOL    HW115746   3.479   3.054   4.214  2.4065  0.8563 -1.9057
 1429SOL    HW215747   3.549   2.917   4.195 -0.9944 -0.9137  0.7936
 1430SOL     OW15748   0.586   2.421  13.734  0.2116  0.0842  0.1305
 1430SOL    HW115749   0.627   2.486  13.678 -0.4431 -0.1345 -0.5977
 1430SOL    HW215750   0.518   2.468  13.781 -0.5071 -1.4277  0.6187
 1431SOL     OW15751   1.087   3.624   2.427 -0.4327  0.0414  0.5684
 1431SOL    HW115752   1.125   3.697   2.475  0.0107  0.7632 -0.8926
 1431SOL    HW215753   0.997   3.658   2.430 -0.7288 -0.5603 -1.7358
 1432SOL     OW15754   2.118   4.291  13.046 -0.2131 -0.0907  0.0256
 1432SOL    HW115755   2.168   4.301  12.965 -0.8137 -1.3837 -0.4976
 1432SOL    HW215756   2.067   4.215  13.021 -0.8191  0.2265  0.3005
 1433SOL     OW15757   2.479   3.622   6.885 -0.3747  0.2806 -0.0136
 1433SOL    HW115758   2.483   3.536   6.926  0.2853  1.9703  3.4568
 1433SOL    HW215759   2.458   3.595   6.796  1.8562  0.4699 -0.6219
 1434SOL     OW15760   0.804   2.226  13.845  0.8981  0.2012 -0.1156
 1434SOL    HW115761   0.857   2.271  13.911  2.3189 -3.1341  1.0555
 1434SOL    HW215762   0.739   2.293  13.823  1.8595  1.1107 -0.1995
 1435SOL     OW15763   2.714   4.585   7.034 -0.9771  0.3608 -0.0686
 1435SOL    HW115764   2.674   4.642   6.969  1.2785  2.1532  0.0823
 1435SOL    HW215765   2.735   4.657   7.094  3.4240 -0.0865 -1.0689
 1436SOL     OW15766   1.745   3.740   6.033 -0.2242  0.1062 -0.5496
 1436SOL    HW115767   1.818   3.775   6.084 -2.5542  1.8089  1.5543
 1436SOL    HW215768   1.725   3.821   5.986  0.8225  1.1377  0.7671
 1437SOL     OW15769   4.021   1.658   2.389  0.0476  0.1019 -0.8679
 1437SOL    HW115770   4.059   1.580   2.428 -3.5009 -2.2995 -2.1810
 1437SOL    HW215771   3.938   1.624   2.356  0.0043  0.9962 -1.7105
 1438SOL     OW15772   2.209   2.099   8.870  0.4181 -0.0625 -0.2898
 1438SOL    HW115773   2.278   2.106   8.937 -2.2528 -1.9645  2.6592
 1438SOL    HW215774   2.137   2.068   8.924  0.6891 -0.1190  0.0448
 1439SOL     OW15775   1.955   4.716  10.082  0.1155 -0.0493  0.9830
 1439SOL    HW115776   1.957   4.638  10.139  0.3174 -1.5416 -1.0551
 1439SOL    HW215777   2.028   0.048  10.107  0.8880 -0.2132 -0.9452
 1440SOL     OW15778   4.227   2.796   5.901 -0.0966 -0.2492  0.0000
 1440SOL    HW115779   4.251   2.714   5.945  0.3668 -1.3064 -2.2086
 1440SOL    HW215780   4.190   2.754   5.824  1.6112  0.6778 -1.3171
 1441SOL     OW15781   1.681   4.432   6.957 -0.1067 -0.8061  0.6284
 1441SOL    HW115782   1.707   4.489   7.030 -0.7107  0.6932 -0.3146
 1441SOL    HW215783   1.587   4.444   6.944 -0.0505  0.0698  1.0647
 1442SOL     OW15784   0.705   1.182   5.808 -0.0963  0.7171  0.2247
 1442SOL    HW115785   0.682   1.259   5.756  1.1244  1.5334  0.9017
 1442SOL    HW215786   0.640   1.200   5.876 -0.0907  1.2129  0.0992
 1443SOL     OW15787   3.447   4.074   0.299  0.4402 -0.0824 -0.3297
 1443SOL    HW115788   3.367   4.048   0.345 -0.6196 -0.9167 -2.6638
 1443SOL    HW215789   3.515   4.029   0.350  0.4036  1.6856  1.2838
 1444SOL     OW15790   0.424   3.228  17.041  0.0587 -0.3052 -0.0244
 1444SOL    HW115791   0.329   3.238  17.045  0.0273  0.0833 -1.7774
 1444SOL    HW215792   0.455   3.307  16.997  0.5606 -0.0742  0.7373
 1445SOL     OW15793   0.819   3.700   5.204  0.0732 -0.1401  0.2590
 1445SOL    HW115794   0.737   3.750   5.198 -0.6062 -1.8222 -4.0659
 1445SOL    HW215795   0.864   3.738   5.129 -0.0115 -0.5823 -0.0148
 1446SOL     OW15796   4.625   0.750  16.427 -0.1912 -0.4134 -0.1876
 1446SOL    HW115797   4.542   0.781  16.392 -1.2189 -1.6722  1.1452
 1446SOL    HW215798   4.646   0.687  16.358  0.7691  1.2351 -1.4117
 1447SOL     OW15799   4.029   1.123   5.262 -0.1858  0.2589 -0.1385
 1447SOL    HW115800   4.100   1.059   5.260  1.2175  1.8259  0.4994
 1447SOL    HW215801   3.965   1.060   5.227 -0.3008  1.0968 -1.4557
 1448SOL     OW15802   4.400   2.674  17.064  0.1246 -0.0388 -0.5658
 1448SOL    HW115803   4.487   2.637  17.047  0.5211  0.9167 -0.6237
 1448SOL    HW215804   4.346   2.599  17.090 -0.7926  0.9774  0.4118
 1449SOL     OW15805   3.413   3.238  16.315 -0.3057 -0.3857  0.0667
 1449SOL    HW115806   3.325   3.214  16.286  0.0702  0.6153 -1.9637
 1449SOL    HW215807   3.400   3.232  16.409 -0.3751 -1.0796  0.0100
 1450SOL     OW15808   0.737   4.173   8.209 -0.0642 -0.6366 -0.2033
 1450SOL    HW115809   0.739   4.225   8.290 -0.4209  2.2324 -2.0526
 1450SOL    HW215810   0.770   4.229   8.139  0.7095 -1.2021 -0.2857
 1451SOL     OW15811   1.078   3.741   9.944 -0.4169  0.7589  0.1969
 1451SOL    HW115812   1.160   3.784   9.966  3.2172 -6.3689  0.5351
 1451SOL    HW215813   1.071   3.682  10.018 -1.6725 -0.5030 -0.9307
 1452SOL     OW15814   1.756   2.170   3.137  0.4846 -0.4673  0.1100
 1452SOL    HW115815   1.721   2.146   3.051 -1.5194  2.1996  0.1981
 1452SOL    HW215816   1.694   2.235   3.170  1.2176 -1.0153  2.5802
 1453SOL     OW15817   4.587   3.681   8.981 -0.8542  0.2200 -0.1338
 1453SOL    HW115818   4.517   3.622   9.010  0.1342 -0.8599  0.0571
 1453SOL    HW215819   4.611   3.636   8.900  2.7716 -1.4023  1.8399
 1454SOL     OW15820   2.931   3.230  12.945  0.3525 -0.3753 -0.1727
 1454SOL    HW115821   3.022   3.252  12.927  0.3977  0.1620  0.6847
 1454SOL    HW215822   2.936   3.144  12.902 -0.3121 -0.5808  0.1607
 1455SOL     OW15823   2.734   1.406  16.197 -0.3671  0.4153  0.5015
 1455SOL    HW115824   2.789   1.392  16.120 -1.3271  2.6057 -0.5850
 1455SOL    HW215825   2.745   1.500  16.210 -0.4917  0.4291  0.5099
 1456SOL     OW15826   3.305   3.354   4.001  0.3871 -0.2344 -0.5820
 1456SOL    HW115827   3.214   3.362   3.974  0.1118 -0.9179  0.1506
 1456SOL    HW215828   3.327   3.265   3.973 -2.8725 -0.7887 -1.3131
 1457SOL     OW15829   1.712   0.320   2.965  0.0781  0.0849  0.0071
 1457SOL    HW115830   1.690   0.255   3.032 -0.6650  0.5381  0.2014
 1457SOL    HW215831   1.623   0.347   2.943  0.7857  2.0639 -0.3991
 1458SOL     OW15832   4.580   2.748   6.598  0.4315  0.4783 -0.4589
 1458SOL    HW115833   4.586   2.843   6.608 -0.5682  0.4595  0.3746
 1458SOL    HW215834   4.547   2.738   6.509 -0.6519 -2.3923  0.2538
 1459SOL     OW15835   4.116   0.812   5.816 -0.2574 -0.5336 -0.5171
 1459SOL    HW115836   4.199   0.846   5.848 -0.8959  0.1495  0.3924
 1459SOL    HW215837   4.091   0.772   5.899 -1.1762 -0.3467 -0.7022
 1460SOL     OW15838   3.254   0.751   1.801  0.0405  0.2254 -0.8563
 1460SOL    HW115839   3.264   0.767   1.895 -0.8191 -1.5464 -0.4617
 1460SOL    HW215840   3.336   0.778   1.760 -0.4082  0.4063 -1.6308
 1461SOL     OW15841   3.992   1.700   9.955  0.2988 -0.2579 -0.0513
 1461SOL    HW115842   3.928   1.661   9.895  0.2426  0.8444 -0.7063
 1461SOL    HW215843   4.071   1.657   9.923  0.8939  1.2386 -0.6345
 1462SOL     OW15844   1.107   4.658   3.479  0.3554 -0.2245 -0.4180
 1462SOL    HW115845   1.037   4.626   3.537 -0.3619  0.7553 -0.7309
 1462SOL    HW215846   1.177   4.653   3.544  0.0298 -2.3754 -0.2562
 1463SOL     OW15847   3.448   2.591   6.195  0.0196 -0.4776  0.7097
 1463SOL    HW115848   3.419   2.601   6.286  1.0094 -1.1408  1.1011
 1463SOL    HW215849   3.365   2.609   6.150  0.7119 -0.8645 -0.7118
 1464SOL     OW15850   4.422   1.701   1.929  0.9986 -0.3179 -0.5190
 1464SOL    HW115851   4.425   1.605   1.926 -0.6204 -0.4191  1.1848
 1464SOL    HW215852   4.510   1.738   1.933 -1.5224  5.5177  1.4231
 1465SOL     OW15853   4.182   2.353   1.808  0.0908 -0.5655  0.2996
 1465SOL    HW115854   4.229   2.384   1.886 -0.7314 -1.0569  0.9946
 1465SOL    HW215855   4.264   2.315   1.776  0.6766  0.9011  0.0903
 1466SOL     OW15856   3.106   1.426   0.626  0.3245 -0.4131  0.4599
 1466SOL    HW115857   3.197   1.417   0.597  0.6923  1.2350  1.1346
 1466SOL    HW215858   3.057   1.383   0.555  1.2053  2.2166 -1.7004
 1467SOL     OW15859   1.468   1.889   2.709  0.0588 -0.4332 -0.0615
 1467SOL    HW115860   1.534   1.819   2.701 -0.1754 -0.9070  2.1502
 1467SOL    HW215861   1.390   1.833   2.712 -0.4720  0.2557 -1.2264
 1468SOL     OW15862   2.980   0.191  16.178  0.4146 -0.1729  0.1488
 1468SOL    HW115863   2.983   0.259  16.244  0.7614 -0.6540  0.6323
 1468SOL    HW215864   3.034   0.228  16.108 -1.2094  0.7063 -0.6180
 1469SOL     OW15865   0.546   1.521   7.379  0.8877  0.0129 -0.1346
 1469SOL    HW115866   0.483   1.497   7.311 -0.2163  1.7300  0.2639
 1469SOL    HW215867   0.624   1.511   7.325 -0.8515 -2.8807 -2.1339
 1470SOL     OW15868   1.366   4.320  13.224  0.7521  0.1137 -0.4113
 1470SOL    HW115869   1.375   4.334  13.130 -2.8183  0.2013 -0.7191
 1470SOL    HW215870   1.417   4.239  13.221  1.4926  0.6343 -1.8783
 1471SOL     OW15871   3.122   0.636   6.357  0.0060  0.2434 -0.2379
 1471SOL    HW115872   3.187   0.595   6.300  1.7727 -1.5668  3.1240
 1471SOL    HW215873   3.129   0.581   6.435  3.8813 -0.3426 -1.0161
 1472SOL     OW15874   2.430   1.390   5.644 -0.7218  0.0407  0.4195
 1472SOL    HW115875   2.461   1.481   5.645  0.2698 -0.2769 -2.3975
 1472SOL    HW215876   2.385   1.396   5.728 -2.2536  3.3442 -0.6410
 1473SOL     OW15877   4.330   2.069   3.708 -0.3648 -0.0496  0.1551
 1473SOL    HW115878   4.266   2.136   3.735  2.8480  2.4059  1.6463
 1473SOL    HW215879   4.356   2.105   3.623  0.4999 -0.8192  0.0966
 1474SOL     OW15880   0.259   0.397  11.994  0.1356  0.0411  0.5674
 1474SOL    HW115881   0.287   0.488  11.986 -0.8163  0.2176 -0.7497
 1474SOL    HW215882   0.294   0.379  12.081 -1.2910 -2.6985  0.5497
 1475SOL     OW15883   3.818   2.753   2.051 -0.2639  0.1035  0.3432
 1475SOL    HW115884   3.754   2.689   2.020  0.7677 -1.9630  2.4647
 1475SOL    HW215885   3.776   2.788   2.129 -1.6912 -0.2841 -0.2458
 1476SOL     OW15886   3.899   1.424   3.320 -0.1221  1.1397 -0.2149
 1476SOL    HW115887   3.850   1.405   3.241 -0.1895  0.3375  0.0188
 1476SOL    HW215888   3.956   1.347   3.325  0.1241  1.3258 -0.1746
 1477SOL     OW15889   0.043   1.016   4.354  0.6111 -0.3723  0.3473
 1477SOL    HW115890   0.003   1.046   4.273 -2.0480  1.0228  2.1643
 1477SOL    HW215891   0.083   0.931   4.334  0.0644 -0.3955 -0.6116
 1478SOL     OW15892   1.385   0.873   3.007 -0.6921  1.1854  0.2034
 1478SOL    HW115893   1.445   0.852   2.935 -0.8804  1.7068 -0.1070
 1478SOL    HW215894   1.440   0.944   3.043 -1.4558  1.7251  0.3083
 1479SOL     OW15895   3.341   0.102   4.744 -0.0383 -0.3095 -0.0680
 1479SOL    HW115896   3.422   0.068   4.706  0.6231  1.7886 -0.5495
 1479SOL    HW215897   3.375   0.188   4.768 -1.6821  0.6142 -1.0006
 1480SOL     OW15898   0.551   1.764   2.035 -0.6682 -0.0421 -0.5916
 1480SOL    HW115899   0.545   1.809   2.119  3.0640  0.2889 -0.4940
 1480SOL    HW215900   0.639   1.726   2.046 -0.6234  0.6459  1.5075
 1481SOL     OW15901   1.430   3.103  16.352  0.2901  0.2705  0.3011
 1481SOL    HW115902   1.486   3.116  16.428 -0.7863 -0.0656  1.1558
 1481SOL    HW215903   1.437   3.008  16.352  2.6256  0.4359 -0.8258
 1482SOL     OW15904   1.657   2.254  14.385 -0.1476 -0.1611 -0.5886
 1482SOL    HW115905   1.662   2.251  14.480  0.6872 -0.5875 -0.6441
 1482SOL    HW215906   1.678   2.346  14.372  1.0678  0.2256  4.0573
 1483SOL     OW15907   0.912   2.093   0.458  0.2298  0.3676  0.4048
 1483SOL    HW115908   0.978   2.031   0.488 -0.8823 -0.8709  0.3249
 1483SOL    HW215909   0.834   2.079   0.512  0.6618 -0.7495  0.7385
 1484SOL     OW15910   1.533   0.133   3.579  0.2018  0.0507 -0.1158
 1484SOL    HW115911   1.597   0.203   3.589  1.8595 -1.5088  0.1785
 1484SOL    HW215912   1.571   0.071   3.641  0.5906 -0.2390 -0.6472
 1485SOL     OW15913   2.881   1.989   5.278  0.0637  0.1889  0.5894
 1485SOL    HW115914   2.927   2.057   5.328 -1.4341  0.0843  2.1111
 1485SOL    HW215915   2.923   2.000   5.193  2.0457 -1.6093  1.3345
 1486SOL     OW15916   0.857   2.620   0.818 -0.5558 -0.3719 -0.8272
 1486SOL    HW115917   0.845   2.638   0.911  0.7269 -0.8453 -0.5705
 1486SOL    HW215918   0.784   2.558   0.809 -0.6503 -0.7408  2.7236
 1487SOL     OW15919   3.254   0.395   9.091 -0.6673 -0.3036  0.5817
 1487SOL    HW115920   3.183   0.344   9.051  0.7028 -0.7369 -1.3331
 1487SOL    HW215921   3.264   0.465   9.027  1.8794 -1.3259 -0.1498
 1488SOL     OW15922   4.306   4.092  16.962 -0.3534  0.3268 -0.1729
 1488SOL    HW115923   4.212   4.108  16.968 -0.5500 -1.2085  1.0235
 1488SOL    HW215924   4.343   4.148  17.030 -0.0022 -1.9331  1.4916
 1489SOL     OW15925   1.551   0.693  15.744  0.1273 -0.2202  0.0604
 1489SOL    HW115926   1.641   0.727  15.744 -0.2674  0.8111 -0.8480
 1489SOL    HW215927   1.515   0.747  15.815 -0.4798 -1.5461  0.7594
 1490SOL     OW15928   3.546   2.590   3.145  0.0922 -0.1859 -0.3185
 1490SOL    HW115929   3.508   2.502   3.142 -1.1969  0.2155  3.1366
 1490SOL    HW215930   3.469   2.647   3.135 -1.1548 -1.8678 -0.4176
 1491SOL     OW15931   1.746   1.582   5.728  0.2888 -0.3411  0.1215
 1491SOL    HW115932   1.686   1.554   5.660 -2.0651  1.2989  1.5297
 1491SOL    HW215933   1.807   1.509   5.740 -0.7543 -1.4150 -1.1317
 1492SOL     OW15934   3.320   2.786   3.937  0.3007 -0.4938  0.8500
 1492SOL    HW115935   3.388   2.778   3.870 -0.8111 -0.1521 -0.3075
 1492SOL    HW215936   3.250   2.814   3.879  0.3985 -1.9696  0.0169
 1493SOL     OW15937   3.081   0.806   9.599  0.1922  0.0145 -0.0419
 1493SOL    HW115938   2.993   0.826   9.629 -0.0708  1.4747 -1.8104
 1493SOL    HW215939   3.120   0.888   9.629  1.3091 -0.2329 -0.8007
 1494SOL     OW15940   0.953   2.301   7.668  0.1478 -0.5549  0.6510
 1494SOL    HW115941   0.925   2.210   7.677  0.0834 -0.6627 -0.6848
 1494SOL    HW215942   0.869   2.343   7.686 -1.0729 -3.8238  2.6246
 1495SOL     OW15943   3.419   0.796   7.580 -0.2520 -0.1465  0.2403
 1495SOL    HW115944   3.474   0.789   7.658 -1.8744 -0.1016  1.4012
 1495SOL    HW215945   3.347   0.736   7.596 -1.8319  1.6372 -0.0935
 1496SOL     OW15946   1.890   0.012  14.658 -0.0660 -0.2147 -0.1226
 1496SOL    HW115947   1.853   4.707  14.574  0.3439  0.9689 -0.7202
 1496SOL    HW215948   1.837   4.688  14.721  0.7147 -1.5667 -0.4988
 1497SOL     OW15949   0.456   3.233   7.187  0.0760 -0.0614 -0.0587
 1497SOL    HW115950   0.387   3.297   7.166  1.3179  0.7117 -1.7748
 1497SOL    HW215951   0.416   3.148   7.167 -1.6067  1.2228 -2.2587
 1498SOL     OW15952   1.102   1.221   5.088  0.0792  0.1067  0.2698
 1498SOL    HW115953   1.043   1.196   5.017 -0.7475  0.2558  0.9104
 1498SOL    HW215954   1.174   1.163   5.062  0.0587 -0.5966  1.7999
 1499SOL     OW15955   1.265   1.627   5.300 -0.3213 -0.0257 -0.3971
 1499SOL    HW115956   1.284   1.558   5.237 -2.2204  0.9575 -2.0762
 1499SOL    HW215957   1.176   1.650   5.272 -0.3943  1.8980  1.4818
 1500SOL     OW15958   1.481   2.533   8.614  0.4576 -0.1723  0.0565
 1500SOL    HW115959   1.568   2.508   8.585  0.6687 -1.0876  1.4362
 1500SOL    HW215960   1.434   2.533   8.531 -0.7384 -1.4407  0.7233
 1501SOL     OW15961   2.184   1.389   2.413  0.0834 -0.3586 -0.0916
 1501SOL    HW115962   2.241   1.465   2.427  0.9134 -0.6798 -1.6249
 1501SOL    HW215963   2.246   1.332   2.367  0.6404 -1.2845  1.8264
 1502SOL     OW15964   3.446   2.316   4.183  0.3006 -0.0570 -0.3332
 1502SOL    HW115965   3.475   2.306   4.092  0.8027 -0.3007 -0.1498
 1502SOL    HW215966   3.410   2.230   4.201 -3.4350  1.2128 -1.7744
 1503SOL     OW15967   3.911   2.997   8.259 -0.3602 -0.7669  0.1824
 1503SOL    HW115968   3.987   2.993   8.317 -0.3640  1.4659  0.3419
 1503SOL    HW215969   3.894   3.090   8.267  0.0405 -0.6889  0.1471
 1504SOL     OW15970   1.424   3.914  12.497 -0.5205 -0.2146 -0.4612
 1504SOL    HW115971   1.447   3.930  12.405 -1.6246 -2.3013 -1.1076
 1504SOL    HW215972   1.504   3.951  12.533  0.0426 -1.8584 -0.0512
 1505SOL     OW15973   0.280   2.092   3.544 -0.0368 -0.5517  0.1887
 1505SOL    HW115974   0.223   2.165   3.567 -1.1282 -1.2659 -0.2727
 1505SOL    HW215975   0.243   2.022   3.597 -1.0146 -1.5001 -1.7745
 1506SOL     OW15976   3.520   2.747   1.440 -0.8678 -0.2757 -0.5422
 1506SOL    HW115977   3.581   2.781   1.506 -0.6540 -1.1049 -0.3054
 1506SOL    HW215978   3.553   2.660   1.418 -1.3694  0.0451 -2.5373
 1507SOL     OW15979   3.572   1.237  11.829  0.8610  0.0368 -0.0138
 1507SOL    HW115980   3.624   1.182  11.771 -0.3497  0.8457 -1.8650
 1507SOL    HW215981   3.489   1.241  11.780 -0.3022  0.9391  2.0314
 1508SOL     OW15982   3.753   1.442  12.357  0.5679  0.2028 -0.8468
 1508SOL    HW115983   3.741   1.370  12.295 -0.9613 -0.9134  0.7291
 1508SOL    HW215984   3.757   1.519  12.300 -2.2145 -0.2354 -1.6756
 1509SOL     OW15985   4.307   3.874  15.217 -0.1947  0.2588 -0.3042
 1509SOL    HW115986   4.321   3.792  15.169  0.5119 -0.4587  1.1340
 1509SOL    HW215987   4.283   3.835  15.301 -4.6747  2.9488 -0.3185
 1510SOL     OW15988   1.303   2.316   6.345  0.3546  0.4439 -0.0781
 1510SOL    HW115989   1.309   2.299   6.439  2.0451  1.2331 -0.0511
 1510SOL    HW215990   1.240   2.246   6.329 -1.1346  1.1977  2.4104
 1511SOL     OW15991   0.256   0.531   7.068  0.0959  0.2007  0.2722
 1511SOL    HW115992   0.297   0.515   7.153  0.7429 -2.1611 -0.4932
 1511SOL    HW215993   0.165   0.556   7.083 -0.0145 -0.4087  0.6214
 1512SOL     OW15994   1.241   3.322  10.940 -0.7744 -0.1993 -0.0079
 1512SOL    HW115995   1.224   3.244  10.993 -0.3965 -0.8916 -0.9224
 1512SOL    HW215996   1.311   3.282  10.889  1.3031 -0.6263  3.1572
 1513SOL     OW15997   1.024   3.029   1.305  0.3098  0.3103 -0.0079
 1513SOL    HW115998   0.987   3.110   1.338  0.1907  1.1765 -2.2751
 1513SOL    HW215999   0.963   2.960   1.332  0.5009  1.0755  2.4143
 1514SOL     OW16000   3.602   2.269  13.566 -0.1109  0.2430  0.1271
 1514SOL    HW116001   3.658   2.266  13.488 -0.5315  0.8662 -0.2060
 1514SOL    HW216002   3.517   2.246  13.530  0.0532 -0.1055 -0.0305
 1515SOL     OW16003   0.493   4.556   5.724  0.2320  0.1061  0.2075
 1515SOL    HW116004   0.414   4.607   5.738  0.1058  0.1672 -0.7430
 1515SOL    HW216005   0.464   4.471   5.757  0.6162  0.9761  2.7308
 1516SOL     OW16006   0.587   3.963   8.167 -0.5235  0.1444 -0.2672
 1516SOL    HW116007   0.653   4.032   8.171  1.0987 -1.3838 -0.4865
 1516SOL    HW216008   0.555   3.972   8.077 -1.9848 -0.9724  0.1455
 1517SOL     OW16009   0.377   3.968   2.967 -0.1651  0.2100 -0.0794
 1517SOL    HW116010   0.297   3.980   2.917 -0.5573 -2.0912 -0.0124
 1517SOL    HW216011   0.432   3.914   2.911 -0.0865 -1.3964  1.5404
 1518SOL     OW16012   3.540   0.647   4.961  0.1807  0.4398  0.2811
 1518SOL    HW116013   3.465   0.699   4.990  1.6816  1.8380  1.6804
 1518SOL    HW216014   3.533   0.570   5.017 -0.1515  0.1680 -0.1433
 1519SOL     OW16015   1.580   2.201   7.907  0.0600 -0.0470  0.2524
 1519SOL    HW116016   1.533   2.242   7.834  3.7640  0.1847 -1.9729
 1519SOL    HW216017   1.665   2.194   7.864 -0.9603 -1.8055 -1.4601
 1520SOL     OW16018   0.299   3.132   2.696 -0.5851  0.4039 -0.0832
 1520SOL    HW116019   0.376   3.092   2.656  1.0018  2.6566  0.6941
 1520SOL    HW216020   0.244   3.054   2.697 -0.2579  0.1580 -1.4455
 1521SOL     OW16021   1.724   2.974  12.122 -0.1818 -0.0725  0.3390
 1521SOL    HW116022   1.684   2.998  12.038 -1.0406  0.6659  0.9537
 1521SOL    HW216023   1.795   3.037  12.135  0.9075 -1.4571  1.1238
 1522SOL     OW16024   2.631   1.681   5.343  0.4344 -0.3651  0.5920
 1522SOL    HW116025   2.652   1.746   5.276 -1.9154  0.0254  0.2392
 1522SOL    HW216026   2.713   1.675   5.392 -2.2295 -0.7302  4.9957
 1523SOL     OW16027   4.505   2.560   8.616 -0.1145  0.3630  0.3577
 1523SOL    HW116028   4.506   2.472   8.581 -0.2294  0.7381 -0.5765
 1523SOL    HW216029   4.597   2.574   8.593 -0.2295  0.1332 -0.2404
 1524SOL     OW16030   3.293   3.575   6.689  0.5711 -0.0874  0.5038
 1524SOL    HW116031   3.202   3.545   6.691  0.4226  0.3266  0.0234
 1524SOL    HW216032   3.283   3.652   6.745 -0.5261 -1.6851  2.4565
 1525SOL     OW16033   1.094   0.211   8.374 -0.0040 -0.3784  0.3383
 1525SOL    HW116034   1.188   0.200   8.360  0.4036  1.0529  1.9572
 1525SOL    HW216035   1.098   0.276   8.444 -0.6640 -1.0836  1.0374
 1526SOL     OW16036   4.507   3.125   3.091 -0.2193  0.0960 -0.4450
 1526SOL    HW116037   4.581   3.139   3.149 -1.1581  2.9769  0.0532
 1526SOL    HW216038   4.539   3.114   3.001  2.1711  0.7030  0.3358
 1527SOL     OW16039   4.273   2.089   2.382  0.1805 -0.0088 -0.0518
 1527SOL    HW116040   4.345   2.151   2.370  0.2160  0.1314  0.8367
 1527SOL    HW216041   4.254   2.058   2.294  0.5831  1.0554 -0.5155
 1528SOL     OW16042   4.657   4.288   5.309 -0.3656  0.2386 -0.4689
 1528SOL    HW116043   4.656   4.374   5.351 -0.9838 -0.7445  1.5357
 1528SOL    HW216044   0.010   4.253   5.355  0.4040 -0.2366 -2.1123
 1529SOL     OW16045   1.706   4.231   5.477  0.0229  0.5076 -0.3622
 1529SOL    HW116046   1.796   4.201   5.467  0.1456  1.0689 -0.8820
 1529SOL    HW216047   1.657   4.149   5.476  0.6649  0.1578 -2.5317
 1530SOL     OW16048   4.056   4.153  17.001 -0.0880 -0.3950 -0.4538
 1530SOL    HW116049   4.025   4.182  16.915 -0.0551 -0.3087 -0.4360
 1530SOL    HW216050   3.980   4.107  17.036 -0.3637  1.9581  2.0086
 1531SOL     OW16051   3.908   1.133  10.548 -0.1298  0.1214 -0.2375
 1531SOL    HW116052   4.002   1.128  10.526  0.2115  0.4994  1.1462
 1531SOL    HW216053   3.871   1.106  10.464 -1.0476  1.4889 -0.2704
 1532SOL     OW16054   4.228   3.479  10.836  0.3890  0.0904  0.9793
 1532SOL    HW116055   4.169   3.433  10.776  1.5306 -2.1362  1.5668
 1532SOL    HW216056   4.163   3.544  10.863 -0.3855  0.0884 -0.9010
 1533SOL     OW16057   2.587   0.015   0.632  0.4434 -0.1510  0.1533
 1533SOL    HW116058   2.622   4.664   0.681 -1.1593 -2.0544 -1.5735
 1533SOL    HW216059   2.658   0.027   0.569  0.3879  2.4104  0.6044
 1534SOL     OW16060   3.850   4.089   2.104 -0.3256  0.5654  0.3655
 1534SOL    HW116061   3.843   4.162   2.166  1.8166  0.3221  0.8919
 1534SOL    HW216062   3.901   4.032   2.161  1.7846  0.8124 -1.3194
 1535SOL     OW16063   3.747   3.801  12.965 -0.3105 -0.3051 -0.0688
 1535SOL    HW116064   3.800   3.771  13.038 -2.4994 -0.3960  1.4724
 1535SOL    HW216065   3.780   3.740  12.899  0.2293 -0.6386  0.5153
 1536SOL     OW16066   2.975   4.249   1.402 -0.1552 -0.2334 -0.1888
 1536SOL    HW116067   3.057   4.208   1.376  0.8757  0.7413  1.5299
 1536SOL    HW216068   2.983   4.327   1.348  1.7267  0.5485  1.2568
 1537SOL     OW16069   3.445   0.550   8.905  0.3224 -0.2855 -0.1712
 1537SOL    HW116070   3.473   0.477   8.962 -0.4381 -1.2029 -0.9737
 1537SOL    HW216071   3.376   0.500   8.861  2.1627 -1.3544 -1.8224
 1538SOL     OW16072   2.091   4.268   3.808 -0.2029  0.1862  0.0365
 1538SOL    HW116073   2.117   4.178   3.828  1.6289  0.3308 -1.7285
 1538SOL    HW216074   2.113   4.309   3.892  2.1801 -1.2886  0.1363
 1539SOL     OW16075   3.032   2.517   2.053 -0.1634 -0.1710 -0.3363
 1539SOL    HW116076   3.018   2.431   2.014 -0.0862 -0.0204 -0.7042
 1539SOL    HW216077   2.998   2.584   1.993  0.5381  0.4935  0.0154
 1540SOL     OW16078   0.276   4.463   7.933 -1.0076  0.0732  0.3288
 1540SOL    HW116079   0.343   4.509   7.881 -1.2427  1.4162  1.2064
 1540SOL    HW216080   0.197   4.516   7.929 -1.0295  0.1216  1.3331
 1541SOL     OW16081   3.508   4.331   4.681  0.1363 -0.1522 -0.2043
 1541SOL    HW116082   3.422   4.371   4.664 -1.5530 -4.0461 -0.8786
 1541SOL    HW216083   3.523   4.272   4.607 -1.9273 -0.7944 -0.1102
 1542SOL     OW16084   1.935   2.903  15.345 -0.3306  0.5091 -0.1692
 1542SOL    HW116085   1.866   2.951  15.300  0.8743  0.8793 -1.6081
 1542SOL    HW216086   1.974   2.976  15.391 -1.9985  2.3422 -1.6602
 1543SOL     OW16087   1.776   4.661  16.350 -0.2015  0.0148  0.8496
 1543SOL    HW116088   1.751   0.011  16.405  1.0710 -0.0747  1.5524
 1543SOL    HW216089   1.698   4.657  16.295  0.6474 -1.8856 -0.1959
 1544SOL     OW16090   1.554   0.196   0.084  0.0551  0.3264  0.1963
 1544SOL    HW116091   1.626   0.148   0.043 -0.3968  0.9376 -1.3000
 1544SOL    HW216092   1.494   0.122   0.093  0.1015  0.5378  2.3069
 1545SOL     OW16093   4.500   4.036   1.709 -0.1773 -0.1092 -0.2453
 1545SOL    HW116094   4.488   3.988   1.628  0.3017  0.2409 -0.5241
 1545SOL    HW216095   4.411   4.015   1.738  0.3682  0.4851  1.8495
 1546SOL     OW16096   0.602   0.392  12.181 -0.3728 -0.1427  0.3094
 1546SOL    HW116097   0.520   0.374  12.227 -0.1764 -1.1890  0.2505
 1546SOL    HW216098   0.588   0.361  12.092 -1.6667  2.5362 -0.4166
 1547SOL     OW16099   0.460   3.460   8.359  0.4268 -0.2021 -0.0234
 1547SOL    HW116100   0.409   3.527   8.315  1.7337 -0.9889 -2.7695
 1547SOL    HW216101   0.405   3.383   8.350  0.0198 -0.2057  2.4720
 1548SOL     OW16102   2.533   2.901  11.041 -0.2077  0.2240  0.2519
 1548SOL    HW116103   2.531   2.996  11.052 -1.4185  0.4790 -2.3410
 1548SOL    HW216104   2.612   2.877  11.090  0.2854 -1.7497 -1.5070
 1549SOL     OW16105   0.424   0.887   8.558  0.6434  0.0064  0.5336
 1549SOL    HW116106   0.369   0.881   8.637 -1.6552 -1.1274 -1.1573
 1549SOL    HW216107   0.500   0.837   8.586 -1.8870 -2.6683  2.6070
 1550SOL     OW16108   3.303   4.156  11.852 -0.0712  0.0135 -0.1912
 1550SOL    HW116109   3.340   4.171  11.764 -0.0864 -0.3495 -0.2608
 1550SOL    HW216110   3.208   4.158  11.844 -0.1509 -1.6491  0.3964
 1551SOL     OW16111   4.706   4.466   0.536 -0.0460 -0.3727 -0.5218
 1551SOL    HW116112   4.640   4.429   0.594 -2.0229  0.3986 -2.2677
 1551SOL    HW216113   4.699   4.557   0.566  0.8553 -0.6552  0.5237
 1552SOL     OW16114   3.833   3.483   4.451  0.0415 -0.0857 -0.3749
 1552SOL    HW116115   3.880   3.488   4.367 -0.1697 -0.1700 -0.4991
 1552SOL    HW216116   3.889   3.525   4.515  0.7692 -0.5077 -0.7340
 1553SOL     OW16117   2.738   3.425   5.807  0.4647 -0.6975  0.0217
 1553SOL    HW116118   2.754   3.498   5.747  0.4168  0.0918  0.9671
 1553SOL    HW216119   2.791   3.449   5.883 -0.2685 -2.5531  1.1182
 1554SOL     OW16120   1.081   0.742   1.832  0.3365  0.4593 -0.5108
 1554SOL    HW116121   1.090   0.826   1.787 -1.2357  1.2363  0.6597
 1554SOL    HW216122   1.066   0.761   1.924 -0.2692  0.8872 -0.6964
 1555SOL     OW16123   4.207   3.858  17.683 -0.2883  0.0885  0.5617
 1555SOL    HW116124   4.184   3.950  17.671  1.7077  0.5248  0.1232
 1555SOL    HW216125   4.300   3.868  17.660  0.1045 -0.0668  2.0720
 1556SOL     OW16126   2.690   1.958   4.101 -0.0290 -0.6128  0.0380
 1556SOL    HW116127   2.696   2.033   4.042  0.2414 -0.0424  0.7943
 1556SOL    HW216128   2.596   1.957   4.114 -0.1122 -0.5760 -0.5274
 1557SOL     OW16129   4.230   1.215   7.659  0.6288 -0.0826 -0.3164
 1557SOL    HW116130   4.313   1.226   7.612  0.5238  2.4407  0.0558
 1557SOL    HW216131   4.244   1.272   7.735  1.1186 -1.2334  0.4608
 1558SOL     OW16132   4.352   3.490   9.662 -0.0924 -0.0469 -0.0590
 1558SOL    HW116133   4.384   3.410   9.619 -3.4095 -1.1881 -0.3549
 1558SOL    HW216134   4.258   3.476   9.672 -0.4097  1.8489 -0.3975
 1559SOL     OW16135   4.708   2.434   2.518 -0.3255  0.2855 -0.3028
 1559SOL    HW116136   4.615   2.417   2.529 -0.3743  0.3501 -0.6165
 1559SOL    HW216137   4.721   2.364   2.454 -1.6351  0.1924 -0.4582
 1560SOL     OW16138   2.956   3.240   5.928  0.3515  0.3489 -0.4008
 1560SOL    HW116139   3.017   3.305   5.894  0.7013  1.8092  2.9384
 1560SOL    HW216140   2.896   3.301   5.972  1.7657  1.1791  0.3972
 1561SOL     OW16141   3.873   2.574  13.077  0.5068  0.1894 -0.4632
 1561SOL    HW116142   3.895   2.510  13.145 -2.4937  0.1957  0.4801
 1561SOL    HW216143   3.830   2.504  13.027  2.4610 -0.8566 -0.6797
 1562SOL     OW16144   0.695   3.750   8.446  0.7431 -0.5062  0.2866
 1562SOL    HW116145   0.674   3.664   8.411 -0.2722 -0.2953  0.3947
 1562SOL    HW216146   0.730   3.721   8.531 -1.3705  0.0740  1.3566
 1563SOL     OW16147   0.715   1.633   3.402  0.1234 -0.0733 -0.6963
 1563SOL    HW116148   0.774   1.625   3.477 -2.3613  0.2059  1.2919
 1563SOL    HW216149   0.749   1.716   3.368 -1.2635  1.0404  0.6360
 1564SOL     OW16150   3.754   1.369   5.279  0.0461 -0.0025  0.5187
 1564SOL    HW116151   3.835   1.363   5.229 -0.0211  2.5992  0.1193
 1564SOL    HW216152   3.686   1.365   5.211  0.3705  1.9688  0.0719
 1565SOL     OW16153   1.722   2.743  12.240  0.1086 -0.1167  0.0807
 1565SOL    HW116154   1.718   2.830  12.199  0.5526 -0.7547 -1.3143
 1565SOL    HW216155   1.815   2.744  12.265 -0.7004  0.0948  3.0446
 1566SOL     OW16156   1.638   3.676   4.290  0.1346 -0.4527 -0.0664
 1566SOL    HW116157   1.582   3.733   4.236  0.5340 -1.4030 -1.4855
 1566SOL    HW216158   1.683   3.625   4.223  0.9199  0.4794 -0.2361
 1567SOL     OW16159   3.108   4.243   0.063  0.0506 -0.2064  0.2827
 1567SOL    HW116160   3.163   4.315   0.095  0.1009 -0.0044 -0.2563
 1567SOL    HW216161   3.158   4.204  17.688 -1.6478 -0.9915 -0.4637
 1568SOL     OW16162   1.193   0.611  15.089  0.6356 -0.0333  0.1380
 1568SOL    HW116163   1.237   0.672  15.030  0.2954  0.2044  0.1329
 1568SOL    HW216164   1.230   0.629  15.176  1.8464 -1.7876 -0.0126
 1569SOL     OW16165   1.297   4.164  11.926 -0.4427 -0.3648 -0.1033
 1569SOL    HW116166   1.295   4.209  12.011  0.9008  1.2565 -0.9159
 1569SOL    HW216167   1.301   4.226  11.854  1.0171  1.2161  1.3214
 1570SOL     OW16168   1.434   2.556   7.080 -0.3681  0.0103 -0.5869
 1570SOL    HW116169   1.370   2.545   7.150  2.3544  2.1226  2.2348
 1570SOL    HW216170   1.396   2.635   7.042  0.9202  1.6897  1.5950
 1571SOL     OW16171   0.840   4.042   0.139  0.0273  0.3047  0.6324
 1571SOL    HW116172   0.887   3.986   0.200  1.1754  0.2690 -0.2831
 1571SOL    HW216173   0.901   4.113   0.120 -0.6091  1.1708  1.8226
 1572SOL     OW16174   2.086   2.808   8.124 -0.0488 -0.1052 -0.1699
 1572SOL    HW116175   2.031   2.767   8.191  0.9490 -1.2371 -0.0364
 1572SOL    HW216176   2.023   2.879   8.113 -0.7362 -0.4804  1.3168
 1573SOL     OW16177   2.295   3.764   4.700  0.6777  0.1650  0.6405
 1573SOL    HW116178   2.312   3.793   4.790 -0.0120 -1.2930  1.2428
 1573SOL    HW216179   2.370   3.705   4.687 -0.3749 -1.1241  0.3836
 1574SOL     OW16180   2.018   0.350   7.719 -0.3394 -0.2724 -0.1788
 1574SOL    HW116181   1.939   0.379   7.674 -0.7517  2.4958  2.2975
 1574SOL    HW216182   2.052   0.431   7.758  2.2637 -1.6272  0.3434
 1575SOL     OW16183   4.498   3.307  10.079  0.2671  0.6580 -0.4420
 1575SOL    HW116184   4.521   3.298  10.171  1.3421 -0.1263 -0.7819
 1575SOL    HW216185   4.532   3.227  10.039  0.2632  1.3429 -1.8170
 1576SOL     OW16186   1.400   0.208   6.747 -0.3210 -0.3135 -0.0547
 1576SOL    HW116187   1.330   0.143   6.753 -1.7949  1.1725 -0.9057
 1576SOL    HW216188   1.425   0.163   6.666  0.4063 -0.9236  0.5183
 1577SOL     OW16189   1.629   0.146  14.322  0.4222 -0.3629 -0.0785
 1577SOL    HW116190   1.562   0.196  14.276 -1.0699 -1.0298  1.3641
 1577SOL    HW216191   1.621   0.188  14.408  2.3007 -2.1902  0.9808
 1578SOL     OW16192   0.172   3.481   2.785  0.1912  0.3123 -0.1999
 1578SOL    HW116193   0.133   3.466   2.699  0.4655 -2.1071  0.0871
 1578SOL    HW216194   0.105   3.544   2.811 -0.7581 -1.1050  0.8173
 1579SOL     OW16195   2.203   4.444   8.588 -0.0123 -0.3102 -0.3142
 1579SOL    HW116196   2.142   4.490   8.646  0.3372 -1.1051  0.6864
 1579SOL    HW216197   2.258   4.388   8.643  0.5370  1.5606  1.0530
 1580SOL     OW16198   3.222   0.239   5.661  0.4880  0.2987  0.3199
 1580SOL    HW116199   3.162   0.296   5.613 -1.1648 -1.9845 -0.3590
 1580SOL    HW216200   3.262   0.195   5.586  2.4477  0.8419  1.0496
 1581SOL     OW16201   4.284   4.541  10.539 -0.1806 -0.3039 -0.5069
 1581SOL    HW116202   4.351   4.489  10.583 -0.4436 -0.3220 -0.1317
 1581SOL    HW216203   4.289   4.502  10.452 -0.4705  0.3374 -0.8133
 1582SOL     OW16204   0.728   4.147   4.188  0.8161  0.9956  0.1328
 1582SOL    HW116205   0.722   4.107   4.275  0.8351 -1.4569 -0.9767
 1582SOL    HW216206   0.648   4.199   4.183  0.1498 -0.2293 -2.2097
 1583SOL     OW16207   3.129   4.576   6.135  0.7841  0.1614  0.0108
 1583SOL    HW116208   3.068   4.517   6.177 -0.5007 -1.1506 -3.6951
 1583SOL    HW216209   3.138   4.527   6.053 -0.9384 -1.4498  0.7981
 1584SOL     OW16210   4.262   2.985  11.749  0.4231  0.1264  0.8094
 1584SOL    HW116211   4.233   3.054  11.689 -2.1955  0.3418  2.3049
 1584SOL    HW216212   4.242   2.899  11.712 -1.6134  0.3714  1.2944
 1585SOL     OW16213   3.036   1.040   1.235  0.2769  0.1908 -0.0735
 1585SOL    HW116214   3.046   1.129   1.267  0.1477  1.1731 -2.7014
 1585SOL    HW216215   3.119   1.008   1.269 -0.7496 -2.1106  0.2825
 1586SOL     OW16216   2.787   3.057   1.733 -0.4003  0.0550 -0.2959
 1586SOL    HW116217   2.776   3.002   1.655  0.5507  1.3393 -1.3430
 1586SOL    HW216218   2.883   3.060   1.734 -0.4829  2.4301  0.2023
 1587SOL     OW16219   1.728   4.033  11.946 -0.6908 -0.6121 -0.1741
 1587SOL    HW116220   1.792   3.962  11.952 -0.0011  0.1141  1.1458
 1587SOL    HW216221   1.769   4.106  11.994 -2.8696  0.9141 -0.6150
 1588SOL     OW16222   4.368   3.888  16.814 -0.0533  0.3008 -0.2655
 1588SOL    HW116223   4.451   3.931  16.793  0.0199  0.5625  0.5543
 1588SOL    HW216224   4.335   3.964  16.863 -0.3092 -1.2849  2.0030
 1589SOL     OW16225   1.690   3.063  10.680  0.6422 -0.2496  0.5941
 1589SOL    HW116226   1.724   2.973  10.678 -1.2332 -0.9648  1.3413
 1589SOL    HW216227   1.768   3.111  10.652  0.1624  0.4188  0.4069
 1590SOL     OW16228   0.003   3.803   0.433 -0.2391 -0.1288 -0.9440
 1590SOL    HW116229   0.072   3.864   0.462  1.9923 -1.1548 -4.0795
 1590SOL    HW216230   0.048   3.741   0.375 -1.7592 -3.4512  1.4699
 1591SOL     OW16231   2.900   4.265   5.079 -0.3817  0.0616 -0.2550
 1591SOL    HW116232   2.951   4.193   5.040  1.2404  0.3812  1.2720
 1591SOL    HW216233   2.870   4.314   5.002  0.7716 -0.2836 -0.9345
 1592SOL     OW16234   3.203   1.262   7.124 -0.1267  0.0387 -0.5793
 1592SOL    HW116235   3.167   1.188   7.076  0.0804  0.3346 -1.2061
 1592SOL    HW216236   3.186   1.337   7.066 -1.0401 -1.0801 -1.7469
 1593SOL     OW16237   4.195   3.297   8.525  0.0462  0.4536  0.3402
 1593SOL    HW116238   4.277   3.337   8.554  0.7752  0.2723 -1.4623
 1593SOL    HW216239   4.139   3.357   8.574 -1.4547 -1.5495  1.0589
 1594SOL     OW16240   0.132   4.228   0.131  0.0511  0.3895 -0.7066
 1594SOL    HW116241   0.130   4.309   0.183 -1.2029 -0.2027  0.1534
 1594SOL    HW216242   0.040   4.209   0.112 -0.1980 -1.2902  2.2503
 1595SOL     OW16243   1.758   0.112   4.114  0.2683  0.2867  0.0341
 1595SOL    HW116244   1.762   0.111   4.019  0.2081  0.4574  0.0294
 1595SOL    HW216245   1.773   0.206   4.127 -0.6839  0.3758  0.5425
 1596SOL     OW16246   1.837   0.308  17.396 -0.1856  0.2645 -1.0148
 1596SOL    HW116247   1.756   0.258  17.403  0.4025 -0.4801  0.5352
 1596SOL    HW216248   1.892   0.247  17.446 -2.7043 -1.7385 -0.6723
 1597SOL     OW16249   4.677   3.778   4.283  0.1577 -0.2578  0.0957
 1597SOL    HW116250   4.625   3.825   4.218  0.3816  0.5255  0.4772
 1597SOL    HW216251   4.623   3.799   4.359  1.0823 -0.8748  0.9227
 1598SOL     OW16252   0.557   1.018   5.588  0.0296  0.1029  0.0154
 1598SOL    HW116253   0.610   1.064   5.523 -0.9640  2.1517  0.6898
 1598SOL    HW216254   0.599   1.049   5.668 -1.2417 -0.3571  0.8586
 1599SOL     OW16255   0.507   4.549   7.792 -0.1043 -0.1955  0.0509
 1599SOL    HW116256   0.499   4.642   7.768 -2.7829 -0.0948  1.3839
 1599SOL    HW216257   0.510   4.504   7.707 -0.4854 -0.3272  0.1104
 1600SOL     OW16258   2.180   4.227   2.018  0.0022 -0.1898 -0.6214
 1600SOL    HW116259   2.147   4.308   1.979  0.6074  0.3619  0.0206
 1600SOL    HW216260   2.259   4.201   1.971 -1.0871 -1.2160 -1.8859
 1601SOL     OW16261   3.803   2.360   7.438 -0.6482  0.4301  0.0368
 1601SOL    HW116262   3.898   2.347   7.439 -0.7656 -0.7772 -2.7248
 1601SOL    HW216263   3.786   2.440   7.487  2.1017  0.6929  0.5481
 1602SOL     OW16264   1.218   0.130   7.668 -0.0947  0.7724  0.2891
 1602SOL    HW116265   1.225   0.219   7.703  2.4634  1.7578 -2.7052
 1602SOL    HW216266   1.167   0.149   7.589 -1.1981 -4.2960 -0.2127
 1603SOL     OW16267   1.597   0.609  12.467  0.2783  0.5312  0.2234
 1603SOL    HW116268   1.583   0.581  12.558 -3.1458 -0.1695 -0.5029
 1603SOL    HW216269   1.657   0.545  12.428  1.6243  1.9450 -0.0081
 1604SOL     OW16270   3.802   1.234   0.514  0.1008 -0.1215  0.2066
 1604SOL    HW116271   3.841   1.192   0.437  1.8513 -1.3708  1.7874
 1604SOL    HW216272   3.846   1.184   0.583  0.2056 -1.2056 -0.6444
 1605SOL     OW16273   0.385   0.468   2.814 -0.3211  0.1481  0.7830
 1605SOL    HW116274   0.471   0.426   2.820 -0.8463 -0.8091  1.5230
 1605SOL    HW216275   0.337   0.405   2.866 -1.2481  0.4614  0.3174
 1606SOL     OW16276   1.107   4.264   5.427  0.3833  0.4201 -0.1594
 1606SOL    HW116277   1.052   4.341   5.412  0.4132  0.1374 -1.7319
 1606SOL    HW216278   1.172   4.294   5.491  0.9028  0.9737 -0.9454
 1607SOL     OW16279   2.343   4.103   3.553  0.0290 -0.3334  0.0775
 1607SOL    HW116280   2.270   4.135   3.605  0.8272  1.3257  0.1571
 1607SOL    HW216281   2.284   4.065   3.487 -0.0551  0.2387 -0.1711
 1608SOL     OW16282   4.176   1.781  10.464 -0.6728  0.0159 -0.0365
 1608SOL    HW116283   4.224   1.768  10.546  0.7371 -1.3757 -1.0768
 1608SOL    HW216284   4.101   1.721  10.461 -0.0706 -0.8429  2.0650
 1609SOL     OW16285   1.608   1.867  12.946 -0.2241  0.3792  0.5502
 1609SOL    HW116286   1.515   1.859  12.966  0.1349  0.7352  2.2971
 1609SOL    HW216287   1.596   1.895  12.855  3.2716  1.6531  0.4802
 1610SOL     OW16288   0.567   3.900  16.054 -0.2913 -0.1090 -0.0557
 1610SOL    HW116289   0.517   3.916  15.974  2.1274  0.5608 -1.4112
 1610SOL    HW216290   0.633   3.835  16.029 -1.0173 -1.4499  1.4430
 1611SOL     OW16291   4.595   2.423   8.275 -0.3866 -0.7888 -0.2985
 1611SOL    HW116292   4.607   2.454   8.365  1.6807  0.1245 -0.8923
 1611SOL    HW216293   4.630   2.498   8.226  2.2673 -2.2287 -0.6145
 1612SOL     OW16294   4.085   4.120  17.689  0.6434 -1.1223 -0.0435
 1612SOL    HW116295   4.073   4.133  17.595 -1.6038 -0.8498  0.2667
 1612SOL    HW216296   3.993   4.103   0.013  0.0658  1.5871 -0.3793
 1613SOL     OW16297   1.598   2.494   8.047  0.2215 -0.4620 -0.2301
 1613SOL    HW116298   1.611   2.490   8.142  1.4675 -0.6593 -0.4060
 1613SOL    HW216299   1.559   2.408   8.029 -2.0132  0.3735  0.6540
 1614SOL     OW16300   3.652   1.080   0.779 -0.1434 -0.2444 -0.0352
 1614SOL    HW116301   3.734   1.129   0.777 -0.9539  1.1388  0.7979
 1614SOL    HW216302   3.674   1.002   0.728 -1.7513  0.5275 -1.8943
 1615SOL     OW16303   3.290   4.269  10.934 -0.0549 -0.3366  0.2850
 1615SOL    HW116304   3.279   4.344  10.992 -0.7104  1.3990 -2.0810
 1615SOL    HW216305   3.222   4.285  10.868  0.8057 -1.0769 -0.7718
 1616SOL     OW16306   1.210   3.858   6.132 -0.6630 -0.0157 -0.5624
 1616SOL    HW116307   1.154   3.935   6.145 -1.0135 -0.7004  2.1241
 1616SOL    HW216308   1.253   3.838   6.216 -0.6965  0.8481 -0.3438
 1617SOL     OW16309   0.821   2.407   7.410  0.0644 -0.7520  0.3628
 1617SOL    HW116310   0.913   2.431   7.398  0.2175 -1.0450  0.9619
 1617SOL    HW216311   0.814   2.324   7.364  0.6127  0.3825 -1.7425
 1618SOL     OW16312   0.645   1.829   7.123 -0.2929 -0.0150  0.2867
 1618SOL    HW116313   0.691   1.828   7.039 -0.9262 -0.4480 -0.0509
 1618SOL    HW216314   0.656   1.738   7.150 -0.2514  0.3375  1.4552
 1619SOL     OW16315   1.261   3.895   4.457 -0.1575 -0.1539  0.5324
 1619SOL    HW116316   1.308   3.814   4.438 -1.9821 -1.2991  0.8888
 1619SOL    HW216317   1.326   3.965   4.448 -0.3277  0.0402  0.8384
 1620SOL     OW16318   2.211   4.013   4.103  0.7771 -0.0509  0.4544
 1620SOL    HW116319   2.134   4.057   4.138 -0.8393 -1.9578 -0.6674
 1620SOL    HW216320   2.231   3.959   4.179  0.4112 -0.1375  0.4934
 1621SOL     OW16321   1.081   2.331   8.007  0.0168 -0.1720 -0.1740
 1621SOL    HW116322   1.165   2.314   8.049 -0.2367  0.7325  0.6872
 1621SOL    HW216323   1.056   2.240   7.991 -1.0300  0.2446 -0.9311
 1622SOL     OW16324   4.432   4.615   8.385  0.3306 -0.3675 -0.0204
 1622SOL    HW116325   4.510   4.567   8.358  0.0146 -1.2559  0.6478
 1622SOL    HW216326   4.446   4.707   8.362 -1.2813 -0.0758  0.1482
 1623SOL     OW16327   3.754   0.235   7.465  0.3868  0.6300 -0.1494
 1623SOL    HW116328   3.759   0.327   7.493  1.3544  0.1721  1.2023
 1623SOL    HW216329   3.816   0.195   7.525  0.0825 -0.4966 -0.6015
 1624SOL     OW16330   2.372   4.022   3.901 -0.1285 -0.1415 -0.1343
 1624SOL    HW116331   2.392   4.104   3.948 -0.9070 -0.6866  1.1439
 1624SOL    HW216332   2.308   3.985   3.962  0.5362  0.6445  1.0453
 1625SOL     OW16333   2.872   1.665  15.808  0.0988  0.4195 -0.8318
 1625SOL    HW116334   2.941   1.599  15.810 -0.4868 -0.0825  3.2271
 1625SOL    HW216335   2.798   1.609  15.783  0.3431 -0.8500  1.2430
 1626SOL     OW16336   1.524   4.275   0.223 -0.1286 -0.0860 -0.2510
 1626SOL    HW116337   1.458   4.342   0.245 -1.2729 -1.0947 -0.6166
 1626SOL    HW216338   1.468   4.200   0.245  1.0775 -0.6009  1.0250
 1627SOL     OW16339   2.184   0.830   7.754 -0.5311 -0.3063  0.0627
 1627SOL    HW116340   2.215   0.899   7.812  1.6024 -1.6150  0.4977
 1627SOL    HW216341   2.264   0.778   7.748 -1.7024 -2.5403  4.1223
 1628SOL     OW16342   1.242   4.683   2.763  0.0206  0.1637 -0.0420
 1628SOL    HW116343   1.177   4.664   2.696  0.7384 -0.5110 -0.5427
 1628SOL    HW216344   1.275   4.600   2.796  0.5407 -0.1001 -1.2270
 1629SOL     OW16345   4.195   3.529  16.118  0.0313 -0.0457  0.2883
 1629SOL    HW116346   4.112   3.484  16.104  1.2822 -1.8471 -1.3014
 1629SOL    HW216347   4.231   3.486  16.195  0.0696  1.0203  0.8674
 1630SOL     OW16348   1.788   1.519   7.862  0.1437  0.1555  0.0523
 1630SOL    HW116349   1.796   1.474   7.778  0.3486 -1.2397  0.8105
 1630SOL    HW216350   1.832   1.448   7.909 -0.1171 -1.0916 -1.5714
 1631SOL     OW16351   0.467   3.182   3.200 -0.3204 -0.1242  0.7793
 1631SOL    HW116352   0.491   3.206   3.289  0.3375 -0.5932  0.7231
 1631SOL    HW216353   0.461   3.087   3.208  2.4707 -0.2801  0.7779
 1632SOL     OW16354   0.904   0.207   3.321 -0.4045  0.1526  0.2154
 1632SOL    HW116355   0.921   0.269   3.250 -1.6073  0.6821  0.3948
 1632SOL    HW216356   0.966   0.251   3.379  2.2613 -1.1333 -1.6299
 1633SOL     OW16357   0.681   0.276   5.424  0.2268  0.1986  0.2640
 1633SOL    HW116358   0.598   0.230   5.436 -0.1346  0.1955 -2.3879
 1633SOL    HW216359   0.660   0.367   5.404  1.8082  0.6337  0.5670
 1634SOL     OW16360   3.277   1.940  16.677  0.0481 -0.9069  0.3397
 1634SOL    HW116361   3.332   1.977  16.745 -1.3075  1.1891  0.3047
 1634SOL    HW216362   3.189   1.973  16.698  0.6780  0.7352  0.4203
 1635SOL     OW16363   1.037   1.790   1.208  0.3340 -0.4818  0.3468
 1635SOL    HW116364   0.993   1.809   1.125 -1.9418 -2.0449  1.1950
 1635SOL    HW216365   0.986   1.848   1.265 -1.6069 -2.4878  0.6775
 1636SOL     OW16366   0.999   0.799   4.177  0.1651  0.2618 -0.7036
 1636SOL    HW116367   0.989   0.766   4.266  1.8825  1.0931 -0.1921
 1636SOL    HW216368   1.067   0.864   4.193 -0.8553  0.6361  2.1506
 1637SOL     OW16369   0.213   1.550   0.348 -0.2060  0.1744  0.1019
 1637SOL    HW116370   0.177   1.467   0.317  1.0162 -0.6862  0.9523
 1637SOL    HW216371   0.213   1.585   0.259 -3.3613  2.2846  0.9390
 1638SOL     OW16372   1.260   0.300  15.178  0.2197 -0.8394 -0.3976
 1638SOL    HW116373   1.218   0.221  15.210  1.0063 -0.4822  1.5317
 1638SOL    HW216374   1.188   0.360  15.197  0.1886 -1.0255  0.0701
 1639SOL     OW16375   3.570   1.113  10.625  0.2869 -1.1431 -0.4424
 1639SOL    HW116376   3.488   1.066  10.615 -0.2175 -0.2232 -0.5863
 1639SOL    HW216377   3.551   1.205  10.609  2.4042 -0.3299  1.7303
 1640SOL     OW16378   4.572   2.081   5.311  0.4697  0.3253 -0.2695
 1640SOL    HW116379   4.532   1.997   5.331  1.9110 -1.0660 -3.3336
 1640SOL    HW216380   4.524   2.103   5.232  0.5877  1.4280 -0.0428
 1641SOL     OW16381   4.295   0.518   2.566  0.2144  0.0189 -0.1706
 1641SOL    HW116382   4.236   0.584   2.603  2.8495  1.5109  1.3973
 1641SOL    HW216383   4.256   0.517   2.479 -2.4651 -0.4802  1.0216
 1642SOL     OW16384   3.537   3.978   5.538  0.5492 -0.4306 -0.2604
 1642SOL    HW116385   3.583   4.059   5.517  1.1275 -0.2464  1.6913
 1642SOL    HW216386   3.572   3.966   5.626 -0.3285  1.2975  0.3174
 1643SOL     OW16387   0.132   3.158   4.311  0.0007 -0.4037  0.0592
 1643SOL    HW116388   0.120   3.085   4.372  0.7595 -0.8136 -0.2842
 1643SOL    HW216389   0.169   3.227   4.367 -0.3358  0.0882 -0.3258
 1644SOL     OW16390   3.353   2.119   1.477 -0.2301  0.3093  0.0714
 1644SOL    HW116391   3.349   2.199   1.425 -0.9247  0.9136  1.0630
 1644SOL    HW216392   3.309   2.140   1.560 -0.1802 -0.9615  0.4225
 1645SOL     OW16393   3.169   2.686   8.080 -0.3310  0.2186 -0.0004
 1645SOL    HW116394   3.250   2.638   8.067 -0.6500  0.1158 -1.6259
 1645SOL    HW216395   3.123   2.621   8.133  0.0441  0.8866  1.1421
 1646SOL     OW16396   0.186   3.203   5.897  0.1942  0.1905  0.5510
 1646SOL    HW116397   0.120   3.157   5.949  1.9019 -0.5839  2.0075
 1646SOL    HW216398   0.126   3.275   5.875  0.2032  0.3342  0.9857
 1647SOL     OW16399   4.232   1.297   8.526 -0.4222 -0.0093  0.0133
 1647SOL    HW116400   4.149   1.270   8.489 -0.4629  0.1789 -0.0313
 1647SOL    HW216401   4.275   1.212   8.526  0.4460  0.4299 -0.3128
 1648SOL     OW16402   3.929   3.361   9.336  0.1150 -0.3558  0.6350
 1648SOL    HW116403   3.982   3.284   9.317 -1.9225 -1.6730  0.1968
 1648SOL    HW216404   3.913   3.339   9.428 -0.5788 -3.7544 -0.2860
 1649SOL     OW16405   1.125   4.115   7.925 -0.1409  0.7352  0.6449
 1649SOL    HW116406   1.207   4.087   7.965 -1.2978  0.8169  3.0471
 1649SOL    HW216407   1.066   4.066   7.981 -1.6974 -0.1670 -1.7716
 1650SOL     OW16408   1.901   2.583   3.544 -0.2650 -0.3582  0.4440
 1650SOL    HW116409   1.940   2.641   3.480  0.7752 -2.0606 -0.4499
 1650SOL    HW216410   1.833   2.643   3.574  0.7197  0.9993 -0.0612
 1651SOL     OW16411   3.776   1.458   3.812 -0.0302 -0.3573  0.2352
 1651SOL    HW116412   3.868   1.483   3.799 -0.3651  0.4240 -0.6041
 1651SOL    HW216413   3.740   1.461   3.724 -0.8022 -0.0281  0.5634
 1652SOL     OW16414   2.824   0.122  17.477  0.4374  0.4123 -0.2948
 1652SOL    HW116415   2.777   0.039  17.471  0.6697  0.1326  1.9599
 1652SOL    HW216416   2.913   0.086  17.485 -0.7868 -2.2451  1.3085
 1653SOL     OW16417   2.631   0.157  14.926  0.3966 -0.1246 -0.2506
 1653SOL    HW116418   2.636   0.133  15.018 -1.3328  0.0809 -0.1090
 1653SOL    HW216419   2.548   0.120  14.896  1.0341 -2.0111  0.3054
 1654SOL     OW16420   0.407   2.151   8.986  0.8496  0.7857 -0.2927
 1654SOL    HW116421   0.362   2.097   9.051  2.0744  0.0661 -0.0334
 1654SOL    HW216422   0.453   2.216   9.039  2.0393 -1.2107  1.1610
 1655SOL     OW16423   1.888   0.699  15.533 -0.6424 -0.6868 -0.1191
 1655SOL    HW116424   1.911   0.627  15.474  1.0601 -1.2804  1.2408
 1655SOL    HW216425   1.965   0.702  15.590 -0.7733 -2.4346  0.1619
 1656SOL     OW16426   0.455   1.231   3.104 -0.0911 -0.1215  0.0805
 1656SOL    HW116427   0.437   1.137   3.107  0.9534 -0.3558 -1.0739
 1656SOL    HW216428   0.548   1.246   3.090 -0.4342  1.9840  0.0650
 1657SOL     OW16429   3.225   0.077  10.777 -0.1861 -0.4419 -0.2148
 1657SOL    HW116430   3.193   0.035  10.696  0.4507 -2.0273  0.3450
 1657SOL    HW216431   3.192   0.011  10.838  0.9356  1.0326  1.9702
 1658SOL     OW16432   3.936   2.019   3.247 -0.2565 -0.1498 -0.5670
 1658SOL    HW116433   3.988   2.028   3.327  1.9754  2.1032 -2.2704
 1658SOL    HW216434   3.938   1.924   3.248  1.2272 -0.1068  0.2084
 1659SOL     OW16435   3.263   3.843   3.852  0.2827 -0.2360  0.2931
 1659SOL    HW116436   3.282   3.863   3.760 -1.2227 -0.3756 -0.0472
 1659SOL    HW216437   3.323   3.773   3.878  1.7946  0.8769 -0.2358
 1660SOL     OW16438   3.083   0.292   1.605  0.4821  0.3257  0.3027
 1660SOL    HW116439   3.034   0.365   1.566  2.1507  0.0831 -2.2848
 1660SOL    HW216440   3.151   0.341   1.651  0.5708 -0.3642  0.8922
 1661SOL     OW16441   0.322   0.756   3.990  0.1078  0.0993 -0.6388
 1661SOL    HW116442   0.228   0.765   3.972 -0.4376 -2.2127  1.0259
 1661SOL    HW216443   0.349   0.826   3.930  3.3869 -1.1793 -0.6226
 1662SOL     OW16444   3.365   4.065   1.708 -0.0788  0.2755 -0.0131
 1662SOL    HW116445   3.453   4.102   1.694 -0.5154  0.8475 -1.2525
 1662SOL    HW216446   3.324   4.149   1.730  0.3324  0.8148 -1.3040
 1663SOL     OW16447   4.227   0.763   3.473  0.4634  0.2514 -0.3824
 1663SOL    HW116448   4.303   0.796   3.521  0.1079  0.5960 -0.0587
 1663SOL    HW216449   4.265   0.712   3.400  0.6368  0.0693 -0.1665
 1664SOL     OW16450   2.415   1.217   2.334 -0.0642 -0.6479 -0.3098
 1664SOL    HW116451   2.463   1.206   2.416 -0.2475 -2.6786 -0.4635
 1664SOL    HW216452   2.434   1.132   2.294 -1.3505 -1.3804  0.6603
 1665SOL     OW16453   1.577   3.925   0.312 -0.1158  0.3237  0.0727
 1665SOL    HW116454   1.499   3.935   0.366  0.2574  2.8573  0.1338
 1665SOL    HW216455   1.545   3.864   0.245 -1.5917  1.7104 -0.4576
 1666SOL     OW16456   3.082   1.269  13.455 -0.1590 -0.1296 -0.3655
 1666SOL    HW116457   3.045   1.324  13.524  1.3585 -1.0380  1.1682
 1666SOL    HW216458   3.168   1.244  13.490 -0.4100 -0.6606 -0.1204
 1667SOL     OW16459   0.779   2.063   1.072 -0.1001 -0.6368  0.3317
 1667SOL    HW116460   0.824   2.097   1.150 -0.1648  0.7947 -0.2617
 1667SOL    HW216461   0.830   2.094   0.998  2.0806 -1.2132  1.5952
 1668SOL     OW16462   3.408   2.725  10.593  0.1783  0.2815  0.0252
 1668SOL    HW116463   3.345   2.653  10.586  1.2687 -0.6576 -0.0317
 1668SOL    HW216464   3.408   2.736  10.688  0.7518 -1.0150  0.1759
 1669SOL     OW16465   4.503   0.689  13.451 -0.4898 -0.2306 -0.0968
 1669SOL    HW116466   4.467   0.736  13.526  0.2528  0.8826 -0.4371
 1669SOL    HW216467   4.595   0.693  13.478  0.3068 -3.9524 -2.2589
 1670SOL     OW16468   3.769   0.549   1.039 -0.3798  0.2230 -0.1629
 1670SOL    HW116469   3.709   0.492   0.992  0.7774 -1.2683  0.1540
 1670SOL    HW216470   3.712   0.608   1.088  1.9307  2.9589 -0.7673
 1671SOL     OW16471   4.695   1.390  16.034 -0.1447 -0.1935 -0.3041
 1671SOL    HW116472   4.609   1.370  16.072 -1.0500  0.8664 -1.7579
 1671SOL    HW216473   4.673   1.399  15.941  0.6861  2.5628 -0.2044
 1672SOL     OW16474   2.077   1.227  16.814  0.0317 -0.0249 -0.3041
 1672SOL    HW116475   2.132   1.268  16.747  0.4975  1.6652  1.1185
 1672SOL    HW216476   2.062   1.139  16.778  1.7422 -1.7391  3.2156
 1673SOL     OW16477   2.647   2.693   5.732  0.2048 -0.0936  0.5610
 1673SOL    HW116478   2.628   2.773   5.684 -1.6087 -0.1689  1.1487
 1673SOL    HW216479   2.735   2.715   5.764  1.1113 -0.5241 -1.6225
 1674SOL     OW16480   4.508   2.986  10.580  0.1665 -0.2702  0.0165
 1674SOL    HW116481   4.579   2.980  10.517 -1.5463 -2.1499 -1.7620
 1674SOL    HW216482   4.549   2.960  10.663  1.6736  3.4134  0.4333
 1675SOL     OW16483   4.321   2.884   9.478 -0.0338 -0.0563  0.6596
 1675SOL    HW116484   4.374   2.878   9.398 -0.2987  1.1749  0.4005
 1675SOL    HW216485   4.333   2.791   9.500  3.0709 -0.4458 -2.6597
 1676SOL     OW16486   4.666   4.549   2.670 -0.1735  0.9244 -0.4410
 1676SOL    HW116487   4.602   4.613   2.638  0.0504 -0.1724 -3.1071
 1676SOL    HW216488   0.024   4.595   2.650 -0.1841  2.0671  2.2136
 1677SOL     OW16489   3.309   3.024  11.210  0.6275 -0.3792 -0.6549
 1677SOL    HW116490   3.348   2.946  11.170 -3.2080 -1.4390 -2.3380
 1677SOL    HW216491   3.307   3.077  11.130  1.5268  0.7140  0.0422
 1678SOL     OW16492   0.624   1.020   7.839  0.6532 -0.6519  0.7066
 1678SOL    HW116493   0.534   1.022   7.871  0.0013  0.7514 -1.2621
 1678SOL    HW216494   0.663   0.935   7.862 -0.3020 -0.9383  1.2645
 1679SOL     OW16495   2.224   0.279   6.303 -0.1322  0.1739 -0.2170
 1679SOL    HW116496   2.233   0.227   6.223 -0.7375 -1.1157  0.5568
 1679SOL    HW216497   2.199   0.207   6.360 -0.5488  0.7845  0.3728
 1680SOL     OW16498   0.701   2.352  13.281 -0.1383  0.3691 -0.3379
 1680SOL    HW116499   0.637   2.310  13.223 -0.8445  1.2360 -0.1815
 1680SOL    HW216500   0.720   2.428  13.226 -1.0075  1.5006  0.9176
 1681SOL     OW16501   3.903   3.703   1.098  0.5600 -0.5191 -0.2900
 1681SOL    HW116502   3.919   3.702   1.192  1.9766  0.6117 -0.5293
 1681SOL    HW216503   3.987   3.668   1.068  1.0758  0.0308  0.5134
 1682SOL     OW16504   4.058   3.145   8.797 -0.2332  0.5273  0.0821
 1682SOL    HW116505   4.082   3.062   8.757 -0.4871  0.4749  0.0339
 1682SOL    HW216506   3.963   3.149   8.813 -0.0936  1.6413  0.5906
 1683SOL     OW16507   0.668   0.883   0.437 -0.5871  0.2946 -0.2496
 1683SOL    HW116508   0.674   0.966   0.484  0.7105 -0.7679  1.4730
 1683SOL    HW216509   0.574   0.866   0.445 -0.4686  0.6905  2.0050
 1684SOL     OW16510   0.901   0.520   1.194  0.3148 -0.5176  0.3226
 1684SOL    HW116511   0.888   0.571   1.113  1.9594  0.5540  0.7362
 1684SOL    HW216512   0.856   0.443   1.159  0.5496 -0.5808  0.1622
 1685SOL     OW16513   3.619   3.727   1.785  0.9069 -0.6254 -0.1480
 1685SOL    HW116514   3.664   3.743   1.868 -2.0580 -0.0695  1.3838
 1685SOL    HW216515   3.532   3.753   1.815  0.9401  1.6170 -2.0466
 1686SOL     OW16516   0.386   4.103   8.696  0.1564  0.1018 -0.0446
 1686SOL    HW116517   0.468   4.151   8.697 -0.1577  0.6384  0.3075
 1686SOL    HW216518   0.373   4.090   8.602  1.3989 -1.7692  0.0308
 1687SOL     OW16519   4.161   0.706   7.503 -0.6687  1.1423 -0.1558
 1687SOL    HW116520   4.223   0.777   7.493  2.9366 -1.6504  2.3711
 1687SOL    HW216521   4.103   0.738   7.434 -0.8403 -0.6723 -0.8613
 1688SOL     OW16522   3.764   3.360   1.245  0.0392  0.0297  0.6424
 1688SOL    HW116523   3.740   3.314   1.325 -1.4485  0.7741  0.6172
 1688SOL    HW216524   3.835   3.299   1.223 -1.3823 -1.5644  0.5171
 1689SOL     OW16525   2.581   4.188   1.535  0.1477  0.3800  0.0913
 1689SOL    HW116526   2.494   4.184   1.497 -0.0200  1.9360  0.3178
 1689SOL    HW216527   2.610   4.271   1.497  1.3530 -0.0832 -0.0013
 1690SOL     OW16528   2.722   0.954   7.693  0.0751 -0.4379  0.6201
 1690SOL    HW116529   2.740   1.039   7.650 -1.4790  0.0445  0.9323
 1690SOL    HW216530   2.769   0.889   7.640 -1.0561 -1.0404  0.3709
 1691SOL     OW16531   2.823   2.680   6.391  0.5319 -0.0530 -0.4352
 1691SOL    HW116532   2.791   2.624   6.320  0.8078 -3.8194  2.4360
 1691SOL    HW216533   2.907   2.696   6.348  0.3860 -0.0336 -0.7137
 1692SOL     OW16534   2.495   2.108   4.866 -0.1891  0.0171  0.3191
 1692SOL    HW116535   2.470   2.136   4.778  0.0050  1.3729  0.6853
 1692SOL    HW216536   2.482   2.183   4.925 -0.6191  0.4955 -0.3861
 1693SOL     OW16537   1.164   2.370   0.350 -0.7682 -0.1443  0.5002
 1693SOL    HW116538   1.215   2.450   0.336 -1.9218  0.6659  0.9295
 1693SOL    HW216539   1.074   2.398   0.338  0.1992  2.6795 -0.3167
 1694SOL     OW16540   1.990   2.666   9.054  0.4764  0.6378 -0.3294
 1694SOL    HW116541   1.910   2.626   9.019  0.2969  1.0841 -0.4392
 1694SOL    HW216542   2.052   2.631   8.991  1.1348 -2.5220  2.0715
 1695SOL     OW16543   3.657   1.674  14.188  0.0916 -0.6207  0.5390
 1695SOL    HW116544   3.621   1.685  14.276  0.1472  1.7764  0.2671
 1695SOL    HW216545   3.643   1.580  14.179  0.2682 -0.4895 -1.2032
 1696SOL     OW16546   3.903   4.123   6.337 -0.4155 -0.0325  0.3665
 1696SOL    HW116547   3.837   4.093   6.400  1.5863 -0.0055  2.4534
 1696SOL    HW216548   3.848   4.106   6.260  3.4578 -0.1820 -2.3839
 1697SOL     OW16549   2.269   0.455   4.886 -0.8125  0.4102  0.1280
 1697SOL    HW116550   2.352   0.413   4.862 -1.1762 -0.1200 -0.2028
 1697SOL    HW216551   2.269   0.443   4.981 -0.7957 -5.2211 -0.5790
 1698SOL     OW16552   0.588   0.566   3.170 -0.5405  0.4985  0.4051
 1698SOL    HW116553   0.635   0.549   3.252  0.8853  0.4031 -0.4184
 1698SOL    HW216554   0.500   0.554   3.204 -0.8674 -1.0740 -0.9809
 1699SOL     OW16555   4.699   1.071   7.355  0.1707 -0.1382  0.1669
 1699SOL    HW116556   4.633   1.072   7.285 -0.2572 -0.4207  0.5680
 1699SOL    HW216557   4.652   1.010   7.412 -1.0084 -0.3141 -0.9785
 1700SOL     OW16558   0.988   1.537   8.291 -0.5850 -0.5432 -0.5502
 1700SOL    HW116559   0.943   1.575   8.367 -0.1872  1.9315 -1.5464
 1700SOL    HW216560   1.065   1.490   8.324  0.7485  3.5445  2.2151
 1701SOL     OW16561   3.334   2.284   6.716 -0.1473 -0.4008  0.0772
 1701SOL    HW116562   3.304   2.341   6.786  0.1374  1.3010 -1.1708
 1701SOL    HW216563   3.417   2.323   6.686  0.4082  0.2322  2.4415
 1702SOL     OW16564   1.607   0.801  15.145 -0.5543 -0.8311  0.2348
 1702SOL    HW116565   1.660   0.829  15.218  0.3645 -2.8535  0.3433
 1702SOL    HW216566   1.570   0.884  15.115  1.1341 -0.6065 -1.2371
 1703SOL     OW16567   3.145   2.666   1.156 -0.0851 -0.5304 -0.0960
 1703SOL    HW116568   3.145   2.585   1.105 -1.8053 -1.2239  1.0153
 1703SOL    HW216569   3.163   2.728   1.085  0.6691  0.4866  0.9901
 1704SOL     OW16570   2.199   3.839   3.713  0.1430  0.0031  0.0194
 1704SOL    HW116571   2.274   3.865   3.767  1.4605  0.2348 -1.9209
 1704SOL    HW216572   2.128   3.894   3.746  0.9518  1.3608 -0.5116
 1705SOL     OW16573   3.025   1.232   6.479 -0.5366  0.2973  0.0972
 1705SOL    HW116574   3.044   1.144   6.445  2.6492  1.9843 -2.4904
 1705SOL    HW216575   3.041   1.216   6.572 -0.3146 -2.3012 -0.3862
 1706SOL     OW16576   1.008   0.823   0.353 -0.4144 -0.0981  0.0697
 1706SOL    HW116577   1.046   0.746   0.396  1.8598  1.1993  0.3560
 1706SOL    HW216578   1.047   0.807   0.268 -0.5658 -1.4754  0.2593
 1707SOL     OW16579   3.007   0.465  10.135  0.2354  0.2589  0.2051
 1707SOL    HW116580   2.914   0.464  10.157  0.1756  0.8036 -0.0207
 1707SOL    HW216581   3.037   0.551  10.164  1.8897 -0.0428 -0.5941
 1708SOL     OW16582   4.641   0.128   9.626  0.3534 -0.1332  0.5975
 1708SOL    HW116583   4.641   0.223   9.618 -0.4507 -0.4591 -3.6467
 1708SOL    HW216584   4.556   0.101   9.589 -0.2230  2.7449 -0.1806
 1709SOL     OW16585   3.569   3.367   6.102  0.0054  0.6869  0.1623
 1709SOL    HW116586   3.560   3.299   6.169 -0.8094  0.6264 -0.0142
 1709SOL    HW216587   3.656   3.397   6.126  1.8448 -3.6569 -0.9064
 1710SOL     OW16588   0.902   4.716   6.791  0.1695  0.2828 -0.2146
 1710SOL    HW116589   0.838   0.000   6.863  0.3403 -1.4008  0.1193
 1710SOL    HW216590   0.843   0.008   6.717  0.1798  0.1869 -0.2422
 1711SOL     OW16591   1.563   2.030   2.283 -0.2711  0.0167  0.2049
 1711SOL    HW116592   1.511   2.078   2.218  0.1480 -2.5386 -2.0166
 1711SOL    HW216593   1.601   1.961   2.228 -0.9316  0.2449 -0.5495
 1712SOL     OW16594   1.075   3.947  10.902  0.0348 -0.2171  0.5503
 1712SOL    HW116595   1.057   4.015  10.838 -2.1138 -0.3335  1.0302
 1712SOL    HW216596   1.162   3.965  10.938  0.1578 -1.2138  0.7657
 1713SOL     OW16597   4.460   4.694   5.339 -0.4535  0.2717  0.3047
 1713SOL    HW116598   4.377   0.011   5.363 -0.7257  0.8713 -1.5992
 1713SOL    HW216599   4.507   0.052   5.356  2.1497 -0.9498 -1.0517
 1714SOL     OW16600   0.423   2.375   2.439  0.0201  0.0587  0.3207
 1714SOL    HW116601   0.511   2.376   2.476 -0.8713 -1.6352  2.5279
 1714SOL    HW216602   0.383   2.451   2.480 -1.4749 -0.9227  0.7024
 1715SOL     OW16603   3.865   3.918   5.726 -0.2616  0.0144  0.1392
 1715SOL    HW116604   3.923   3.846   5.704 -0.2901 -0.1653  0.6536
 1715SOL    HW216605   3.794   3.873   5.772 -0.5391 -1.5588 -1.8439
 1716SOL     OW16606   1.157   0.081   4.543 -0.2505  0.4942 -0.5917
 1716SOL    HW116607   1.178   0.079   4.449  1.9525 -0.3873 -0.0789
 1716SOL    HW216608   1.126   4.716   4.562  1.9383 -0.2169 -0.2754
 1717SOL     OW16609   2.029   0.649   4.745 -0.3951 -0.9961  0.4076
 1717SOL    HW116610   2.093   0.578   4.755  0.0700 -0.4610  1.1486
 1717SOL    HW216611   2.022   0.648   4.649  0.8783 -0.4965  0.3059
 1718SOL     OW16612   2.937   4.244   7.832 -0.9244 -0.9076 -0.0204
 1718SOL    HW116613   2.938   4.340   7.836 -0.6959 -0.8826 -0.6531
 1718SOL    HW216614   2.844   4.235   7.856 -1.2605  0.7421 -0.7207
 1719SOL     OW16615   1.863   1.999   2.174  0.1191  0.4538  0.4198
 1719SOL    HW116616   1.801   1.926   2.165  1.5787 -0.5934 -1.1165
 1719SOL    HW216617   1.915   1.968   2.248  0.4143 -0.6193 -0.2440
 1720SOL     OW16618   4.028   0.725   2.464  0.5226  0.0917 -0.0910
 1720SOL    HW116619   3.944   0.765   2.487  0.0529  0.4069 -2.3358
 1720SOL    HW216620   4.080   0.804   2.449 -0.2923  1.0464  2.1586
 1721SOL     OW16621   1.444   0.034   6.391 -0.2009  0.0528  0.6634
 1721SOL    HW116622   1.383   0.019   6.319  1.1335 -1.2929 -0.1833
 1721SOL    HW216623   1.509   0.091   6.350 -1.6696  1.0582 -0.2295
 1722SOL     OW16624   4.541   3.708   4.699 -0.1965 -0.0124 -0.4482
 1722SOL    HW116625   4.539   3.741   4.789 -1.2416 -0.3895 -0.3320
 1722SOL    HW216626   4.609   3.644   4.715  0.0266  0.3322 -0.0030
 1723SOL     OW16627   1.728   2.198   8.531  0.6901 -0.5978  0.2455
 1723SOL    HW116628   1.642   2.183   8.571 -0.0978 -0.4278 -1.3796
 1723SOL    HW216629   1.769   2.116   8.558 -1.6874 -2.3058 -1.3710
 1724SOL     OW16630   1.806   4.710   1.545 -0.0312 -0.2195  0.0585
 1724SOL    HW116631   1.818   4.721   1.639  2.4022 -2.5650  0.0150
 1724SOL    HW216632   1.795   0.081   1.534  1.9419  0.3070  2.4705
 1725SOL     OW16633   2.660   0.262  10.761 -0.2870 -0.6069 -0.2903
 1725SOL    HW116634   2.646   0.200  10.833 -1.0484  1.5560  1.3973
 1725SOL    HW216635   2.755   0.269  10.751  0.0178 -0.1738  3.0337
 1726SOL     OW16636   3.536   2.173   7.702  0.2394 -0.0205 -0.7856
 1726SOL    HW116637   3.582   2.202   7.781 -1.3173  1.0756 -0.2820
 1726SOL    HW216638   3.604   2.182   7.636  0.3366  1.1747 -0.5171
 1727SOL     OW16639   1.407   2.659   7.770 -0.7051 -0.0570 -0.4915
 1727SOL    HW116640   1.365   2.714   7.836 -0.4758 -0.4594 -0.0177
 1727SOL    HW216641   1.342   2.590   7.763  0.0848 -0.5886 -2.5548
 1728SOL     OW16642   3.845   1.197   3.921 -0.3029 -0.2610 -0.1989
 1728SOL    HW116643   3.807   1.279   3.889  0.5635  0.2880  0.1656
 1728SOL    HW216644   3.762   1.152   3.936 -1.3023  2.3907  2.2045
 1729SOL     OW16645   1.776   1.155   3.960 -1.0143 -0.5450 -0.0553
 1729SOL    HW116646   1.743   1.224   4.017 -1.2490  0.5346 -1.5202
 1729SOL    HW216647   1.696   1.102   3.959 -1.2489 -0.1931  0.1192
 1730SOL     OW16648   3.437   1.382   2.167  0.1995 -0.4452  0.4619
 1730SOL    HW116649   3.506   1.317   2.182  0.4277 -0.4643 -0.6726
 1730SOL    HW216650   3.491   1.460   2.178  0.3151 -1.0820  4.3778
 1731SOL     OW16651   0.513   2.433   1.068 -0.1779 -0.1983  0.3068
 1731SOL    HW116652   0.569   2.432   1.146  2.1077 -0.6501 -1.3394
 1731SOL    HW216653   0.448   2.498   1.094 -2.1726 -2.0908  0.0147
 1732SOL     OW16654   2.838   3.712   3.696  0.0903 -0.0135  0.8431
 1732SOL    HW116655   2.859   3.697   3.604 -0.2756  0.1328  0.7332
 1732SOL    HW216656   2.862   3.805   3.697 -3.9693  1.0166  2.6159
 1733SOL     OW16657   2.013   2.329   1.497 -0.3917  0.5380  0.4474
 1733SOL    HW116658   2.102   2.294   1.504 -1.0393 -0.9055  1.4397
 1733SOL    HW216659   2.018   2.380   1.416  0.2277  1.1949  0.8955
 1734SOL     OW16660   4.305   3.191   4.294 -0.1577  0.0283  0.4946
 1734SOL    HW116661   4.237   3.128   4.319 -1.5026  0.8283 -1.1842
 1734SOL    HW216662   4.250   3.265   4.269 -1.2941 -0.2601  2.1696
 1735SOL     OW16663   1.844   1.142   6.555 -0.6818  0.2081 -0.1893
 1735SOL    HW116664   1.845   1.142   6.459 -1.3767  1.0470 -0.1976
 1735SOL    HW216665   1.791   1.063   6.571  0.0854 -0.1831  0.4016
 1736SOL     OW16666   4.424   1.667   9.527 -0.0721  0.1235 -0.1890
 1736SOL    HW116667   4.351   1.714   9.487  1.3809  2.6819  0.1769
 1736SOL    HW216668   4.416   1.688   9.620  0.1221  0.9556 -0.3644
 1737SOL     OW16669   0.388   3.086   0.182 -0.7675  0.1118 -0.8045
 1737SOL    HW116670   0.457   3.034   0.142 -1.7324 -2.4675  0.9242
 1737SOL    HW216671   0.327   3.085   0.107 -1.1686 -3.8397 -0.4357
 1738SOL     OW16672   3.985   1.358   8.181 -0.5762  0.1453  0.2867
 1738SOL    HW116673   4.000   1.281   8.237 -0.7404  0.8527  1.2971
 1738SOL    HW216674   3.973   1.428   8.246  2.5141 -1.1569  2.2868
 1739SOL     OW16675   2.125   4.016   6.950  0.1064  0.2689 -0.1367
 1739SOL    HW116676   2.081   4.073   7.014 -0.7906 -0.6383  0.0712
 1739SOL    HW216677   2.214   4.034   6.980  0.5206  0.0680 -1.2396
 1740SOL     OW16678   2.867   2.107   9.548  0.1391  0.1558 -0.4624
 1740SOL    HW116679   2.902   2.174   9.489  1.5300  0.3557  0.5941
 1740SOL    HW216680   2.789   2.150   9.582  1.9740  0.0971  3.7953
 1741SOL     OW16681   3.191   3.014   6.244 -0.2754 -0.0228 -0.7605
 1741SOL    HW116682   3.242   2.996   6.322  0.2649  1.7339 -0.7114
 1741SOL    HW216683   3.124   3.079   6.265  0.7656  0.1269  2.0143
 1742SOL     OW16684   0.548   1.616  10.349 -0.6629 -0.4549 -0.2714
 1742SOL    HW116685   0.509   1.659  10.424 -0.3142 -1.6729  0.6041
 1742SOL    HW216686   0.630   1.665  10.345 -1.5041  1.0324  1.0246
 1743SOL     OW16687   0.795   2.840   3.841  0.7498  0.2648  0.0965
 1743SOL    HW116688   0.803   2.884   3.926  1.4705  0.3021  0.0085
 1743SOL    HW216689   0.701   2.827   3.827  0.7592 -1.3516  1.6277
 1744SOL     OW16690   2.864   4.272   0.263  0.1271  0.1233 -0.3042
 1744SOL    HW116691   2.950   4.256   0.223 -1.4662 -2.5204 -2.6512
 1744SOL    HW216692   2.804   4.236   0.198 -1.0521  1.4607  0.0359
 1745SOL     OW16693   0.922   3.211  17.474  0.4763  0.4533 -0.0231
 1745SOL    HW116694   0.992   3.220  17.409  0.5373  0.2987  0.0219
 1745SOL    HW216695   0.863   3.281  17.444  0.7024  0.6946  0.0870
 1746SOL     OW16696   1.161   3.216   8.235 -0.2873  0.4998  1.0345
 1746SOL    HW116697   1.081   3.214   8.183  0.2954 -0.9010  0.1970
 1746SOL    HW216698   1.212   3.277   8.181 -1.9596  0.5592 -0.4865
 1747SOL     OW16699   0.792   0.633  17.074 -0.1755  0.0677  0.1268
 1747SOL    HW116700   0.784   0.568  17.143 -1.0677 -2.0270 -1.9407
 1747SOL    HW216701   0.728   0.603  17.009 -1.7867  2.0951  0.7896
 1748SOL     OW16702   1.981   3.324   3.138 -0.3015 -0.3879  0.5127
 1748SOL    HW116703   2.065   3.301   3.098 -0.2471  0.1897  0.2970
 1748SOL    HW216704   1.923   3.306   3.065 -0.9697 -2.8186  1.6506
 1749SOL     OW16705   1.718   1.550   3.916  0.2987  0.4663  0.3000
 1749SOL    HW116706   1.712   1.468   3.964 -0.5006  0.5048  0.2529
 1749SOL    HW216707   1.729   1.615   3.985 -1.6146  2.5735 -1.3736
 1750SOL     OW16708   3.621   0.180  14.105  0.4493  0.8718  0.1648
 1750SOL    HW116709   3.691   0.201  14.167 -0.0801  1.3213  0.6139
 1750SOL    HW216710   3.680   0.202  14.033  0.1221 -1.5422 -0.8279
 1751SOL     OW16711   3.718   0.841  10.539  0.2525 -0.1697 -0.1542
 1751SOL    HW116712   3.676   0.764  10.576 -1.1919  0.3939 -0.6300
 1751SOL    HW216713   3.661   0.864  10.466  0.4901  0.8607 -0.0220
 1752SOL     OW16714   1.227   2.587   3.827  0.2623  0.0768  0.9958
 1752SOL    HW116715   1.158   2.524   3.806 -0.4855  1.4393 -0.5960
 1752SOL    HW216716   1.220   2.585   3.922  0.8272 -0.3294  1.0348
 1753SOL     OW16717   3.130   1.789   6.963  0.3392  0.5065 -0.3339
 1753SOL    HW116718   3.152   1.881   6.975  0.9318  0.1594  1.3480
 1753SOL    HW216719   3.162   1.756   7.048 -2.8663  0.7308  0.9383
 1754SOL     OW16720   4.231   4.709  11.152  0.1647  0.3354 -0.4452
 1754SOL    HW116721   4.317   0.000  11.191  0.9864 -0.8655 -1.7983
 1754SOL    HW216722   4.249   4.627  11.106  2.6346  1.2790 -1.2099
 1755SOL     OW16723   3.265   3.946   9.141  0.4559  0.6537 -0.1720
 1755SOL    HW116724   3.247   4.000   9.218  0.6682 -0.8533  0.9217
 1755SOL    HW216725   3.200   3.974   9.077  0.9173  2.8844  0.3372
 1756SOL     OW16726   0.292   1.650   2.725  0.2338 -0.5296 -0.6665
 1756SOL    HW116727   0.199   1.667   2.710 -0.0799  0.1930  2.1068
 1756SOL    HW216728   0.295   1.573   2.782 -1.3215  0.3795  0.6532
 1757SOL     OW16729   0.356   4.065  15.892  0.8896  0.1485 -0.6227
 1757SOL    HW116730   0.397   4.097  15.972 -2.4266 -0.4368  1.2990
 1757SOL    HW216731   0.271   4.109  15.895  1.2758  0.7435  1.8757
 1758SOL     OW16732   3.983   0.288   4.202  0.5275 -0.5141 -0.2344
 1758SOL    HW116733   3.889   0.296   4.220  0.8276  0.6102  0.8185
 1758SOL    HW216734   3.975   0.209   4.148  0.5385 -0.8138  0.2049
 1759SOL     OW16735   2.313   1.512   8.758 -0.1892  0.2191 -0.3446
 1759SOL    HW116736   2.401   1.476   8.774  0.1497  1.5322  0.7278
 1759SOL    HW216737   2.267   1.428   8.762 -1.8943  1.2217  1.1128
 1760SOL     OW16738   3.571   2.793   6.052  0.4215 -0.0882 -0.1827
 1760SOL    HW116739   3.510   2.771   6.123 -0.3925  0.8731 -0.5894
 1760SOL    HW216740   3.568   2.712   6.001 -1.4299 -0.0106 -0.1984
 1761SOL     OW16741   0.290   4.594   5.174 -0.4552  0.6602 -0.1588
 1761SOL    HW116742   0.279   4.499   5.171 -0.0971  0.5319  3.3135
 1761SOL    HW216743   0.352   4.608   5.102 -1.1777 -2.4513 -1.4309
 1762SOL     OW16744   2.505   1.311   4.311  0.4910 -0.3316 -0.1369
 1762SOL    HW116745   2.546   1.379   4.256  0.8186  1.3263  2.1507
 1762SOL    HW216746   2.422   1.304   4.263  0.7080 -0.3359 -0.5137
 1763SOL     OW16747   1.700   2.778   3.100  0.1551 -0.1169 -0.4857
 1763SOL    HW116748   1.754   2.699   3.109  1.2376  0.7087  0.2867
 1763SOL    HW216749   1.762   2.839   3.061 -2.0081  2.9403  0.9002
 1764SOL     OW16750   1.096   2.007   2.280  0.1201 -0.4154 -0.1418
 1764SOL    HW116751   1.114   1.922   2.240 -1.0285 -1.7513  2.2096
 1764SOL    HW216752   1.121   2.073   2.215  1.3006 -0.1328  0.6033
 1765SOL     OW16753   3.028   2.435   2.653 -0.0615  0.5199 -0.5399
 1765SOL    HW116754   3.042   2.343   2.634 -0.6710  0.4257 -0.5446
 1765SOL    HW216755   2.970   2.468   2.584 -1.0261  0.0740  0.0506
 1766SOL     OW16756   1.336   2.044   9.249 -0.3129  0.5876  0.5121
 1766SOL    HW116757   1.354   2.138   9.248  1.4410  0.2341 -1.8514
 1766SOL    HW216758   1.424   2.010   9.268 -0.8769 -0.3762  1.4064
 1767SOL     OW16759   3.463   2.676   8.068 -0.0371 -0.3155  0.3717
 1767SOL    HW116760   3.471   2.764   8.105 -0.9474  0.5239 -1.4432
 1767SOL    HW216761   3.535   2.659   8.008  0.9142  0.3512  1.3248
 1768SOL     OW16762   0.456   1.513  13.495 -0.0294  0.2628 -0.2115
 1768SOL    HW116763   0.397   1.568  13.443  2.1644  1.2563 -1.6040
 1768SOL    HW216764   0.405   1.432  13.508  1.7585 -0.7517  0.4453
 1769SOL     OW16765   3.381   0.578  14.974 -0.3329  0.1575 -0.0665
 1769SOL    HW116766   3.458   0.613  14.930 -0.2925  1.4541  1.0289
 1769SOL    HW216767   3.332   0.543  14.900 -1.2175  1.6446 -0.2008
 1770SOL     OW16768   2.870   2.465   4.545  0.4935  0.1680 -0.6563
 1770SOL    HW116769   2.815   2.388   4.532  0.1203 -0.1291  2.6546
 1770SOL    HW216770   2.832   2.536   4.492  2.1101  0.8729 -0.8892
 1771SOL     OW16771   1.288   3.811   0.532  0.3565  0.3909 -0.0817
 1771SOL    HW116772   1.358   3.752   0.561  0.0753  0.0033 -0.1874
 1771SOL    HW216773   1.324   3.894   0.564  1.6459  0.3741 -1.4659
 1772SOL     OW16774   3.585   0.744   7.852 -0.2590  0.5474 -0.0646
 1772SOL    HW116775   3.631   0.815   7.896  1.2917 -1.4851  1.5873
 1772SOL    HW216776   3.542   0.708   7.930  0.9761  1.3229  0.9750
 1773SOL     OW16777   0.209   2.422   6.850  0.4867  0.0968 -0.0774
 1773SOL    HW116778   0.116   2.432   6.828  0.8083  1.2515 -0.8842
 1773SOL    HW216779   0.221   2.329   6.827  1.9135 -0.3921  2.6863
 1774SOL     OW16780   2.038   3.636   3.187 -0.3539  0.8696  0.1371
 1774SOL    HW116781   2.017   3.543   3.181  0.5534  0.6610  0.2285
 1774SOL    HW216782   2.025   3.667   3.098  0.5050  1.5523  0.2550
 1775SOL     OW16783   3.033   3.199   4.845 -0.2775  0.2107 -0.0009
 1775SOL    HW116784   3.059   3.208   4.753 -0.5672 -1.3812 -0.2470
 1775SOL    HW216785   3.018   3.105   4.853  0.3675  0.1516  0.4914
 1776SOL     OW16786   3.111   3.377   3.469 -0.1358  0.1835  0.5954
 1776SOL    HW116787   3.162   3.309   3.426 -0.3938  0.3889 -0.0501
 1776SOL    HW216788   3.031   3.382   3.416 -0.3441  0.6453  0.9476
 1777SOL     OW16789   2.991   1.900   9.433  0.1308 -0.4365  0.3435
 1777SOL    HW116790   2.925   1.951   9.480  1.0640  3.6125 -2.8194
 1777SOL    HW216791   2.960   1.906   9.343  3.1746  0.1865 -0.6524
 1778SOL     OW16792   0.052   1.649   6.796  0.0017  0.0201 -0.1670
 1778SOL    HW116793   4.697   1.669   6.846  0.5242 -0.5030  0.8587
 1778SOL    HW216794   0.039   1.728   6.744 -1.3580  0.1411  0.3621
 1779SOL     OW16795   1.222   3.603   4.156  0.1074 -0.2004  0.6288
 1779SOL    HW116796   1.305   3.631   4.118  0.0591  0.4019  0.9638
 1779SOL    HW216797   1.224   3.610   4.251 -2.1107  1.3811  0.5669
 1780SOL     OW16798   4.586   0.899  17.399 -0.6229  0.3632 -0.1913
 1780SOL    HW116799   4.676   0.905  17.367 -0.4535  0.8558  0.3758
 1780SOL    HW216800   4.539   0.884  17.317 -0.2347  4.2148 -1.1264
 1781SOL     OW16801   3.826   3.641   4.795 -0.4043 -0.0168  0.4208
 1781SOL    HW116802   3.780   3.724   4.813 -1.1380 -0.5512  1.0342
 1781SOL    HW216803   3.787   3.574   4.852 -0.1552 -1.6255 -1.3009
 1782SOL     OW16804   1.326   0.024   8.493  0.1729 -0.5860  0.5300
 1782SOL    HW116805   1.345   0.094   8.430 -1.1262 -0.1791  0.5828
 1782SOL    HW216806   1.404   0.039   8.546  1.1554 -0.5513 -0.9280
 1783SOL     OW16807   0.601   0.301   2.774  0.2397 -0.5170 -0.3399
 1783SOL    HW116808   0.649   0.265   2.849 -0.7359  0.2422  0.6439
 1783SOL    HW216809   0.593   0.218   2.726  2.6266 -0.0508 -1.5463
 1784SOL     OW16810   3.133   4.421   7.050 -0.0043 -0.1975  0.4062
 1784SOL    HW116811   3.074   4.496   7.051  0.5320  0.2185  0.4223
 1784SOL    HW216812   3.142   4.393   7.141  0.2345  0.3266  0.5403
 1785SOL     OW16813   0.464   0.646  10.682  0.3648 -0.3830 -0.5693
 1785SOL    HW116814   0.556   0.659  10.659 -0.2018  1.9062 -1.5629
 1785SOL    HW216815   0.441   0.737  10.701  2.6258 -0.3702  2.1227
 1786SOL     OW16816   1.296   4.665   3.740 -0.4792 -0.2259 -0.0191
 1786SOL    HW116817   1.334   4.602   3.679 -1.6129  0.1860 -1.1619
 1786SOL    HW216818   1.374   4.685   3.791  0.2310  0.5843 -1.4642
 1787SOL     OW16819   4.437   0.281   6.603 -0.3268  0.1027 -0.1477
 1787SOL    HW116820   4.388   0.358   6.632  0.1758  1.2653 -2.4001
 1787SOL    HW216821   4.510   0.268   6.664  0.2149  2.3613 -0.3003
 1788SOL     OW16822   3.352   2.116   0.841  0.0199 -0.3231  0.1209
 1788SOL    HW116823   3.340   2.067   0.922 -4.9650 -0.8442 -0.9445
 1788SOL    HW216824   3.436   2.159   0.861 -0.3053 -0.0360  0.8630
 1789SOL     OW16825   1.010   3.179   4.327 -0.1056  0.2774  0.0243
 1789SOL    HW116826   1.042   3.093   4.299 -0.1479  0.1908  0.2399
 1789SOL    HW216827   0.926   3.160   4.368  0.5972  0.4403  1.5641
 1790SOL     OW16828   3.796   0.645   6.993  0.0690  0.0909  0.4083
 1790SOL    HW116829   3.741   0.724   6.997  0.5716  0.4511  0.2222
 1790SOL    HW216830   3.857   0.664   6.922  0.8487 -1.1555  0.7482
 1791SOL     OW16831   2.088   0.859  16.532  0.3642 -0.2817 -0.1346
 1791SOL    HW116832   2.054   0.877  16.620 -0.4954 -1.4874 -0.2253
 1791SOL    HW216833   2.013   0.875  16.475  0.4834 -0.8217 -0.4401
 1792SOL     OW16834   3.574   2.913   6.548 -0.7018  0.1949 -0.4147
 1792SOL    HW116835   3.622   2.838   6.514  2.5767  1.1100  2.2431
 1792SOL    HW216836   3.565   2.886   6.639  0.0757  3.4074  0.6334
 1793SOL     OW16837   4.393   1.355  11.995 -0.2221  0.2319  0.3352
 1793SOL    HW116838   4.325   1.334  11.931 -1.2401  0.7185  1.2535
 1793SOL    HW216839   4.473   1.339  11.945  0.5254  0.2512  1.5236
 1794SOL     OW16840   0.418   0.275   2.475  0.2049 -0.4886  0.0581
 1794SOL    HW116841   0.435   0.247   2.385  0.8208  0.5802 -0.1528
 1794SOL    HW216842   0.473   0.353   2.480  0.3015 -0.3923 -2.3828
 1795SOL     OW16843   2.177   1.859   5.601  0.3026 -0.2175 -0.3828
 1795SOL    HW116844   2.203   1.939   5.648 -1.1207  0.1567 -0.2191
 1795SOL    HW216845   2.162   1.805   5.679 -3.7539 -0.2293 -1.1434
 1796SOL     OW16846   4.429   1.950   6.777 -0.1916 -0.9534 -0.8378
 1796SOL    HW116847   4.449   1.879   6.716 -1.6570 -1.4019 -0.8020
 1796SOL    HW216848   4.339   1.925   6.795 -0.4991  0.5051 -0.3956
 1797SOL     OW16849   3.629   4.214   2.780  0.0898  0.3092  0.0140
 1797SOL    HW116850   3.703   4.271   2.762 -0.0556 -0.0586 -1.6887
 1797SOL    HW216851   3.587   4.263   2.851  2.0437  1.9123  0.0601
 1798SOL     OW16852   1.635   2.663   5.175 -0.1957 -0.0065 -0.1009
 1798SOL    HW116853   1.692   2.586   5.170 -0.2279 -0.0714  0.5361
 1798SOL    HW216854   1.677   2.718   5.108 -2.1603  0.1824 -1.1792
 1799SOL     OW16855   2.886   2.223  13.257 -0.0622 -0.3365  0.5885
 1799SOL    HW116856   2.868   2.317  13.263  0.7264 -0.1708  0.3006
 1799SOL    HW216857   2.903   2.208  13.164  0.8578 -0.3736  0.7643
 1800SOL     OW16858   4.361   1.277  11.464  0.1465 -0.3597  0.1931
 1800SOL    HW116859   4.293   1.227  11.420 -0.6725  0.4429  0.5500
 1800SOL    HW216860   4.435   1.222  11.439  0.7805 -0.0978  1.4836
 1801SOL     OW16861   4.126   2.506   2.449 -0.2732 -0.1982 -0.1455
 1801SOL    HW116862   4.099   2.439   2.512 -0.2922  0.6920  0.8007
 1801SOL    HW216863   4.166   2.576   2.501 -1.5212 -0.0927  0.6616
 1802SOL     OW16864   2.790   0.801  11.692  0.1617 -0.8303  0.1719
 1802SOL    HW116865   2.824   0.883  11.656  2.9616 -1.6209  1.0770
 1802SOL    HW216866   2.712   0.830  11.741  0.0716 -1.1116  0.1965
 1803SOL     OW16867   0.754   0.626  12.190  0.3659 -0.2985 -0.2187
 1803SOL    HW116868   0.700   0.549  12.173 -0.3166  0.3706 -1.0595
 1803SOL    HW216869   0.740   0.627  12.285 -0.9394  1.2882 -0.4212
 1804SOL     OW16870   0.361   0.398  14.294  0.1489  0.1290 -0.1957
 1804SOL    HW116871   0.374   0.492  14.290  1.8332 -0.2468 -3.4309
 1804SOL    HW216872   0.331   0.373  14.206 -0.6880 -3.2937  1.0634
 1805SOL     OW16873   4.376   2.632   6.419  0.0863  0.0671  0.6313
 1805SOL    HW116874   4.311   2.698   6.443 -1.1987 -1.3543  1.0411
 1805SOL    HW216875   4.341   2.559   6.470  0.5072 -2.5635 -2.8533
 1806SOL     OW16876   3.862   2.290  15.056  0.4131 -0.6672 -0.3079
 1806SOL    HW116877   3.779   2.263  15.093  0.9894 -0.1520  1.3685
 1806SOL    HW216878   3.837   2.327  14.971 -1.6247  0.2688  0.7120
 1807SOL     OW16879   4.208   0.864   1.031 -0.1117  0.3444  0.0387
 1807SOL    HW116880   4.214   0.944   0.979 -0.2579  0.6083  0.4282
 1807SOL    HW216881   4.114   0.874   1.044 -0.0079 -1.2693  1.9942
 1808SOL     OW16882   0.105   0.246   2.301  0.1910 -0.0746 -0.8211
 1808SOL    HW116883   0.184   0.192   2.301  0.2387  0.0153  2.5739
 1808SOL    HW216884   0.050   0.201   2.365  1.2850 -0.2559  0.0036
 1809SOL     OW16885   4.118   4.292   0.177 -0.1567 -0.6526 -0.1229
 1809SOL    HW116886   4.112   4.223   0.243  2.3033  0.3463  1.1297
 1809SOL    HW216887   4.117   4.238   0.097 -0.8239 -0.1711 -0.4405
 1810SOL     OW16888   2.737   2.589   6.680  0.0529  0.1603  0.4707
 1810SOL    HW116889   2.804   2.628   6.735  0.2796 -0.4184  0.6095
 1810SOL    HW216890   2.771   2.616   6.594  0.6844  3.1738  1.6943
 1811SOL     OW16891   0.623   1.976   4.040  0.6084  0.0487 -0.5514
 1811SOL    HW116892   0.701   1.944   3.995  1.0973 -0.2869  0.5309
 1811SOL    HW216893   0.576   1.893   4.046  2.3040 -0.8727  0.0937
 1812SOL     OW16894   2.762   2.351  11.343  0.1802  0.2152 -0.0117
 1812SOL    HW116895   2.713   2.411  11.399 -0.0752  1.2109 -1.3035
 1812SOL    HW216896   2.821   2.416  11.304 -1.9714  1.8353 -0.5367
 1813SOL     OW16897   1.096   1.829   6.173  0.2463  0.2362  0.1975
 1813SOL    HW116898   1.090   1.775   6.252 -0.6770 -0.7795 -0.5712
 1813SOL    HW216899   1.143   1.772   6.112 -1.7916 -0.3864 -0.7684
 1814SOL     OW16900   2.752   1.725   4.476 -0.4513  0.1497 -0.1394
 1814SOL    HW116901   2.734   1.641   4.433  0.6675 -0.7991  1.2245
 1814SOL    HW216902   2.676   1.723   4.534  1.6026 -1.8684  2.4979
 1815SOL     OW16903   1.614   0.497   6.568 -0.2284 -0.1284 -0.4705
 1815SOL    HW116904   1.685   0.561   6.579 -0.8893  0.2785  1.3799
 1815SOL    HW216905   1.634   0.430   6.634  0.0195 -0.3721 -0.7881
 1816SOL     OW16906   0.209   4.466   7.361  0.0414 -0.0850  0.1812
 1816SOL    HW116907   0.221   4.450   7.454 -0.3522  1.2526  0.4646
 1816SOL    HW216908   0.115   4.466   7.344  0.0548 -3.8433  0.1593
 1817SOL     OW16909   0.163   1.692   2.390 -0.2004  0.7628  0.2592
 1817SOL    HW116910   0.179   1.682   2.296 -0.5967  0.0968  0.2627
 1817SOL    HW216911   0.201   1.777   2.413 -1.8568  1.1511  1.4896
 1818SOL     OW16912   2.448   3.249   8.129 -0.6138 -0.2693 -0.0801
 1818SOL    HW116913   2.536   3.269   8.099 -0.7699 -1.2399 -1.2181
 1818SOL    HW216914   2.443   3.328   8.183  0.9466 -0.4204  0.2814
 1819SOL     OW16915   1.351   1.901   6.279  0.1832  0.0100 -0.0697
 1819SOL    HW116916   1.365   1.853   6.361 -0.8240 -0.3276 -0.0939
 1819SOL    HW216917   1.268   1.862   6.251 -0.4626 -0.0326  1.9320
 1820SOL     OW16918   2.183   1.046   2.521  0.0821 -0.3237 -0.3621
 1820SOL    HW116919   2.122   0.995   2.575 -1.4918  1.4995 -0.4280
 1820SOL    HW216920   2.151   1.021   2.434  0.5225 -1.7727 -0.1009
 1821SOL     OW16921   2.113   1.501   4.844 -0.5018  0.4531  0.2124
 1821SOL    HW116922   2.110   1.597   4.838 -1.6912  0.3200 -1.6224
 1821SOL    HW216923   2.181   1.481   4.908 -0.9788 -0.6250  0.3809
 1822SOL     OW16924   2.469   4.236   5.597  0.5080  0.4216 -0.0756
 1822SOL    HW116925   2.546   4.198   5.556 -0.9098 -1.2325 -1.1810
 1822SOL    HW216926   2.429   4.181   5.664  0.6492  0.8736  0.3859
 1823SOL     OW16927   2.208   4.238  11.554 -0.0171 -0.1839  0.3940
 1823SOL    HW116928   2.270   4.251  11.626  0.2937  0.3835  0.0261
 1823SOL    HW216929   2.221   4.309  11.491 -0.9585 -1.8173 -1.6216
 1824SOL     OW16930   3.401   1.946   5.347  0.4053  0.2756  0.0330
 1824SOL    HW116931   3.348   2.018   5.313  0.5747 -0.3891 -1.6339
 1824SOL    HW216932   3.489   1.969   5.318 -0.2638  1.5794 -0.9566
 1825SOL     OW16933   0.523   3.378   4.692  0.0841  0.2182  0.2227
 1825SOL    HW116934   0.483   3.290   4.691 -5.1347  2.5535 -1.3303
 1825SOL    HW216935   0.599   3.365   4.635 -0.2067  0.3657 -0.2005
 1826SOL     OW16936   1.987   4.117   8.478 -0.4453  0.0097  0.4674
 1826SOL    HW116937   2.073   4.147   8.508  1.1302 -1.7362 -2.4066
 1826SOL    HW216938   1.954   4.194   8.432 -0.7711  0.2489  1.0964
 1827SOL     OW16939   4.049   3.459   6.812 -0.1878  0.0199  0.4818
 1827SOL    HW116940   3.972   3.490   6.764  1.3077 -0.2497 -2.1501
 1827SOL    HW216941   4.118   3.450   6.745  1.3351  2.4933  1.6921
 1828SOL     OW16942   1.106   2.126   6.371  0.0787 -0.3678  0.6229
 1828SOL    HW116943   1.068   2.080   6.445  3.0948 -0.0414  2.3542
 1828SOL    HW216944   1.140   2.046   6.333  3.1878  0.9750  0.6146
 1829SOL     OW16945   0.441   1.778   8.127  0.7350 -0.3214  0.4958
 1829SOL    HW116946   0.521   1.762   8.176  1.7866  1.8343 -0.5366
 1829SOL    HW216947   0.396   1.694   8.139  0.9618 -0.5912 -0.5013
 1830SOL     OW16948   2.872   0.385   7.586  0.3074 -0.1511 -0.2510
 1830SOL    HW116949   2.907   0.299   7.609  0.1783  0.1407  1.0213
 1830SOL    HW216950   2.898   0.384   7.494  0.9384 -3.9154 -0.0361
 1831SOL     OW16951   3.702   0.891   5.259  0.0128  0.8756 -0.0458
 1831SOL    HW116952   3.728   0.888   5.167 -1.4135  0.0718 -0.4247
 1831SOL    HW216953   3.679   0.984   5.268  1.5669  1.2450  0.0707
 1832SOL     OW16954   3.317   0.951   8.708  0.1356  0.0529  0.4664
 1832SOL    HW116955   3.328   1.043   8.731  0.1975  0.3368 -0.7390
 1832SOL    HW216956   3.375   0.904   8.769 -1.0198 -0.2551  1.3227
 1833SOL     OW16957   4.465   1.995   7.245 -0.0240  0.2553 -0.0285
 1833SOL    HW116958   4.555   1.984   7.274  1.0672  0.7039 -3.2017
 1833SOL    HW216959   4.433   1.906   7.228  1.2319 -0.0095 -1.0604
 1834SOL     OW16960   3.482   0.656   5.293 -0.3028  0.2155 -0.3097
 1834SOL    HW116961   3.437   0.713   5.232 -0.9268 -0.2848 -0.3147
 1834SOL    HW216962   3.553   0.709   5.330 -1.8340  2.2865 -0.3887
 1835SOL     OW16963   0.548   2.272  13.097 -0.2030  0.2937 -0.2296
 1835SOL    HW116964   0.586   2.249  13.012  0.9555 -0.0097  0.3785
 1835SOL    HW216965   0.475   2.212  13.111  0.2325 -0.2580 -0.3552
 1836SOL     OW16966   4.486   2.394   5.825  0.3636 -0.0663  1.0798
 1836SOL    HW116967   4.490   2.310   5.779  0.6695  0.1095  0.7823
 1836SOL    HW216968   4.573   2.404   5.863  0.4490  1.5967  0.4447
 1837SOL     OW16969   3.330   2.632   2.536 -0.0275  0.6076  0.2401
 1837SOL    HW116970   3.391   2.622   2.608  0.7052  0.0341 -0.4682
 1837SOL    HW216971   3.256   2.657   2.592  0.3542  0.9994  0.5717
 1838SOL     OW16972   2.997   0.081   2.369 -0.4753  0.5134  0.0950
 1838SOL    HW116973   3.011   0.078   2.274 -2.0731  0.4821 -0.1427
 1838SOL    HW216974   2.911   0.038   2.370  0.3271 -1.0853 -0.0093
 1839SOL     OW16975   1.121   4.131  15.163  0.1951  0.6147  0.2757
 1839SOL    HW116976   1.032   4.152  15.189  0.3128  1.9963 -0.4805
 1839SOL    HW216977   1.101   4.094  15.077 -1.1235  1.7466  0.1007
 1840SOL     OW16978   3.429   1.049   6.094 -0.2105  0.1506 -0.2430
 1840SOL    HW116979   3.522   1.051   6.117 -0.6618  1.7689  1.5143
 1840SOL    HW216980   3.390   1.047   6.181  0.6128 -0.6999  0.1008
 1841SOL     OW16981   3.974   0.073   6.096 -0.1682  0.2307 -0.0134
 1841SOL    HW116982   4.043   0.019   6.133 -1.6271 -0.6495  1.4407
 1841SOL    HW216983   4.020   0.157   6.094  0.3863 -0.1017 -1.1055
 1842SOL     OW16984   2.663   3.182  13.648 -0.0865  0.2002 -0.0386
 1842SOL    HW116985   2.739   3.154  13.597  0.8415  1.0371  0.8862
 1842SOL    HW216986   2.625   3.245  13.586 -1.0600  0.2340  0.5901
 1843SOL     OW16987   2.356   4.433  13.257  0.4349 -0.0159  0.0557
 1843SOL    HW116988   2.401   4.517  13.265 -1.9482  1.2280  0.4734
 1843SOL    HW216989   2.382   4.389  13.338  1.0740 -1.5048 -0.9706
 1844SOL     OW16990   0.392   4.676   3.315 -0.5845 -0.1646  0.4568
 1844SOL    HW116991   0.320   0.015   3.315  2.4568  3.3502  0.4477
 1844SOL    HW216992   0.458   0.007   3.272  0.9850  0.3932  3.5154
 1845SOL     OW16993   4.424   2.925   6.191 -0.4328  0.3176  0.3231
 1845SOL    HW116994   4.402   2.971   6.110 -0.1311  0.4731  0.3281
 1845SOL    HW216995   4.392   2.990   6.254  0.5778 -0.1224  1.3068
 1846SOL     OW16996   3.680   2.897   5.020 -0.0501 -0.3602 -0.4659
 1846SOL    HW116997   3.771   2.869   5.015 -0.1312 -0.7624  0.3991
 1846SOL    HW216998   3.685   2.985   5.058  0.6626 -0.2666 -0.7805
 1847SOL     OW16999   1.384   1.499   7.744 -0.4764  0.0885 -0.3553
 1847SOL    HW117000   1.400   1.439   7.817 -4.4202  0.3304  0.7035
 1847SOL    HW217001   1.458   1.558   7.757 -0.9678  0.0132  2.7764
 1848SOL     OW17002   4.419   4.370   1.978  0.3016  0.8357  0.4914
 1848SOL    HW117003   4.481   4.432   2.015 -0.2930  2.0035 -0.4783
 1848SOL    HW217004   4.380   4.417   1.905 -0.3391 -0.0171  0.2824
 1849SOL     OW17005   1.273   2.400   5.790 -0.0448  0.4271  0.5019
 1849SOL    HW117006   1.235   2.327   5.743  0.3733  0.3881  0.2262
 1849SOL    HW217007   1.357   2.392   5.746  0.9046  4.9272  1.4840
 1850SOL     OW17008   3.067   2.515   5.859  0.4285  0.4172 -0.8407
 1850SOL    HW117009   3.097   2.424   5.870  0.8748  0.7407  0.6171
 1850SOL    HW217010   2.977   2.494   5.832  0.4675  0.4992 -1.0270
 1851SOL     OW17011   2.261   1.522   2.959  0.0701 -0.1730  0.9412
 1851SOL    HW117012   2.327   1.453   2.953  1.0633  0.8355  0.3207
 1851SOL    HW217013   2.200   1.482   3.022 -2.3797  2.1158  0.0053
 1852SOL     OW17014   2.877   1.468   6.317  0.0986 -0.2900  0.2595
 1852SOL    HW117015   2.867   1.386   6.366 -0.0641 -0.4215  0.0060
 1852SOL    HW217016   2.928   1.515   6.383  0.9255  0.3715 -0.8505
 1853SOL     OW17017   3.013   0.551   7.787  0.3215 -0.0766 -0.3901
 1853SOL    HW117018   2.961   0.500   7.725 -0.3328 -0.6292  0.6123
 1853SOL    HW217019   3.085   0.493   7.812 -0.0444 -0.6350 -0.6150
 1854SOL     OW17020   4.187   3.874   4.760 -0.1434 -0.0206  0.4454
 1854SOL    HW117021   4.244   3.818   4.812  2.4736  1.3949 -0.8945
 1854SOL    HW217022   4.151   3.923   4.835  0.2589 -0.3320  0.8383
 1855SOL     OW17023   4.427   4.482   7.519  0.3608  0.4601  0.0168
 1855SOL    HW117024   4.493   4.454   7.456  0.2132  2.3176 -0.9731
 1855SOL    HW217025   4.469   4.455   7.601  1.1492  2.1436  0.1803
 1856SOL     OW17026   3.381   0.862  13.713  0.2792 -0.1838 -0.4322
 1856SOL    HW117027   3.348   0.862  13.623 -1.4869  0.0331  0.2109
 1856SOL    HW217028   3.349   0.948  13.739  1.3213 -0.1515  0.7687
 1857SOL     OW17029   4.650   4.014   7.405 -0.3167 -0.2010 -0.0467
 1857SOL    HW117030   0.010   3.980   7.374 -0.1919 -0.3596  0.4726
 1857SOL    HW217031   4.625   3.928   7.438  0.1690 -0.9433 -1.6402
 1858SOL     OW17032   0.103   4.609  11.851  0.7455 -0.1999  1.0209
 1858SOL    HW117033   0.050   4.659  11.913 -0.1781  1.2948 -0.9788
 1858SOL    HW217034   0.060   4.525  11.862 -1.8453  1.0649  0.5324
 1859SOL     OW17035   1.745   0.141   6.958 -0.2072 -0.0865  0.8080
 1859SOL    HW117036   1.661   0.157   7.000 -0.0262  2.4135  0.2188
 1859SOL    HW217037   1.783   0.076   7.017 -0.3066  0.0691  1.0473
 1860SOL     OW17038   0.260   2.725   8.409  0.9688 -0.6681  0.2281
 1860SOL    HW117039   0.336   2.668   8.421  1.4386  0.0899  0.7801
 1860SOL    HW217040   0.240   2.714   8.316 -0.2240  0.5126  0.3343
 1861SOL     OW17041   0.799   3.054  13.067 -0.3518  0.0407 -0.1018
 1861SOL    HW117042   0.884   3.082  13.100  0.6480  0.0003 -2.6047
 1861SOL    HW217043   0.756   3.008  13.139 -2.0591  1.7592 -0.0271
 1862SOL     OW17044   4.421   2.820  12.442 -0.0852 -0.3777 -0.0887
 1862SOL    HW117045   4.469   2.744  12.409 -0.9173 -0.0913 -1.9396
 1862SOL    HW217046   4.481   2.895  12.443 -0.8385  0.2416 -0.4632
 1863SOL     OW17047   2.870   1.748   4.948  0.1005  0.2962  0.0117
 1863SOL    HW117048   2.879   1.773   4.856  1.3849  0.3259  0.1471
 1863SOL    HW217049   2.941   1.685   4.957  0.4489  0.5536 -0.9237
 1864SOL     OW17050   1.373   1.861   4.603  0.2244  0.0554  0.2187
 1864SOL    HW117051   1.417   1.940   4.631  0.3793  0.1607 -0.3162
 1864SOL    HW217052   1.283   1.876   4.632  0.4945  1.9928  0.0249
 1865SOL     OW17053   4.682   0.628  14.017  0.2617 -0.2874 -0.1822
 1865SOL    HW117054   0.052   0.645  14.028 -0.2165  1.7708  0.7215
 1865SOL    HW217055   4.654   0.719  14.001 -0.6170 -0.6467 -0.6791
 1866SOL     OW17056   3.403   0.832  10.842 -0.5698  0.1637 -0.0546
 1866SOL    HW117057   3.372   0.743  10.825  2.2329 -0.7127 -0.6365
 1866SOL    HW217058   3.337   0.847  10.908 -0.6039 -1.2427  0.2257
 1867SOL     OW17059   4.262   2.881   4.781  0.1739 -0.1420  0.7799
 1867SOL    HW117060   4.180   2.917   4.816 -0.8810 -1.1105 -0.7152
 1867SOL    HW217061   4.291   2.960   4.737 -0.1140 -0.2016  0.4865
 1868SOL     OW17062   1.010   3.434  10.896  0.2416 -0.3356  0.1299
 1868SOL    HW117063   0.944   3.392  10.951  0.5684 -0.6578  0.2740
 1868SOL    HW217064   1.084   3.375  10.914 -0.2570 -0.8149  0.6054
 1869SOL     OW17065   2.808   0.083   8.373 -0.0758 -0.3090  0.0516
 1869SOL    HW117066   2.728   0.084   8.425 -1.0524 -0.3313 -1.4618
 1869SOL    HW217067   2.812   0.177   8.352 -0.3608  0.1590  2.0257
 1870SOL     OW17068   3.173   3.517   7.194 -0.0664  0.1749 -0.8937
 1870SOL    HW117069   3.180   3.422   7.205  0.4323  0.3438  0.3068
 1870SOL    HW217070   3.084   3.535   7.225  0.4250 -1.3571  1.4448
 1871SOL     OW17071   1.834   1.204  14.527  0.6720  0.0798 -0.4108
 1871SOL    HW117072   1.870   1.281  14.571 -0.9791  0.3957  0.3493
 1871SOL    HW217073   1.917   1.173  14.489  1.6331  1.2364  0.7517
 1872SOL     OW17074   4.176   1.911   4.837  0.3805 -0.2178  0.0302
 1872SOL    HW117075   4.237   1.869   4.896 -1.3597 -0.5767  1.5793
 1872SOL    HW217076   4.094   1.877   4.873  0.7017 -1.6364 -0.5808
 1873SOL     OW17077   1.254   0.955   4.740 -0.1844 -0.4481  0.1593
 1873SOL    HW117078   1.336   0.990   4.777  0.1718  1.4484 -2.4300
 1873SOL    HW217079   1.284   0.885   4.682 -0.1068 -1.3768  1.3262
 1874SOL     OW17080   4.714   0.286   0.288 -0.2477 -0.7307 -0.2517
 1874SOL    HW117081   0.042   0.280   0.207  1.3010 -0.2149  0.7038
 1874SOL    HW217082   4.624   0.285   0.255  0.0628 -0.6087 -1.1054
 1875SOL     OW17083   0.507   0.287  10.966  0.2085  0.2852 -0.1028
 1875SOL    HW117084   0.516   0.314  10.875  1.6164 -0.8711 -0.3011
 1875SOL    HW217085   0.596   0.267  10.995 -0.3335 -0.5771  0.9966
 1876SOL     OW17086   3.127   0.377  17.334  1.0501 -0.0496  0.0384
 1876SOL    HW117087   3.157   0.287  17.323 -2.4611 -1.4012  1.5262
 1876SOL    HW217088   3.044   0.374  17.286  1.1866 -1.9013 -0.0556
 1877SOL     OW17089   4.548   0.319  12.891 -0.3262  0.2705 -0.1056
 1877SOL    HW117090   4.515   0.274  12.969 -0.2026  2.8534  1.4195
 1877SOL    HW217091   4.629   0.359  12.922 -0.0369 -0.6824  0.3529
 1878SOL     OW17092   3.452   0.991   8.359  0.0590 -0.3969  0.2506
 1878SOL    HW117093   3.466   1.023   8.270 -2.2578  4.8230  1.7475
 1878SOL    HW217094   3.401   1.060   8.401 -1.0653 -1.6412  0.9581
 1879SOL     OW17095   1.442   1.823  15.334  0.1617  0.1462  0.1551
 1879SOL    HW117096   1.363   1.821  15.279 -0.5279  2.6579  1.0822
 1879SOL    HW217097   1.452   1.918  15.337  1.6639  0.0626 -2.1344
 1880SOL     OW17098   1.126   3.250  17.677 -0.1992  0.8600  0.3368
 1880SOL    HW117099   1.054   3.255  17.615  0.7538 -0.3934 -0.8797
 1880SOL    HW217100   1.134   3.339   0.015 -0.0228  0.6839  0.7484
 1881SOL     OW17101   0.777   2.649   1.074 -0.5317  0.4485  0.0673
 1881SOL    HW117102   0.755   2.589   1.145 -0.6900 -1.1173 -1.3147
 1881SOL    HW217103   0.758   2.734   1.114  1.3495  1.0568 -0.3147
 1882SOL     OW17104   1.332   4.646  12.105  0.2990 -0.4695  0.0063
 1882SOL    HW117105   1.378   4.703  12.167  1.2158 -4.3398  2.8881
 1882SOL    HW217106   1.414   4.620  12.061  0.4419 -0.7532  0.4437
 1883SOL     OW17107   4.122   0.283   4.661  0.2716 -0.7714 -0.3534
 1883SOL    HW117108   4.175   0.280   4.581  1.7160 -0.0924  0.5801
 1883SOL    HW217109   4.060   0.212   4.647 -1.0430  1.2902 -5.0454
 1884SOL     OW17110   4.316   3.027   9.070 -0.2719  0.0244 -0.2743
 1884SOL    HW117111   4.396   3.022   9.121 -0.4428  1.9013  0.1813
 1884SOL    HW217112   4.315   3.112   9.026  1.0852  0.1071 -0.1326
 1885SOL     OW17113   2.255   3.523  11.768 -0.5117  0.2956 -0.5965
 1885SOL    HW117114   2.314   3.538  11.695  2.2004  0.2629  1.5919
 1885SOL    HW217115   2.228   3.614  11.783  2.0078  0.7845  1.0448
 1886SOL     OW17116   4.454   0.038  10.294 -0.3058 -0.2633 -0.5297
 1886SOL    HW117117   4.512   0.039  10.218  1.1551 -2.0374  0.5816
 1886SOL    HW217118   4.492   4.686  10.339 -0.9361 -0.9478 -1.1497
 1887SOL     OW17119   3.072   3.062   1.807  0.2610 -0.3163  0.5975
 1887SOL    HW117120   3.089   3.103   1.722 -0.6542  1.9424  1.4740
 1887SOL    HW217121   3.150   3.087   1.856 -1.2434  1.7000  1.9866
 1888SOL     OW17122   3.696   2.050  11.003  0.2071  0.2056  0.6011
 1888SOL    HW117123   3.756   2.118  10.975 -0.5034  0.9894  0.9797
 1888SOL    HW217124   3.751   1.983  11.045  0.6841 -0.8534 -1.7191
 1889SOL     OW17125   1.510   1.142  16.624 -0.3890 -0.4235 -0.4085
 1889SOL    HW117126   1.561   1.066  16.652 -0.6577 -0.8037 -0.9647
 1889SOL    HW217127   1.447   1.101  16.565  0.3596 -3.0350  0.6528
 1890SOL     OW17128   1.379   0.873   3.371 -0.1209 -0.0070  0.3615
 1890SOL    HW117129   1.329   0.947   3.338  3.0083  1.7169 -0.4824
 1890SOL    HW217130   1.340   0.801   3.321 -0.0825  0.9155 -0.9694
 1891SOL     OW17131   2.284   0.049   2.333 -0.0224 -0.0444 -0.0227
 1891SOL    HW117132   2.352   0.109   2.303 -1.2585  1.2968 -0.1453
 1891SOL    HW217133   2.310   4.688   2.297 -0.2818 -0.0557 -0.1850
 1892SOL     OW17134   4.222   1.873  17.401 -0.2217  0.3153  0.1193
 1892SOL    HW117135   4.226   1.828  17.485  1.2445 -0.8514 -0.5654
 1892SOL    HW217136   4.178   1.799  17.358  0.5117 -0.2450  0.3328
 1893SOL     OW17137   2.480   3.385   4.130  0.5381 -0.0949 -0.2939
 1893SOL    HW117138   2.561   3.334   4.118  1.0213  0.8697 -1.1080
 1893SOL    HW217139   2.470   3.403   4.036 -0.3698 -0.0382 -0.1852
 1894SOL     OW17140   4.491   4.196  11.648 -0.2136  0.8055  0.1392
 1894SOL    HW117141   4.442   4.124  11.609 -1.2871  1.5738  0.0774
 1894SOL    HW217142   4.440   4.268  11.610 -1.1564 -0.0894 -0.2679
 1895SOL     OW17143   0.311   2.594   3.443  0.1503 -0.2996 -0.7787
 1895SOL    HW117144   0.380   2.561   3.385  0.4172 -0.0335 -0.6159
 1895SOL    HW217145   0.294   2.522   3.504 -0.8579  1.1200  0.6157
 1896SOL     OW17146   3.078   0.758   2.571 -0.2929  0.1402  0.6764
 1896SOL    HW117147   3.128   0.677   2.561  1.2284  1.2659 -0.9224
 1896SOL    HW217148   2.999   0.725   2.529  1.3108  0.1110 -2.2984
 1897SOL     OW17149   2.282   3.929   4.932  0.1943 -0.5975  0.0350
 1897SOL    HW117150   2.269   3.874   5.009  1.2226  0.5205  1.0051
 1897SOL    HW217151   2.348   3.986   4.971  0.4717 -0.7427 -0.2235
 1898SOL     OW17152   4.276   2.243  16.163 -0.1713 -0.5473 -0.7552
 1898SOL    HW117153   4.275   2.294  16.082  2.2150 -0.6222 -0.8463
 1898SOL    HW217154   4.193   2.196  16.163  0.6763 -2.0876  1.3850
 1899SOL     OW17155   0.162   0.750   3.193  0.3116 -0.1423  0.1858
 1899SOL    HW117156   0.127   0.716   3.111 -1.3477  1.4231  0.2716
 1899SOL    HW217157   0.083   0.736   3.245  0.7578 -0.6309  0.7415
 1900SOL     OW17158   1.380   0.386   6.456  0.0413  0.2773 -0.2290
 1900SOL    HW117159   1.459   0.399   6.509  0.4247 -1.2129 -0.4353
 1900SOL    HW217160   1.332   0.468   6.461  0.6819  0.6286  0.2606
 1901SOL     OW17161   3.149   0.092   0.967  0.1791 -0.0772 -0.0373
 1901SOL    HW117162   3.222   0.107   1.026 -0.1552  2.7922 -0.3763
 1901SOL    HW217163   3.190   0.126   0.887 -0.1869 -2.9021 -1.4283
 1902SOL     OW17164   2.188   0.742   5.820 -0.0353  0.2321 -0.2220
 1902SOL    HW117165   2.173   0.836   5.831 -0.9353  0.1706 -0.8869
 1902SOL    HW217166   2.210   0.735   5.728 -0.1794  1.8076 -0.3828
 1903SOL     OW17167   2.063   2.000   6.485 -0.3805  0.2024  0.1039
 1903SOL    HW117168   2.062   2.022   6.578 -2.3074 -1.4050  0.4635
 1903SOL    HW217169   2.079   2.085   6.444  1.2437 -0.8811 -1.5262
 1904SOL     OW17170   0.990   1.388   8.809  0.2600 -0.0845 -0.1829
 1904SOL    HW117171   0.910   1.387   8.757  0.8656 -1.0863 -1.0985
 1904SOL    HW217172   0.953   1.360   8.893  0.2436  0.2894 -0.0663
 1905SOL     OW17173   1.028   3.246  14.715 -0.0733  0.0461 -0.1463
 1905SOL    HW117174   1.102   3.185  14.718  0.1644  0.3413  0.0073
 1905SOL    HW217175   0.998   3.245  14.806 -1.3706  0.4071 -0.5628
 1906SOL     OW17176   2.116   2.665  11.340 -0.0303 -0.0200  0.0598
 1906SOL    HW117177   2.172   2.719  11.396 -0.2884  1.5486 -1.1811
 1906SOL    HW217178   2.179   2.621  11.284  1.8216 -0.4132  2.4258
 1907SOL     OW17179   1.808   1.376   8.197 -0.2317  0.1501  0.2545
 1907SOL    HW117180   1.828   1.412   8.284  2.6953 -1.8822  0.4020
 1907SOL    HW217181   1.758   1.450   8.163 -0.4311  0.2927  0.8483
 1908SOL     OW17182   2.112   4.411   6.134  0.1275 -0.2374 -0.4399
 1908SOL    HW117183   2.064   4.493   6.141  0.5125 -0.2131  1.7471
 1908SOL    HW217184   2.188   4.445   6.087  0.8948 -1.5301 -0.1350
 1909SOL     OW17185   1.356   4.672   7.498  0.0389  0.1298 -0.0391
 1909SOL    HW117186   1.323   0.023   7.549  0.1336 -0.5943  1.0771
 1909SOL    HW217187   1.285   4.652   7.436 -1.7916  1.7652  1.4994
 1910SOL     OW17188   3.260   1.346   8.157  0.3057  0.4548  0.5279
 1910SOL    HW117189   3.213   1.264   8.139  2.6772 -0.9371  0.6132
 1910SOL    HW217190   3.200   1.388   8.218  1.7079  1.1170  1.4633
 1911SOL     OW17191   0.809   0.508   5.809  0.5028 -0.0817 -0.4559
 1911SOL    HW117192   0.776   0.531   5.723 -1.1109 -0.3168  0.0983
 1911SOL    HW217193   0.875   0.575   5.827 -0.6273  0.1945  2.7248
 1912SOL     OW17194   4.595   1.252   2.022  0.0569 -0.3299 -0.2499
 1912SOL    HW117195   4.688   1.228   2.017  0.1627  0.5156 -2.3251
 1912SOL    HW217196   4.576   1.216   2.109 -1.7878 -1.0307 -0.9425
 1913SOL     OW17197   2.567   4.342   2.726  0.3680  0.0289 -1.2353
 1913SOL    HW117198   2.659   4.348   2.698  0.3630  1.3464 -0.9758
 1913SOL    HW217199   2.524   4.296   2.654  0.6131 -0.9676 -0.7519
 1914SOL     OW17200   2.007   0.793   9.554 -0.3385 -0.4436  0.7129
 1914SOL    HW117201   2.018   0.723   9.490  1.2764  1.1288 -0.7078
 1914SOL    HW217202   2.005   0.731   9.627  0.7649 -0.3994  0.7762
 1915SOL     OW17203   2.141   3.519  12.816 -0.6444  0.1261  0.6809
 1915SOL    HW117204   2.212   3.463  12.847  0.1684 -1.0718 -3.3487
 1915SOL    HW217205   2.179   3.606  12.826 -1.0987  0.2440  1.4197
 1916SOL     OW17206   3.343   2.912   9.052  0.1705  0.2341 -0.1169
 1916SOL    HW117207   3.376   2.829   9.085 -1.0594 -0.7643 -1.3741
 1916SOL    HW217208   3.402   2.967   9.102 -2.6717  1.7765  1.5040
 1917SOL     OW17209   2.196   4.304   5.729  0.1685 -0.5758  0.1406
 1917SOL    HW117210   2.112   4.299   5.775  1.0865 -1.5516  1.6844
 1917SOL    HW217211   2.202   4.395   5.701 -0.6205 -0.0603  1.6766
 1918SOL     OW17212   3.725   0.124   9.841 -0.1881  0.2697 -0.6063
 1918SOL    HW117213   3.650   0.171   9.804 -0.7148 -2.9660 -3.6506
 1918SOL    HW217214   3.795   0.186   9.818  0.6566 -0.3019  0.4187
 1919SOL     OW17215   0.600   0.209   1.245 -0.2529 -0.0608  0.0562
 1919SOL    HW117216   0.612   0.117   1.223 -1.9832 -0.2665 -0.0550
 1919SOL    HW217217   0.634   0.256   1.169 -2.2310  1.8108  0.3072
 1920SOL     OW17218   1.975   3.032   8.015 -0.2148 -0.1384 -0.0624
 1920SOL    HW117219   2.052   3.064   7.968  1.2426 -1.3154  1.5021
 1920SOL    HW217220   1.910   3.049   7.947  0.5932  1.1945 -0.5079
 1921SOL     OW17221   0.880   4.274   4.916 -0.6577  0.1816  0.7441
 1921SOL    HW117222   0.941   4.335   4.956 -0.6922 -0.1305  1.2694
 1921SOL    HW217223   0.843   4.322   4.841  1.5785 -1.2500 -1.2779
 1922SOL     OW17224   4.645   3.898  17.436 -0.1234  0.1657 -0.4107
 1922SOL    HW117225   4.678   3.814  17.404 -0.5019  0.3815 -1.3705
 1922SOL    HW217226   4.719   3.923  17.491  1.0537 -0.8818 -1.5021
 1923SOL     OW17227   3.457   4.576   8.491  0.5322 -0.4732 -0.6123
 1923SOL    HW117228   3.523   4.614   8.434  1.1920  1.5679  1.5337
 1923SOL    HW217229   3.512   4.553   8.565 -1.3319  0.6913  1.1368
 1924SOL     OW17230   0.522   2.638   2.342  0.2215  0.7581  0.1504
 1924SOL    HW117231   0.464   2.675   2.275  3.5136  4.2910 -0.7671
 1924SOL    HW217232   0.510   2.546   2.318  1.5672  0.4468  0.6985
 1925SOL     OW17233   2.603   1.899   2.275  0.6507 -0.0876  0.3688
 1925SOL    HW117234   2.545   1.823   2.265  1.7952 -0.9957  0.7048
 1925SOL    HW217235   2.568   1.954   2.345 -0.2824 -0.7630  0.4250
 1926SOL     OW17236   4.585   4.658  17.398 -0.1550  0.4529  0.4122
 1926SOL    HW117237   4.625   4.679  17.482  1.3020 -0.5729 -0.0285
 1926SOL    HW217238   4.504   4.623  17.436 -0.3005  0.4237  0.0723
 1927SOL     OW17239   2.091   0.389  10.145 -0.5816  0.4588 -0.0143
 1927SOL    HW117240   2.118   0.317  10.202  0.9465  0.3566 -0.8661
 1927SOL    HW217241   2.124   0.357  10.061  1.0094  0.1507  0.7430
 1928SOL     OW17242   4.087   1.240   7.176 -0.0268  0.0892 -0.6040
 1928SOL    HW117243   4.087   1.251   7.271  2.4719  0.8908 -0.6896
 1928SOL    HW217244   4.068   1.333   7.163  0.7297 -0.2666 -4.2530
 1929SOL     OW17245   3.954   0.211  10.180  0.2070 -0.3337  0.2724
 1929SOL    HW117246   4.043   0.178  10.172  0.3419 -0.3748  2.0244
 1929SOL    HW217247   3.967   0.278  10.247  0.0672  0.2798 -0.3090
 1930SOL     OW17248   3.274   3.571   5.062  0.3621 -0.3449 -0.1830
 1930SOL    HW117249   3.228   3.573   4.979 -2.4482  0.6091  1.4078
 1930SOL    HW217250   3.324   3.653   5.062 -0.8129  0.3712  0.0945
 1931SOL     OW17251   4.236   0.954   3.900 -0.4169 -0.0348 -0.3301
 1931SOL    HW117252   4.159   0.954   3.957 -1.1356  0.3503 -1.2985
 1931SOL    HW217253   4.253   0.861   3.916  1.3241 -0.1867 -2.9923
 1932SOL     OW17254   0.867   2.891  15.422 -0.6425  0.3516  0.4465
 1932SOL    HW117255   0.919   2.819  15.457 -0.0824  0.7953  0.5324
 1932SOL    HW217256   0.922   2.924  15.350 -0.1674 -2.5871 -0.5213
 1933SOL     OW17257   4.446   0.535   2.033  0.3699  0.3468  0.0814
 1933SOL    HW117258   4.441   0.548   1.939  3.3857 -0.8873 -0.2520
 1933SOL    HW217259   4.527   0.583   2.053  0.8291 -0.0957 -0.7360
 1934SOL     OW17260   1.029   2.605   4.911 -0.3470 -0.1992  0.1517
 1934SOL    HW117261   1.089   2.576   4.980 -0.4440  1.2378  0.8423
 1934SOL    HW217262   0.946   2.563   4.935  0.4949 -1.7028  0.3901
 1935SOL     OW17263   3.442   1.370  16.961 -0.3125 -0.2841 -0.0325
 1935SOL    HW117264   3.526   1.323  16.956  0.0849  0.4300 -0.0203
 1935SOL    HW217265   3.388   1.301  16.922 -0.4960 -1.6216  2.5455
 1936SOL     OW17266   2.385   0.568  11.936 -0.5451  0.5061  0.3337
 1936SOL    HW117267   2.480   0.559  11.929 -0.8580 -1.0013 -2.2157
 1936SOL    HW217268   2.382   0.596  12.027  3.1860 -2.5496  1.3787
 1937SOL     OW17269   3.837   1.121   2.944  0.1780 -0.1159 -0.3467
 1937SOL    HW117270   3.846   1.137   3.038  1.3409  3.2442 -1.0065
 1937SOL    HW217271   3.743   1.132   2.932 -0.0244 -1.6805 -0.2215
 1938SOL     OW17272   3.972   3.433  13.911 -0.3013 -0.0231 -0.1424
 1938SOL    HW117273   3.931   3.370  13.971  1.7443 -0.3201  0.9869
 1938SOL    HW217274   4.057   3.388  13.901 -0.6978 -0.6300 -0.7772
 1939SOL     OW17275   0.033   1.563   4.074 -0.4268  0.1902 -0.6624
 1939SOL    HW117276   0.080   1.646   4.062  1.0811 -0.2299  2.4913
 1939SOL    HW217277   0.068   1.501   4.010 -1.4080 -0.2157 -0.8034
 1940SOL     OW17278   0.006   4.723  14.434  0.4993  0.1705 -0.1084
 1940SOL    HW117279   0.025   4.630  14.425  1.1081  0.2132  0.7622
 1940SOL    HW217280   0.068   0.012  14.506 -0.0276  2.2624 -0.0321
 1941SOL     OW17281   1.898   3.186   7.804 -0.0896 -0.6823 -0.0186
 1941SOL    HW117282   1.817   3.230   7.828  1.3669  2.2424 -0.4861
 1941SOL    HW217283   1.956   3.256   7.775  1.5089 -1.2531  1.8091
 1942SOL     OW17284   4.616   2.686   2.236  0.3965 -0.2682 -0.1293
 1942SOL    HW117285   4.623   2.726   2.323  1.9935  0.4474 -0.5977
 1942SOL    HW217286   4.521   2.673   2.239  0.4889 -0.3381  3.1875
 1943SOL     OW17287   3.673   1.864   5.812  0.2673 -0.2196  0.6165
 1943SOL    HW117288   3.601   1.922   5.837  0.1756 -1.8244  4.0010
 1943SOL    HW217289   3.632   1.797   5.757  0.2128  1.0513 -0.8759
 1944SOL     OW17290   2.776   1.815  11.218 -0.1537 -0.1588  0.3411
 1944SOL    HW117291   2.802   1.897  11.177  0.7096 -1.6195 -2.0505
 1944SOL    HW217292   2.688   1.808  11.180 -0.1695 -0.9911  0.5224
 1945SOL     OW17293   0.893   2.516   6.823 -0.0871  0.0007 -0.4238
 1945SOL    HW117294   0.919   2.583   6.886 -0.3877  0.4690 -0.8021
 1945SOL    HW217295   0.944   2.446   6.863  0.1693  1.4664  1.7964
 1946SOL     OW17296   1.572   2.832   6.045 -0.0229 -0.2273  0.5203
 1946SOL    HW117297   1.604   2.881   6.121 -0.3830  2.8385 -1.2630
 1946SOL    HW217298   1.596   2.744   6.073 -0.1826 -0.4906 -0.1630
 1947SOL     OW17299   1.572   1.504   0.918 -0.3714  0.1124  0.0615
 1947SOL    HW117300   1.643   1.446   0.892 -1.5453 -0.1965 -2.4798
 1947SOL    HW217301   1.578   1.573   0.852  0.6911 -1.0016 -1.0033
 1948SOL     OW17302   1.299   0.855  14.535 -0.0097 -0.1653 -0.1470
 1948SOL    HW117303   1.363   0.871  14.604 -1.0599 -3.7281  1.6565
 1948SOL    HW217304   1.259   0.771  14.557  0.9092 -0.9635 -1.4797
 1949SOL     OW17305   1.959   3.184   5.307 -0.0165 -0.6743  0.3222
 1949SOL    HW117306   1.884   3.125   5.302 -0.8209  0.2506  1.8246
 1949SOL    HW217307   1.933   3.241   5.379 -1.7017  0.5175 -1.2239
 1950SOL     OW17308   3.031   1.686   7.840  0.5957 -0.7803 -0.0897
 1950SOL    HW117309   2.980   1.615   7.877  1.1487 -0.1258  1.9149
 1950SOL    HW217310   3.090   1.648   7.775  0.3353  0.3183 -0.9838
 1951SOL     OW17311   4.286   2.500  12.394 -0.1239  0.3529 -0.0305
 1951SOL    HW117312   4.265   2.502  12.300 -0.6569  0.8705  0.1002
 1951SOL    HW217313   4.331   2.417  12.411  0.7099  0.7025 -0.4969
 1952SOL     OW17314   3.331   0.892   9.345 -0.8640  0.3514 -0.7237
 1952SOL    HW117315   3.425   0.881   9.330 -1.1752 -0.2910 -2.1446
 1952SOL    HW217316   3.328   0.956   9.417  2.6317 -1.2500  0.8324
 1953SOL     OW17317   4.186   1.576  13.481 -0.0619 -0.0834  0.5780
 1953SOL    HW117318   4.210   1.668  13.485 -0.7501  0.0624  1.3065
 1953SOL    HW217319   4.166   1.577  13.575  0.2953 -0.4166  0.6598
 1954SOL     OW17320   2.838   4.265   6.330  0.6678 -0.0907 -0.0364
 1954SOL    HW117321   2.815   4.194   6.271  0.2167 -0.5658  0.7136
 1954SOL    HW217322   2.900   4.226   6.392 -0.0912 -1.5106 -0.1681
 1955SOL     OW17323   1.014   0.422  15.313 -0.3704 -0.3588 -0.4815
 1955SOL    HW117324   0.982   0.442  15.401  0.2953  0.8527 -0.5130
 1955SOL    HW217325   0.997   0.510  15.279  1.5185 -0.4230 -1.5359
 1956SOL     OW17326   2.387   0.167   6.816  0.2579 -0.1399 -0.0536
 1956SOL    HW117327   2.319   0.234   6.808 -0.1810 -0.5241  0.5079
 1956SOL    HW217328   2.338   0.091   6.786  0.2750  0.4156 -1.4972
 1957SOL     OW17329   0.736   1.516   7.152  0.5736 -0.1122  0.9319
 1957SOL    HW117330   0.829   1.495   7.163  0.3136 -2.3614 -1.1649
 1957SOL    HW217331   0.717   1.441   7.096  2.5181  0.8173 -0.9645
 1958SOL     OW17332   4.666   2.182   2.074 -0.1904  0.4365  0.2443
 1958SOL    HW117333   4.623   2.133   2.004 -0.2747  2.6237 -1.2536
 1958SOL    HW217334   4.598   2.231   2.119 -1.1412 -1.1563  0.5275
 1959SOL     OW17335   3.525   3.643  11.207 -0.3263 -0.3318 -0.2575
 1959SOL    HW117336   3.552   3.551  11.210  0.0702 -0.2508 -1.3457
 1959SOL    HW217337   3.594   3.690  11.253  0.6110  1.0491 -3.0542
 1960SOL     OW17338   2.269   4.213   4.773  0.1117 -0.1259 -0.1295
 1960SOL    HW117339   2.253   4.148   4.842 -0.1412  0.6132  0.5122
 1960SOL    HW217340   2.363   4.203   4.784 -0.1639  0.7821  3.1068
 1961SOL     OW17341   1.048   2.952   7.269 -0.1111 -0.0698  1.3857
 1961SOL    HW117342   1.085   2.865   7.285  2.5537  1.0256  1.3150
 1961SOL    HW217343   1.117   3.002   7.226  0.0765 -0.3741  1.3324
 1962SOL     OW17344   3.221   1.954   4.895 -0.6410  0.4101  0.7209
 1962SOL    HW117345   3.202   1.944   4.801 -1.0853 -0.2255  0.8699
 1962SOL    HW217346   3.263   2.039   4.889  1.1831 -0.5257  0.3022
 1963SOL     OW17347   1.549   3.037  11.901  0.0234  0.3867  0.3711
 1963SOL    HW117348   1.635   3.059  11.865  0.4680  1.2688  1.9403
 1963SOL    HW217349   1.493   3.011  11.828 -1.5362  0.2234  1.6240
 1964SOL     OW17350   3.227   4.123   1.340  0.4232 -0.3196  0.1600
 1964SOL    HW117351   3.247   4.147   1.249 -2.1791 -2.2860 -0.9145
 1964SOL    HW217352   3.309   4.155   1.378  0.5793 -1.1681  0.5447
 1965SOL     OW17353   3.343   2.744   4.225 -0.2150  0.0678 -0.2262
 1965SOL    HW117354   3.340   2.721   4.132 -0.2855  1.1854 -0.5039
 1965SOL    HW217355   3.403   2.817   4.217  1.6929 -1.6667 -1.7003
 1966SOL     OW17356   1.853   1.540   7.419  0.1048 -0.1433 -0.1486
 1966SOL    HW117357   1.767   1.567   7.386 -0.7333 -1.3188  1.0474
 1966SOL    HW217358   1.894   1.501   7.342  0.9484  1.3156 -0.4297
 1967SOL     OW17359   1.519   0.715   7.790  0.1124 -0.4874  0.1078
 1967SOL    HW117360   1.613   0.705   7.807 -0.0960 -2.0248  0.3951
 1967SOL    HW217361   1.500   0.676   7.704  2.4608 -2.7033  0.6035
 1968SOL     OW17362   3.770   2.331   9.117 -0.5778 -0.1979 -0.1381
 1968SOL    HW117363   3.854   2.293   9.090  0.3598  0.2835  2.0330
 1968SOL    HW217364   3.795   2.386   9.192  0.3631 -0.9859  0.1311
 1969SOL     OW17365   2.030   3.084  17.142 -0.1932 -0.4394  0.4565
 1969SOL    HW117366   1.941   3.114  17.159 -1.3043 -2.3079 -2.0750
 1969SOL    HW217367   2.068   3.158  17.190 -1.2666  1.3121 -1.3734
 1970SOL     OW17368   0.582   2.411   7.557  0.0599 -0.2791 -0.4534
 1970SOL    HW117369   0.526   2.489   7.551 -0.2922 -0.3354  1.9944
 1970SOL    HW217370   0.655   2.432   7.498 -1.5385  1.6579 -1.7502
 1971SOL     OW17371   1.060   4.560   3.892  0.1466  0.1934  0.3953
 1971SOL    HW117372   1.130   4.583   3.832 -1.0991  1.2772 -0.6604
 1971SOL    HW217373   1.043   4.468   3.872  1.7650  0.7990 -3.7132
 1972SOL     OW17374   3.022   4.124   6.515 -0.2522  0.5472 -0.3909
 1972SOL    HW117375   3.103   4.172   6.501  2.1930 -3.8269 -1.3501
 1972SOL    HW217376   3.033   4.089   6.603 -1.0155 -1.7741 -1.1933
 1973SOL     OW17377   3.983   0.835  15.034 -0.3422  0.1016  0.2372
 1973SOL    HW117378   3.912   0.826  15.098  0.8192  0.7566  1.6075
 1973SOL    HW217379   3.955   0.912  14.986  0.1679 -0.1818 -0.5204
 1974SOL     OW17380   3.516   3.947  16.740 -0.6405  0.0704  0.1345
 1974SOL    HW117381   3.587   3.896  16.778 -0.7457 -0.8739 -0.9195
 1974SOL    HW217382   3.524   4.031  16.786  1.9143  0.0917 -0.3507
 1975SOL     OW17383   0.236   1.686   0.126 -0.8794  0.2899  0.3158
 1975SOL    HW117384   0.313   1.718   0.078 -1.1976  0.6295  0.0288
 1975SOL    HW217385   0.178   1.648   0.060 -0.9214 -0.0921  0.5756
 1976SOL     OW17386   1.581   4.015   3.754 -0.4982  0.4105 -0.0723
 1976SOL    HW117387   1.648   3.949   3.774 -2.5951 -1.5168  0.5856
 1976SOL    HW217388   1.514   3.980   3.813 -0.3280 -0.0279 -0.1424
 1977SOL     OW17389   4.358   0.678  15.571  0.1639 -1.1164  0.2187
 1977SOL    HW117390   4.331   0.608  15.511  1.1468 -0.7195 -0.6650
 1977SOL    HW217391   4.451   0.668  15.587  0.1836  0.0318  0.8337
 1978SOL     OW17392   2.462   2.582   5.982  0.1738  0.0215 -0.4348
 1978SOL    HW117393   2.434   2.659   5.933 -2.6190 -0.8945 -0.3179
 1978SOL    HW217394   2.422   2.508   5.935 -1.0423  0.2568  0.2224
 1979SOL     OW17395   4.450   0.775   2.411  0.2664 -0.1232 -0.4040
 1979SOL    HW117396   4.521   0.748   2.469 -0.1174 -1.1984 -0.4362
 1979SOL    HW217397   4.495   0.824   2.342 -0.4431 -0.2477 -0.9614
 1980SOL     OW17398   4.117   3.664   5.131 -0.4272  0.5510  0.0836
 1980SOL    HW117399   4.158   3.705   5.207  1.0752  0.0902 -0.4590
 1980SOL    HW217400   4.034   3.659   5.179  0.7552 -0.5530  2.0360
 1981SOL     OW17401   4.071   3.697  15.952 -0.1249 -0.1463  0.0678
 1981SOL    HW117402   4.129   3.648  16.011  1.1753  0.9304 -0.3130
 1981SOL    HW217403   4.121   3.778  15.951  0.4178 -0.4558  1.6852
 1982SOL     OW17404   0.649   1.543   4.713 -0.2722  0.1371  0.6969
 1982SOL    HW117405   0.727   1.594   4.693 -0.5390  0.4721  0.5012
 1982SOL    HW217406   0.591   1.551   4.637  0.5172 -0.2493  0.0525
 1983SOL     OW17407   0.383   0.191   4.496  0.3363  0.4994  0.5501
 1983SOL    HW117408   0.338   0.248   4.557 -1.2937  1.1283 -1.2436
 1983SOL    HW217409   0.346   0.104   4.510  1.2530 -0.3524 -2.1685
 1984SOL     OW17410   1.586   2.594  14.153 -0.1008  0.1283 -0.1761
 1984SOL    HW117411   1.663   2.559  14.199 -0.8009 -1.7552 -0.4196
 1984SOL    HW217412   1.594   2.689  14.158 -0.7476  0.1964 -0.4451
 1985SOL     OW17413   4.605   0.928  10.014  0.1690 -0.8985 -0.1349
 1985SOL    HW117414   4.619   0.981  10.092  0.0391 -1.7905  0.4924
 1985SOL    HW217415   4.522   0.896  10.051  0.0973 -0.5773 -0.0224
 1986SOL     OW17416   4.395   0.776   6.820  0.5527  0.3031 -0.2400
 1986SOL    HW117417   4.357   0.738   6.899 -1.3736 -1.0003 -1.7919
 1986SOL    HW217418   4.367   0.867   6.831 -2.0104 -0.4935 -0.1392
 1987SOL     OW17419   1.000   3.757   7.904  0.0102 -0.4224 -0.3238
 1987SOL    HW117420   1.022   3.706   7.826  0.0801 -1.7654  0.5748
 1987SOL    HW217421   1.048   3.709   7.973  0.4461 -0.8837 -0.9378
 1988SOL     OW17422   2.302   1.031   6.956  0.4807 -0.1474  0.5546
 1988SOL    HW117423   2.317   0.963   6.891  3.1708  2.5438 -1.6653
 1988SOL    HW217424   2.281   0.982   7.035  0.3820 -0.2017  0.4937
 1989SOL     OW17425   1.379   3.389   8.056  0.7989  0.3486 -0.4243
 1989SOL    HW117426   1.410   3.478   8.041 -1.7022  1.7449  2.7114
 1989SOL    HW217427   1.321   3.386   7.979 -1.8860  0.9797  1.5713
 1990SOL     OW17428   3.935   0.067   8.353 -0.0157  0.0777 -0.1301
 1990SOL    HW117429   3.893   4.710   8.325  0.9577  0.7085 -3.3654
 1990SOL    HW217430   3.873   0.099   8.419 -0.5033 -0.0152 -0.5454
 1991SOL     OW17431   4.250   3.057  15.424  0.3539 -0.1674 -0.1499
 1991SOL    HW117432   4.314   3.125  15.401 -2.1900  1.5274 -2.2796
 1991SOL    HW217433   4.242   2.994  15.352  0.9208 -1.3365  0.8076
 1992SOL     OW17434   0.079   4.077  11.577  0.4260 -0.2778  0.3947
 1992SOL    HW117435   0.002   4.129  11.552  0.5056  0.7158  2.2032
 1992SOL    HW217436   0.152   4.138  11.577  0.3192 -0.1585 -2.2714
 1993SOL     OW17437   4.286   3.267  17.326  0.0780  0.1527  0.3630
 1993SOL    HW117438   4.265   3.196  17.386  0.9977 -1.0046 -0.6869
 1993SOL    HW217439   4.377   3.260  17.297  0.2583  3.5369  0.1075
 1994SOL     OW17440   3.954   0.142   7.628  0.3571  0.1476 -0.9140
 1994SOL    HW117441   4.014   0.217   7.627  1.3358 -0.5990  4.2377
 1994SOL    HW217442   4.018   0.072   7.620  0.5781  0.3664 -1.0742
 1995SOL     OW17443   1.255   3.408   2.405  0.0983 -0.2913 -0.4935
 1995SOL    HW117444   1.204   3.489   2.413  0.4709 -0.0131 -0.9328
 1995SOL    HW217445   1.227   3.369   2.488  0.7949 -0.3590 -0.2911
 1996SOL     OW17446   4.390   0.293   5.444  0.0294  0.0025 -0.1020
 1996SOL    HW117447   4.366   0.232   5.514 -1.6290  0.9069  0.1188
 1996SOL    HW217448   4.315   0.352   5.446 -0.0268 -0.1011  0.6319
 1997SOL     OW17449   1.069   2.758   4.673 -0.0938  0.2445  0.0596
 1997SOL    HW117450   1.052   2.697   4.744 -0.4386 -0.2377 -0.4367
 1997SOL    HW217451   1.159   2.791   4.684  0.8893 -2.0975 -0.9981
 1998SOL     OW17452   4.310   4.654   8.936 -0.2023 -0.2016 -0.4554
 1998SOL    HW117453   4.230   4.702   8.912 -0.1654 -0.2636 -0.7086
 1998SOL    HW217454   4.282   4.567   8.908  1.4094 -0.4458 -1.3096
 1999SOL     OW17455   4.097   1.641  17.324 -0.3769 -1.1213  0.2863
 1999SOL    HW117456   4.027   1.609  17.382 -2.4956  0.0892 -1.5871
 1999SOL    HW217457   4.105   1.572  17.258 -0.9389 -0.3053 -0.6301
 2000SOL     OW17458   2.825   3.714  12.139 -0.2460 -0.4548  0.8712
 2000SOL    HW117459   2.893   3.770  12.177  0.2424 -1.0699  0.9062
 2000SOL    HW217460   2.775   3.772  12.082  0.3575 -0.1262  0.6686
 2001SOL     OW17461   1.734   2.904   1.388 -0.3188 -0.0089 -0.8009
 2001SOL    HW117462   1.674   2.978   1.401 -1.0452 -0.7506  0.0549
 2001SOL    HW217463   1.798   2.910   1.458 -0.5117 -2.9491 -0.3919
 2002SOL     OW17464   4.070   0.681  12.168 -0.1405  0.0638 -0.3312
 2002SOL    HW117465   3.996   0.741  12.158 -1.8504 -1.9193  0.5741
 2002SOL    HW217466   4.148   0.737  12.157  0.9209 -1.4934 -0.7876
 2003SOL     OW17467   4.466   0.903   4.909 -0.5876 -0.5584 -0.1462
 2003SOL    HW117468   4.507   0.822   4.878 -1.1515 -1.4624  1.4725
 2003SOL    HW217469   4.383   0.860   4.931 -1.8852  1.2736 -1.3791
 2004SOL     OW17470   1.214   1.197  13.434 -0.1685 -0.1205  0.4899
 2004SOL    HW117471   1.211   1.152  13.519  1.3407 -0.3505  0.4211
 2004SOL    HW217472   1.193   1.283  13.470  1.6181 -0.0462  1.3583
 2005SOL     OW17473   4.220   1.900   5.130 -0.2628  0.4955  0.1479
 2005SOL    HW117474   4.260   1.902   5.217  1.4440 -0.1830 -0.6222
 2005SOL    HW217475   4.230   1.806   5.115 -4.1341  0.2097 -0.6752
 2006SOL     OW17476   1.228   2.591  10.295 -0.2102  0.6684  0.0312
 2006SOL    HW117477   1.262   2.640  10.370 -2.4651 -0.7949  2.0251
 2006SOL    HW217478   1.209   2.512  10.346  1.8855  1.6153  2.2367
 2007SOL     OW17479   4.295   1.339   4.066  0.1231  0.2424 -0.4197
 2007SOL    HW117480   4.247   1.420   4.081 -1.2969 -0.3836 -1.5610
 2007SOL    HW217481   4.254   1.320   3.982  1.2376 -0.7433 -0.7565
 2008SOL     OW17482   1.399   0.578  13.675  0.1729 -0.6048  0.4238
 2008SOL    HW117483   1.421   0.671  13.676 -2.1968 -0.0503  0.0884
 2008SOL    HW217484   1.306   0.586  13.657  0.1955  0.7842  0.9706
 2009SOL     OW17485   4.224   0.102   2.150 -0.5435 -0.4300 -0.0990
 2009SOL    HW117486   4.284   0.120   2.077 -0.2946 -1.9853 -0.2791
 2009SOL    HW217487   4.175   0.034   2.103  0.5519 -1.8452  0.8044
 2010SOL     OW17488   0.248   3.040  13.613 -0.1154 -0.0566 -0.1059
 2010SOL    HW117489   0.205   3.124  13.632  2.4025  0.9617  1.0660
 2010SOL    HW217490   0.181   2.984  13.574 -0.8331  0.6670  0.0777
 2011SOL     OW17491   2.734   3.719   8.058  0.8330 -0.0332  0.4928
 2011SOL    HW117492   2.759   3.800   8.012 -1.8815  0.2133 -0.5514
 2011SOL    HW217493   2.810   3.662   8.064  1.2264  0.3907 -0.3907
 2012SOL     OW17494   4.056   1.178   8.367 -0.3589 -0.5850  0.3564
 2012SOL    HW117495   4.068   1.085   8.348 -0.5503 -0.0504 -2.4828
 2012SOL    HW217496   3.984   1.177   8.430 -0.8633 -1.5947 -0.2448
 2013SOL     OW17497   2.281   0.980  14.271  0.3806 -0.3903 -0.0597
 2013SOL    HW117498   2.274   1.023  14.356  0.5539 -0.4740 -0.0050
 2013SOL    HW217499   2.279   0.887  14.292  1.6798 -0.4087 -0.0622
 2014SOL     OW17500   2.274   4.350   6.457 -0.6865 -0.5447  0.1503
 2014SOL    HW117501   2.310   4.269   6.492 -1.5467 -1.4012 -0.9557
 2014SOL    HW217502   2.181   4.333   6.441 -1.0249  3.2227 -1.9404
 2015SOL     OW17503   1.812   3.100   6.476 -0.3843 -0.2754 -0.4339
 2015SOL    HW117504   1.826   3.194   6.465  0.3888 -0.4386 -0.8762
 2015SOL    HW217505   1.756   3.094   6.553  1.0900 -1.8073  0.5301
 2016SOL     OW17506   3.628   2.124   8.998 -0.4167 -0.4801  0.3619
 2016SOL    HW117507   3.660   2.193   9.056 -0.1462  1.3199 -1.9205
 2016SOL    HW217508   3.706   2.068   9.007 -0.1445  0.1017  1.5987
 2017SOL     OW17509   4.384   2.857   7.362  0.1147 -0.2406 -0.1213
 2017SOL    HW117510   4.359   2.800   7.289 -0.6954  0.3776 -0.3336
 2017SOL    HW217511   4.299   2.900   7.374  0.5834  0.4773  0.5863
 2018SOL     OW17512   0.466   2.224   0.745  0.2694 -0.5099  0.2404
 2018SOL    HW117513   0.445   2.132   0.762  0.5038 -0.6372 -0.1492
 2018SOL    HW217514   0.465   2.230   0.649 -1.2722 -0.2712  0.2806
 2019SOL     OW17515   3.931   2.123  14.150 -0.2042  0.1413 -0.3628
 2019SOL    HW117516   3.914   2.178  14.227  0.1794 -0.7796  0.3816
 2019SOL    HW217517   3.884   2.171  14.081  0.2822 -1.0633 -1.5181
 2020SOL     OW17518   2.774   3.707   9.115 -0.5263 -0.6115  0.5711
 2020SOL    HW117519   2.733   3.667   9.039 -2.1891  0.5768  0.8592
 2020SOL    HW217520   2.709   3.777   9.122  0.9428  0.5433  2.8141
 2021SOL     OW17521   2.613   1.089   6.999  0.3452 -0.0754 -0.3957
 2021SOL    HW117522   2.646   1.000   6.987 -2.2137 -1.3599  2.0702
 2021SOL    HW217523   2.520   1.078   6.978 -0.0039  0.7037  0.7327
 2022SOL     OW17524   3.076   1.126  10.714  0.1243  0.0627 -0.6195
 2022SOL    HW117525   3.035   1.205  10.680  1.0091 -0.0274 -1.9355
 2022SOL    HW217526   3.144   1.102  10.651  2.0536 -0.1986  1.5807
 2023SOL     OW17527   3.838   4.552   8.265  0.3687 -0.4613  0.3896
 2023SOL    HW117528   3.845   4.577   8.173  1.2962 -0.2374  0.5260
 2023SOL    HW217529   3.777   4.479   8.257  0.5337 -0.6102  0.4838
 2024SOL     OW17530   2.104   3.136  15.304  0.4076  0.1452  0.1286
 2024SOL    HW117531   2.056   3.197  15.248  0.4962  0.6538  0.6069
 2024SOL    HW217532   2.189   3.149  15.264 -0.1840  1.6859 -0.6302
 2025SOL     OW17533   3.355   2.694   7.016  0.2341  0.1326 -0.7951
 2025SOL    HW117534   3.356   2.653   6.929 -0.5286 -2.6586  0.5350
 2025SOL    HW217535   3.265   2.722   7.005  0.2247  0.7351  0.8914
 2026SOL     OW17536   3.760   1.293  12.907 -0.0013  0.2018  0.1395
 2026SOL    HW117537   3.796   1.380  12.925 -0.7355  0.8849 -1.7571
 2026SOL    HW217538   3.668   1.297  12.931 -0.4494 -0.5938 -1.4668
 2027SOL     OW17539   1.736   2.101  13.971  0.0167 -0.8077  0.4251
 2027SOL    HW117540   1.752   2.022  13.919  2.4983 -0.3260  0.4445
 2027SOL    HW217541   1.775   2.075  14.055  0.1941  1.3493  0.9996
 2028SOL     OW17542   2.726   3.336   1.886  0.2574  0.2133 -0.1417
 2028SOL    HW117543   2.691   3.405   1.830 -1.4832 -1.5855 -1.2444
 2028SOL    HW217544   2.815   3.317   1.857  0.7772  0.6928  1.1155
 2029SOL     OW17545   3.809   3.137  16.690 -0.9806  0.3314  0.5220
 2029SOL    HW117546   3.772   3.061  16.734  2.1005 -1.6544 -0.2634
 2029SOL    HW217547   3.809   3.097  16.603 -0.7127  0.2926  0.5396
 2030SOL     OW17548   0.817   0.473   4.623 -0.4268 -0.1019  0.4477
 2030SOL    HW117549   0.765   0.397   4.598 -2.3086  0.7826  1.6639
 2030SOL    HW217550   0.898   0.423   4.628  0.3074  0.8345 -2.1147
 2031SOL     OW17551   0.225   4.061   3.724 -0.1373  0.2421  0.1611
 2031SOL    HW117552   0.157   4.080   3.789  1.9735  1.7136  1.9608
 2031SOL    HW217553   0.290   4.023   3.783 -1.2544 -2.3544 -0.2723
 2032SOL     OW17554   3.318   4.471  10.716 -0.4428 -0.1127 -0.1289
 2032SOL    HW117555   3.247   4.409  10.732 -1.5079  1.3379  0.7163
 2032SOL    HW217556   3.274   4.522  10.648 -0.3614  2.1152  1.4911
 2033SOL     OW17557   1.400   1.490   4.535  0.3528  0.1409  0.1630
 2033SOL    HW117558   1.458   1.543   4.589  0.9239  0.5894 -0.8993
 2033SOL    HW217559   1.348   1.449   4.604  1.0525  1.3743  1.4264
 2034SOL     OW17560   2.276   4.686   8.468 -0.2060 -0.4459  0.1247
 2034SOL    HW117561   2.240   4.621   8.529  2.0497  0.9699  3.0052
 2034SOL    HW217562   2.369   4.665   8.465  0.0354  0.6270  0.0338
 2035SOL     OW17563   0.161   4.233   4.070  0.2063 -0.0772  0.0536
 2035SOL    HW117564   0.075   4.241   4.111  0.2217 -2.5142  0.6016
 2035SOL    HW217565   0.195   4.145   4.088  1.4139  0.4342  0.2122
 2036SOL     OW17566   0.840   4.721   3.181  0.2226 -0.1989  0.3443
 2036SOL    HW117567   0.877   0.069   3.233 -0.7235 -1.5512  2.9094
 2036SOL    HW217568   0.798   4.666   3.248  0.5832  0.3631  1.0282
 2037SOL     OW17569   1.839   3.848   5.280  0.0328  0.4316 -0.7944
 2037SOL    HW117570   1.809   3.938   5.265 -2.6880 -0.1422  1.1273
 2037SOL    HW217571   1.770   3.816   5.339  1.5160  1.5515  1.5523
 2038SOL     OW17572   3.018   4.412   1.197  0.0297  0.0889  0.0595
 2038SOL    HW117573   3.111   4.407   1.177  0.1351 -0.3609  0.6560
 2038SOL    HW217574   2.994   4.504   1.207 -0.7009 -0.0912 -0.0768
 2039SOL     OW17575   4.561   0.756   8.257  0.0716 -0.1512 -0.0543
 2039SOL    HW117576   4.572   0.843   8.218  1.6459 -1.0377 -1.5859
 2039SOL    HW217577   4.655   0.740   8.269 -0.0866  0.2051  1.6004
 2040SOL     OW17578   2.373   1.412   3.585  0.1750  0.0380  0.0526
 2040SOL    HW117579   2.408   1.326   3.563  0.9779 -0.0104  1.4583
 2040SOL    HW217580   2.362   1.409   3.681  1.8425 -0.6219  0.2204
 2041SOL     OW17581   4.528   4.521   9.645 -0.0663 -0.3286 -0.6518
 2041SOL    HW117582   4.562   4.524   9.735  0.6645 -0.3910 -0.9249
 2041SOL    HW217583   4.583   4.588   9.606 -1.4558  0.9501 -0.4067
 2042SOL     OW17584   4.636   4.536   2.022 -0.0673 -1.1172 -0.0501
 2042SOL    HW117585   0.008   4.535   2.011 -0.0937 -2.4332 -0.0863
 2042SOL    HW217586   4.631   4.617   2.074  1.1735 -0.6583 -0.6380
 2043SOL     OW17587   0.849   2.874   4.592  0.1281 -1.0318 -0.2890
 2043SOL    HW117588   0.841   2.873   4.688 -0.6484 -0.2491 -0.3381
 2043SOL    HW217589   0.941   2.852   4.586  0.1262 -1.1727  0.1543
 2044SOL     OW17590   2.630   4.131   8.249  0.3487  0.0837 -0.4685
 2044SOL    HW117591   2.588   4.211   8.279  1.6753  0.3230  0.7552
 2044SOL    HW217592   2.554   4.097   8.201 -0.1630 -0.1399  0.5104
 2045SOL     OW17593   0.675   2.710   9.294  0.1158  0.4647  0.0608
 2045SOL    HW117594   0.652   2.775   9.227  0.1983 -1.3344 -1.7083
 2045SOL    HW217595   0.752   2.664   9.261  0.3947  0.9198  0.0722
 2046SOL     OW17596   1.074   3.842   4.747  0.2085 -0.2407  0.0865
 2046SOL    HW117597   1.030   3.926   4.757  1.3338  0.3176  0.2943
 2046SOL    HW217598   1.148   3.860   4.689  0.7212  1.1409  1.1691
 2047SOL     OW17599   4.318   3.583   0.115  0.1427 -0.9126  0.2527
 2047SOL    HW117600   4.352   3.661   0.158  0.1194 -0.8876  0.2251
 2047SOL    HW217601   4.266   3.613   0.040 -0.5368 -0.0182  1.0812
 2048SOL     OW17602   0.226   4.562  15.479  0.7211  0.3084 -0.5006
 2048SOL    HW117603   0.196   4.492  15.536 -0.7547  0.5215 -1.0139
 2048SOL    HW217604   0.169   4.567  15.403  0.3325  0.9370 -0.1672
 2049SOL     OW17605   4.283   3.103  16.232 -0.1982  0.0925  0.6538
 2049SOL    HW117606   4.262   3.133  16.144  0.4430 -0.1634  0.4149
 2049SOL    HW217607   4.199   3.070  16.264 -0.6767 -0.8597 -1.5579
 2050SOL     OW17608   0.475   4.202   3.046 -0.1312 -0.5453  0.4835
 2050SOL    HW117609   0.458   4.113   3.015 -2.1454  0.3182 -0.9521
 2050SOL    HW217610   0.565   4.208   3.013 -0.8857  2.9905 -1.0020
 2051SOL     OW17611   1.417   4.049  16.491  0.5658  0.0013 -0.0676
 2051SOL    HW117612   1.476   4.059  16.416  0.7270 -0.5834 -0.0237
 2051SOL    HW217613   1.327   4.066  16.463  0.7321 -1.5564 -1.5325
 2052SOL     OW17614   3.001   1.950   7.944 -0.1503  0.4141 -0.5547
 2052SOL    HW117615   3.070   1.885   7.960 -1.2692 -0.2151  1.6628
 2052SOL    HW217616   2.952   1.897   7.881  0.9912 -0.5517 -0.6350
 2053SOL     OW17617   4.464   0.599   8.061 -0.3172  0.3737 -0.1425
 2053SOL    HW117618   4.514   0.638   8.133 -0.0268  0.4918 -0.4049
 2053SOL    HW217619   4.541   0.553   8.026  0.0121  1.0375 -0.2915
 2054SOL     OW17620   3.548   1.768   9.791  0.1455 -0.3107 -0.5490
 2054SOL    HW117621   3.566   1.857   9.820 -0.2351 -0.4913  0.2300
 2054SOL    HW217622   3.535   1.727   9.876 -0.0510  0.3891 -0.2481
 2055SOL     OW17623   4.462   0.395   0.376  0.2775 -0.0411  0.0965
 2055SOL    HW117624   4.492   0.443   0.452  0.7964  0.3105 -0.3340
 2055SOL    HW217625   4.401   0.326   0.404  0.7198  0.6091  2.6573
 2056SOL     OW17626   4.438   1.988  16.543 -0.0470 -0.1001 -0.0146
 2056SOL    HW117627   4.471   2.035  16.466 -1.7429 -0.2110 -0.8164
 2056SOL    HW217628   4.505   1.922  16.560 -1.1922 -0.9923  1.0804
 2057SOL     OW17629   1.604   3.356   8.217 -0.1186  0.3536 -0.2930
 2057SOL    HW117630   1.548   3.431   8.238 -0.8515  0.1034 -1.3867
 2057SOL    HW217631   1.542   3.292   8.182 -1.7543  1.4466  0.5769
 2058SOL     OW17632   2.633   0.108   6.932 -0.9107  0.6224 -0.2370
 2058SOL    HW117633   2.559   0.121   6.872 -2.4955 -1.2977  1.3247
 2058SOL    HW217634   2.622   0.174   7.000  1.4340  1.6572 -0.8474
 2059SOL     OW17635   4.233   1.708   8.315  0.2086  0.5111 -0.3372
 2059SOL    HW117636   4.295   1.635   8.311 -1.3259 -0.7246 -1.5534
 2059SOL    HW217637   4.169   1.689   8.246  0.5748  2.3387 -1.1804
 2060SOL     OW17638   1.236   0.014   3.246  0.4480  0.0481  0.3361
 2060SOL    HW117639   1.192   4.706   3.167  0.8339 -1.7782  0.8374
 2060SOL    HW217640   1.163   4.711   3.302 -0.6794 -0.7152 -1.4854
 2061SOL     OW17641   0.046   0.711  13.537  0.0159  0.3205 -0.0652
 2061SOL    HW117642   0.109   0.640  13.546  2.4505  1.9324 -3.9780
 2061SOL    HW217643   0.076   0.776  13.601 -0.2118  0.6816 -0.3220
 2062SOL     OW17644   3.579   0.408   9.788  0.1823 -0.7656 -0.6836
 2062SOL    HW117645   3.521   0.409   9.712 -0.1133 -2.1310 -0.4789
 2062SOL    HW217646   3.641   0.480   9.773 -0.5470  0.2591  1.2581
 2063SOL     OW17647   2.002   2.908  11.791 -0.4503 -0.7672  0.1254
 2063SOL    HW117648   2.020   2.908  11.885  0.1990 -0.4949 -0.0009
 2063SOL    HW217649   2.012   2.814  11.773 -0.8556 -0.5641 -1.1186
 2064SOL     OW17650   1.960   0.855   3.401 -0.2718 -0.1920  0.1061
 2064SOL    HW117651   1.866   0.871   3.394 -0.1841 -0.2175 -1.2816
 2064SOL    HW217652   1.998   0.940   3.379 -0.6784 -0.7775 -2.9313
 2065SOL     OW17653   1.110   2.336   9.221 -0.2859 -0.6319 -0.2533
 2065SOL    HW117654   1.113   2.266   9.286 -2.1668 -0.0756  0.4135
 2065SOL    HW217655   1.203   2.358   9.221 -0.8077  1.6105  1.6228
 2066SOL     OW17656   2.740   2.821   2.204 -0.0534 -0.0843 -0.8604
 2066SOL    HW117657   2.821   2.852   2.245 -1.1366  1.7390 -0.1192
 2066SOL    HW217658   2.743   2.854   2.114  0.2227 -1.0696 -1.2124
 2067SOL     OW17659   0.207   3.355   7.182 -0.6568  0.3057 -0.1794
 2067SOL    HW117660   0.137   3.349   7.247 -0.0978  0.3735  0.4389
 2067SOL    HW217661   0.164   3.399   7.109 -0.3919 -1.3031 -1.2991
 2068SOL     OW17662   0.826   0.266   3.742  0.3061 -0.5695  0.4206
 2068SOL    HW117663   0.733   0.287   3.732  0.6447 -0.2880 -2.0869
 2068SOL    HW217664   0.819   0.222   3.827 -0.0417  1.4839  1.4578
 2069SOL     OW17665   4.461   3.186  12.615  0.8278 -0.3216 -0.0147
 2069SOL    HW117666   4.495   3.234  12.691  1.3216 -0.0122 -0.4335
 2069SOL    HW217667   4.394   3.123  12.644  0.4443  0.1593  0.1476
 2070SOL     OW17668   4.000   1.677   5.197 -0.5559  0.1053 -0.7461
 2070SOL    HW117669   4.076   1.683   5.141 -1.4595 -1.9211 -2.2140
 2070SOL    HW217670   4.013   1.596   5.247 -2.7497 -1.1864 -2.2364
 2071SOL     OW17671   2.514   0.984  14.009 -0.0289 -0.2899 -0.5062
 2071SOL    HW117672   2.524   1.007  14.101  3.2417 -2.1720 -0.3680
 2071SOL    HW217673   2.593   0.932  13.997 -0.1780 -0.6124 -0.0672
 2072SOL     OW17674   3.971   2.208   2.451 -0.4704  0.4388 -0.0009
 2072SOL    HW117675   3.973   2.116   2.480 -0.1160  0.5016  0.1701
 2072SOL    HW217676   4.023   2.212   2.371 -1.1216 -2.8663 -0.6111
 2073SOL     OW17677   1.190   1.114   7.994 -0.0896  0.6634  0.0762
 2073SOL    HW117678   1.266   1.066   7.961 -1.2466 -0.5641 -0.8008
 2073SOL    HW217679   1.199   1.131   8.088 -1.5389 -2.2511  0.7218
 2074SOL     OW17680   4.694   0.624   7.349  0.2482 -0.5255  0.0365
 2074SOL    HW117681   4.706   0.719   7.356 -1.7553 -0.3755  1.3697
 2074SOL    HW217682   4.607   0.620   7.309  0.7402 -4.1751 -0.6513
 2075SOL     OW17683   4.594   2.264   4.645 -0.4525 -0.1123  0.4670
 2075SOL    HW117684   4.643   2.247   4.564 -2.0394  0.4225 -0.6025
 2075SOL    HW217685   4.621   2.189   4.697 -1.7196 -1.5429 -0.9153
 2076SOL     OW17686   0.378   4.503   9.970  0.9167 -0.1177  0.1163
 2076SOL    HW117687   0.471   4.481   9.975  0.7545 -0.5032  1.3936
 2076SOL    HW217688   0.376   4.563  10.045  0.6864 -2.9381  2.3645
 2077SOL     OW17689   4.182   2.769   7.605  0.0690 -0.1796  0.6481
 2077SOL    HW117690   4.147   2.680   7.608  1.8744 -0.9784 -1.8508
 2077SOL    HW217691   4.132   2.822   7.666 -0.1449  0.8522 -0.4300
 2078SOL     OW17692   0.238   2.220  14.272  0.4594 -0.4875 -0.3291
 2078SOL    HW117693   0.239   2.125  14.257  1.2302 -0.2869 -1.5675
 2078SOL    HW217694   0.276   2.223  14.360  0.8902 -0.2213 -0.5237
 2079SOL     OW17695   1.494   4.090   6.936  0.3210  0.0936  0.1942
 2079SOL    HW117696   1.535   4.150   6.998  2.1768 -0.9533 -0.0222
 2079SOL    HW217697   1.450   4.031   6.997  0.9398 -0.2208  0.3263
 2080SOL     OW17698   1.826   3.264   3.594  0.4948 -0.6437  0.1744
 2080SOL    HW117699   1.847   3.223   3.511  1.5898 -0.0007  0.1297
 2080SOL    HW217700   1.731   3.265   3.603  0.2657  0.6530 -2.3558
 2081SOL     OW17701   0.261   1.297   2.647 -0.0317  0.4559 -0.2568
 2081SOL    HW117702   0.186   1.335   2.601  1.1237  0.6536 -1.9899
 2081SOL    HW217703   0.329   1.335   2.590  0.2923  1.5296  0.8506
 2082SOL     OW17704   1.479   0.422   2.884 -0.0215  0.5913  0.4316
 2082SOL    HW117705   1.409   0.488   2.885  0.4571  1.1249 -1.1528
 2082SOL    HW217706   1.429   0.341   2.893 -0.9115  0.9740 -0.9909
 2083SOL     OW17707   3.611   0.690   8.496 -0.8138 -0.3489 -0.2921
 2083SOL    HW117708   3.677   0.632   8.533  2.4150  2.2350 -2.0178
 2083SOL    HW217709   3.527   0.653   8.522 -0.3765 -0.4714  0.9164
 2084SOL     OW17710   0.761   4.404  17.375 -0.3910 -0.1071 -0.4718
 2084SOL    HW117711   0.705   4.477  17.347  1.7368  0.9449 -2.0062
 2084SOL    HW217712   0.699   4.334  17.393 -2.1440  1.7344  0.6565
 2085SOL     OW17713   2.111   4.693  10.763 -0.3674  0.0310  0.2629
 2085SOL    HW117714   2.187   4.712  10.819 -0.3753  1.9970 -0.4006
 2085SOL    HW217715   2.128   4.605  10.731 -0.1212 -1.1130  3.5791
 2086SOL     OW17716   2.811   3.054  15.266 -0.2048  0.2578  0.3431
 2086SOL    HW117717   2.787   3.137  15.223  4.8230  2.6825  2.1432
 2086SOL    HW217718   2.797   2.987  15.199  0.8038 -0.2774  0.6665
 2087SOL     OW17719   1.076   3.219   3.266 -0.0744 -0.4681 -0.2603
 2087SOL    HW117720   1.046   3.282   3.201  0.0723 -0.0749  0.0457
 2087SOL    HW217721   1.006   3.157   3.282 -0.3427 -0.2371 -0.5554
 2088SOL     OW17722   2.797   1.066   4.677  0.2952 -0.9060 -0.1014
 2088SOL    HW117723   2.783   1.158   4.658 -2.7631 -1.4085 -0.2884
 2088SOL    HW217724   2.802   1.030   4.588  0.8503  1.1459 -0.9064
 2089SOL     OW17725   4.720   4.721   4.668 -0.3231  0.0709  0.1732
 2089SOL    HW117726   4.690   4.664   4.598 -3.1792  0.6307  0.9273
 2089SOL    HW217727   0.004   4.649   4.731  0.0892 -0.2653 -0.2623
 2090SOL     OW17728   0.537   2.182  11.792  0.3928 -0.1149  0.0161
 2090SOL    HW117729   0.615   2.192  11.847  0.5768 -0.1895 -0.2308
 2090SOL    HW217730   0.556   2.232  11.712  1.4345  0.6384  0.7344
 2091SOL     OW17731   2.179   3.374   8.788 -0.0922 -0.5038  0.6498
 2091SOL    HW117732   2.197   3.385   8.694 -1.8036 -0.9024  0.2869
 2091SOL    HW217733   2.140   3.287   8.780  0.2988 -0.9105  3.2115
 2092SOL     OW17734   2.263   1.539   7.313 -0.2633 -0.3844 -0.2164
 2092SOL    HW117735   2.212   1.518   7.391 -0.4471  1.2538  0.1002
 2092SOL    HW217736   2.200   1.585   7.257  2.0006  1.1087 -1.5116
 2093SOL     OW17737   4.047   2.387  12.866  0.4926  0.4887 -0.4405
 2093SOL    HW117738   3.952   2.389  12.877  0.2887  0.5087 -2.3402
 2093SOL    HW217739   4.061   2.479  12.842  1.6618  0.4650  0.1252
 2094SOL     OW17740   3.696   2.684   6.556 -0.6265 -0.1899  0.0556
 2094SOL    HW117741   3.692   2.591   6.536 -1.1433 -0.0254 -0.5991
 2094SOL    HW217742   3.785   2.708   6.532 -0.4207 -2.0498 -1.0588
 2095SOL     OW17743   3.575   2.443   6.950  0.3945  0.2358  0.1151
 2095SOL    HW117744   3.580   2.486   7.035  2.6105 -1.9581  1.0821
 2095SOL    HW217745   3.522   2.502   6.897  1.7237  0.0870 -1.3871
 2096SOL     OW17746   0.339   4.281   2.086 -0.4282 -0.1896 -0.1247
 2096SOL    HW117747   0.432   4.268   2.070 -0.3299 -0.0148  0.3038
 2096SOL    HW217748   0.340   4.261   2.180  0.2384  2.7054  0.4706
 2097SOL     OW17749   2.472   1.425   5.230 -0.4871 -0.2539 -0.8067
 2097SOL    HW117750   2.466   1.370   5.308 -0.6701 -0.9861 -1.3390
 2097SOL    HW217751   2.509   1.502   5.272  0.9565 -1.4409  0.1044
 2098SOL     OW17752   3.825   3.402   6.241 -0.0493  0.3047  0.4948
 2098SOL    HW117753   3.869   3.402   6.326 -0.6842 -2.6814  0.8195
 2098SOL    HW217754   3.778   3.485   6.246 -0.4209  0.1810 -1.0017
 2099SOL     OW17755   1.788   0.316  15.129  0.5944 -0.4326  0.2787
 2099SOL    HW117756   1.832   0.320  15.044 -1.7030 -0.2144 -0.8821
 2099SOL    HW217757   1.698   0.319  15.096 -0.1284  0.6955  2.3453
 2100SOL     OW17758   4.471   0.317  14.554 -0.1449  0.1152  0.2742
 2100SOL    HW117759   4.528   0.243  14.577  1.0141  0.4341 -1.6264
 2100SOL    HW217760   4.530   0.383  14.518  1.4250 -0.1984  2.2654
 2101SOL     OW17761   3.541   1.084   9.990 -0.7294  0.3818 -0.1425
 2101SOL    HW117762   3.446   1.099   9.984 -0.8784 -0.6467 -0.3616
 2101SOL    HW217763   3.539   0.991  10.008 -1.3527  0.5760  0.7788
 2102SOL     OW17764   4.245   2.653  13.971  0.4473 -0.2678  0.1537
 2102SOL    HW117765   4.232   2.561  13.996  3.1030 -0.7260 -0.1065
 2102SOL    HW217766   4.250   2.696  14.056 -2.2165 -2.6843  1.5410
 2103SOL     OW17767   0.746   4.234   7.867  0.2083 -0.4349 -0.0036
 2103SOL    HW117768   0.747   4.294   7.793  0.0431 -0.0979  0.2681
 2103SOL    HW217769   0.817   4.270   7.920 -0.5507  1.6021 -0.3974
 2104SOL     OW17770   4.494   1.937  16.860 -0.4463 -0.6935  0.4022
 2104SOL    HW117771   4.468   2.029  16.866 -0.2289 -0.5789 -0.4075
 2104SOL    HW217772   4.437   1.899  16.793  0.7274  1.4016 -1.8409
 2105SOL     OW17773   2.122   0.445   3.922 -0.5196  0.1290  0.1340
 2105SOL    HW117774   2.163   0.412   3.842 -0.3091  0.6812  0.0147
 2105SOL    HW217775   2.031   0.416   3.919 -0.4019 -0.2791  0.5074
 2106SOL     OW17776   1.696   3.786   5.504 -0.2766  0.0766  0.4034
 2106SOL    HW117777   1.759   3.743   5.561  1.9051  1.5511 -0.8854
 2106SOL    HW217778   1.642   3.710   5.482 -4.3187  2.3034  2.6026
 2107SOL     OW17779   3.732   1.354   1.452 -0.7255  0.5779 -0.2094
 2107SOL    HW117780   3.723   1.258   1.453  1.4603  0.3810  0.0053
 2107SOL    HW217781   3.639   1.377   1.445 -1.1795 -1.6792 -1.5771
 2108SOL     OW17782   2.895   1.391   2.074  0.2566  0.6001 -0.4789
 2108SOL    HW117783   2.979   1.383   2.119  0.2841 -1.1361 -0.8354
 2108SOL    HW217784   2.879   1.484   2.088 -1.8972 -0.1485  2.0199
 2109SOL     OW17785   3.784   1.562   5.699  0.5450  0.3051  0.3479
 2109SOL    HW117786   3.702   1.613   5.700  0.7984  0.6813  1.9381
 2109SOL    HW217787   3.753   1.485   5.652  1.3202 -0.2369  0.7206
 2110SOL     OW17788   0.544   3.632   2.591 -0.0569  0.5226 -0.0056
 2110SOL    HW117789   0.450   3.622   2.582  0.3071 -2.0007 -1.0052
 2110SOL    HW217790   0.554   3.558   2.650 -0.8901  0.4206  0.0038
 2111SOL     OW17791   0.705   2.481   3.116  0.1547  0.4866  0.0242
 2111SOL    HW117792   0.664   2.541   3.054 -0.7608 -0.1039  0.0603
 2111SOL    HW217793   0.681   2.399   3.072 -1.3445  0.5686  0.6775
 2112SOL     OW17794   0.461   1.875   6.231 -0.3478  0.0107  0.3739
 2112SOL    HW117795   0.436   1.952   6.179 -0.7006  1.4045  2.6159
 2112SOL    HW217796   0.454   1.904   6.322 -1.5745 -0.9250  0.5710
 2113SOL     OW17797   1.705   2.356   0.107 -0.0889 -0.4988  0.3590
 2113SOL    HW117798   1.700   2.451   0.108 -3.5532 -0.6870  1.1922
 2113SOL    HW217799   1.730   2.324   0.020 -0.2735 -0.0318  0.1366
 2114SOL     OW17800   3.504   1.666   7.173 -0.3332 -0.0519 -0.2854
 2114SOL    HW117801   3.469   1.754   7.187  1.3344  0.2411  2.0235
 2114SOL    HW217802   3.472   1.650   7.085 -0.8547  0.3799 -0.1736
 2115SOL     OW17803   3.982   3.030   6.702  0.1448 -0.3514  0.0042
 2115SOL    HW117804   3.982   2.956   6.762  0.6714 -0.1744  0.2283
 2115SOL    HW217805   3.894   3.066   6.710 -0.0222 -0.6900 -0.2868
 2116SOL     OW17806   3.460   1.102   2.304  0.1883 -0.4808  0.2956
 2116SOL    HW117807   3.482   1.173   2.365  0.7818  1.6067 -2.3449
 2116SOL    HW217808   3.387   1.060   2.348 -0.8639  0.8291 -0.2016
 2117SOL     OW17809   0.879   3.410  11.698 -0.3508 -0.5571 -0.3474
 2117SOL    HW117810   0.866   3.321  11.732  0.8259 -0.5559  0.1232
 2117SOL    HW217811   0.794   3.453  11.692 -0.3284 -0.5103 -0.3211
 2118SOL     OW17812   3.597   0.019   8.296  1.0041 -0.1242  0.4143
 2118SOL    HW117813   3.662   4.675   8.279  1.2296 -0.0427  0.9365
 2118SOL    HW217814   3.609   0.082   8.226 -0.0079 -0.0268  0.3192
 2119SOL     OW17815   3.299   3.776  16.812 -0.3770  0.0443 -0.3428
 2119SOL    HW117816   3.370   3.837  16.792 -0.8375  0.1633 -1.6078
 2119SOL    HW217817   3.343   3.696  16.840 -1.1415  0.0274  0.8381
 2120SOL     OW17818   1.528   3.062   1.480  0.0764  0.6187 -0.5380
 2120SOL    HW117819   1.535   3.128   1.549 -1.0544 -0.2043  0.3522
 2120SOL    HW217820   1.462   3.003   1.516  1.3935 -1.3533 -1.3704
 2121SOL     OW17821   0.489   0.261   8.395  0.0749  0.0519  0.0274
 2121SOL    HW117822   0.519   0.302   8.476  2.0948 -1.7901  0.2005
 2121SOL    HW217823   0.561   0.201   8.373  0.0552  0.5976 -1.4827
 2122SOL     OW17824   3.439   0.126   6.402 -0.0332  0.2817  0.7927
 2122SOL    HW117825   3.414   0.117   6.310  0.2242 -0.2430  0.7746
 2122SOL    HW217826   3.520   0.176   6.396  0.8760 -1.4069 -0.9141
 2123SOL     OW17827   2.788   2.338   6.516 -0.4565 -0.1748  0.2618
 2123SOL    HW117828   2.837   2.268   6.474  1.8841  2.2666 -1.1035
 2123SOL    HW217829   2.866   2.377   6.555 -1.6574  0.6790  1.8162
 2124SOL     OW17830   2.284   2.137   8.169 -0.1253  0.2569 -0.1934
 2124SOL    HW117831   2.337   2.091   8.234  2.5772  0.8978 -1.9578
 2124SOL    HW217832   2.228   2.071   8.127  1.0630 -0.7414 -0.2119
 2125SOL     OW17833   2.131   1.856   8.419 -0.1830  0.2542 -0.3425
 2125SOL    HW117834   2.117   1.794   8.348  0.9277  0.2404 -0.5505
 2125SOL    HW217835   2.091   1.941   8.399  0.8643  0.0542 -3.1884
 2126SOL     OW17836   0.124   2.167   6.528 -0.6139 -0.2668 -0.1506
 2126SOL    HW117837   0.166   2.245   6.493 -1.3530  0.1425 -0.1248
 2126SOL    HW217838   0.031   2.184   6.517 -1.0636 -2.1576  0.6562
 2127SOL     OW17839   2.552   0.520  10.753  0.6467  0.4530 -0.4519
 2127SOL    HW117840   2.529   0.523  10.660  1.4438 -1.2036 -0.7000
 2127SOL    HW217841   2.594   0.434  10.752  0.9410  0.6003 -0.8145
 2128SOL     OW17842   2.508   0.023   9.379 -0.4283 -0.0646  0.3067
 2128SOL    HW117843   2.415   0.008   9.364 -0.6200 -0.0795  1.5629
 2128SOL    HW217844   2.503   0.095   9.441 -0.7653 -0.4766  0.7611
 2129SOL     OW17845   1.994   4.349   2.903 -0.2088 -0.2486 -0.1876
 2129SOL    HW117846   1.984   4.291   2.827  3.0067  2.0039 -2.3241
 2129SOL    HW217847   1.981   4.280   2.968 -0.3574  0.0515  0.1015
 2130SOL     OW17848   4.221   4.568   8.200  0.3191  0.4777  0.1028
 2130SOL    HW117849   4.165   4.520   8.261 -0.4638 -0.3935 -1.2849
 2130SOL    HW217850   4.277   4.619   8.259  1.5468 -0.0182 -0.6354
 2131SOL     OW17851   4.211   2.917   8.660  0.3983 -0.1810  0.3022
 2131SOL    HW117852   4.291   2.946   8.703 -1.8075  1.7554  3.1138
 2131SOL    HW217853   4.179   2.865   8.733  1.1634 -0.9336  0.1002
 2132SOL     OW17854   2.161   2.042   1.188 -0.3094  0.3459 -0.2720
 2132SOL    HW117855   2.072   2.069   1.211  0.3282 -0.1362  2.8306
 2132SOL    HW217856   2.196   2.126   1.161 -2.2776  0.5874 -2.0308
 2133SOL     OW17857   0.130   0.604  15.332  0.4692  0.0952 -0.2923
 2133SOL    HW117858   0.112   0.687  15.376 -0.7216  0.2307 -1.0689
 2133SOL    HW217859   0.105   0.542  15.401  1.0436 -2.1286 -2.0955
 2134SOL     OW17860   2.342   0.643   4.673  0.0058  0.3670 -0.1961
 2134SOL    HW117861   2.408   0.680   4.732 -0.6130 -1.3819  1.5739
 2134SOL    HW217862   2.296   0.586   4.734 -0.3301  0.6793 -0.1593
 2135SOL     OW17863   1.294   1.191   9.563  0.4322 -0.5409  0.0628
 2135SOL    HW117864   1.243   1.267   9.590 -1.7345 -1.2522 -2.0896
 2135SOL    HW217865   1.377   1.209   9.607 -0.4879 -0.6643  1.8403
 2136SOL     OW17866   1.172   1.059   3.309 -0.0845 -0.0921 -0.2545
 2136SOL    HW117867   1.107   1.119   3.272 -1.0345 -1.3521 -0.6310
 2136SOL    HW217868   1.155   1.074   3.402  0.5501 -3.6976  0.4327
 2137SOL     OW17869   3.295   2.213   4.883  0.2574 -1.0756 -0.3818
 2137SOL    HW117870   3.352   2.237   4.810  2.0832 -3.7189  0.1658
 2137SOL    HW217871   3.226   2.274   4.856  0.2789 -0.2350  1.4641
 2138SOL     OW17872   3.675   2.403   1.712 -0.3247 -0.1571 -0.1266
 2138SOL    HW117873   3.595   2.455   1.713  0.5705  1.1923  1.1915
 2138SOL    HW217874   3.679   2.359   1.626  1.4734 -0.9827  0.3649
 2139SOL     OW17875   0.519   0.960   3.542  0.1507  0.2365  0.1353
 2139SOL    HW117876   0.513   0.866   3.526 -0.1696  0.0409  1.4825
 2139SOL    HW217877   0.606   0.962   3.582  0.3817  0.4386 -0.3704
 2140SOL     OW17878   4.473   2.633   9.185  0.2811 -0.2664 -0.1049
 2140SOL    HW117879   4.538   2.582   9.136  1.6876  1.4300  0.0112
 2140SOL    HW217880   4.428   2.558   9.223 -2.5813 -0.5703 -4.0879
 2141SOL     OW17881   0.754   2.616  16.050 -0.5938  0.1579 -0.6612
 2141SOL    HW117882   0.762   2.687  16.113  1.2352 -0.8912  0.2868
 2141SOL    HW217883   0.794   2.545  16.099  0.4017  0.8571 -0.4603
 2142SOL     OW17884   1.521   4.320   9.233  0.3405 -0.3200 -0.2391
 2142SOL    HW117885   1.457   4.303   9.163  1.3297 -2.0072 -0.7353
 2142SOL    HW217886   1.592   4.263   9.204  2.3612  1.8941  0.3730
 2143SOL     OW17887   4.710   0.669   4.929  0.1275 -0.1367 -0.3940
 2143SOL    HW117888   4.623   0.662   4.888 -0.1539 -1.6190  0.4397
 2143SOL    HW217889   0.041   0.601   4.888 -1.7543 -1.1280 -1.3114
 2144SOL     OW17890   2.809   2.311   2.302 -0.3627  0.1537 -0.1161
 2144SOL    HW117891   2.806   2.365   2.381  2.1868  0.3869 -0.1948
 2144SOL    HW217892   2.799   2.378   2.234  0.0227  0.3896  0.0590
 2145SOL     OW17893   3.747   4.242  10.884 -0.3093 -0.2038  0.2502
 2145SOL    HW117894   3.669   4.262  10.833 -0.7860 -1.8032  0.3391
 2145SOL    HW217895   3.709   4.166  10.929 -2.2122  1.2940  1.1653
 2146SOL     OW17896   2.444   0.282   5.618  0.5428  0.1769 -0.4017
 2146SOL    HW117897   2.438   0.210   5.556 -1.3977  0.0342 -0.0489
 2146SOL    HW217898   2.404   0.353   5.567 -1.2742 -2.5937 -2.7782
 2147SOL     OW17899   4.133   1.331   2.986  0.3901  0.1357  0.4563
 2147SOL    HW117900   4.110   1.246   2.948 -2.5086  1.0801  0.0531
 2147SOL    HW217901   4.049   1.376   2.990  0.5096  0.5053 -0.9261
 2148SOL     OW17902   4.209   3.857   0.259  0.8069  0.3914  0.5148
 2148SOL    HW117903   4.301   3.835   0.249  0.8187  1.2019 -1.1462
 2148SOL    HW217904   4.180   3.837   0.170  0.7357 -2.0098  1.0892
 2149SOL     OW17905   4.347   2.716   2.245  0.2723  0.6068 -0.6711
 2149SOL    HW117906   4.360   2.802   2.205 -2.3667  2.8644  3.3267
 2149SOL    HW217907   4.269   2.684   2.198 -0.1225 -0.9721  1.0601
 2150SOL     OW17908   0.865   0.004   0.004  0.3381  0.8834  0.2837
 2150SOL    HW117909   0.783   0.049  17.678 -0.4612 -0.4276  0.5683
 2150SOL    HW217910   0.920   0.072   0.042  0.7204 -0.9818  3.0211
 2151SOL     OW17911   0.523   0.732   2.171 -0.5031 -0.4053 -0.4137
 2151SOL    HW117912   0.432   0.707   2.155 -1.2449  0.6409  2.0554
 2151SOL    HW217913   0.568   0.697   2.094  1.9915  3.5060 -0.7661
 2152SOL     OW17914   1.418   2.286   7.682 -0.1530  0.2884 -0.1094
 2152SOL    HW117915   1.400   2.369   7.637 -4.3675 -0.1088  0.8487
 2152SOL    HW217916   1.352   2.234   7.635 -0.5471  1.7352 -1.1831
 2153SOL     OW17917   0.319   2.749   6.881 -0.3537 -0.1219  0.0852
 2153SOL    HW117918   0.368   2.672   6.909 -1.1278 -0.9349 -0.7769
 2153SOL    HW217919   0.371   2.830   6.880 -2.2437  1.0868 -0.9410
 2154SOL     OW17920   1.607   1.991   7.292  0.0351 -0.4868 -0.4182
 2154SOL    HW117921   1.638   2.046   7.364 -0.7203 -2.3023  1.2941
 2154SOL    HW217922   1.632   1.907   7.329  0.4584 -0.4435 -0.6102
 2155SOL     OW17923   3.127   2.582   4.626  0.0282 -0.5079  0.2326
 2155SOL    HW117924   3.182   2.553   4.554 -2.6400 -0.5247 -1.7796
 2155SOL    HW217925   3.043   2.558   4.586 -0.7482  0.1790  1.4427
 2156SOL     OW17926   2.491   0.522   4.164 -0.2084  0.6979 -0.0101
 2156SOL    HW117927   2.409   0.555   4.126 -0.4007  0.8176  0.5064
 2156SOL    HW217928   2.465   0.535   4.255 -0.1530  0.9885 -0.0374
 2157SOL     OW17929   1.819   2.085   5.443 -0.2203 -0.0934 -0.1613
 2157SOL    HW117930   1.904   2.098   5.401 -0.7389 -0.1985 -1.2505
 2157SOL    HW217931   1.847   2.085   5.534  0.9281 -1.3985 -0.5293
 2158SOL     OW17932   1.857   0.413  13.225 -0.1444  0.6386  0.7699
 2158SOL    HW117933   1.928   0.454  13.274  0.9324  0.1235 -0.3537
 2158SOL    HW217934   1.861   0.324  13.263  0.6816 -0.4613 -1.9081
 2159SOL     OW17935   4.714   4.125   7.639 -0.2580  0.0344 -0.0197
 2159SOL    HW117936   0.079   4.118   7.672  0.1557  2.2115 -0.6475
 2159SOL    HW217937   4.716   4.099   7.547  0.9021 -1.1478  0.3529
 2160SOL     OW17938   2.612   3.906   3.867  0.2824 -1.0045  0.0434
 2160SOL    HW117939   2.614   3.874   3.957  2.1222  2.0335  1.0685
 2160SOL    HW217940   2.525   3.947   3.875  0.4880 -0.7137  0.7420
 2161SOL     OW17941   2.191   1.318  16.269 -0.7021 -1.1818 -0.2068
 2161SOL    HW117942   2.122   1.355  16.213 -0.8979 -0.5720  0.4308
 2161SOL    HW217943   2.232   1.399  16.300  0.9263 -1.3303 -1.9488
 2162SOL     OW17944   1.220   2.166   3.048 -0.7067 -0.1773  0.2197
 2162SOL    HW117945   1.274   2.147   2.971 -2.3241 -0.0141 -0.9558
 2162SOL    HW217946   1.136   2.182   3.005 -1.2085 -0.6140  1.0342
 2163SOL     OW17947   1.388   0.514  15.618  0.1756 -0.2538  0.1185
 2163SOL    HW117948   1.400   0.428  15.658 -0.5618 -0.2869  0.2666
 2163SOL    HW217949   1.439   0.578  15.668  2.0738 -2.1478  0.6311
 2164SOL     OW17950   0.612   0.556  11.684 -0.4600  0.4102 -0.0674
 2164SOL    HW117951   0.530   0.578  11.641 -0.2303 -0.3713 -0.8859
 2164SOL    HW217952   0.667   0.535  11.608  0.6096 -3.3262  1.7132
 2165SOL     OW17953   4.327   0.955   2.685  0.6406 -0.2415  0.2314
 2165SOL    HW117954   4.395   0.989   2.744  0.2809  1.2455 -0.2001
 2165SOL    HW217955   4.376   0.879   2.657  1.7475  0.9828 -1.1225
 2166SOL     OW17956   0.359   4.564   9.690  0.3396  0.3337 -0.4148
 2166SOL    HW117957   0.361   4.528   9.778  2.9009  1.2011 -0.1099
 2166SOL    HW217958   0.282   4.519   9.655 -0.1100  0.5545  0.2930
 2167SOL     OW17959   4.322   4.039  17.422  0.4349 -0.2080  0.1299
 2167SOL    HW117960   4.393   3.994  17.467  0.0756  0.4897  1.3794
 2167SOL    HW217961   4.321   4.121  17.471 -0.9111 -1.0267  1.4720
 2168SOL     OW17962   0.109   3.630   7.055  0.6108  0.2392  0.0373
 2168SOL    HW117963   0.081   3.575   6.982  0.2076 -0.8689  1.0442
 2168SOL    HW217964   0.029   3.639   7.106 -0.5627  0.1399 -1.8159
 2169SOL     OW17965   2.112   4.381  12.510  0.0001  0.0360 -0.8529
 2169SOL    HW117966   2.140   4.447  12.446  1.9569 -0.0691 -0.0803
 2169SOL    HW217967   2.191   4.357  12.558 -0.5846  1.6484  0.9256
 2170SOL     OW17968   1.113   4.025  16.457  0.4978  0.3058  0.4014
 2170SOL    HW117969   1.126   3.932  16.473 -1.0465  0.0900  0.3956
 2170SOL    HW217970   1.073   4.023  16.370  1.5768 -2.5659 -0.0293
 2171SOL     OW17971   0.442   4.538   6.521 -0.2463 -0.3539 -0.0781
 2171SOL    HW117972   0.351   4.563   6.503 -0.0051  0.2441 -0.4579
 2171SOL    HW217973   0.479   4.559   6.435  0.2123 -1.8974 -0.2634
 2172SOL     OW17974   1.651   3.611   7.640 -0.5804 -0.5902  0.1789
 2172SOL    HW117975   1.722   3.548   7.651  0.3771  0.4509 -0.1423
 2172SOL    HW217976   1.578   3.554   7.665 -0.4316 -0.7539  0.2455
 2173SOL     OW17977   2.071   1.057   9.268 -0.4906  0.4020  0.4892
 2173SOL    HW117978   2.027   0.997   9.207 -1.6255 -0.9825  2.6879
 2173SOL    HW217979   2.090   1.009   9.348 -1.4319 -0.9200 -0.0827
 2174SOL     OW17980   0.364   2.618   7.546  0.0471 -0.0964  0.0132
 2174SOL    HW117981   0.359   2.640   7.453  1.1806 -0.4711 -0.1368
 2174SOL    HW217982   0.270   2.611   7.565 -0.0924 -1.1159 -1.0752
 2175SOL     OW17983   1.821   3.810  11.185 -0.6804  0.1400  0.2553
 2175SOL    HW117984   1.878   3.769  11.120 -0.7367 -0.8636  0.8354
 2175SOL    HW217985   1.838   3.903  11.169  0.3895 -0.0165  0.5161
 2176SOL     OW17986   0.468   1.746   7.524 -1.0872 -0.4010 -0.0923
 2176SOL    HW117987   0.504   1.667   7.485 -0.6832 -0.8709  1.2702
 2176SOL    HW217988   0.390   1.722   7.573 -0.4977 -1.9528  0.0798
 2177SOL     OW17989   4.201   0.688   8.078  0.2598  0.1590 -0.3933
 2177SOL    HW117990   4.144   0.677   8.154  0.8115 -1.6177 -0.2250
 2177SOL    HW217991   4.282   0.644   8.105 -0.4236 -0.8501  0.0312
 2178SOL     OW17992   1.417   4.389  16.179 -0.5191 -0.8118  0.4979
 2178SOL    HW117993   1.325   4.407  16.198 -0.7642 -1.0793 -0.4397
 2178SOL    HW217994   1.449   4.480  16.178 -0.6593 -0.8134 -2.7502
 2179SOL     OW17995   4.597   0.473   3.046  0.0911 -0.1441  0.5052
 2179SOL    HW117996   4.601   0.382   3.017 -0.7984  0.0431 -0.2062
 2179SOL    HW217997   4.519   0.501   2.998  2.2352  1.9655 -1.6749
 2180SOL     OW17998   4.330   3.429  11.876  0.3231  0.3306 -0.2632
 2180SOL    HW117999   4.279   3.446  11.956 -1.9821 -1.6695 -1.2915
 2180SOL    HW218000   4.282   3.488  11.819 -1.7091 -0.8209  0.2338
 2181SOL     OW18001   3.488   3.839   3.208 -0.0392  0.2304 -0.0483
 2181SOL    HW118002   3.397   3.822   3.184 -0.6161  2.0418  0.8827
 2181SOL    HW218003   3.524   3.869   3.124  2.4227 -0.8420  0.6227
 2182SOL     OW18004   1.341   4.404   8.885 -0.3659  0.1057 -0.0176
 2182SOL    HW118005   1.432   4.423   8.907 -0.4561  2.4995 -1.6815
 2182SOL    HW218006   1.317   4.335   8.947  0.4369 -0.2903 -0.1513
 2183SOL     OW18007   4.251   2.274  15.677  0.5618  0.2333  0.0757
 2183SOL    HW118008   4.243   2.311  15.589 -1.1948  0.8671  0.4862
 2183SOL    HW218009   4.271   2.184  15.652  2.7052  0.6422  0.3612
 2184SOL     OW18010   0.734   0.467   7.698  0.0180 -0.0375 -0.0347
 2184SOL    HW118011   0.796   0.479   7.770 -0.6143 -0.8153  0.6389
 2184SOL    HW218012   0.719   0.373   7.687 -0.6976 -0.2253  2.4418
 2185SOL     OW18013   4.387   2.141   7.465  0.3175  0.3509  0.3585
 2185SOL    HW118014   4.415   2.091   7.388  0.4554 -1.9923  1.9635
 2185SOL    HW218015   4.296   2.111   7.467  0.1547  0.7531 -0.7415
 2186SOL     OW18016   1.671   1.082   8.320  0.0364  0.0847  0.5450
 2186SOL    HW118017   1.596   1.023   8.331  0.6951 -0.9750 -0.7256
 2186SOL    HW218018   1.636   1.151   8.264 -2.3927 -2.9556 -1.6551
 2187SOL     OW18019   1.114   0.726   8.464 -0.3051  0.1625 -0.2448
 2187SOL    HW118020   1.170   0.783   8.517 -0.1918  1.1933 -1.4740
 2187SOL    HW218021   1.120   0.633   8.489 -0.9744  0.9228  2.8048
 2188SOL     OW18022   2.269   0.182   1.555 -0.1797 -0.3978 -0.2046
 2188SOL    HW118023   2.292   0.231   1.476 -1.9625 -1.0435 -1.1504
 2188SOL    HW218024   2.199   0.124   1.525 -2.8996  2.2362  1.0613
 2189SOL     OW18025   3.343   4.440   3.888  0.0381  0.3862 -0.0003
 2189SOL    HW118026   3.327   4.371   3.823  0.5743  1.7681 -1.5867
 2189SOL    HW218027   3.382   4.393   3.962 -1.9336 -0.6338  0.4118
 2190SOL     OW18028   1.607   3.991  12.202  0.2194  0.3478 -0.1375
 2190SOL    HW118029   1.582   3.900  12.216 -1.9522  1.0240  0.4107
 2190SOL    HW218030   1.624   3.976  12.109 -2.0171 -0.5720 -0.4001
 2191SOL     OW18031   3.368   0.950  10.344 -0.2041  0.3736  0.2321
 2191SOL    HW118032   3.360   0.855  10.343  0.7003  0.2929  1.4762
 2191SOL    HW218033   3.451   0.959  10.297 -1.3054  0.7853 -1.6750
 2192SOL     OW18034   2.139   0.938   4.704 -0.1043  0.0510  0.0548
 2192SOL    HW118035   2.157   1.029   4.727 -1.5806 -0.1312  1.9950
 2192SOL    HW218036   2.177   0.876   4.766 -0.9358  0.0521  0.5733
 2193SOL     OW18037   0.283   2.047   4.168 -0.2090  0.2887  0.1366
 2193SOL    HW118038   0.291   1.990   4.245 -2.5321  0.5429  0.5637
 2193SOL    HW218039   0.234   2.122   4.200 -0.0421 -0.1457  1.4090
 2194SOL     OW18040   4.598   1.769   8.239  0.2090  0.1742  0.6559
 2194SOL    HW118041   4.678   1.814   8.266  0.3353 -0.9498  2.1474
 2194SOL    HW218042   4.577   1.705   8.307 -0.2166  0.5117  0.8411
 2195SOL     OW18043   2.807   3.457   6.067  0.1893  0.3958 -0.1857
 2195SOL    HW118044   2.790   3.441   6.160 -0.2872  0.2253 -0.3044
 2195SOL    HW218045   2.748   3.533   6.062 -2.1558 -1.5564 -2.0489
 2196SOL     OW18046   3.419   1.285   4.048 -0.3285  0.7157 -0.1385
 2196SOL    HW118047   3.474   1.363   4.062 -1.8471  1.9599 -1.1035
 2196SOL    HW218048   3.336   1.307   4.091  0.2590  2.9141 -0.1235
 2197SOL     OW18049   1.007   3.962   8.568  0.2042  0.4588  0.2971
 2197SOL    HW118050   1.052   4.003   8.642 -1.5011 -0.7325  2.0149
 2197SOL    HW218051   0.915   3.973   8.591  0.5387  0.5108  1.6401
 2198SOL     OW18052   3.255   1.536   3.432  0.1250 -0.7484 -0.3750
 2198SOL    HW118053   3.305   1.496   3.360  0.2231  0.7654 -1.1499
 2198SOL    HW218054   3.262   1.627   3.405  2.9839 -1.1837 -1.1463
 2199SOL     OW18055   1.839   0.182  12.276 -0.0333 -0.0856 -0.2940
 2199SOL    HW118056   1.828   0.262  12.327  1.2568  0.9374 -1.5867
 2199SOL    HW218057   1.764   0.130  12.304  0.5474 -1.0816 -0.5945
 2200SOL     OW18058   0.223   0.880   6.709  0.0259  1.2388  0.0751
 2200SOL    HW118059   0.249   0.846   6.795 -0.0122 -4.0943 -2.0452
 2200SOL    HW218060   0.135   0.910   6.734  0.3717  0.9616  1.6527
 2201SOL     OW18061   0.570   2.068   2.015  0.0319  0.1694  0.2339
 2201SOL    HW118062   0.562   2.137   2.080 -0.0615 -0.4874  0.9286
 2201SOL    HW218063   0.659   2.036   2.026  0.4509  1.0870 -0.4528
 2202SOL     OW18064   0.380   3.266   8.735  0.1555  0.4010 -0.1799
 2202SOL    HW118065   0.372   3.202   8.663 -0.4133 -1.9281  1.9414
 2202SOL    HW218066   0.357   3.350   8.695 -0.2769  0.5347  0.3536
 2203SOL     OW18067   0.951   2.284   0.626  0.4993  0.6449  0.0386
 2203SOL    HW118068   0.943   2.237   0.543 -0.4273 -2.2608  1.7724
 2203SOL    HW218069   0.873   2.338   0.619  0.5148  0.8831  1.7163
 2204SOL     OW18070   1.234   0.924   6.473 -0.2978 -0.1503  0.0085
 2204SOL    HW118071   1.239   0.832   6.450 -4.0157 -0.0216 -1.2809
 2204SOL    HW218072   1.212   0.970   6.392  0.8861  0.6955  0.1604
 2205SOL     OW18073   0.924   1.029   6.926  0.1753  0.0206  0.6895
 2205SOL    HW118074   0.834   1.028   6.893  0.1344 -0.5466  0.8267
 2205SOL    HW218075   0.975   1.007   6.848 -0.9723 -1.6051  0.4106
 2206SOL     OW18076   1.751   2.789   2.419  0.4870  0.0580  0.0010
 2206SOL    HW118077   1.725   2.744   2.339 -0.2447  0.9561 -0.2604
 2206SOL    HW218078   1.712   2.874   2.400 -0.4681 -0.4507 -0.2946
 2207SOL     OW18079   2.589   3.058  15.443 -0.2934 -0.0428  0.2087
 2207SOL    HW118080   2.660   3.037  15.382 -0.3202  0.0079  0.1603
 2207SOL    HW218081   2.517   3.061  15.381 -1.4363 -0.4759  1.5211
 2208SOL     OW18082   3.218   0.949   2.436  0.2702  0.3549  0.5110
 2208SOL    HW118083   3.160   0.881   2.470  0.3649  0.7464  1.4346
 2208SOL    HW218084   3.227   0.987   2.523  1.4454  0.1685  0.4733
 2209SOL     OW18085   2.400   2.412   5.381 -0.3274 -0.1228 -0.8440
 2209SOL    HW118086   2.424   2.464   5.457  0.2157  0.2196 -1.2467
 2209SOL    HW218087   2.375   2.479   5.318  0.2347  0.2593 -0.6561
 2210SOL     OW18088   0.138   0.445   6.661  0.1974 -0.1354 -0.2031
 2210SOL    HW118089   0.208   0.397   6.706 -0.8047 -1.8758 -0.4688
 2210SOL    HW218090   0.197   0.491   6.601 -0.9190 -0.0637 -1.2499
 2211SOL     OW18091   2.375   0.124  10.482 -0.2656  0.1361 -0.4523
 2211SOL    HW118092   2.312   0.167  10.540 -0.3777 -2.3931  1.2968
 2211SOL    HW218093   2.449   0.099  10.537  1.0789 -1.2293 -2.8944
 2212SOL     OW18094   1.784   4.638   9.002  0.7059  1.0609  0.0538
 2212SOL    HW118095   1.818   4.575   9.066  1.2895  0.7959 -0.5124
 2212SOL    HW218096   1.835   4.719   9.009  0.8315  0.9535  0.3870
 2213SOL     OW18097   4.631   2.358   3.489 -0.7182 -0.1471  0.7138
 2213SOL    HW118098   4.590   2.416   3.554  1.1105  2.7270 -0.6749
 2213SOL    HW218099   4.706   2.332   3.543  1.4287  0.0498 -2.1755
 2214SOL     OW18100   1.832   3.922   3.415 -0.8503 -0.1846  0.2283
 2214SOL    HW118101   1.857   3.995   3.471 -0.2422 -0.9481  0.9536
 2214SOL    HW218102   1.873   3.943   3.331 -1.0959 -0.6482 -0.0091
 2215SOL     OW18103   0.828   4.058   7.075 -0.3563 -0.3030 -0.1075
 2215SOL    HW118104   0.854   4.128   7.014  0.1752  0.9879  1.6076
 2215SOL    HW218105   0.840   3.984   7.016 -0.3541  1.2521 -2.0606
 2216SOL     OW18106   2.371   2.995   8.150  0.3842  0.1607 -0.7611
 2216SOL    HW118107   2.299   2.991   8.213  0.1365 -2.8720 -1.2431
 2216SOL    HW218108   2.401   3.086   8.154 -1.6603  0.8716 -2.0863
 2217SOL     OW18109   4.371   0.909   4.428 -0.1790  0.2898 -0.1522
 2217SOL    HW118110   4.314   0.945   4.360  1.5560  0.9262 -1.2835
 2217SOL    HW218111   4.303   0.866   4.478  0.1315  0.3505  0.3178
 2218SOL     OW18112   3.074   0.703   6.807  0.7996 -0.0890 -0.0908
 2218SOL    HW118113   3.013   0.766   6.769  0.3069 -0.2563  0.4261
 2218SOL    HW218114   3.088   0.648   6.729 -4.8025 -0.5650 -0.7911
 2219SOL     OW18115   4.371   2.198   5.165 -0.3463 -0.4870 -0.5465
 2219SOL    HW118116   4.291   2.173   5.119  0.0005 -3.3593  0.3988
 2219SOL    HW218117   4.380   2.287   5.130  0.9157 -0.6826 -0.7295
 2220SOL     OW18118   1.520   2.837   2.895 -0.0322  0.2798  0.1877
 2220SOL    HW118119   1.438   2.823   2.943 -0.0391  1.7582  0.6076
 2220SOL    HW218120   1.586   2.813   2.961  1.3390  0.1979 -1.2099
 2221SOL     OW18121   4.019   4.591   2.846 -0.6946 -0.4809  0.1388
 2221SOL    HW118122   3.954   4.589   2.917 -1.9621 -1.7868 -1.0666
 2221SOL    HW218123   4.019   4.685   2.830 -0.3185 -0.3198  1.0488
 2222SOL     OW18124   4.714   1.258   8.309  0.4167  0.3142  0.1966
 2222SOL    HW118125   4.670   1.336   8.277 -1.2639 -0.7281 -0.0287
 2222SOL    HW218126   4.658   1.232   8.382 -1.9213 -0.2170 -1.7938
 2223SOL     OW18127   3.308   1.024   7.470  0.0367 -0.0060  0.0951
 2223SOL    HW118128   3.350   0.954   7.520 -0.2666  0.6356  1.2470
 2223SOL    HW218129   3.279   0.982   7.389 -1.4323  0.3166  0.4675
 2224SOL     OW18130   0.726   2.011   5.962 -0.2463 -0.1399  0.4948
 2224SOL    HW118131   0.735   2.072   6.035 -1.7366  0.2017  0.3838
 2224SOL    HW218132   0.810   1.964   5.961 -0.8549 -1.1791 -2.2401
 2225SOL     OW18133   1.190   1.615  16.091  0.4108 -0.6592 -0.0897
 2225SOL    HW118134   1.227   1.594  16.176  1.0198  1.3043  0.1205
 2225SOL    HW218135   1.273   1.625  16.044 -0.5101 -0.8386 -1.7886
 2226SOL     OW18136   0.875   4.560   1.148 -0.0128 -0.2824  0.2426
 2226SOL    HW118137   0.935   4.558   1.224 -1.1615 -1.3950  1.1258
 2226SOL    HW218138   0.913   4.479   1.114  2.4309  1.8859 -2.2157
 2227SOL     OW18139   3.994   2.354   5.330 -0.0772 -0.5628  0.5681
 2227SOL    HW118140   3.932   2.422   5.354  0.7130  0.3465  0.0650
 2227SOL    HW218141   3.966   2.338   5.240 -0.2686 -2.8138  1.0171
 2228SOL     OW18142   0.904   2.559   5.592 -0.7455 -0.5239 -0.0606
 2228SOL    HW118143   0.811   2.568   5.614 -0.8938 -1.3633 -0.3554
 2228SOL    HW218144   0.945   2.545   5.678  1.8440  1.9036 -0.9243
 2229SOL     OW18145   1.348   2.370   0.862 -0.2738  0.1456  0.1283
 2229SOL    HW118146   1.303   2.346   0.781 -1.9912 -1.2042  1.4767
 2229SOL    HW218147   1.386   2.453   0.833 -0.8422  0.0616 -0.8676
 2230SOL     OW18148   4.514   2.971   3.464  0.5426 -0.2210  0.4046
 2230SOL    HW118149   4.481   2.969   3.375  1.6196  1.0227 -0.0195
 2230SOL    HW218150   4.596   3.017   3.446 -0.1046  1.1332  0.9094
 2231SOL     OW18151   2.112   2.813   4.673 -0.6624 -0.0798  0.1809
 2231SOL    HW118152   2.082   2.780   4.588  0.9908 -1.0750 -0.0190
 2231SOL    HW218153   2.069   2.898   4.666 -1.4400 -0.4808  0.1291
 2232SOL     OW18154   3.358   0.986   7.150  0.5269  0.0302 -0.6753
 2232SOL    HW118155   3.277   0.937   7.134  1.3297 -1.0677 -1.3042
 2232SOL    HW218156   3.428   0.923   7.164 -0.4083 -0.6577  0.9051
 2233SOL     OW18157   0.252   1.610  10.525  0.0312  0.2928 -0.5943
 2233SOL    HW118158   0.205   1.625  10.607  0.9062 -0.9241  0.1571
 2233SOL    HW218159   0.328   1.665  10.546 -0.7481  0.8488  0.7428
 2234SOL     OW18160   2.823   3.949   5.030 -0.0623  0.3084 -0.4166
 2234SOL    HW118161   2.805   3.994   4.947  0.6350  0.7638 -0.3176
 2234SOL    HW218162   2.849   3.867   4.989  0.5173  0.4817 -0.3948
 2235SOL     OW18163   3.539   3.940   4.175  0.2103  0.3641 -0.3953
 2235SOL    HW118164   3.463   3.997   4.191 -1.0222 -1.2245 -0.5767
 2235SOL    HW218165   3.567   3.962   4.086  1.8274  1.1318  0.2987
 2236SOL     OW18166   1.726   1.341   0.736 -0.1445  0.2651  0.1992
 2236SOL    HW118167   1.745   1.340   0.642  0.5593  0.2527  0.3454
 2236SOL    HW218168   1.808   1.295   0.753  0.1438  0.6064 -0.2778
 2237SOL     OW18169   2.635   3.799   6.630 -0.2775 -0.0105 -0.3309
 2237SOL    HW118170   2.624   3.826   6.721  1.5709  0.5291 -0.2702
 2237SOL    HW218171   2.717   3.749   6.622 -1.7521 -2.5830  0.5946
 2238SOL     OW18172   4.608   3.268   6.241  0.0165 -0.0234  0.1735
 2238SOL    HW118173   4.612   3.225   6.156  2.0094  0.3010  0.1070
 2238SOL    HW218174   4.517   3.298   6.251  0.1703  0.9711 -1.3247
 2239SOL     OW18175   2.488   1.640   9.737  0.3365  0.6577  0.2195
 2239SOL    HW118176   2.446   1.623   9.821 -0.5374  0.5107 -0.2519
 2239SOL    HW218177   2.537   1.559   9.722  0.6743  1.3605 -2.5729
 2240SOL     OW18178   4.483   0.218   3.320  0.6892 -0.0728  0.3977
 2240SOL    HW118179   4.546   0.148   3.302  1.3529 -0.1389  2.9570
 2240SOL    HW218180   4.548   0.288   3.314 -0.0186  0.6686  1.5020
 2241SOL     OW18181   3.146   0.950   3.060 -0.6805  0.0021  0.4312
 2241SOL    HW118182   3.127   0.908   2.976  1.4452  0.3155 -0.2131
 2241SOL    HW218183   3.233   0.914   3.082 -0.5585  0.0145 -0.0329
 2242SOL     OW18184   1.154   1.174   7.706  0.0874  0.1425  0.8160
 2242SOL    HW118185   1.211   1.152   7.779  0.3566  1.6289  1.0699
 2242SOL    HW218186   1.208   1.150   7.631 -0.1517  0.5024  0.5256
 2243SOL     OW18187   4.287   1.585   6.105  0.0599  0.2190 -0.0244
 2243SOL    HW118188   4.245   1.671   6.098  0.8086  0.7749  2.3053
 2243SOL    HW218189   4.226   1.521   6.068  1.9430 -2.2727  1.1633
 2244SOL     OW18190   2.619   2.279   8.062 -0.0942  0.5642 -0.2091
 2244SOL    HW118191   2.636   2.306   8.152  0.5904  3.4834 -1.2378
 2244SOL    HW218192   2.694   2.222   8.043 -0.8748 -0.6168  0.2690
 2245SOL     OW18193   0.657   0.131   1.962 -0.2509 -0.2916  0.4486
 2245SOL    HW118194   0.683   0.170   1.879  0.6190 -0.9137  0.4279
 2245SOL    HW218195   0.706   0.188   2.022  0.5369 -1.8538  1.3094
 2246SOL     OW18196   2.773   2.985   8.125 -0.1794  0.3083  0.7178
 2246SOL    HW118197   2.757   2.915   8.187  0.1196  0.0968  0.5575
 2246SOL    HW218198   2.845   2.943   8.077 -0.5328 -1.1133  1.4345
 2247SOL     OW18199   1.289   2.093   2.781 -1.2811  0.0465 -0.1893
 2247SOL    HW118200   1.262   2.065   2.694 -0.4617  1.6090 -0.9504
 2247SOL    HW218201   1.375   2.050   2.786 -1.7317 -1.0250 -1.5771
 2248SOL     OW18202   2.784   0.245   3.064  0.3673  0.1040  0.0989
 2248SOL    HW118203   2.827   0.170   3.023  2.4620  2.8496 -2.7356
 2248SOL    HW218204   2.693   0.235   3.034  0.0900  1.0645  0.6110
 2249SOL     OW18205   2.231   4.452  11.056 -0.5804  0.0286  0.1914
 2249SOL    HW118206   2.248   4.423  10.966  0.5726  1.7251 -0.1537
 2249SOL    HW218207   2.254   4.545  11.058 -2.3118  0.4499  0.1082
 2250SOL     OW18208   1.329   0.895   5.745 -0.1818  0.2876  0.1346
 2250SOL    HW118209   1.409   0.844   5.752  0.2826  0.5863 -2.7562
 2250SOL    HW218210   1.349   0.931   5.659 -0.2916 -1.2811 -0.5455
 2251SOL     OW18211   3.034   2.640   3.145  0.7800 -0.8526 -0.0136
 2251SOL    HW118212   2.964   2.579   3.167  0.9773 -0.1556  2.5544
 2251SOL    HW218213   3.077   2.594   3.073  1.4936  0.9747 -0.7614
 2252SOL     OW18214   4.441   0.205   7.696  0.2485  0.5778 -0.2977
 2252SOL    HW118215   4.416   0.292   7.724  5.7018  1.6616  1.1960
 2252SOL    HW218216   4.436   0.163   7.782 -0.2585 -1.3014 -1.2369
 2253SOL     OW18217   1.083   1.368   3.030  0.2776 -0.0889 -0.1210
 2253SOL    HW118218   1.139   1.307   2.982  1.5053  1.0595 -0.1601
 2253SOL    HW218219   1.148   1.418   3.079 -0.0593  0.6782 -0.4623
 2254SOL     OW18220   1.168   2.691   0.806  0.4407  0.0659 -0.0065
 2254SOL    HW118221   1.152   2.600   0.830 -0.6138 -0.4023 -2.5278
 2254SOL    HW218222   1.262   2.684   0.789  0.3665 -0.8445 -0.0056
 2255SOL     OW18223   1.083   3.124   5.294 -0.1916  0.1071 -0.1997
 2255SOL    HW118224   1.136   3.188   5.342 -0.1295 -0.9155  1.0844
 2255SOL    HW218225   1.146   3.053   5.306 -0.7759  0.1351  2.8847
 2256SOL     OW18226   4.121   2.243   5.801 -0.5540 -0.0063  0.1069
 2256SOL    HW118227   4.135   2.337   5.786 -0.1456 -0.2512 -1.0675
 2256SOL    HW218228   4.207   2.201   5.802 -0.3627  0.4223  2.5507
 2257SOL     OW18229   2.663   4.352   6.519  0.4050  0.2603 -0.1508
 2257SOL    HW118230   2.730   4.326   6.456  1.3062  1.0654  0.4717
 2257SOL    HW218231   2.713   4.417   6.569  1.4743 -1.8322  1.5356
 2258SOL     OW18232   0.824   2.884   8.455  0.4027  0.0351 -0.1913
 2258SOL    HW118233   0.910   2.916   8.427  0.3819 -0.6826 -1.0875
 2258SOL    HW218234   0.830   2.797   8.416  0.7271 -1.1060  2.4227
 2259SOL     OW18235   1.146   2.191   7.183 -0.2376  0.2695  0.6441
 2259SOL    HW118236   1.145   2.113   7.128 -2.2603  0.2524  0.6995
 2259SOL    HW218237   1.236   2.183   7.216 -0.7431  1.9347  2.4915
 2260SOL     OW18238   3.980   2.334  14.640 -0.1555  0.0829  0.3436
 2260SOL    HW118239   4.074   2.353  14.641 -0.0143 -0.6611  1.4785
 2260SOL    HW218240   3.965   2.343  14.546  1.5283  0.2969  0.1016
 2261SOL     OW18241   3.951   1.862  17.051  0.3380  0.5033  0.0118
 2261SOL    HW118242   4.032   1.821  17.020 -0.2430  0.2555 -1.1887
 2261SOL    HW218243   3.972   1.867  17.144  1.6249 -0.5620 -0.2184
 2262SOL     OW18244   1.409   2.350   9.225  0.0549  0.3716  0.4307
 2262SOL    HW118245   1.490   2.361   9.275  2.2201 -0.9422 -2.7921
 2262SOL    HW218246   1.412   2.425   9.165 -0.5270  0.5516  0.6253
 2263SOL     OW18247   3.730   0.274  14.795 -0.2257  0.6053  0.1116
 2263SOL    HW118248   3.767   0.192  14.826  0.1688  1.0036  0.6862
 2263SOL    HW218249   3.749   0.330  14.870  2.1706 -1.1498  0.7876
 2264SOL     OW18250   3.054   2.148   2.887 -0.1938 -0.3619  0.0447
 2264SOL    HW118251   2.981   2.205   2.909  2.8004  3.0474  1.2328
 2264SOL    HW218252   3.047   2.088   2.961  0.5506 -0.0809  0.3500
 2265SOL     OW18253   0.294   0.244  14.907 -0.3735 -0.0228 -0.0185
 2265SOL    HW118254   0.241   0.320  14.883 -2.2995 -1.3009  0.1185
 2265SOL    HW218255   0.319   0.264  14.997 -0.7622 -1.6215  0.4420
 2266SOL     OW18256   3.967   4.262  16.762 -0.0148  0.4435 -0.0086
 2266SOL    HW118257   3.907   4.324  16.804  1.3531  1.8305 -0.0853
 2266SOL    HW218258   3.993   4.314  16.685  0.1702  1.0893  0.4862
 2267SOL     OW18259   2.103   2.103   4.365 -0.1554 -0.5943  0.0093
 2267SOL    HW118260   2.159   2.026   4.359 -0.5968 -0.7916 -1.5503
 2267SOL    HW218261   2.025   2.082   4.416  0.1194 -1.1078  0.2197
 2268SOL     OW18262   3.165   3.496  12.566  0.3556  0.5073 -0.3715
 2268SOL    HW118263   3.133   3.586  12.556 -2.0221 -0.2458  0.3155
 2268SOL    HW218264   3.097   3.457  12.621  1.2768  0.3726  0.6505
 2269SOL     OW18265   3.449   4.368   0.995 -0.0070 -0.1835 -0.6601
 2269SOL    HW118266   3.422   4.459   1.003 -0.8209 -0.5520  0.9894
 2269SOL    HW218267   3.369   4.315   1.002  1.6381 -2.5969  0.1146
 2270SOL     OW18268   0.064   4.681  15.230  0.6585  0.5021  0.4540
 2270SOL    HW118269   0.134   4.702  15.168 -0.2957 -2.4889 -1.5985
 2270SOL    HW218270   0.073   0.040  15.278 -0.3224  1.1582 -0.4756
 2271SOL     OW18271   1.938   3.422   8.145  0.8931  0.4404 -0.1272
 2271SOL    HW118272   1.965   3.512   8.165 -1.1211  0.9585  0.1941
 2271SOL    HW218273   1.980   3.360   8.205 -1.3915 -0.3051  0.7057
 2272SOL     OW18274   1.059   0.920   6.731 -0.0172  0.0787  0.2841
 2272SOL    HW118275   1.101   0.864   6.796  0.6074  0.0728 -0.1216
 2272SOL    HW218276   1.114   0.894   6.658 -0.9991  0.5117 -0.6079
 2273SOL     OW18277   0.919   1.840   4.427  0.1609 -0.4513 -0.0750
 2273SOL    HW118278   1.008   1.873   4.413  0.8336 -1.5913  1.4993
 2273SOL    HW218279   0.882   1.896   4.358 -0.8902 -0.3561  0.5744
 2274SOL     OW18280   2.960   2.736  14.422 -0.4739  0.4186 -0.0162
 2274SOL    HW118281   2.910   2.787  14.357  1.2273  0.4662 -1.2795
 2274SOL    HW218282   2.993   2.660  14.374 -1.7197  0.3985 -0.8492
 2275SOL     OW18283   2.865   4.557  14.239 -0.3727  0.5209  0.8288
 2275SOL    HW118284   2.953   4.595  14.248  0.6818 -1.6351 -0.4656
 2275SOL    HW218285   2.824   4.581  14.322 -0.8847  0.7697  0.5000
 2276SOL     OW18286   0.152   4.041   4.879  0.3545  0.1698 -0.3620
 2276SOL    HW118287   0.174   3.952   4.855  0.3721  0.1413 -0.2426
 2276SOL    HW218288   0.134   4.026   4.972  1.8807  0.6576  0.0101
 2277SOL     OW18289   2.244   2.718   0.770 -0.0932  0.4956  0.0804
 2277SOL    HW118290   2.230   2.694   0.678  0.1440  1.1683 -0.1361
 2277SOL    HW218291   2.241   2.814   0.767 -0.0427  0.5393  1.7339
 2278SOL     OW18292   3.882   3.722   8.036  0.0626  0.4861  0.1243
 2278SOL    HW118293   3.827   3.711   7.959  0.4174 -0.1978 -0.0361
 2278SOL    HW218294   3.834   3.782   8.092  0.2519  1.9503 -1.3103
 2279SOL     OW18295   4.381   4.074   4.301 -0.1563 -0.3036  0.3471
 2279SOL    HW118296   4.324   4.024   4.359  0.5914 -0.7979  0.6512
 2279SOL    HW218297   4.407   4.013   4.232  1.3910  2.0324 -1.1210
 2280SOL     OW18298   3.442   2.583  17.414 -0.4758 -0.5600  0.0229
 2280SOL    HW118299   3.350   2.575  17.390 -0.5800  0.1286  0.1923
 2280SOL    HW218300   3.450   2.679  17.419  2.0403 -0.8205  1.2021
 2281SOL     OW18301   3.738   0.937   7.999  0.5921  0.0515 -0.0622
 2281SOL    HW118302   3.820   0.959   7.955  0.9463 -3.2634 -1.0418
 2281SOL    HW218303   3.752   0.986   8.080 -1.6261  0.6441 -0.0366
 2282SOL     OW18304   1.859   0.336   4.541  0.7179  0.0692 -0.7722
 2282SOL    HW118305   1.814   0.308   4.462 -4.3261 -2.6077  3.0649
 2282SOL    HW218306   1.847   0.431   4.536 -0.3295 -0.1334 -2.0251
 2283SOL     OW18307   1.478   4.604   0.732 -0.1517 -0.0407  0.1875
 2283SOL    HW118308   1.485   4.529   0.673 -0.8370 -0.5751  0.7775
 2283SOL    HW218309   1.386   4.631   0.724  0.5582  2.5847  0.6851
 2284SOL     OW18310   4.643   4.246  10.907  0.2457 -0.4995 -0.0367
 2284SOL    HW118311   4.623   4.152  10.905  0.3178 -0.5152  0.0032
 2284SOL    HW218312   4.720   4.238  10.963 -0.3954 -1.5533  0.6957
 2285SOL     OW18313   0.762   4.405  10.448  0.4310  0.0701  0.6065
 2285SOL    HW118314   0.675   4.441  10.464 -1.0718 -2.1227 -2.6331
 2285SOL    HW218315   0.746   4.321  10.405 -1.7895  0.5406  0.5194
 2286SOL     OW18316   1.321   2.324   6.627 -0.1145 -0.0416 -0.4097
 2286SOL    HW118317   1.414   2.337   6.640  0.2163 -0.8839 -1.9063
 2286SOL    HW218318   1.309   2.284   6.713 -2.0718 -0.3336 -0.8104
 2287SOL     OW18319   3.479   1.327   2.450  0.1841 -0.0909 -0.0224
 2287SOL    HW118320   3.442   1.369   2.373  0.3921 -2.1912 -1.2702
 2287SOL    HW218321   3.563   1.371   2.462 -1.1252  1.7233  2.4599
 2288SOL     OW18322   3.658   4.370   9.134 -0.0390 -0.3573 -0.2225
 2288SOL    HW118323   3.647   4.300   9.199  1.3198 -0.7839 -0.4538
 2288SOL    HW218324   3.570   4.408   9.130 -0.8166 -2.4145 -1.9638
 2289SOL     OW18325   4.437   0.422  17.150 -0.2305 -0.4203 -0.0221
 2289SOL    HW118326   4.504   0.371  17.195 -0.2125  0.5538  1.0482
 2289SOL    HW218327   4.370   0.437  17.216 -0.1529  3.7099 -0.8681
 2290SOL     OW18328   1.785   1.914   7.844  0.1982 -0.2689  0.1547
 2290SOL    HW118329   1.793   1.998   7.799 -2.2155 -2.3052 -4.0353
 2290SOL    HW218330   1.766   1.857   7.770  0.0858  0.6515 -0.5267
 2291SOL     OW18331   0.967   4.037   0.660 -0.1223 -0.1793  0.8524
 2291SOL    HW118332   0.991   4.014   0.750  2.3037 -0.2568  0.1951
 2291SOL    HW218333   0.930   3.951   0.641  0.1496 -0.3406  1.0441
 2292SOL     OW18334   3.082   4.699   3.320 -0.1026 -0.3463  0.4383
 2292SOL    HW118335   3.040   4.621   3.356 -1.1267  0.4183  0.8865
 2292SOL    HW218336   3.074   4.677   3.227  1.5060  1.5435 -0.1314
 2293SOL     OW18337   3.313   1.844   2.420  0.1482 -0.0383 -0.7298
 2293SOL    HW118338   3.372   1.834   2.345  0.2084  0.1590 -0.7066
 2293SOL    HW218339   3.242   1.887   2.374 -0.3325  0.2223  0.2505
 2294SOL     OW18340   0.319   2.835   3.693 -0.7686  0.7321  0.1377
 2294SOL    HW118341   0.238   2.792   3.666  0.0415 -0.5385 -0.2945
 2294SOL    HW218342   0.360   2.873   3.615  0.5339  1.0930  0.9991
 2295SOL     OW18343   1.160   0.853   6.181  0.4947  0.3436 -0.2479
 2295SOL    HW118344   1.187   0.886   6.096  2.4612 -0.0954  0.2101
 2295SOL    HW218345   1.083   0.800   6.158  0.3786  0.1336  0.6265
 2296SOL     OW18346   0.499   1.166   4.047 -0.7350  0.5348 -0.2728
 2296SOL    HW118347   0.497   1.237   4.111  1.9063  0.5577 -0.2084
 2296SOL    HW218348   0.408   1.170   4.018  0.0622  0.2211 -2.8458
 2297SOL     OW18349   0.513   0.964   2.316 -0.0554 -0.0144  0.1170
 2297SOL    HW118350   0.516   0.871   2.296  1.6714  0.1710 -0.5224
 2297SOL    HW218351   0.428   0.989   2.278  0.4152  1.2676 -0.1080
 2298SOL     OW18352   0.563   0.675   6.384  0.4884  0.3976 -0.3612
 2298SOL    HW118353   0.630   0.622   6.341  0.8718 -0.3265  1.1078
 2298SOL    HW218354   0.602   0.692   6.470  0.7502 -2.1538  0.0369
 2299SOL     OW18355   4.220   3.913   4.476 -0.1065  0.2637 -0.5994
 2299SOL    HW118356   4.205   3.823   4.448 -1.2627 -0.1592  1.3456
 2299SOL    HW218357   4.211   3.909   4.572  1.9758  1.6509 -0.3498
 2300SOL     OW18358   3.180   2.503   2.306 -0.0407  0.0579  0.7114
 2300SOL    HW118359   3.103   2.501   2.250  1.2752 -1.1503 -1.0730
 2300SOL    HW218360   3.191   2.410   2.326  0.2355 -0.2323 -0.7998
 2301SOL     OW18361   2.091   3.730   5.940  0.0114  0.4504  0.2900
 2301SOL    HW118362   2.127   3.663   5.882  2.1905 -0.5544  2.7871
 2301SOL    HW218363   2.054   3.670   6.005 -1.7227 -1.0638 -2.0859
 2302SOL     OW18364   3.921   0.399  11.006 -0.2384  0.3766  0.3361
 2302SOL    HW118365   3.980   0.436  11.071  1.3129 -1.6194  0.0754
 2302SOL    HW218366   3.943   0.306  11.016 -0.0345  0.4052  0.1379
 2303SOL     OW18367   1.335   4.475  15.225  0.7749  0.0312  0.1573
 2303SOL    HW118368   1.375   4.549  15.180  1.6753 -1.7496 -1.9414
 2303SOL    HW218369   1.253   4.517  15.253  0.6500 -0.3530  0.3578
 2304SOL     OW18370   4.626   1.164   2.691  0.2118  0.4130 -0.2781
 2304SOL    HW118371   4.715   1.134   2.710  0.6280  0.7882 -1.6254
 2304SOL    HW218372   4.601   1.211   2.770 -0.9473  1.4995 -1.2793
 2305SOL     OW18373   0.988   1.057  13.182  0.5563 -0.0593 -0.0697
 2305SOL    HW118374   0.907   1.007  13.176  0.3935  0.1349  0.5148
 2305SOL    HW218375   1.032   1.022  13.259  0.7093 -0.4811 -0.3455
 2306SOL     OW18376   1.032   3.366   6.755 -0.0696 -0.2193  0.1305
 2306SOL    HW118377   1.036   3.271   6.767  1.4443 -0.0931  0.5552
 2306SOL    HW218378   1.122   3.390   6.734  0.1820  2.0924  3.8081
 2307SOL     OW18379   1.691   1.550   5.211  0.1574  0.3308  0.2141
 2307SOL    HW118380   1.777   1.571   5.174  0.4112  0.6202  0.9521
 2307SOL    HW218381   1.660   1.491   5.143  1.8796 -1.7185  1.1949
 2308SOL     OW18382   4.486   2.665   0.795 -0.4286  0.5000 -0.5206
 2308SOL    HW118383   4.422   2.623   0.738  0.5821 -0.4839 -0.9269
 2308SOL    HW218384   4.569   2.674   0.747  0.0422  0.7324  0.3476
 2309SOL     OW18385   4.313   1.164  12.184  0.2531  0.0304  0.4959
 2309SOL    HW118386   4.320   1.202  12.096 -0.0866  2.2433  1.4300
 2309SOL    HW218387   4.399   1.182  12.221  0.3134  0.0730  0.3383
 2310SOL     OW18388   2.438   0.447   9.182  0.2576 -0.0883 -0.4525
 2310SOL    HW118389   2.503   0.486   9.240  0.0016 -0.8770  0.3608
 2310SOL    HW218390   2.386   0.527   9.171 -0.2024  0.1113  3.1889
 2311SOL     OW18391   3.070   2.942   8.078 -0.4987  0.3574 -0.0680
 2311SOL    HW118392   3.128   2.998   8.026 -2.5520  2.3808 -0.1805
 2311SOL    HW218393   3.129   2.868   8.091  1.1135  1.3239 -1.8564
 2312SOL     OW18394   1.300   3.914   8.963  0.1286  0.4329 -0.0188
 2312SOL    HW118395   1.321   3.834   9.011 -0.7699  0.7050  0.8221
 2312SOL    HW218396   1.209   3.922   8.991  0.0072  0.3113 -0.3813
 2313SOL     OW18397   4.186   2.823  12.964 -0.0589 -0.1515 -0.1849
 2313SOL    HW118398   4.247   2.849  13.033 -0.3299 -2.2077  0.8101
 2313SOL    HW218399   4.148   2.906  12.934  0.6246 -0.2367 -1.3135
 2314SOL     OW18400   4.310   0.491   4.651  0.2075 -0.0949 -0.5963
 2314SOL    HW118401   4.247   0.438   4.700 -0.8567  0.4710 -1.3540
 2314SOL    HW218402   4.281   0.472   4.562 -1.1824  0.1406 -0.2078
 2315SOL     OW18403   0.230   0.006  15.029  0.7652  0.2395  0.5377
 2315SOL    HW118404   0.264   4.673  14.960  2.4710 -0.1854  1.7296
 2315SOL    HW218405   0.248   0.094  14.997  1.6257 -0.0204  0.3087
 2316SOL     OW18406   0.675   4.137  16.592  0.5384 -0.2305  0.0254
 2316SOL    HW118407   0.702   4.045  16.596  3.1793  0.6209  1.4869
 2316SOL    HW218408   0.761   4.174  16.573  0.5023 -0.8795 -1.4210
 2317SOL     OW18409   1.404   0.447   0.067  0.2620 -0.8232 -0.4330
 2317SOL    HW118410   1.381   0.400  17.683 -2.2794 -2.1736  1.0801
 2317SOL    HW218411   1.475   0.392   0.099  0.9451  0.4604  0.2599
 2318SOL     OW18412   1.498   0.796   4.915 -0.1849 -0.4901 -0.5892
 2318SOL    HW118413   1.568   0.824   4.856  0.1967 -1.9584 -0.8169
 2318SOL    HW218414   1.463   0.720   4.869 -4.2273  0.8787  0.2733
 2319SOL     OW18415   1.707   0.379   6.800 -0.5725  0.0562  0.0039
 2319SOL    HW118416   1.687   0.461   6.847  2.4671 -1.1271  3.3711
 2319SOL    HW218417   1.717   0.318   6.873 -1.1420 -1.5440 -1.2544
 2320SOL     OW18418   1.930   1.896   7.544 -0.5382 -0.0333  0.0809
 2320SOL    HW118419   2.009   1.847   7.520 -1.4295 -0.7283 -1.4678
 2320SOL    HW218420   1.967   1.984   7.538  0.0898 -0.4091 -1.7579
 2321SOL     OW18421   0.871   0.649   8.765  0.1345 -0.0944  0.1455
 2321SOL    HW118422   0.836   0.560   8.773  1.9469 -0.8629 -0.4473
 2321SOL    HW218423   0.961   0.617   8.753  0.8873  1.5331  1.4902
 2322SOL     OW18424   4.446   0.286   5.830  0.4794  0.1232 -0.6666
 2322SOL    HW118425   4.435   0.381   5.832 -0.3506  0.0211 -0.3705
 2322SOL    HW218426   4.355   0.271   5.857  0.3766 -0.0406 -1.1062
 2323SOL     OW18427   2.526   0.926   4.649  0.1434  0.5172 -0.2484
 2323SOL    HW118428   2.462   0.914   4.718 -2.2937  0.5157 -2.5125
 2323SOL    HW218429   2.533   1.022   4.644 -0.4443  0.4064 -3.5442
 2324SOL     OW18430   1.830   4.265   8.322  0.2717 -0.2735  0.1870
 2324SOL    HW118431   1.800   4.338   8.376 -0.3995  0.5457 -1.2672
 2324SOL    HW218432   1.760   4.200   8.331 -1.8768  2.1300  0.8290
 2325SOL     OW18433   1.000   0.653   5.121  0.6414 -0.0639 -0.2731
 2325SOL    HW118434   1.082   0.605   5.128  0.7832  0.3546  0.9336
 2325SOL    HW218435   1.026   0.714   5.051  0.2201 -1.1102 -1.3350
 2326SOL     OW18436   3.405   3.744  13.178 -0.1888 -0.1295  0.2920
 2326SOL    HW118437   3.434   3.657  13.151  2.1954  0.3926  1.1107
 2326SOL    HW218438   3.311   3.729  13.181  0.0141 -1.6002 -0.7084
 2327SOL     OW18439   0.960   2.805   9.634 -0.3478 -0.1244  0.2093
 2327SOL    HW118440   0.893   2.871   9.617 -1.4121 -0.8624  1.4857
 2327SOL    HW218441   0.951   2.792   9.728  0.4710  2.8225  0.6948
 2328SOL     OW18442   1.960   1.500  15.115 -0.1872  0.4450  0.7901
 2328SOL    HW118443   2.030   1.493  15.050 -1.7783  0.8643 -0.9510
 2328SOL    HW218444   1.887   1.536  15.065 -0.3337  2.1047  2.2029
 2329SOL     OW18445   3.205   2.427   6.955 -0.1079 -0.4697  0.8479
 2329SOL    HW118446   3.244   2.433   7.042 -0.7470 -1.8345  1.2231
 2329SOL    HW218447   3.170   2.338   6.967 -1.4424  0.3183  2.7350
 2330SOL     OW18448   1.018   3.432   7.252 -0.6015 -0.1494  0.0544
 2330SOL    HW118449   1.041   3.357   7.199  0.2949 -0.3002  0.6618
 2330SOL    HW218450   0.927   3.411   7.275 -0.5363 -0.7930 -0.3002
 2331SOL     OW18451   0.919   4.441  12.289  0.3509  0.6211  0.6166
 2331SOL    HW118452   1.001   4.393  12.272  0.8114  1.8432 -0.5925
 2331SOL    HW218453   0.903   4.438  12.383 -0.8841  2.6928  0.4655
 2332SOL     OW18454   2.406   4.394   3.945 -0.6097  0.7378 -0.5050
 2332SOL    HW118455   2.353   4.379   4.024  1.4081  1.3712  0.9780
 2332SOL    HW218456   2.409   4.489   3.948  0.0510  0.6787  1.0167
 2333SOL     OW18457   4.473   0.329  10.150  0.3298  0.4833 -0.3099
 2333SOL    HW118458   4.501   0.408  10.106 -1.4564  1.3162  0.0300
 2333SOL    HW218459   4.551   0.273  10.153  0.3447  0.5909  1.1217
 2334SOL     OW18460   2.028   3.000  13.325 -0.8465 -0.2241 -0.5479
 2334SOL    HW118461   2.007   2.926  13.381  1.4885  0.4353  1.2081
 2334SOL    HW218462   2.109   3.028  13.369 -1.0260  2.0410 -1.6680
 2335SOL     OW18463   1.676   0.649   2.485 -0.1139 -0.3186 -0.0169
 2335SOL    HW118464   1.607   0.661   2.420 -0.2997  1.4527  0.5124
 2335SOL    HW218465   1.663   0.567   2.533 -2.5602  0.8152  1.2522
 2336SOL     OW18466   2.455   4.716  16.815 -0.4111  0.3907 -0.3693
 2336SOL    HW118467   2.465   0.060  16.882  0.7210  0.3688 -0.5195
 2336SOL    HW218468   2.393   0.033  16.754 -0.0441  2.8590  0.9115
 2337SOL     OW18469   0.736   4.033  14.475 -0.6412  0.4807 -0.1886
 2337SOL    HW118470   0.653   4.034  14.426  1.1167  1.4337 -3.1361
 2337SOL    HW218471   0.804   4.071  14.420 -1.6981  0.7700 -1.3181
 2338SOL     OW18472   2.207   3.220  17.612  0.5391 -0.1112  0.0042
 2338SOL    HW118473   2.155   3.168  17.673 -1.2404  1.7568  0.1044
 2338SOL    HW218474   2.294   3.201  17.646  0.8908  2.2751  0.4716
 2339SOL     OW18475   0.383   1.909   5.783  0.2611  0.2798  0.2365
 2339SOL    HW118476   0.438   1.983   5.759  0.1455  0.2556 -0.0974
 2339SOL    HW218477   0.449   1.854   5.824 -0.3577  0.9295  2.1486
 2340SOL     OW18478   2.109   1.780   6.764  0.1286 -0.4675 -0.7254
 2340SOL    HW118479   2.026   1.825   6.778  0.9598  0.6850  0.5640
 2340SOL    HW218480   2.084   1.693   6.733  0.2025 -0.0958 -1.8252
 2341SOL     OW18481   1.512   2.927   7.732  0.6777  0.2802  0.0212
 2341SOL    HW118482   1.470   2.842   7.737 -1.9124  1.5104 -0.8308
 2341SOL    HW218483   1.464   2.972   7.662 -0.1066 -0.3612  0.1529
 2342SOL     OW18484   3.927   0.638   7.918  0.9781  0.3511 -0.0798
 2342SOL    HW118485   3.961   0.698   7.983  0.0338  1.0384 -0.2161
 2342SOL    HW218486   4.005   0.589   7.892 -0.0444 -0.3992 -1.7445
 2343SOL     OW18487   1.558   1.337   2.402 -0.1457 -0.4312 -0.5984
 2343SOL    HW118488   1.569   1.291   2.319 -3.2588 -1.6441 -0.3238
 2343SOL    HW218489   1.505   1.278   2.457 -0.5942  0.5475  0.0085
 2344SOL     OW18490   1.815   1.254   6.297 -0.1968  0.8690  0.5218
 2344SOL    HW118491   1.720   1.248   6.287 -0.0781 -1.5651  0.9035
 2344SOL    HW218492   1.840   1.267   6.205 -3.4040  2.8765 -0.0656
 2345SOL     OW18493   0.017   2.675   0.699  0.0164 -0.1301 -0.2757
 2345SOL    HW118494   0.091   2.725   0.664  1.5113 -0.5347  2.3464
 2345SOL    HW218495   0.047   2.585   0.692  3.3154  1.0050 -0.7294
 2346SOL     OW18496   1.651   4.013   8.042 -0.2655  0.5384 -0.2405
 2346SOL    HW118497   1.727   4.030   7.986  0.4895 -0.4237  0.4862
 2346SOL    HW218498   1.681   3.937   8.092  0.1805  0.9461  0.1136
 2347SOL     OW18499   3.625   0.381   0.561  0.2409 -0.6940 -0.0891
 2347SOL    HW118500   3.600   0.290   0.576 -0.3988 -0.3783  0.8126
 2347SOL    HW218501   3.538   0.414   0.582  0.5992  0.5012 -0.4809
 2348SOL     OW18502   3.708   1.092   6.083 -0.0931  0.2698 -0.2643
 2348SOL    HW118503   3.712   1.045   6.167  0.9391  1.4897  0.3681
 2348SOL    HW218504   3.798   1.115   6.060  0.6861  0.2453  2.7463
 2349SOL     OW18505   0.647   4.704   1.168 -0.7429  0.3790  0.7755
 2349SOL    HW118506   0.715   4.637   1.176 -0.7146  0.2540 -0.5185
 2349SOL    HW218507   0.570   4.661   1.131 -0.7703  2.0408 -1.0709
 2350SOL     OW18508   1.717   3.514   3.181  0.2436  0.1341 -0.2236
 2350SOL    HW118509   1.801   3.468   3.177 -0.1532 -0.7774  1.7415
 2350SOL    HW218510   1.710   3.541   3.273 -1.8811  1.3264 -0.7504
 2351SOL     OW18511   4.533   2.479   0.201 -0.3588  0.9104  0.8635
 2351SOL    HW118512   4.509   2.570   0.185 -0.4086  0.8710  0.7129
 2351SOL    HW218513   4.568   2.460   0.114  1.0686 -0.6574  1.7781
 2352SOL     OW18514   2.753   1.314   0.756 -0.4733 -0.3872 -0.0149
 2352SOL    HW118515   2.672   1.348   0.793  0.1847  1.6159 -0.4056
 2352SOL    HW218516   2.823   1.376   0.777 -2.6990  1.4393  1.9716
 2353SOL     OW18517   2.192   3.786  11.526 -0.0925 -0.3251 -0.1286
 2353SOL    HW118518   2.100   3.803  11.548 -0.2246  0.0160 -0.9343
 2353SOL    HW218519   2.206   3.829  11.441 -1.0561  0.6772  0.2190
 2354SOL     OW18520   0.090   2.258   2.913  0.0512  0.1323 -0.2441
 2354SOL    HW118521   4.722   2.276   2.891  0.3873  2.0501 -0.0801
 2354SOL    HW218522   0.118   2.254   2.822 -1.1495  0.6304 -0.6316
 2355SOL     OW18523   0.453   1.211   6.891 -0.4959  0.1786  0.2712
 2355SOL    HW118524   0.394   1.166   6.952 -1.7247 -1.5331 -2.1931
 2355SOL    HW218525   0.397   1.265   6.836 -0.0509 -0.5727 -0.9263
 2356SOL     OW18526   1.960   0.181   3.563  0.0779  0.3468  0.0832
 2356SOL    HW118527   2.032   0.244   3.556 -0.4159  0.4877 -3.7442
 2356SOL    HW218528   1.953   0.160   3.470 -0.0332 -0.0395  0.1754
 2357SOL     OW18529   3.206   1.075  15.117  0.0739 -0.2772 -0.0208
 2357SOL    HW118530   3.221   1.052  15.208 -0.4342 -3.0905 -0.6370
 2357SOL    HW218531   3.264   1.006  15.084  0.2749 -0.3958  0.5815
 2358SOL     OW18532   1.666   4.148   4.775 -0.4261  0.5108 -0.4272
 2358SOL    HW118533   1.639   4.144   4.866 -0.2499  1.5125 -0.3320
 2358SOL    HW218534   1.761   4.159   4.784 -0.6248  1.4642  0.4588
 2359SOL     OW18535   1.949   0.578   2.584 -0.0270 -0.1851 -0.5691
 2359SOL    HW118536   1.864   0.590   2.541 -0.7755 -0.8157  0.7623
 2359SOL    HW218537   1.935   0.572   2.678 -0.5749 -1.1808 -0.7192
 2360SOL     OW18538   0.281   1.488  13.032  0.1858  0.0172 -0.0434
 2360SOL    HW118539   0.298   1.486  13.126  0.4891 -1.4497 -0.1319
 2360SOL    HW218540   0.224   1.565  13.027 -1.2269 -1.1837 -2.3458
 2361SOL     OW18541   3.894   1.841   3.886  0.0068  0.1985  0.0923
 2361SOL    HW118542   3.815   1.793   3.862  1.1775 -1.8455  0.2528
 2361SOL    HW218543   3.947   1.829   3.807  0.5460  1.3695  0.2782
 2362SOL     OW18544   2.178   3.077   3.864 -0.1789  0.2167 -0.0070
 2362SOL    HW118545   2.084   3.090   3.848 -0.0001  0.7932 -0.5798
 2362SOL    HW218546   2.187   2.982   3.856  0.4704  0.3594 -0.9341
 2363SOL     OW18547   4.700   1.535   2.118  0.1962 -0.5111  0.2435
 2363SOL    HW118548   4.618   1.506   2.157  1.8173 -1.8244  2.6553
 2363SOL    HW218549   0.033   1.460   2.136  0.8537  0.0367  0.4602
 2364SOL     OW18550   0.082   3.906   5.903 -0.0088 -0.2259 -0.0946
 2364SOL    HW118551   0.013   3.925   5.966 -0.5490  0.9264 -1.0373
 2364SOL    HW218552   0.144   3.858   5.958 -0.2457 -0.0808  0.2974
 2365SOL     OW18553   2.728   0.713   2.741  0.2734 -0.1837  0.1240
 2365SOL    HW118554   2.799   0.660   2.703 -0.7764  0.2364 -2.4402
 2365SOL    HW218555   2.653   0.654   2.740 -1.4449  2.0155  0.2629
 2366SOL     OW18556   4.028   3.137   7.496  0.1942 -0.3153  0.2422
 2366SOL    HW118557   4.085   3.086   7.439 -0.9706  1.0221 -2.1366
 2366SOL    HW218558   4.086   3.156   7.569  0.2475  0.1106  0.0917
 2367SOL     OW18559   2.919   1.280   7.307  0.2086 -0.0225 -0.4771
 2367SOL    HW118560   2.847   1.283   7.243 -0.1393  0.3343 -0.0725
 2367SOL    HW218561   2.998   1.256   7.258 -0.4608 -1.4807 -0.8455
 2368SOL     OW18562   3.840   0.500   3.765  0.7374  0.7000  0.5815
 2368SOL    HW118563   3.932   0.496   3.738  0.6000 -2.3847  0.6046
 2368SOL    HW218564   3.786   0.456   3.700  0.9441 -0.1480  0.9725
 2369SOL     OW18565   1.422   0.684  10.785  0.6185 -0.3981 -0.4515
 2369SOL    HW118566   1.445   0.723  10.869 -1.5904 -1.0915  0.4904
 2369SOL    HW218567   1.470   0.746  10.730  0.3992  0.9655  0.8969
 2370SOL     OW18568   1.775   1.867   3.668  0.1114  0.0131  0.1609
 2370SOL    HW118569   1.803   1.933   3.604 -0.5934  0.3232  0.1675
 2370SOL    HW218570   1.707   1.831   3.612 -0.0315 -1.0089  1.0026
 2371SOL     OW18571   0.300   2.502   4.480 -0.4513 -0.3400 -0.7195
 2371SOL    HW118572   0.259   2.416   4.468 -1.9838  0.4164 -0.9673
 2371SOL    HW218573   0.297   2.548   4.396  1.0342  0.2953 -0.4311
 2372SOL     OW18574   4.608   0.218   5.331  0.4954  0.2651 -0.1180
 2372SOL    HW118575   4.522   0.258   5.337  0.6240  0.4947  0.1824
 2372SOL    HW218576   4.667   0.288   5.359 -0.3199  1.0308 -0.3360
 2373SOL     OW18577   2.847   4.285   7.308 -0.0843  0.6319  0.0084
 2373SOL    HW118578   2.816   4.322   7.225 -1.4593 -1.0002 -0.2069
 2373SOL    HW218579   2.922   4.234   7.276  1.6754  2.0527  1.8608
 2374SOL     OW18580   2.907   4.656   0.965  0.1680  0.3784 -0.0626
 2374SOL    HW118581   2.994   4.686   0.940  0.7665 -0.2922  1.1972
 2374SOL    HW218582   2.911   4.561   0.952  2.0422  0.4853 -0.2574
 2375SOL     OW18583   2.275   4.436   3.678 -0.0869  0.1102 -0.1215
 2375SOL    HW118584   2.340   4.408   3.742 -1.9523  3.7236  3.3409
 2375SOL    HW218585   2.198   4.419   3.731 -1.0055 -3.2028 -2.5147
 2376SOL     OW18586   2.435   1.418   9.431 -0.1555  0.1025 -0.4460
 2376SOL    HW118587   2.466   1.378   9.512  2.0143  2.9880  0.1302
 2376SOL    HW218588   2.355   1.366   9.420 -1.0576  1.7479 -1.6790
 2377SOL     OW18589   0.238   1.524   6.955  0.5409 -0.0009  0.0330
 2377SOL    HW118590   0.274   1.482   6.877  2.6989 -0.3784  1.2161
 2377SOL    HW218591   0.174   1.584   6.919  1.8983 -0.6261 -3.3966
 2378SOL     OW18592   4.235   4.119  14.601 -0.5177 -0.2569 -0.2063
 2378SOL    HW118593   4.174   4.159  14.538 -0.6918 -2.1290 -1.2146
 2378SOL    HW218594   4.321   4.149  14.572 -0.3255 -1.6709 -1.0431
 2379SOL     OW18595   1.905   0.891   8.540 -0.7165 -0.1218  0.1020
 2379SOL    HW118596   1.815   0.913   8.563 -0.1176  0.9154  1.4441
 2379SOL    HW218597   1.894   0.802   8.505 -1.6098  0.6573 -1.5932
 2380SOL     OW18598   3.473   2.824   3.710  0.1515  0.1194  0.7179
 2380SOL    HW118599   3.532   2.891   3.745  2.5233 -0.9699 -1.1783
 2380SOL    HW218600   3.406   2.882   3.675  1.5765  1.1337 -0.3670
 2381SOL     OW18601   4.616   2.046  14.704  0.0871  0.3525 -0.0395
 2381SOL    HW118602   4.681   2.046  14.634  0.1154  3.1227  0.0012
 2381SOL    HW218603   4.619   1.954  14.730  1.1911  0.0231 -1.3481
 2382SOL     OW18604   2.948   4.563   8.391  0.5647  0.8764  0.1032
 2382SOL    HW118605   2.929   4.652   8.419 -2.5773  0.2264  0.0238
 2382SOL    HW218606   3.034   4.553   8.431  0.6829 -1.9046 -0.7914
 2383SOL     OW18607   3.626   0.900  10.282 -0.4293  0.1313 -0.2444
 2383SOL    HW118608   3.619   0.838  10.209  1.1958 -2.1528  1.5585
 2383SOL    HW218609   3.685   0.970  10.254  0.4383 -0.7710 -0.6451
 2384SOL     OW18610   2.273   0.537   1.538  0.6227  0.7530 -0.1850
 2384SOL    HW118611   2.234   0.611   1.491 -0.4508  0.2948 -0.0287
 2384SOL    HW218612   2.232   0.555   1.623  0.0379 -0.5943 -0.1810
 2385SOL     OW18613   4.252   3.850   2.256 -0.1418  0.3119 -0.2355
 2385SOL    HW118614   4.311   3.776   2.272  0.1807  0.8333  1.0351
 2385SOL    HW218615   4.312   3.919   2.227 -0.8166  0.9919 -0.0145
 2386SOL     OW18616   3.842   4.624   7.411 -0.5366  0.1461 -0.8337
 2386SOL    HW118617   3.905   4.562   7.374  0.9417  1.5948 -0.7467
 2386SOL    HW218618   3.890   4.706   7.421  0.4551 -0.3466 -1.6649
 2387SOL     OW18619   2.274   1.368   5.053 -0.1676 -0.4426  0.2347
 2387SOL    HW118620   2.354   1.393   5.099 -0.5257 -1.0082  1.1734
 2387SOL    HW218621   2.307   1.317   4.979 -1.2467  1.3496 -1.4923
 2388SOL     OW18622   3.788   1.319   6.495 -0.0155  0.0073 -0.2106
 2388SOL    HW118623   3.835   1.252   6.446  0.8991  0.4243  0.0895
 2388SOL    HW218624   3.775   1.379   6.421 -0.3396 -0.0718 -0.2185
 2389SOL     OW18625   2.762   2.983   3.748  0.4596 -0.5271  0.1807
 2389SOL    HW118626   2.706   2.923   3.797 -0.7616  1.0736  0.7298
 2389SOL    HW218627   2.811   3.032   3.814  1.2129 -2.1600  0.8218
 2390SOL     OW18628   1.177   2.405  13.759  0.1857  0.0683  0.3340
 2390SOL    HW118629   1.122   2.481  13.741  1.5031  0.4876 -1.8598
 2390SOL    HW218630   1.189   2.366  13.673 -3.1970  1.4035 -0.7196
 2391SOL     OW18631   2.928   0.193  10.734  0.4046  0.1328 -0.1867
 2391SOL    HW118632   2.980   0.229  10.806  0.2545 -1.7139  0.8305
 2391SOL    HW218633   2.936   0.100  10.753 -1.8800 -0.0105  0.0961
 2392SOL     OW18634   0.980   2.774  15.990  0.2182 -0.2419  0.0332
 2392SOL    HW118635   1.048   2.709  15.975  1.5229  0.8536  1.1914
 2392SOL    HW218636   0.908   2.711  16.001  2.0112 -2.4285 -0.7480
 2393SOL     OW18637   0.235   3.129  13.041  0.1325 -0.0262 -0.4800
 2393SOL    HW118638   0.329   3.143  13.034  0.4194 -2.3871 -1.7651
 2393SOL    HW218639   0.213   3.218  13.016  0.6404  0.5543  1.1688
 2394SOL     OW18640   1.738   3.061  16.036 -0.3275 -0.5222 -0.6443
 2394SOL    HW118641   1.676   2.998  15.999  0.4984 -1.1487 -0.9661
 2394SOL    HW218642   1.807   3.040  15.974 -0.6233  1.8282 -1.7705
 2395SOL     OW18643   4.631   3.834   6.331 -0.0885 -0.0193 -0.0141
 2395SOL    HW118644   4.644   3.831   6.426 -1.8418 -1.5664  0.1790
 2395SOL    HW218645   4.622   3.744   6.302 -1.3995 -0.4350  1.6952
 2396SOL     OW18646   4.608   2.632   8.078 -0.2407 -0.0229 -0.2570
 2396SOL    HW118647   4.598   2.722   8.110 -1.7935  0.3071 -1.6617
 2396SOL    HW218648   4.676   2.636   8.011 -0.5458  0.6248 -0.5222
 2397SOL     OW18649   4.374   2.807   3.913 -0.0289 -0.4905 -0.0895
 2397SOL    HW118650   4.371   2.896   3.949 -1.2095 -0.1690 -1.0066
 2397SOL    HW218651   4.468   2.804   3.893 -0.5129 -1.2824 -2.1467
 2398SOL     OW18652   1.354   0.299   3.708 -0.2483  0.4980 -0.3612
 2398SOL    HW118653   1.279   0.241   3.723  0.0891  0.1861  0.1279
 2398SOL    HW218654   1.415   0.248   3.656  2.3496  1.3703  1.7884
 2399SOL     OW18655   4.142   3.858  14.522 -0.2367 -0.2612 -0.1328
 2399SOL    HW118656   4.183   3.936  14.559 -1.8117  1.4569 -2.0472
 2399SOL    HW218657   4.054   3.858  14.560 -0.0285  0.6209  0.3384
 2400SOL     OW18658   1.358   0.392   3.331  0.1530 -0.6079 -0.2414
 2400SOL    HW118659   1.271   0.419   3.359  0.5194 -0.5705  0.8675
 2400SOL    HW218660   1.337   0.321   3.271  3.1815 -1.9624  0.3113
 2401SOL     OW18661   2.281   2.478   2.022  0.0313  0.6546 -0.6445
 2401SOL    HW118662   2.264   2.442   1.935 -1.9815 -1.0637  0.4673
 2401SOL    HW218663   2.375   2.465   2.037 -0.0447  0.4622 -0.3331
 2402SOL     OW18664   3.876   4.058   3.070 -0.0502  0.1245 -0.0322
 2402SOL    HW118665   3.865   4.027   2.980 -2.5020 -1.2034  0.7141
 2402SOL    HW218666   3.964   4.025   3.090 -1.0611 -2.4417  0.1952
 2403SOL     OW18667   0.675   0.142   4.919 -0.1438  0.5315 -0.2874
 2403SOL    HW118668   0.734   0.215   4.934 -1.7640  1.5155  1.3257
 2403SOL    HW218669   0.694   0.084   4.993 -0.2016 -0.1577 -0.8127
 2404SOL     OW18670   4.022   4.622   6.989  0.5661 -0.5695 -0.2127
 2404SOL    HW118671   3.981   4.571   6.920 -0.5100  0.3914 -0.2924
 2404SOL    HW218672   3.953   4.679   7.024  1.1929  0.3296 -0.4493
 2405SOL     OW18673   4.715   4.478  13.700  0.0896  0.7316  0.4457
 2405SOL    HW118674   0.064   4.447  13.646 -1.5174 -1.4825 -0.4387
 2405SOL    HW218675   4.672   4.529  13.631 -0.4065  0.6290  0.6760
 2406SOL     OW18676   0.388   4.101   6.023 -0.3502 -0.6940 -0.3270
 2406SOL    HW118677   0.464   4.150   6.055 -0.8239 -0.1416 -0.0544
 2406SOL    HW218678   0.411   4.014   6.057  1.4925 -0.0823 -0.0171
 2407SOL     OW18679   2.966   0.132  10.177 -0.8652  0.0682  0.4476
 2407SOL    HW118680   3.029   0.147  10.247  0.4295 -0.7269 -0.5216
 2407SOL    HW218681   2.979   0.040  10.153 -0.8966 -0.1433  1.2679
 2408SOL     OW18682   1.487   1.900   5.367  0.4008  0.0493 -0.3272
 2408SOL    HW118683   1.566   1.874   5.320 -0.3100  0.2555 -1.6334
 2408SOL    HW218684   1.510   1.988   5.398  0.6620  0.2684 -1.1524
 2409SOL     OW18685   3.347   1.883   2.672  0.0851 -0.2661  0.1627
 2409SOL    HW118686   3.338   1.859   2.580  1.5915  1.0768 -0.3465
 2409SOL    HW218687   3.332   1.977   2.667 -2.9158 -0.6490  2.4144
 2410SOL     OW18688   2.440   1.998   7.937  0.0488 -0.2117  0.1947
 2410SOL    HW118689   2.410   2.077   7.982  0.5685  0.8590 -1.3523
 2410SOL    HW218690   2.505   1.968   8.001  0.7782 -0.4515 -0.6697
 2411SOL     OW18691   3.793   1.868  14.057  0.2237 -0.1142  0.7181
 2411SOL    HW118692   3.733   1.943  14.049  1.2834  0.6298 -0.2440
 2411SOL    HW218693   3.730   1.802  14.086 -0.8402 -0.1299 -1.6048
 2412SOL     OW18694   4.267   2.174   8.026  0.0846  0.0041 -0.1239
 2412SOL    HW118695   4.340   2.172   8.088  0.4267  0.7373 -0.5005
 2412SOL    HW218696   4.254   2.268   8.011 -2.5537  0.0274  2.3452
 2413SOL     OW18697   2.687   2.734   5.187  0.6545  0.2590  0.6783
 2413SOL    HW118698   2.662   2.824   5.209 -1.5669 -0.6573  1.9951
 2413SOL    HW218699   2.716   2.740   5.096  1.1603 -1.0966  0.7544
 2414SOL     OW18700   4.048   4.245  14.427 -0.3598 -0.5213 -0.4804
 2414SOL    HW118701   3.977   4.308  14.442  1.3714  1.1678  0.6008
 2414SOL    HW218702   4.052   4.244  14.331  0.8982 -1.6928 -0.4099
 2415SOL     OW18703   1.232   3.971  12.935 -0.3329 -0.0821 -0.4098
 2415SOL    HW118704   1.236   3.895  12.877  0.1832  0.0275 -0.5190
 2415SOL    HW218705   1.138   3.986  12.933 -0.2201  0.8112  1.4626
 2416SOL     OW18706   1.190   2.877  10.927  0.0506 -0.2314 -0.2936
 2416SOL    HW118707   1.169   2.955  10.877 -0.7152  0.8084  1.6735
 2416SOL    HW218708   1.281   2.893  10.954 -0.0036 -1.3562  0.5825
 2417SOL     OW18709   1.315   3.300   8.862  0.0725 -0.3006  0.0709
 2417SOL    HW118710   1.309   3.248   8.782  1.7819  0.5342 -0.6191
 2417SOL    HW218711   1.381   3.248   8.908  0.4475 -1.1999 -1.4788
 2418SOL     OW18712   0.426   3.110   1.730 -0.3519 -0.2201  0.4514
 2418SOL    HW118713   0.520   3.094   1.722 -0.9884 -3.6667 -0.3440
 2418SOL    HW218714   0.392   3.084   1.644 -1.0425  1.0582  0.3363
 2419SOL     OW18715   2.217   2.918  12.127  0.2000  0.4878 -0.3145
 2419SOL    HW118716   2.168   2.981  12.073  1.2542  0.3971 -1.3788
 2419SOL    HW218717   2.291   2.890  12.073  1.6222 -1.3778  2.6007
 2420SOL     OW18718   4.142   1.699   1.909 -0.1239  0.5127 -0.5196
 2420SOL    HW118719   4.106   1.676   1.995  1.7891  0.0987  0.1723
 2420SOL    HW218720   4.237   1.705   1.925 -0.3378 -1.9145  1.5433
 2421SOL     OW18721   2.375   4.125   6.527 -0.7095  0.0735  0.2355
 2421SOL    HW118722   2.362   4.041   6.483 -0.5123 -0.2817  0.8575
 2421SOL    HW218723   2.470   4.127   6.541 -0.6096 -1.1565 -0.2783
 2422SOL     OW18724   2.561   0.213   5.856 -0.4040  0.0573 -0.1441
 2422SOL    HW118725   2.531   0.124   5.841 -0.2070 -0.2248  1.1440
 2422SOL    HW218726   2.547   0.244   5.767  3.5564 -1.6850 -1.3333
 2423SOL     OW18727   1.558   1.790  17.516 -0.2727 -0.1993 -0.5014
 2423SOL    HW118728   1.603   1.801  17.600 -1.8951 -2.4981  0.6725
 2423SOL    HW218729   1.515   1.705  17.528 -2.6518  1.1942  0.9749
 2424SOL     OW18730   4.615   2.457  14.710 -0.3776 -0.5277 -0.6953
 2424SOL    HW118731   4.545   2.414  14.661 -0.9343 -1.6055  1.0191
 2424SOL    HW218732   4.645   2.512  14.639 -0.3113 -0.3647 -0.5399
 2425SOL     OW18733   0.316   3.428   6.087 -0.6438  0.0594  0.1597
 2425SOL    HW118734   0.381   3.462   6.026 -0.5870 -0.8380 -0.2883
 2425SOL    HW218735   0.264   3.365   6.037  1.4641 -1.2185 -0.3860
 2426SOL     OW18736   3.332   2.023   6.425  0.2035 -0.6098  0.1577
 2426SOL    HW118737   3.346   1.946   6.369  0.7027 -0.5425  0.1923
 2426SOL    HW218738   3.240   2.036   6.400 -0.1022  0.7624  2.0644
 2427SOL     OW18739   3.688   4.348  14.351 -0.0558  0.8420 -0.0222
 2427SOL    HW118740   3.639   4.269  14.373  1.7539 -1.4712 -4.4733
 2427SOL    HW218741   3.726   4.323  14.267 -2.1799  0.6226 -0.8954
 2428SOL     OW18742   1.574   1.762   0.812 -0.2573  0.1781 -0.0595
 2428SOL    HW118743   1.613   1.806   0.887  0.6476  0.9924 -1.0138
 2428SOL    HW218744   1.496   1.811   0.786  0.1574 -0.0705 -1.7673
 2429SOL     OW18745   1.797   0.461   8.029  0.3547  0.1035  0.1845
 2429SOL    HW118746   1.845   0.544   8.024 -1.7802  1.4329  1.7459
 2429SOL    HW218747   1.873   0.409   8.003  0.3495 -0.3298  1.0215
 2430SOL     OW18748   0.924   4.488  17.582  0.0758 -0.0650  0.1436
 2430SOL    HW118749   0.866   4.455  17.513  0.1726 -0.0587  0.0596
 2430SOL    HW218750   0.881   4.568  17.611 -0.0706 -0.1077  0.0470
 2431SOL     OW18751   0.531   2.284   3.672 -0.6571 -0.1443  0.7450
 2431SOL    HW118752   0.487   2.241   3.598 -0.4399  3.5806 -1.5321
 2431SOL    HW218753   0.494   2.252   3.754  0.3409 -0.0811  1.2216
 2432SOL     OW18754   3.480   1.907   3.649 -0.5288  0.3817  0.3929
 2432SOL    HW118755   3.412   1.944   3.706 -1.3435 -2.8323  1.5015
 2432SOL    HW218756   3.525   1.863   3.721 -0.4314  0.3292  0.2999
 2433SOL     OW18757   4.106   1.307   2.001 -0.1345 -0.1417 -0.1350
 2433SOL    HW118758   4.023   1.352   2.015  0.1151 -0.2132  1.6295
 2433SOL    HW218759   4.106   1.283   1.909 -0.9986 -1.5157  0.2274
 2434SOL     OW18760   1.840   1.081   8.066  0.4998 -0.4691  0.5137
 2434SOL    HW118761   1.826   1.081   8.161  1.0124  0.2117  0.5950
 2434SOL    HW218762   1.881   1.167   8.054 -0.7068 -0.0380 -0.4191
 2435SOL     OW18763   3.352   0.533  10.737  0.4113 -0.1006  0.6843
 2435SOL    HW118764   3.263   0.552  10.707  1.2974  1.1285 -1.2096
 2435SOL    HW218765   3.336   0.448  10.778 -0.6951 -0.7093 -0.9939
 2436SOL     OW18766   3.995   3.054   6.257  0.0517  0.3076 -0.1367
 2436SOL    HW118767   3.936   3.071   6.330  0.2666 -1.6335  0.5055
 2436SOL    HW218768   3.929   3.045   6.189 -0.2184  0.0675  0.1578
 2437SOL     OW18769   2.379   3.972  13.402  0.0880 -0.4793 -0.3150
 2437SOL    HW118770   2.471   3.998  13.405 -0.8275  2.6144  0.5797
 2437SOL    HW218771   2.383   3.914  13.325 -1.0766 -2.6967  1.2976
 2438SOL     OW18772   1.118   4.397  13.587 -0.1588 -0.1300 -0.1148
 2438SOL    HW118773   1.154   4.451  13.517 -0.2783 -2.5516 -2.0699
 2438SOL    HW218774   1.184   4.419  13.652  0.1572  1.1286 -0.8706
 2439SOL     OW18775   2.072   2.205   9.344 -0.1406 -0.4405 -0.9052
 2439SOL    HW118776   2.012   2.130   9.352  1.0147 -1.3026 -0.3223
 2439SOL    HW218777   2.152   2.161   9.371  1.4764  1.9271 -1.8227
 2440SOL     OW18778   3.716   0.423   7.103  0.0334  0.2508  0.1181
 2440SOL    HW118779   3.734   0.507   7.062 -0.4006  0.4752  0.3955
 2440SOL    HW218780   3.684   0.458   7.186  1.8472  0.7003  0.6242
 2441SOL     OW18781   3.279   3.380   1.287  0.2861  0.4494  0.2412
 2441SOL    HW118782   3.352   3.329   1.323 -1.5954 -4.1714 -2.3954
 2441SOL    HW218783   3.290   3.387   1.192  0.9440  0.2847  0.3062
 2442SOL     OW18784   0.649   2.975   9.170 -0.8453  0.3435 -0.3952
 2442SOL    HW118785   0.667   2.991   9.263 -1.9541 -2.8407  0.3553
 2442SOL    HW218786   0.713   3.034   9.130 -0.0038  0.6339  1.3727
 2443SOL     OW18787   1.142   2.955   2.191  0.1708 -0.2916  0.0980
 2443SOL    HW118788   1.226   2.995   2.167  0.1425 -0.5906 -0.4969
 2443SOL    HW218789   1.098   3.019   2.248 -1.8626 -1.4701 -0.1624
 2444SOL     OW18790   1.016   0.311   5.240 -0.1163 -0.0122  0.0508
 2444SOL    HW118791   1.103   0.303   5.280  0.6838  2.6213 -1.1514
 2444SOL    HW218792   0.978   0.225   5.260  0.0563 -0.0794  0.0958
 2445SOL     OW18793   4.627   4.433   4.166 -0.1849  0.3724 -0.9132
 2445SOL    HW118794   4.580   4.376   4.104  1.1039  0.2093 -1.7401
 2445SOL    HW218795   4.625   4.514   4.116 -1.1185 -0.6492 -2.5224
 2446SOL     OW18796   1.117   0.361  11.719 -0.0146  0.4092  0.0084
 2446SOL    HW118797   1.093   0.443  11.762 -3.5978 -0.2512 -0.7230
 2446SOL    HW218798   1.197   0.342  11.769 -0.2505  3.1534  1.3959
 2447SOL     OW18799   1.862   2.632   2.883  0.2928 -0.6139 -0.2056
 2447SOL    HW118800   1.796   2.566   2.863 -0.1800 -0.3493  0.4680
 2447SOL    HW218801   1.878   2.612   2.975  4.0316 -1.7013 -1.1264
 2448SOL     OW18802   3.572   4.314   3.632 -0.5579 -0.0001  0.2651
 2448SOL    HW118803   3.662   4.305   3.601 -0.2376  1.0415  0.8746
 2448SOL    HW218804   3.538   4.226   3.617  1.4965 -0.5206 -1.3171
 2449SOL     OW18805   0.758   1.989   4.635 -0.2383  0.2101 -0.8844
 2449SOL    HW118806   0.800   2.058   4.584 -0.9750  0.2009 -1.5067
 2449SOL    HW218807   0.761   2.019   4.726  0.0124  2.3295 -1.6010
 2450SOL     OW18808   1.148   1.308  10.260  0.1690  0.5116 -0.1728
 2450SOL    HW118809   1.104   1.232  10.299  1.5660  1.2183  2.8095
 2450SOL    HW218810   1.239   1.284  10.281  0.1365  0.5779  0.0419
 2451SOL     OW18811   2.556   4.356   2.110  0.4249 -0.0952  0.3267
 2451SOL    HW118812   2.583   4.269   2.081  0.3568 -0.0202  0.0311
 2451SOL    HW218813   2.581   4.346   2.201  1.0788 -0.2584  0.1293
 2452SOL     OW18814   1.379   3.718   5.534  0.2116 -0.2829  0.2772
 2452SOL    HW118815   1.297   3.688   5.573 -0.0773 -0.4519 -0.4599
 2452SOL    HW218816   1.362   3.810   5.512  1.5581  0.2153  1.2771
 2453SOL     OW18817   1.493   1.440   3.269  0.4185  0.0859  0.1154
 2453SOL    HW118818   1.568   1.427   3.211  0.3390  0.6420 -0.1148
 2453SOL    HW218819   1.513   1.365   3.326  0.0106 -0.8621 -1.0078
 2454SOL     OW18820   2.672   1.487  15.745 -0.2424 -0.3414  0.1379
 2454SOL    HW118821   2.577   1.495  15.747 -0.2351  0.0056 -0.8735
 2454SOL    HW218822   2.684   1.522  15.657  0.2265 -1.8168 -0.3770
 2455SOL     OW18823   1.549   3.609   9.226 -0.0197  1.0240  0.4752
 2455SOL    HW118824   1.638   3.614   9.259 -0.2663 -2.6126  1.6725
 2455SOL    HW218825   1.517   3.520   9.244 -2.4367  1.2181 -2.8055
 2456SOL     OW18826   3.570   4.181  12.754 -0.2163 -0.2933 -0.0855
 2456SOL    HW118827   3.613   4.226  12.827 -0.2577  0.3974 -0.4825
 2456SOL    HW218828   3.557   4.094  12.792 -0.7336 -0.4347 -0.5876
 2457SOL     OW18829   3.001   0.847   1.996  0.5133  0.1438 -0.0632
 2457SOL    HW118830   3.044   0.932   1.999  1.7351 -0.4968  1.1847
 2457SOL    HW218831   3.066   0.791   2.041  1.1834  0.3341 -0.7872
 2458SOL     OW18832   2.777   3.176   6.785 -0.2327 -0.1234  0.7184
 2458SOL    HW118833   2.739   3.168   6.697 -1.3102  2.1057  0.9585
 2458SOL    HW218834   2.783   3.271   6.794 -1.3392  0.1105 -0.8976
 2459SOL     OW18835   0.776   4.584   2.726 -0.1799 -0.1117 -0.0835
 2459SOL    HW118836   0.767   4.581   2.821  2.5464  2.6214  0.2685
 2459SOL    HW218837   0.741   4.669   2.701 -0.0444  1.1096  3.8813
 2460SOL     OW18838   1.125   1.356   8.444 -0.1197  0.1926 -0.4236
 2460SOL    HW118839   1.192   1.290   8.426  0.4864  0.0877  2.0976
 2460SOL    HW218840   1.158   1.389   8.528 -0.0623  0.1948 -0.4467
 2461SOL     OW18841   3.309   0.682   9.853 -0.1601  0.1120  0.6119
 2461SOL    HW118842   3.247   0.612   9.832 -1.2393  1.4730 -0.8064
 2461SOL    HW218843   3.259   0.760   9.827  0.1372  0.3378  0.7074
 2462SOL     OW18844   1.075   0.310   1.936 -0.6647 -0.0734  0.5837
 2462SOL    HW118845   1.061   0.215   1.939  2.0833 -0.4685  1.1851
 2462SOL    HW218846   1.160   0.307   1.891 -0.3237  2.1403  1.1074
 2463SOL     OW18847   0.657   0.834   2.631 -0.0338  0.2447  0.1257
 2463SOL    HW118848   0.711   0.832   2.552  1.3165  0.9556  1.0243
 2463SOL    HW218849   0.643   0.743   2.655 -0.7457  0.8976  2.2444
 2464SOL     OW18850   2.674   0.928  13.046  0.4056  0.0776  0.2137
 2464SOL    HW118851   2.636   0.841  13.036  0.0349  0.2370  0.2671
 2464SOL    HW218852   2.604   0.986  13.017  0.3562  0.7249  1.6247
 2465SOL     OW18853   4.027   0.999   0.577  0.2103  0.2286 -0.6160
 2465SOL    HW118854   4.090   1.071   0.581 -0.5966  0.8333  0.8763
 2465SOL    HW218855   4.022   0.954   0.661 -1.0692  3.1592  0.9039
 2466SOL     OW18856   3.945   1.865   5.868 -0.0478  0.7244  0.0275
 2466SOL    HW118857   3.967   1.930   5.801 -1.8698  0.9561 -0.3378
 2466SOL    HW218858   3.855   1.840   5.850 -0.1939  0.5918  0.9625
 2467SOL     OW18859   4.706   0.987   8.140  0.1727  0.1747  0.2749
 2467SOL    HW118860   4.694   1.078   8.168  0.1824  0.3845 -0.4209
 2467SOL    HW218861   0.076   0.972   8.149  0.3493  1.9927  1.4891
 2468SOL     OW18862   3.475   1.591   4.269  0.1731 -0.4652  0.7802
 2468SOL    HW118863   3.521   1.545   4.198 -1.6751  0.4248 -1.0034
 2468SOL    HW218864   3.522   1.561   4.346  3.6713  3.0594  0.0412
 2469SOL     OW18865   0.346   4.030   0.187 -0.0826 -0.2017 -0.5584
 2469SOL    HW118866   0.267   4.082   0.171  0.7414  1.0361 -0.5807
 2469SOL    HW218867   0.408   4.090   0.146 -2.2676  1.5861 -1.2749
 2470SOL     OW18868   0.872   0.466   4.185 -0.3659  0.4307 -0.3290
 2470SOL    HW118869   0.862   0.371   4.178  3.3898  0.0775 -0.5070
 2470SOL    HW218870   0.782   0.496   4.199  0.2675  1.7086  1.0211
 2471SOL     OW18871   4.720   3.759   2.863 -0.2781  0.0059 -0.0002
 2471SOL    HW118872   4.636   3.727   2.832  0.2965 -2.1976  0.7440
 2471SOL    HW218873   0.036   3.810   2.792  0.0448  0.8031  0.7479
 2472SOL     OW18874   3.935   4.483   0.167  0.4670  0.1710 -0.1710
 2472SOL    HW118875   4.008   4.433   0.205  0.5130  1.2659  1.1926
 2472SOL    HW218876   3.911   4.425   0.095  0.8532 -0.0590 -0.1154
 2473SOL     OW18877   1.672   4.139   4.100 -0.1817 -0.0028  0.1417
 2473SOL    HW118878   1.600   4.116   4.159  0.1647 -0.8206  0.2445
 2473SOL    HW218879   1.699   4.227   4.127  0.9624 -0.3509  0.1073
 2474SOL     OW18880   1.141   1.758  17.005 -0.3622 -0.0815  0.7484
 2474SOL    HW118881   1.135   1.715  16.919  0.1994 -0.7860  1.0641
 2474SOL    HW218882   1.141   1.683  17.064 -3.3808  0.4629  1.4449
 2475SOL     OW18883   1.904   0.294   5.936 -0.4310 -0.1781  0.0150
 2475SOL    HW118884   1.895   0.324   6.026  2.1348 -4.7926  1.8180
 2475SOL    HW218885   1.821   0.323   5.898 -0.5824 -0.6965 -0.0491
 2476SOL     OW18886   2.729   0.648   3.063  0.5585 -0.0956  0.1717
 2476SOL    HW118887   2.800   0.710   3.053  0.1864  0.1906 -0.6754
 2476SOL    HW218888   2.758   0.579   3.003  0.3833 -0.9256  1.0249
 2477SOL     OW18889   3.009   4.681   7.078  0.1229 -0.0090  0.4175
 2477SOL    HW118890   2.930   4.709   7.124  1.4487 -0.4602  2.9591
 2477SOL    HW218891   3.003   0.007   6.997 -1.4649 -0.4494  0.2770
 2478SOL     OW18892   2.807   3.417  17.004 -0.3570  0.1688  1.0509
 2478SOL    HW118893   2.739   3.476  16.972 -0.2832 -0.1239  0.3458
 2478SOL    HW218894   2.848   3.379  16.926 -2.5927  1.8549 -0.9560
 2479SOL     OW18895   3.764   3.173   8.818  0.6449  0.1784  0.2162
 2479SOL    HW118896   3.743   3.087   8.780 -0.6482  0.4105  0.3934
 2479SOL    HW218897   3.676   3.210   8.826  1.1007  1.3013  0.0253
 2480SOL     OW18898   4.392   1.477  17.145 -0.3232  0.0220  0.0320
 2480SOL    HW118899   4.298   1.468  17.160 -0.1013 -1.8014  0.3342
 2480SOL    HW218900   4.413   1.384  17.133 -0.1967 -0.3688  3.3791
 2481SOL     OW18901   1.383   0.172   4.646 -0.1875  0.5321 -0.4557
 2481SOL    HW118902   1.299   0.141   4.613 -0.5042  1.3620 -0.4201
 2481SOL    HW218903   1.355   0.199   4.733 -0.3836 -1.1447 -0.0028
 2482SOL     OW18904   2.916   2.991   5.367  0.1682  0.1714 -0.3230
 2482SOL    HW118905   2.934   2.942   5.287  2.4453  0.0110  0.2939
 2482SOL    HW218906   2.935   3.080   5.335  0.0670 -0.1973 -1.4193
 2483SOL     OW18907   2.957   3.190   2.385  0.4118  0.1847 -0.6602
 2483SOL    HW118908   2.890   3.144   2.436 -0.6243  2.1667 -0.2385
 2483SOL    HW218909   2.904   3.267   2.366  1.3984  0.6107 -1.7096
 2484SOL     OW18910   3.474   4.366   3.368  0.5539 -0.3547  0.4336
 2484SOL    HW118911   3.476   4.382   3.463 -1.4570 -2.0225  0.7738
 2484SOL    HW218912   3.532   4.293   3.346 -1.1946 -1.8498  0.6600
 2485SOL     OW18913   1.553   3.525  11.547 -0.5113  0.5181 -0.3893
 2485SOL    HW118914   1.511   3.600  11.589 -1.2867 -0.2148  0.1365
 2485SOL    HW218915   1.573   3.568  11.463  1.6736  0.9963  0.3760
 2486SOL     OW18916   3.276   0.467   7.857  0.8650 -0.4868 -0.2584
 2486SOL    HW118917   3.327   0.429   7.928 -1.3992 -0.4182  1.4059
 2486SOL    HW218918   3.346   0.509   7.806 -0.0632 -0.2188 -1.3035
 2487SOL     OW18919   4.087   0.286  13.910 -0.0109 -0.3145 -0.1382
 2487SOL    HW118920   4.122   0.232  13.981  1.1960  0.4834 -0.1132
 2487SOL    HW218921   4.123   0.374  13.918 -0.2064 -0.1588 -0.8965
 2488SOL     OW18922   0.034   0.368   8.305 -0.4074 -0.7116 -0.3158
 2488SOL    HW118923   0.120   0.402   8.330 -1.4341  0.6437  1.4094
 2488SOL    HW218924   0.020   0.294   8.364 -3.2810  1.2002  1.4098
 2489SOL     OW18925   1.655   4.709   3.762  0.0107  0.6227  0.3742
 2489SOL    HW118926   1.725   0.041   3.797  0.4384  0.8360 -0.8348
 2489SOL    HW218927   1.580   0.014   3.815 -1.7566  0.7330 -2.1972
 2490SOL     OW18928   2.995   0.890   8.477  0.1331  0.1153 -0.2325
 2490SOL    HW118929   3.084   0.924   8.478  0.1629  0.1015 -2.5414
 2490SOL    HW218930   2.992   0.813   8.420 -1.4971  0.5549 -0.7434
 2491SOL     OW18931   1.586   0.522   8.770  0.1261  0.0926 -0.7365
 2491SOL    HW118932   1.506   0.529   8.821 -0.2341  0.6370 -1.3794
 2491SOL    HW218933   1.595   0.615   8.751 -0.8238  0.2905 -0.2375
 2492SOL     OW18934   4.383   1.801   6.530  0.3346  0.1706  0.1811
 2492SOL    HW118935   4.410   1.770   6.444 -1.5506  0.2657 -0.4629
 2492SOL    HW218936   4.347   1.887   6.505  0.3121 -0.5808 -2.3671
 2493SOL     OW18937   2.789   2.521   2.496  0.3687 -0.0800 -0.6002
 2493SOL    HW118938   2.798   2.585   2.568 -1.4607  0.8035 -1.1483
 2493SOL    HW218939   2.720   2.574   2.455 -0.0876  0.1865  0.4779
 2494SOL     OW18940   2.512   3.344   1.117  0.2992 -0.6151 -0.2629
 2494SOL    HW118941   2.437   3.334   1.176 -0.0431 -1.1245 -0.7879
 2494SOL    HW218942   2.467   3.337   1.033 -0.9514  1.0605  0.2670
 2495SOL     OW18943   0.888   3.102   5.003  0.0182  0.2145 -0.0422
 2495SOL    HW118944   0.924   3.045   5.070  1.5963 -0.1279 -1.1880
 2495SOL    HW218945   0.950   3.175   5.004 -0.3873  0.5790 -1.4637
 2496SOL     OW18946   2.654   0.346  12.721  0.5503 -0.6290 -0.4565
 2496SOL    HW118947   2.560   0.349  12.702 -0.0021 -2.7830  2.0322
 2496SOL    HW218948   2.670   0.410  12.790 -0.5363  1.3737 -2.0591
 2497SOL     OW18949   3.303   1.549   6.165 -0.5850  0.3008 -0.0350
 2497SOL    HW118950   3.245   1.480   6.197  0.0762 -0.1981  0.0738
 2497SOL    HW218951   3.384   1.501   6.150 -0.2888  1.0626 -0.9297
 2498SOL     OW18952   3.086   2.661   7.283  0.2707 -0.2141 -0.1983
 2498SOL    HW118953   3.119   2.682   7.196  2.9015 -0.6500  0.7180
 2498SOL    HW218954   3.171   2.638   7.319  1.7548  2.5572 -1.9537
 2499SOL     OW18955   4.629   1.358  15.765 -0.6365  0.1492 -0.3363
 2499SOL    HW118956   4.562   1.352  15.696 -1.4785  0.1196  0.4925
 2499SOL    HW218957   4.671   1.442  15.749 -1.9733  0.9585  0.3585
 2500SOL     OW18958   0.832   0.820  13.410  0.1553 -0.1526 -0.4030
 2500SOL    HW118959   0.925   0.845  13.413 -0.0160  0.2711  1.7533
 2500SOL    HW218960   0.824   0.750  13.474 -2.7282  0.1749 -0.3965
 2501SOL     OW18961   4.551   1.045  15.578 -0.1509  0.2105  0.6140
 2501SOL    HW118962   4.637   1.079  15.603 -0.7110  0.9890  1.4847
 2501SOL    HW218963   4.554   0.964  15.629  1.0535  0.5499  1.0734
 2502SOL     OW18964   0.816   3.395  10.012 -0.3466 -0.1567  0.0644
 2502SOL    HW118965   0.749   3.327  10.023  0.6446 -0.7613  2.5601
 2502SOL    HW218966   0.810   3.400   9.917 -1.3857 -0.3016  0.1186
 2503SOL     OW18967   1.072   1.799  15.046  0.5196 -0.6825  0.0168
 2503SOL    HW118968   1.039   1.884  15.018 -1.9785 -1.6805 -0.0212
 2503SOL    HW218969   1.082   1.816  15.140 -2.7343  2.5229 -0.2252
 2504SOL     OW18970   1.101   4.601  12.556  0.3640  0.2444 -0.3023
 2504SOL    HW118971   1.061   4.604  12.644  1.4694 -1.4902  0.2682
 2504SOL    HW218972   1.123   4.509  12.543 -1.1439 -0.1429 -0.1181
 2505SOL     OW18973   1.572   1.322   8.620  0.8738  0.1985  0.5584
 2505SOL    HW118974   1.567   1.416   8.633  0.8627  0.3360 -0.3943
 2505SOL    HW218975   1.624   1.294   8.695  0.8237 -0.6758  0.2725
 2506SOL     OW18976   3.689   0.266   6.896 -0.6114  0.7447 -0.2853
 2506SOL    HW118977   3.594   0.253   6.905 -0.1725 -1.5460  1.0709
 2506SOL    HW218978   3.710   0.310   6.978 -0.5843  0.7085 -0.2729
 2507SOL     OW18979   2.424   4.143   5.086 -0.4216 -0.0667 -0.7828
 2507SOL    HW118980   2.483   4.136   5.011  1.5827  2.0486  0.5955
 2507SOL    HW218981   2.481   4.134   5.162  0.4896 -0.1206 -1.4746
 2508SOL     OW18982   4.117   3.630   9.055  0.1070  0.2036 -0.1045
 2508SOL    HW118983   4.034   3.596   9.087  1.5588 -2.9761  0.2793
 2508SOL    HW218984   4.143   3.684   9.129 -0.8450  0.2360  0.2015
 2509SOL     OW18985   3.178   3.356   2.079  0.3737 -0.1130  0.0992
 2509SOL    HW118986   3.197   3.262   2.076  0.3679 -0.1242  0.3980
 2509SOL    HW218987   3.228   3.383   2.002 -0.0916  2.6233  0.7377
 2510SOL     OW18988   1.085   1.856   0.457 -0.0806  0.7191 -0.1082
 2510SOL    HW118989   1.138   1.780   0.480  1.5790  2.6786  2.5826
 2510SOL    HW218990   1.084   1.845   0.362  0.1477 -2.1964  0.2298
 2511SOL     OW18991   3.449   3.641   2.173  0.2973  0.4352 -0.2171
 2511SOL    HW118992   3.377   3.692   2.136 -0.6232  0.0217  1.0236
 2511SOL    HW218993   3.404   3.566   2.212  0.5368 -0.2392 -1.2133
 2512SOL     OW18994   1.418   2.635   4.903  0.4261  0.2725  0.1136
 2512SOL    HW118995   1.510   2.647   4.926  0.6185 -1.3698  0.1803
 2512SOL    HW218996   1.421   2.559   4.845  0.3778  1.7261 -1.7940
 2513SOL     OW18997   3.432   0.678   6.917 -0.2527 -0.2025 -0.0827
 2513SOL    HW118998   3.406   0.634   6.998 -0.9990  0.2002 -0.1030
 2513SOL    HW218999   3.501   0.729   6.959 -1.7870  2.1057 -0.3140
 2514SOL     OW19000   0.220   3.157   7.823 -0.3108  0.1835 -0.0431
 2514SOL    HW119001   0.178   3.216   7.760 -0.3940 -0.1288 -0.2825
 2514SOL    HW219002   0.185   3.200   7.900 -0.1099  0.9401 -0.3731
 2515SOL     OW19003   2.719   0.613  15.518 -0.1944  0.4415 -0.4352
 2515SOL    HW119004   2.790   0.617  15.582 -0.0857  0.8970 -0.5819
 2515SOL    HW219005   2.675   0.543  15.566 -2.0299  0.2952 -2.3518
 2516SOL     OW19006   3.246   0.103   6.109  0.2885  0.5180 -0.0806
 2516SOL    HW119007   3.173   0.147   6.154  0.3265  2.3265 -1.7773
 2516SOL    HW219008   3.201   0.019   6.115  3.3940 -1.0624  0.4313
 2517SOL     OW19009   2.706   3.579   1.795  0.1537  0.5625  0.6124
 2517SOL    HW119010   2.665   3.650   1.745 -2.1472 -1.4864 -0.4191
 2517SOL    HW219011   2.794   3.612   1.812  0.8907 -1.0886 -0.0812
 2518SOL     OW19012   1.785   2.139   3.581 -0.4950  0.1491 -0.3975
 2518SOL    HW119013   1.801   2.224   3.540 -1.4160  0.9451  0.8889
 2518SOL    HW219014   1.790   2.168   3.673 -1.6771 -1.1584  0.0714
 2519SOL     OW19015   0.188   1.312  12.824  0.3608 -0.2537 -0.1988
 2519SOL    HW119016   0.263   1.262  12.855  1.1155  1.1935  0.3061
 2519SOL    HW219017   0.212   1.397  12.861  0.1999 -0.6636  0.8236
 2520SOL     OW19018   0.910   2.592   4.024 -0.2280  0.0888  0.0193
 2520SOL    HW119019   0.969   2.580   3.950 -0.2226 -0.6502  0.1446
 2520SOL    HW219020   0.868   2.674   4.000 -1.3995 -0.1663  1.1884
 2521SOL     OW19021   2.111   2.348   5.307 -0.6899 -0.0459  0.0498
 2521SOL    HW119022   2.204   2.326   5.305 -0.0409  3.0737 -2.0626
 2521SOL    HW219023   2.084   2.279   5.247  3.5378  0.6069 -2.5928
 2522SOL     OW19024   2.290   3.391   3.447  0.3766  0.1029  0.1484
 2522SOL    HW119025   2.316   3.443   3.371  1.6774  1.1922  1.3601
 2522SOL    HW219026   2.259   3.463   3.502 -0.2110 -0.7232  0.8866
 2523SOL     OW19027   3.470   2.163   8.762  0.5318  0.3627 -0.4058
 2523SOL    HW119028   3.420   2.211   8.829 -3.4669 -0.5759 -2.6959
 2523SOL    HW219029   3.530   2.117   8.820  0.2126 -0.7512 -0.9534
 2524SOL     OW19030   3.916   0.094  10.814 -0.2769  0.4683 -0.0130
 2524SOL    HW119031   3.930   0.033  10.887 -2.4171 -0.0774 -0.0647
 2524SOL    HW219032   4.001   0.138  10.811  0.1297 -0.4090 -1.2945
 2525SOL     OW19033   2.146   1.444  13.388  0.2968  0.0185  0.1176
 2525SOL    HW119034   2.225   1.484  13.353  0.0937  0.6446  0.3697
 2525SOL    HW219035   2.073   1.492  13.349  0.0973  0.0318  0.5048
 2526SOL     OW19036   0.258   3.515   4.993 -0.0462 -0.2177  0.1245
 2526SOL    HW119037   0.330   3.466   5.032 -0.5152 -2.3735 -1.6456
 2526SOL    HW219038   0.303   3.539   4.912 -2.0643 -1.0586 -1.2452
 2527SOL     OW19039   4.282   1.164   5.733 -0.0542  0.8233 -0.0759
 2527SOL    HW119040   4.367   1.205   5.716  0.0985  0.2258 -0.7506
 2527SOL    HW219041   4.226   1.183   5.658 -1.4556 -0.2482  0.6877
 2528SOL     OW19042   3.290   2.168   3.900  0.1784  0.2590  0.6953
 2528SOL    HW119043   3.196   2.160   3.916  0.0346  1.5693  0.5690
 2528SOL    HW219044   3.318   2.078   3.915  0.7456  0.1257 -1.2034
 2529SOL     OW19045   2.419   3.721   1.748 -0.3954 -0.0802  0.0552
 2529SOL    HW119046   2.382   3.768   1.674  1.1220  0.1599 -0.5505
 2529SOL    HW219047   2.339   3.672   1.766 -0.6321  0.5014  0.6001
 2530SOL     OW19048   1.730   4.590   5.828  0.4357  0.4797  0.0436
 2530SOL    HW119049   1.754   4.582   5.736  1.7052 -2.0988  0.5785
 2530SOL    HW219050   1.660   4.526   5.838 -0.6179  1.9171  1.8421
 2531SOL     OW19051   1.709   0.854   5.740 -0.2781 -0.0978  0.2345
 2531SOL    HW119052   1.636   0.851   5.679 -2.3450  1.1565  2.6518
 2531SOL    HW219053   1.757   0.780   5.704  0.0304 -0.0804  0.6051
 2532SOL     OW19054   4.150   1.307   4.373 -0.6722 -0.0679  0.0965
 2532SOL    HW119055   4.184   1.396   4.366 -1.3150  0.1195 -0.7442
 2532SOL    HW219056   4.217   1.263   4.320  0.8257  1.1742  0.9338
 2533SOL     OW19057   1.363   1.804   2.085 -0.2346  0.2817 -0.6377
 2533SOL    HW119058   1.379   1.883   2.033  0.5163  0.1297 -0.6414
 2533SOL    HW219059   1.420   1.822   2.159 -1.3115 -0.5765  0.4063
 2534SOL     OW19060   3.884   3.925  13.468 -0.0100  0.4912  0.0029
 2534SOL    HW119061   3.852   3.997  13.412  1.8411  1.7959  0.6094
 2534SOL    HW219062   3.974   3.905  13.441  0.3019 -0.3623  1.6727
 2535SOL     OW19063   4.308   1.587   3.370 -0.5583 -0.1679  0.0701
 2535SOL    HW119064   4.393   1.631   3.373 -0.2730 -0.6851 -0.4126
 2535SOL    HW219065   4.279   1.585   3.278 -0.3950 -0.5326  0.0238
 2536SOL     OW19066   3.115   3.704   5.405 -0.0034  0.3252 -0.0667
 2536SOL    HW119067   3.108   3.730   5.497  0.4053 -1.1829  0.3769
 2536SOL    HW219068   3.049   3.760   5.362 -0.2061  0.8347  0.9197
 2537SOL     OW19069   3.706   0.764   6.044  0.7640 -0.2430 -0.0290
 2537SOL    HW119070   3.663   0.833   6.094 -1.5393 -2.3304  0.8783
 2537SOL    HW219071   3.643   0.739   5.976  0.8937  2.7840 -1.2572
 2538SOL     OW19072   3.929   4.201  12.871  0.0251  0.2097 -0.1446
 2538SOL    HW119073   3.970   4.161  12.794 -2.4333 -0.0188 -1.3115
 2538SOL    HW219074   3.919   4.124  12.928  0.1236 -0.4368 -0.9984
 2539SOL     OW19075   1.361   0.531   9.268 -0.3480 -0.1006  0.2172
 2539SOL    HW119076   1.318   0.602   9.315  0.1396 -1.2739  2.4256
 2539SOL    HW219077   1.379   0.465   9.335 -1.6184  0.8146  1.4522
 2540SOL     OW19078   4.565   3.690   7.996 -0.1256  0.4031  0.0486
 2540SOL    HW119079   4.570   3.782   8.022  1.9398 -0.3083  2.2026
 2540SOL    HW219080   4.474   3.670   7.976 -0.6440  0.7906  2.0236
 2541SOL     OW19081   1.184   0.520   4.716 -0.0733 -0.6696 -0.3256
 2541SOL    HW119082   1.141   0.453   4.663 -0.2840  0.1754 -1.2235
 2541SOL    HW219083   1.159   0.601   4.672  0.8286  0.6669  1.6318
 2542SOL     OW19084   0.069   2.283   8.805 -0.2659 -0.1812  0.2350
 2542SOL    HW119085   0.079   2.280   8.901 -0.9636 -0.1988  0.3126
 2542SOL    HW219086   0.145   2.338   8.790 -0.8508  1.5304  3.5055
 2543SOL     OW19087   3.761   0.371   5.765  0.1687  0.1462 -0.2226
 2543SOL    HW119088   3.667   0.387   5.769  0.2537  0.1125  1.9107
 2543SOL    HW219089   3.799   0.449   5.724  3.1954 -2.6141 -2.7293
 2544SOL     OW19090   4.150   4.286   6.650 -0.5053  0.5821  0.2258
 2544SOL    HW119091   4.224   4.296   6.710 -1.2857 -3.7144  1.9217
 2544SOL    HW219092   4.122   4.197   6.670 -0.1326  0.3721 -0.1925
 2545SOL     OW19093   3.878   1.060   2.187 -0.1662 -0.1865  0.2655
 2545SOL    HW119094   3.936   0.999   2.140 -0.8140  0.2394 -1.0826
 2545SOL    HW219095   3.938   1.133   2.203 -0.1276  0.4476 -2.7650
 2546SOL     OW19096   2.400   0.684   2.095 -0.2424 -0.3696  0.0337
 2546SOL    HW119097   2.343   0.622   2.049 -2.4860  1.2460  0.6731
 2546SOL    HW219098   2.363   0.766   2.063 -0.1823 -0.0250  0.8603
 2547SOL     OW19099   3.274   4.535   8.002  0.0689 -0.1277 -0.5196
 2547SOL    HW119100   3.211   4.482   7.952 -0.2011 -0.0987 -0.2111
 2547SOL    HW219101   3.316   4.458   8.040  0.8219  0.9799  0.8692
 2548SOL     OW19102   3.605   4.547   7.260 -0.7302  0.3553 -0.2902
 2548SOL    HW119103   3.577   4.475   7.316 -0.8444 -0.1731 -1.0257
 2548SOL    HW219104   3.685   4.583   7.299 -0.1217 -1.1168 -0.1761
 2549SOL     OW19105   4.655   3.510   6.386 -0.3722  0.1536 -0.1168
 2549SOL    HW119106   4.703   3.540   6.309 -0.2034 -1.3697 -0.6006
 2549SOL    HW219107   4.640   3.418   6.362 -1.1653  0.4537 -0.7700
 2550SOL     OW19108   4.596   3.184   9.340  0.1975  0.0615  0.2246
 2550SOL    HW119109   4.632   3.217   9.423  0.7892 -1.8609  0.7271
 2550SOL    HW219110   4.593   3.262   9.284 -2.9624  1.4898  2.3395
 2551SOL     OW19111   1.185   4.246   6.684 -0.1245  0.7234 -0.5035
 2551SOL    HW119112   1.190   4.229   6.590 -2.6010 -0.1927 -0.4561
 2551SOL    HW219113   1.124   4.319   6.682 -1.1511 -0.1271  0.1866
 2552SOL     OW19114   4.688   0.984   3.371  0.2972  0.4492 -0.1152
 2552SOL    HW119115   0.052   1.000   3.405  0.4660 -2.1807  0.6275
 2552SOL    HW219116   4.692   1.049   3.301  0.2090  1.0665  0.4492
 2553SOL     OW19117   2.004   1.244   5.573  0.5487 -0.2075 -0.0845
 2553SOL    HW119118   2.056   1.324   5.586  0.5909 -0.4503  1.2671
 2553SOL    HW219119   2.070   1.181   5.602  0.9676  0.1468 -0.2593
 2554SOL     OW19120   4.486   1.801   4.877 -0.2574  0.0647  0.1570
 2554SOL    HW119121   4.531   1.826   4.958 -0.1016 -0.2616  0.1717
 2554SOL    HW219122   4.463   1.886   4.841 -0.5666 -0.4854 -0.9314
 2555SOL     OW19123   1.540   3.729  12.259  0.1403 -0.5622  0.2636
 2555SOL    HW119124   1.514   3.744  12.350 -3.5589  0.1627 -0.9146
 2555SOL    HW219125   1.461   3.691  12.221 -0.4245  0.2170  0.6492
 2556SOL     OW19126   2.261   0.596  13.176  0.1666 -0.4886 -0.1011
 2556SOL    HW119127   2.186   0.585  13.234 -0.6318  1.6377 -0.7216
 2556SOL    HW219128   2.269   0.691  13.186  0.2672 -0.7537  2.1364
 2557SOL     OW19129   0.419   4.294   8.112 -0.1084 -0.9612 -0.2343
 2557SOL    HW119130   0.460   4.227   8.057  1.6446 -0.5975  0.6155
 2557SOL    HW219131   0.384   4.350   8.042  0.4821  1.0336  1.0702
 2558SOL     OW19132   4.268   2.017   6.447 -1.0132 -0.2934 -0.2331
 2558SOL    HW119133   4.205   2.022   6.375 -1.5426  0.4184  0.2933
 2558SOL    HW219134   4.225   2.076   6.508 -0.3790  0.5117 -0.5519
 2559SOL     OW19135   2.254   2.995   2.329  0.4480  0.2232 -0.4449
 2559SOL    HW119136   2.237   2.935   2.401 -0.8586 -0.4851 -1.3442
 2559SOL    HW219137   2.321   2.950   2.279  0.0931 -1.1677  0.3414
 2560SOL     OW19138   4.516   2.512   4.322  0.0073  0.6900 -0.1751
 2560SOL    HW119139   4.562   2.564   4.255 -0.2821 -1.7353 -2.2546
 2560SOL    HW219140   4.431   2.549   4.301  0.2414  2.2330  1.6536
 2561SOL     OW19141   3.326   3.819   2.920  0.2774 -0.4426  0.0706
 2561SOL    HW119142   3.328   3.777   2.833  0.2394  1.4183 -0.8213
 2561SOL    HW219143   3.291   3.904   2.895 -0.9651 -1.2644 -0.9852
 2562SOL     OW19144   1.166   1.369   9.704 -0.0288 -0.4043 -0.3651
 2562SOL    HW119145   1.157   1.340   9.795  1.6152  0.5247  0.0870
 2562SOL    HW219146   1.110   1.445   9.719 -0.5886 -0.8412 -0.2131
 2563SOL     OW19147   0.300   0.507   8.708 -0.2557  0.9563 -0.0683
 2563SOL    HW119148   0.314   0.577   8.771  0.3495  0.5542  0.2433
 2563SOL    HW219149   0.392   0.490   8.689 -0.5550 -0.9379  0.1032
 2564SOL     OW19150   3.302   0.548  11.030  0.1547  0.1384 -0.3946
 2564SOL    HW119151   3.315   0.557  10.936 -0.1587 -0.6954 -0.5171
 2564SOL    HW219152   3.246   0.625  11.046 -0.0197 -0.2171  0.7593
 2565SOL     OW19153   1.110   0.634   7.187 -0.0198  0.0256 -0.3975
 2565SOL    HW119154   1.055   0.582   7.128 -0.5989  0.5925 -0.3556
 2565SOL    HW219155   1.073   0.718   7.159 -0.5515  0.3733  1.3837
 2566SOL     OW19156   0.331   0.295  15.182 -0.2052  0.2753  0.0691
 2566SOL    HW119157   0.375   0.228  15.234 -1.7850 -0.5937  0.2727
 2566SOL    HW219158   0.242   0.273  15.209 -0.5872  1.2252 -0.4330
 2567SOL     OW19159   2.669   2.293   8.331  0.0259 -0.7035 -0.6003
 2567SOL    HW119160   2.729   2.327   8.398  1.6006 -1.8015 -1.4598
 2567SOL    HW219161   2.597   2.272   8.391  0.1485 -0.2526 -0.2874
 2568SOL     OW19162   4.292   3.044   5.955  0.4948  0.4334 -0.4961
 2568SOL    HW119163   4.212   3.090   5.931  1.4068  0.7321 -2.9887
 2568SOL    HW219164   4.277   2.952   5.932  1.0837  0.4256 -0.8713
 2569SOL     OW19165   2.894   4.478   9.142 -0.4545  0.0508  0.2770
 2569SOL    HW119166   2.861   4.505   9.228  0.0877 -1.2696  0.8879
 2569SOL    HW219167   2.986   4.464   9.164 -1.1744 -2.7742  1.4279
 2570SOL     OW19168   2.013   3.086   7.396 -0.8561  0.2331  0.2512
 2570SOL    HW119169   2.031   3.003   7.353  2.8553  0.8885  0.5456
 2570SOL    HW219170   1.994   3.067   7.488  1.3608 -1.4993  0.3474
 2571SOL     OW19171   3.077   0.927   4.637 -0.3394 -0.0449 -0.4870
 2571SOL    HW119172   2.999   0.941   4.584 -2.1627 -1.0054  1.9191
 2571SOL    HW219173   3.137   0.894   4.570  1.1689  0.2578  0.7122
 2572SOL     OW19174   4.342   4.701   4.194 -0.4373 -0.5198 -0.6256
 2572SOL    HW119175   4.354   0.006   4.285  0.4392  0.8008 -1.1704
 2572SOL    HW219176   4.368   0.047   4.135  1.0721  2.0612  3.0967
 2573SOL     OW19177   0.243   1.624   7.604  0.1859 -0.6863 -0.3159
 2573SOL    HW119178   0.251   1.595   7.695  0.9418 -1.7631 -0.7179
 2573SOL    HW219179   0.253   1.545   7.550 -0.9603 -1.5543  0.7323
 2574SOL     OW19180   3.672   1.367   7.357  0.4079 -0.0819 -0.5261
 2574SOL    HW119181   3.582   1.334   7.346  0.2780  0.0778  0.0742
 2574SOL    HW219182   3.670   1.372   7.452 -1.5376  0.2479 -0.5750
 2575SOL     OW19183   1.594   0.738   4.279  0.1898  0.2163 -0.5993
 2575SOL    HW119184   1.537   0.691   4.218  0.7582 -1.7247  0.3502
 2575SOL    HW219185   1.562   0.828   4.277  2.8650  1.2056  1.5821
 2576SOL     OW19186   0.413   4.287  16.725  0.1533  0.2369 -0.5536
 2576SOL    HW119187   0.490   4.248  16.683 -0.2884 -0.9614 -0.2351
 2576SOL    HW219188   0.421   4.257  16.815  0.4983  2.6921  0.2270
 2577SOL     OW19189   4.136   0.430   2.097  0.3818 -0.6640 -0.2169
 2577SOL    HW119190   4.207   0.399   2.153  1.0851 -1.1279 -1.3511
 2577SOL    HW219191   4.064   0.385   2.141 -0.0536  1.0574  0.8249
 2578SOL     OW19192   0.367   3.081   6.401 -0.0329  0.2140 -0.7297
 2578SOL    HW119193   0.275   3.107   6.405 -0.3004 -0.5040 -2.4591
 2578SOL    HW219194   0.407   3.154   6.448 -1.3027 -0.2061  1.0233
 2579SOL     OW19195   2.683   4.104   7.416 -0.5475  0.4046  0.6124
 2579SOL    HW119196   2.648   4.146   7.495 -0.6916 -0.3447  0.9515
 2579SOL    HW219197   2.751   4.165   7.390 -1.0197  0.6211 -0.0976
 2580SOL     OW19198   2.316   1.014  16.513 -0.0551 -0.4584  0.1513
 2580SOL    HW119199   2.350   0.984  16.597 -0.5223 -0.0131  0.5101
 2580SOL    HW219200   2.230   0.973  16.524  1.3746 -2.9066  2.2553
 2581SOL     OW19201   4.530   0.941   7.954  0.1981 -0.0884 -0.7268
 2581SOL    HW119202   4.597   0.935   8.022 -1.9661  1.0611  1.5016
 2581SOL    HW219203   4.499   1.031   7.967 -0.2556 -0.4116  0.3687
 2582SOL     OW19204   1.021   3.170  16.978  0.4662 -0.1039 -0.2666
 2582SOL    HW119205   0.969   3.167  16.898 -1.4143  0.6719  0.9198
 2582SOL    HW219206   0.969   3.224  17.038  1.0486 -1.3486  1.3799
 2583SOL     OW19207   2.783   1.421   4.902  0.0773 -0.4490  0.0820
 2583SOL    HW119208   2.870   1.459   4.917 -0.7124  0.5477  2.1760
 2583SOL    HW219209   2.777   1.358   4.975 -2.3239 -1.4544 -1.0101
 2584SOL     OW19210   2.144   0.900   7.492 -0.2120 -0.0693 -0.4504
 2584SOL    HW119211   2.164   0.911   7.585  0.9386 -1.6538 -0.5129
 2584SOL    HW219212   2.148   0.988   7.455  1.4184 -0.6345 -1.6134
 2585SOL     OW19213   2.140   0.195   8.467 -0.0485  0.5091  0.1213
 2585SOL    HW119214   2.061   0.161   8.509 -0.9688 -0.7826 -2.6998
 2585SOL    HW219215   2.201   0.122   8.479 -0.8471 -0.4599 -1.7108
 2586SOL     OW19216   4.129   0.542   6.404 -0.7649 -0.0149 -0.3425
 2586SOL    HW119217   4.049   0.594   6.397 -0.0347  1.4617  2.2344
 2586SOL    HW219218   4.092   0.461   6.439  2.4339 -1.2274  0.3218
 2587SOL     OW19219   0.118   0.798   7.513  0.2862  0.4344  0.1922
 2587SOL    HW119220   0.069   0.797   7.596 -0.1414 -3.0049 -0.0698
 2587SOL    HW219221   0.090   0.710   7.486  0.3291  0.4996 -0.0636
 2588SOL     OW19222   3.439   3.978   5.075 -0.0133 -0.2337 -0.0368
 2588SOL    HW119223   3.425   4.046   5.141 -0.6042 -0.5672  0.1848
 2588SOL    HW219224   3.384   3.907   5.108  1.3016 -1.1375  0.2104
 2589SOL     OW19225   3.297   1.825   3.122  0.3314 -0.8750 -0.1098
 2589SOL    HW119226   3.365   1.765   3.092 -1.3250 -1.8013 -1.9523
 2589SOL    HW219227   3.228   1.814   3.057  0.3908  0.5529 -0.4090
 2590SOL     OW19228   0.799   0.081  11.546 -0.3347 -0.2356 -0.2807
 2590SOL    HW119229   0.753   0.114  11.623  2.7452  1.0040  0.9973
 2590SOL    HW219230   0.882   0.079  11.592 -1.1312 -1.5059  1.0904
 2591SOL     OW19231   1.928   0.869   4.257 -1.0712 -0.5720 -0.4779
 2591SOL    HW119232   1.912   0.940   4.319 -1.0961 -0.1992 -0.9098
 2591SOL    HW219233   1.923   0.925   4.180 -1.5942 -0.1107 -0.1131
 2592SOL     OW19234   0.995   2.614  13.675  0.1091 -0.3382 -0.1103
 2592SOL    HW119235   0.899   2.617  13.675  0.1300  0.4348  0.8302
 2592SOL    HW219236   1.006   2.629  13.581 -1.2744  1.1012 -0.0483
 2593SOL     OW19237   4.270   3.414   0.297  0.1288 -0.7153  0.1372
 2593SOL    HW119238   4.177   3.414   0.273  0.4298 -0.2622 -1.0484
 2593SOL    HW219239   4.293   3.484   0.236 -0.9702 -0.4820 -0.0044
 2594SOL     OW19240   1.137   3.782  11.138 -0.0151  0.6403 -0.0058
 2594SOL    HW119241   1.091   3.820  11.063 -0.9094  1.5394  0.9862
 2594SOL    HW219242   1.208   3.844  11.154  2.0195 -2.0381  1.2795
 2595SOL     OW19243   0.809   0.165   6.069  0.1392  0.1776 -0.1538
 2595SOL    HW119244   0.895   0.199   6.045  1.2622 -2.9290 -0.4691
 2595SOL    HW219245   0.799   0.189   6.161  2.1004 -0.5896  0.2569
 2596SOL     OW19246   1.449   3.647  12.547  0.5021  0.1155 -0.1733
 2596SOL    HW119247   1.363   3.615  12.574 -0.5691  0.6573 -2.9686
 2596SOL    HW219248   1.441   3.739  12.569 -0.4426 -0.6353  2.6822
 2597SOL     OW19249   1.798   0.911   5.310  0.6356 -0.4315  0.4258
 2597SOL    HW119250   1.772   1.004   5.310 -2.2217 -1.2312 -1.8247
 2597SOL    HW219251   1.736   0.876   5.247  0.4343 -3.1047  2.1062
 2598SOL     OW19252   1.345   1.366  10.992  0.0880 -0.2062  0.4342
 2598SOL    HW119253   1.289   1.382  10.916 -1.9412  0.3376  2.0460
 2598SOL    HW219254   1.423   1.414  10.964 -1.2206  2.2770  1.1344
 2599SOL     OW19255   1.716   0.573   4.446  0.0916  0.1456  0.4753
 2599SOL    HW119256   1.642   0.513   4.444 -1.1131  1.6913 -0.6666
 2599SOL    HW219257   1.677   0.646   4.398  1.1414  0.3879 -0.0195
 2600SOL     OW19258   2.995   4.321   3.213 -0.1111 -0.1147  0.5112
 2600SOL    HW119259   2.940   4.243   3.216  1.7418 -1.4878 -1.4540
 2600SOL    HW219260   3.082   4.294   3.242 -0.2277 -3.0155 -1.8393
 2601SOL     OW19261   1.191   0.353   9.636 -0.6731  0.2942  0.1423
 2601SOL    HW119262   1.186   0.433   9.689 -2.1649 -0.6186  1.3916
 2601SOL    HW219263   1.123   0.388   9.577  0.4926 -0.5076 -1.6673
 2602SOL     OW19264   0.726   3.205   7.873 -0.0081 -0.4371 -0.5403
 2602SOL    HW119265   0.659   3.264   7.906 -1.9924 -1.7354 -2.2610
 2602SOL    HW219266   0.697   3.123   7.912 -1.7773  0.2526 -0.4251
 2603SOL     OW19267   2.251   4.566   5.128 -0.4684 -0.2502 -0.5362
 2603SOL    HW119268   2.267   4.570   5.034  0.6371 -1.1429 -0.3830
 2603SOL    HW219269   2.243   4.471   5.132  2.2046 -0.5338 -2.3302
 2604SOL     OW19270   1.776   4.595   7.592 -0.4070  0.0481  0.0387
 2604SOL    HW119271   1.687   4.568   7.570  0.5734 -4.5422  1.8535
 2604SOL    HW219272   1.786   4.606   7.687  1.0545  0.0409 -0.1058
 2605SOL     OW19273   3.802   3.555   6.566 -0.5438  1.0314 -0.2213
 2605SOL    HW119274   3.858   3.489   6.526 -0.1922  0.4261  1.2722
 2605SOL    HW219275   3.800   3.630   6.506  0.1266  0.3942 -1.0315
 2606SOL     OW19276   2.479   2.472   3.605 -0.1749  0.3603 -0.4211
 2606SOL    HW119277   2.412   2.509   3.662  1.0757 -1.7749  2.4352
 2606SOL    HW219278   2.437   2.461   3.520 -1.3406  1.1805  0.0609
 2607SOL     OW19279   4.207   4.674  13.909 -0.4105 -0.1817 -0.2497
 2607SOL    HW119280   4.128   4.634  13.945 -0.6165  0.8641  0.4650
 2607SOL    HW219281   4.240   4.722  13.985 -2.4084 -1.0024  1.1305
 2608SOL     OW19282   2.968   2.009   7.283  0.1989 -0.5602  0.4450
 2608SOL    HW119283   3.006   2.075   7.340  1.4341  0.2224 -1.2830
 2608SOL    HW219284   3.044   1.995   7.227  1.4242  2.7956  1.2746
 2609SOL     OW19285   0.851   0.592   4.878  0.3002  0.5281 -0.5883
 2609SOL    HW119286   0.929   0.646   4.891  1.1557 -1.0327  0.9175
 2609SOL    HW219287   0.861   0.565   4.786  3.0830  2.9173 -0.9885
 2610SOL     OW19288   3.878   1.730  13.823  0.8139  1.0728  0.1761
 2610SOL    HW119289   3.839   1.772  13.747  0.8919 -0.2031 -0.5583
 2610SOL    HW219290   3.830   1.782  13.888  1.9102  0.6449  1.3421
 2611SOL     OW19291   0.226   4.314   6.076 -0.6161 -0.2376 -0.3305
 2611SOL    HW119292   0.279   4.246   6.033 -1.1646  0.3516 -1.9007
 2611SOL    HW219293   0.292   4.366   6.123 -1.2701  0.9697 -0.7636
 2612SOL     OW19294   3.325   1.613   3.977 -0.1265 -0.1743  0.6332
 2612SOL    HW119295   3.306   1.640   3.887  1.4479  0.4429  0.4854
 2612SOL    HW219296   3.269   1.543   4.010 -0.0284  0.4540  2.1501
 2613SOL     OW19297   4.657   2.065   7.664 -0.0262 -0.4412  0.4100
 2613SOL    HW119298   4.721   2.036   7.600  3.5913  0.1366  3.7498
 2613SOL    HW219299   4.615   2.143   7.628  0.9883 -0.7189 -1.3392
 2614SOL     OW19300   3.648   3.812   2.122 -0.1855 -0.6073  0.0480
 2614SOL    HW119301   3.569   3.758   2.119 -0.9186  0.5966 -2.3393
 2614SOL    HW219302   3.657   3.842   2.212  0.8114 -1.1612  0.1334
 2615SOL     OW19303   4.041   0.527  15.444 -0.2254 -0.0659  0.4367
 2615SOL    HW119304   4.039   0.604  15.387  2.7239 -1.0407 -0.9802
 2615SOL    HW219305   4.123   0.480  15.432 -0.2082  0.5068 -1.6250
 2616SOL     OW19306   1.949   4.479   2.571 -0.2465 -0.1569  0.3738
 2616SOL    HW119307   2.039   4.467   2.601 -0.0458 -0.9123 -0.5436
 2616SOL    HW219308   1.962   4.565   2.531  1.4952 -0.7189 -0.2807
 2617SOL     OW19309   1.623   2.196  12.217  0.3954 -0.5212 -0.2186
 2617SOL    HW119310   1.595   2.122  12.164 -0.5350 -1.5039  1.6108
 2617SOL    HW219311   1.710   2.211  12.181  0.5090  2.2777  1.2459
 2618SOL     OW19312   2.789   3.108   0.917  0.0267  0.0121 -0.2132
 2618SOL    HW119313   2.829   3.193   0.939  1.3568  0.2570 -3.5877
 2618SOL    HW219314   2.720   3.141   0.860  0.1656 -1.1427 -1.0484
 2619SOL     OW19315   1.417   0.454   6.162 -0.4981 -0.1803  0.5573
 2619SOL    HW119316   1.400   0.444   6.256 -1.0127  0.5874  0.5483
 2619SOL    HW219317   1.326   0.459   6.132 -0.4368 -1.9572  0.1198
 2620SOL     OW19318   0.442   2.449   5.770 -0.0205  0.1605 -0.0269
 2620SOL    HW119319   0.489   2.400   5.838 -1.0346 -1.3925 -0.4277
 2620SOL    HW219320   0.422   2.387   5.700  0.1008 -1.6495  1.5213
 2621SOL     OW19321   2.412   2.819   9.138  0.1025  0.4717 -0.4799
 2621SOL    HW119322   2.409   2.914   9.152 -0.7900  0.2001  1.1206
 2621SOL    HW219323   2.358   2.793   9.212  0.7039  0.2018 -0.1377
 2622SOL     OW19324   0.727   3.379  16.708 -0.0632  0.0795  0.4545
 2622SOL    HW119325   0.661   3.339  16.765  0.0683 -1.6280 -0.5918
 2622SOL    HW219326   0.796   3.314  16.715 -0.7183 -0.9217 -2.1907
 2623SOL     OW19327   1.480   4.621   0.315 -0.2655 -0.3655  0.0466
 2623SOL    HW119328   1.446   4.634   0.226 -2.8272  0.1801  1.1128
 2623SOL    HW219329   1.413   4.673   0.359  0.7699  0.3308  0.7956
 2624SOL     OW19330   3.561   4.020   7.310 -0.3370  0.1664 -0.1582
 2624SOL    HW119331   3.586   4.100   7.264  3.1566  1.2880  3.7345
 2624SOL    HW219332   3.649   3.992   7.335  0.7012  1.3752 -2.3587
 2625SOL     OW19333   0.079   4.375   4.354  0.4096  0.7578 -0.1006
 2625SOL    HW119334   0.013   4.409   4.294  0.8234  1.1492 -0.3404
 2625SOL    HW219335   0.059   4.282   4.352 -1.0157  1.0140  2.3040
 2626SOL     OW19336   0.704   0.615   5.542 -0.0302  0.3631  0.2690
 2626SOL    HW119337   0.742   0.584   5.460 -1.0716 -1.5192  0.5079
 2626SOL    HW219338   0.744   0.702   5.546  1.8591 -0.4859 -0.3853
 2627SOL     OW19339   3.771   0.513   7.523  0.4195  0.1252  0.2244
 2627SOL    HW119340   3.846   0.566   7.548  0.9124 -1.2584  1.6870
 2627SOL    HW219341   3.728   0.558   7.450 -1.2200 -1.4320  0.2133
 2628SOL     OW19342   1.986   2.341  12.171  0.3020 -0.2874  0.2559
 2628SOL    HW119343   2.034   2.287  12.109 -1.8122  1.6786 -3.0947
 2628SOL    HW219344   1.963   2.285  12.246 -0.5922  0.0353  0.2295
 2629SOL     OW19345   2.389   0.752   4.902  0.1469  0.5730 -0.7784
 2629SOL    HW119346   2.406   0.846   4.912 -0.3750  0.3878  2.0266
 2629SOL    HW219347   2.297   0.747   4.929  1.0029 -1.6240  1.7083
 2630SOL     OW19348   3.296   4.109   4.142 -0.1842  0.4417  0.3408
 2630SOL    HW119349   3.233   4.042   4.167  0.4545 -0.5676 -0.7825
 2630SOL    HW219350   3.245   4.157   4.077 -1.2130 -0.1046  0.7477
 2631SOL     OW19351   4.181   3.955   2.689  0.2365  0.1084 -0.0245
 2631SOL    HW119352   4.218   4.040   2.711 -1.6114  0.8780  0.0582
 2631SOL    HW219353   4.121   3.976   2.617  0.5428  0.2676 -0.2318
 2632SOL     OW19354   1.941   3.082   2.781  0.3804 -0.1855 -0.2529
 2632SOL    HW119355   2.018   3.098   2.727 -0.5538 -0.1070 -1.5766
 2632SOL    HW219356   1.908   3.007   2.731 -1.3093  0.9508 -0.8488
 2633SOL     OW19357   4.173   0.438  12.080 -0.1673  0.3831  0.3988
 2633SOL    HW119358   4.125   0.521  12.077  3.1220  2.2977  0.0452
 2633SOL    HW219359   4.100   0.378  12.097 -0.7503  0.7735 -0.7298
 2634SOL     OW19360   4.414   0.378  12.208 -0.5790  0.6122  0.0456
 2634SOL    HW119361   4.378   0.328  12.282  1.0292  1.0786  1.1295
 2634SOL    HW219362   4.332   0.395  12.160 -0.5599  1.3570  0.2846
 2635SOL     OW19363   3.622   3.679   7.050 -0.2922 -0.2025 -0.1827
 2635SOL    HW119364   3.697   3.628   7.081 -2.1215 -1.8078  1.6033
 2635SOL    HW219365   3.573   3.662   7.130  3.3031 -0.6678  1.9422
 2636SOL     OW19366   3.560   4.615  15.530  0.7725 -0.1833  0.5565
 2636SOL    HW119367   3.569   4.679  15.459 -1.4967 -0.6824 -0.1727
 2636SOL    HW219368   3.478   4.639  15.573  1.9045  0.6559  2.2794
 2637SOL     OW19369   2.452   2.920   3.118 -0.0780 -0.0863  0.3735
 2637SOL    HW119370   2.492   2.841   3.152  0.2432 -0.8758 -1.8954
 2637SOL    HW219371   2.486   2.987   3.178 -0.4380 -0.6354  1.1847
 2638SOL     OW19372   2.376   3.744   5.429  0.2890 -0.1545 -0.1707
 2638SOL    HW119373   2.330   3.741   5.345  0.7565  2.3124 -0.5126
 2638SOL    HW219374   2.314   3.693   5.481 -1.5981  2.3185  0.0094
 2639SOL     OW19375   2.344   1.778   1.711 -0.1104  0.0024 -0.2330
 2639SOL    HW119376   2.300   1.786   1.627  1.5184  1.3204 -0.9662
 2639SOL    HW219377   2.272   1.787   1.773  0.1404  1.5441 -0.1570
 2640SOL     OW19378   3.756   1.563   7.180  0.3454 -0.8968 -0.8303
 2640SOL    HW119379   3.691   1.616   7.225 -1.5128 -3.6766 -0.2217
 2640SOL    HW219380   3.741   1.482   7.229 -0.5018  0.0676  0.4870
 2641SOL     OW19381   0.175   4.403   3.798 -0.3139 -0.0004 -0.5061
 2641SOL    HW119382   0.261   4.363   3.784 -0.3448 -0.5423  0.8320
 2641SOL    HW219383   0.151   4.437   3.712  0.1830  2.0712  0.1516
 2642SOL     OW19384   0.665   4.058   5.337  0.2134  0.2710 -0.4362
 2642SOL    HW119385   0.639   4.132   5.393 -3.2494 -3.0037  2.2712
 2642SOL    HW219386   0.704   4.119   5.274  2.1958 -1.2169 -0.6418
 2643SOL     OW19387   0.549   2.251   4.444  0.5927  0.3202 -0.5230
 2643SOL    HW119388   0.638   2.255   4.477  0.3593 -2.4860  0.4226
 2643SOL    HW219389   0.556   2.201   4.362 -3.3335 -0.2431 -0.5405
 2644SOL     OW19390   2.165   3.227  15.540 -0.2418  0.2359  0.2469
 2644SOL    HW119391   2.151   3.183  15.456 -0.7417 -1.0141  0.9779
 2644SOL    HW219392   2.193   3.310  15.501 -0.8904 -0.4127 -1.6503
 2645SOL     OW19393   1.453   1.280   5.293 -0.1677 -0.1089  0.0751
 2645SOL    HW119394   1.410   1.317   5.216  0.2035  0.4853  0.1584
 2645SOL    HW219395   1.379   1.270   5.354 -1.8273  1.9898 -1.6067
 2646SOL     OW19396   3.066   0.530   4.405 -0.3913  0.1638 -0.4815
 2646SOL    HW119397   2.975   0.530   4.374 -0.8036 -2.2261  0.7084
 2646SOL    HW219398   3.075   0.625   4.400  1.1048  0.1099  1.2401
 2647SOL     OW19399   4.036   4.062   5.187  0.0777 -0.0270  0.8660
 2647SOL    HW119400   3.974   3.999   5.222 -0.6526  0.1508 -0.1145
 2647SOL    HW219401   3.975   4.130   5.161 -1.5642 -1.6954  0.3842
 2648SOL     OW19402   3.079   0.045   5.129  0.1932 -0.1450  0.1131
 2648SOL    HW119403   3.054   0.106   5.198  1.8058  1.5216 -0.7651
 2648SOL    HW219404   3.070   4.684   5.171  0.3729 -0.5598 -0.6852
 2649SOL     OW19405   0.538   1.178   7.224 -0.3065  0.0995  0.7522
 2649SOL    HW119406   0.602   1.197   7.155 -1.6815  2.4517  0.1633
 2649SOL    HW219407   0.477   1.251   7.218 -2.3340 -1.7104 -0.4733
 2650SOL     OW19408   1.100   1.060  14.676  0.3309 -0.4774  0.0056
 2650SOL    HW119409   1.016   1.016  14.689  0.1775  0.3345  1.7872
 2650SOL    HW219410   1.130   1.004  14.604  1.3775  0.1571 -0.0398
 2651SOL     OW19411   3.740   0.819   0.698  0.4187  0.1541 -0.0583
 2651SOL    HW119412   3.715   0.731   0.726  1.1336 -0.7609 -2.2996
 2651SOL    HW219413   3.798   0.857   0.763  0.6100  1.1141 -0.7875
 2652SOL     OW19414   4.637   4.529   6.629  0.5141  0.2206 -0.5342
 2652SOL    HW119415   4.562   4.526   6.689 -2.3643 -1.5122 -4.2427
 2652SOL    HW219416   4.707   4.498   6.687 -0.0128 -1.5747 -0.8470
 2653SOL     OW19417   0.658   2.867   6.782  0.2363 -0.4741 -0.6801
 2653SOL    HW119418   0.624   2.778   6.779 -0.1007 -0.3114 -1.7330
 2653SOL    HW219419   0.582   2.914   6.815  1.7844 -0.0941  2.3136
 2654SOL     OW19420   1.590   3.266   9.280 -0.1668 -0.8216 -0.2310
 2654SOL    HW119421   1.583   3.171   9.287 -2.6777 -0.6439 -0.2573
 2654SOL    HW219422   1.611   3.280   9.187  1.5931  1.2248  0.4839
 2655SOL     OW19423   2.208   4.645  16.381  0.1233 -0.7555  0.0451
 2655SOL    HW119424   2.149   4.595  16.438  1.6261  1.4658  3.5590
 2655SOL    HW219425   2.261   4.584  16.330  0.6463  0.4837 -0.8691
 2656SOL     OW19426   2.213   2.073   6.033 -0.3275  0.2251  0.0848
 2656SOL    HW119427   2.203   2.111   5.946 -0.7867  1.4868  0.6988
 2656SOL    HW219428   2.161   1.992   6.024 -0.3085  0.2700 -0.4159
 2657SOL     OW19429   3.892   0.810   4.807  0.0717 -0.4219 -0.0180
 2657SOL    HW119430   3.809   0.780   4.771 -0.2116  0.5767 -0.1976
 2657SOL    HW219431   3.950   0.734   4.796 -1.5703 -2.0425  2.5289
 2658SOL     OW19432   0.363   2.123  13.509 -0.2418  0.5959  0.0143
 2658SOL    HW119433   0.384   2.055  13.445 -0.3549  0.5707  0.0035
 2658SOL    HW219434   0.425   2.099  13.578 -0.7097 -0.2778  0.1344
 2659SOL     OW19435   0.832   3.076   5.421  0.1228  0.4596 -0.1212
 2659SOL    HW119436   0.846   2.982   5.413  1.1323  0.6187 -0.2407
 2659SOL    HW219437   0.920   3.101   5.393 -0.1588  1.2183 -0.3359
 2660SOL     OW19438   1.397   3.941   3.964  0.0737 -0.7645  0.0087
 2660SOL    HW119439   1.399   4.007   4.033 -0.0060 -1.7070  0.8986
 2660SOL    HW219440   1.427   3.861   4.006  0.8757 -0.1285  0.6374
 2661SOL     OW19441   2.768   3.479   8.934  0.4300 -0.2627 -0.4194
 2661SOL    HW119442   2.682   3.466   8.893  0.3211 -0.0021 -0.2721
 2661SOL    HW219443   2.828   3.420   8.888 -1.1801 -0.8583 -1.7785
 2662SOL     OW19444   0.807   2.058   4.910 -0.0145  0.3527  0.0047
 2662SOL    HW119445   0.883   2.101   4.949  0.4024 -1.4538  1.1606
 2662SOL    HW219446   0.737   2.112   4.946 -1.5420 -1.5046 -0.1968
 2663SOL     OW19447   4.040   2.191   4.289  0.0154 -0.3452  0.6360
 2663SOL    HW119448   4.000   2.105   4.279 -1.6996  0.5823 -0.3824
 2663SOL    HW219449   3.972   2.257   4.301  0.0428  0.0072 -1.1193
 2664SOL     OW19450   2.170   4.686   0.306 -0.0527  0.1002 -0.0066
 2664SOL    HW119451   2.092   0.018   0.309 -0.0869  0.0277  0.3774
 2664SOL    HW219452   2.147   4.632   0.381  0.4119 -0.2940 -0.1505
 2665SOL     OW19453   1.027   0.432   2.581 -0.0541 -0.5493  0.0796
 2665SOL    HW119454   0.960   0.363   2.580 -0.8615  0.2487 -0.3686
 2665SOL    HW219455   1.065   0.406   2.497 -0.0409 -0.3120  0.0135
 2666SOL     OW19456   0.114   2.546   7.631  0.4749  0.7375  0.1314
 2666SOL    HW119457   0.150   2.470   7.677  0.5610  0.3134 -0.6399
 2666SOL    HW219458   0.081   2.602   7.701 -0.3943  0.4214 -0.0337
 2667SOL     OW19459   1.621   0.399   5.987  0.6752 -0.2531  0.5238
 2667SOL    HW119460   1.685   0.460   6.024  0.0236  0.6248  0.2224
 2667SOL    HW219461   1.558   0.394   6.058 -3.0852 -1.2491 -2.8588
 2668SOL     OW19462   3.663   1.712   6.096 -0.4005 -0.4596 -0.2217
 2668SOL    HW119463   3.697   1.746   6.013  0.6885 -0.5867  0.1767
 2668SOL    HW219464   3.673   1.789   6.151 -0.2865 -0.8562  0.3098
 2669SOL     OW19465   3.078   3.811   8.489  0.1856 -0.2949  0.2951
 2669SOL    HW119466   3.166   3.841   8.514 -0.5687  2.5408 -0.4373
 2669SOL    HW219467   3.044   3.776   8.571 -0.0339  0.1010  0.3711
 2670SOL     OW19468   4.035   4.053   7.866  0.7703 -0.0508  0.0602
 2670SOL    HW119469   3.951   4.075   7.907  0.8594  1.2800 -0.4767
 2670SOL    HW219470   4.015   4.078   7.776  1.0180  0.6208  0.1909
 2671SOL     OW19471   0.142   1.756   4.566  0.0771  0.0654 -0.4627
 2671SOL    HW119472   0.047   1.758   4.572  0.0804  0.2542 -0.4682
 2671SOL    HW219473   0.167   1.686   4.626 -3.9663  0.2416  1.4635
 2672SOL     OW19474   3.887   4.121   1.213  0.3972 -0.1186  0.1370
 2672SOL    HW119475   3.844   4.085   1.136 -0.9646 -2.2316  1.8792
 2672SOL    HW219476   3.859   4.070   1.289 -0.5989  1.8147  1.0885
 2673SOL     OW19477   2.239   4.517   4.275  0.0689 -0.5395  0.0779
 2673SOL    HW119478   2.219   4.595   4.326  1.0341  0.5247 -1.1655
 2673SOL    HW219479   2.329   4.508   4.306 -0.2229  0.0560  1.0927
 2674SOL     OW19480   3.806   1.905   8.961 -0.3985 -0.4013  0.4239
 2674SOL    HW119481   3.830   1.859   8.881  1.1974  0.2890  0.5184
 2674SOL    HW219482   3.716   1.875   8.975 -0.8842  0.0977 -1.6373
 2675SOL     OW19483   4.209   0.234   4.933  0.3987 -0.3057 -0.1217
 2675SOL    HW119484   4.295   0.271   4.951 -0.4692  0.7569  1.7486
 2675SOL    HW219485   4.193   0.264   4.843 -1.0359 -0.2607  0.1568
 2676SOL     OW19486   1.276   3.932   1.815  0.1072 -0.6422 -0.4509
 2676SOL    HW119487   1.200   3.911   1.870 -0.0854 -2.4352 -1.4166
 2676SOL    HW219488   1.236   3.912   1.731 -0.3415  0.9538 -0.6114
 2677SOL     OW19489   1.398   1.331   7.504 -0.2981 -0.8112 -0.3043
 2677SOL    HW119490   1.400   1.375   7.589 -2.3172 -0.5421 -0.3989
 2677SOL    HW219491   1.387   1.406   7.446  1.1933 -1.7347 -1.7836
 2678SOL     OW19492   2.226   3.312   4.857 -0.3002 -0.1582 -0.0169
 2678SOL    HW119493   2.316   3.289   4.834  0.3854  1.4134  1.0585
 2678SOL    HW219494   2.193   3.314   4.768  2.7884  0.1231 -1.1620
 2679SOL     OW19495   2.198   0.748   8.419 -0.0921  0.5054  0.1069
 2679SOL    HW119496   2.116   0.717   8.380 -0.5031  0.4807  1.0017
 2679SOL    HW219497   2.189   0.712   8.507 -2.8619 -1.4632 -0.9988
 2680SOL     OW19498   4.465   2.475  14.482 -0.0803  0.3489 -0.0302
 2680SOL    HW119499   4.439   2.566  14.467  0.9982  0.5745 -0.5239
 2680SOL    HW219500   4.467   2.432  14.397 -0.2007 -1.4240  0.8436
 2681SOL     OW19501   3.969   3.297   3.676 -0.8268 -0.2477  0.5578
 2681SOL    HW119502   3.914   3.364   3.716 -1.7090 -1.1949  0.9278
 2681SOL    HW219503   4.016   3.348   3.609 -1.9229  0.8940  0.6721
 2682SOL     OW19504   4.603   0.441  11.401 -0.4439  0.1098 -0.6146
 2682SOL    HW119505   4.531   0.470  11.457 -0.1295 -0.6111  0.1516
 2682SOL    HW219506   4.588   0.347  11.413  0.9507 -0.0989 -0.4848
 2683SOL     OW19507   2.231   3.411   8.511 -0.2262 -0.8778 -0.0846
 2683SOL    HW119508   2.301   3.354   8.540  0.5411  1.5565  2.9872
 2683SOL    HW219509   2.253   3.416   8.418 -0.0902 -2.6879 -0.1426
 2684SOL     OW19510   2.396   4.438   1.906  0.0182 -0.3466 -0.1639
 2684SOL    HW119511   2.456   4.412   1.976  1.0215  0.1707 -0.8269
 2684SOL    HW219512   2.383   4.351   1.868  0.1666 -0.7389  0.6971
 2685SOL     OW19513   2.424   0.950   3.335  0.6393  0.0564  0.3423
 2685SOL    HW119514   2.437   0.911   3.422 -3.3601  0.0021  0.8947
 2685SOL    HW219515   2.383   0.878   3.287  2.7224 -0.0311 -1.2843
 2686SOL     OW19516   3.038   4.669  17.533 -0.3934  0.1264  0.4339
 2686SOL    HW119517   3.005   4.651  17.621 -1.0357 -0.7436  0.0204
 2686SOL    HW219518   3.131   4.660  17.553 -0.5257  0.1003  1.0191
 2687SOL     OW19519   3.330   4.257   6.892 -0.1314  0.0633  0.3430
 2687SOL    HW119520   3.370   4.332   6.936  1.8957  0.2707 -1.8230
 2687SOL    HW219521   3.241   4.262   6.926 -0.9128 -1.9288 -1.3803
 2688SOL     OW19522   4.609   0.257  13.662 -0.2408 -0.1103  0.2802
 2688SOL    HW119523   4.618   0.325  13.730  0.8804 -1.5521  1.5728
 2688SOL    HW219524   4.662   0.181  13.684  0.2937  0.9606  2.7418
 2689SOL     OW19525   3.046   2.780   2.207 -0.4828 -0.7384 -0.4528
 2689SOL    HW119526   3.039   2.728   2.127  0.0980  0.6325 -1.3975
 2689SOL    HW219527   3.052   2.867   2.166  0.9013 -1.0991 -1.0350
 2690SOL     OW19528   3.836   2.970   9.268  0.3238 -0.0096  0.0424
 2690SOL    HW119529   3.842   2.948   9.361 -0.6307  2.3427  0.6497
 2690SOL    HW219530   3.924   3.004   9.253  0.3740 -0.5212 -0.8722
 2691SOL     OW19531   1.330   3.647   4.424 -0.0130 -0.1817  0.0011
 2691SOL    HW119532   1.255   3.609   4.469  0.6099 -1.3092  0.0730
 2691SOL    HW219533   1.399   3.610   4.478 -1.3595 -2.8440 -0.1326
 2692SOL     OW19534   1.489   3.580   6.560  0.3674 -0.1747  0.4344
 2692SOL    HW119535   1.473   3.587   6.654 -1.4666  1.3675  0.0013
 2692SOL    HW219536   1.480   3.485   6.558 -2.1211  0.0233  1.9186
 2693SOL     OW19537   3.965   3.855   6.009 -0.4578 -0.6267 -0.2770
 2693SOL    HW119538   3.950   3.881   5.918 -3.6961  0.4206  0.5414
 2693SOL    HW219539   4.056   3.883   6.013 -1.3013  1.9035  0.8597
 2694SOL     OW19540   3.740   0.641  10.946  0.0025  0.5567 -0.1342
 2694SOL    HW119541   3.781   0.554  10.950 -2.7083 -0.6951  0.8494
 2694SOL    HW219542   3.717   0.642  10.853  0.1048  0.4387 -0.1612
 2695SOL     OW19543   4.439   3.663  17.103  0.3509 -0.3099  0.5143
 2695SOL    HW119544   4.410   3.754  17.102 -2.7637 -1.3247  0.4962
 2695SOL    HW219545   4.437   3.654  17.198  1.7881 -0.0143  0.5811
 2696SOL     OW19546   0.983   1.342   1.251 -0.2697 -0.4958 -0.0633
 2696SOL    HW119547   0.920   1.411   1.271  0.1414  0.1998 -1.1369
 2696SOL    HW219548   1.017   1.375   1.167  1.3894 -0.2121  0.7278
 2697SOL     OW19549   2.443   1.933  16.012  0.4425  0.1387  0.1166
 2697SOL    HW119550   2.535   1.944  16.036  0.4083 -0.7152  0.6479
 2697SOL    HW219551   2.430   1.999  15.944 -0.9662  2.1797  2.3336
 2698SOL     OW19552   3.233   2.299   4.505 -0.1725 -0.5476 -0.1944
 2698SOL    HW119553   3.204   2.214   4.471  0.7084 -0.1147 -1.9825
 2698SOL    HW219554   3.320   2.276   4.539 -1.2357 -2.3359  1.3272
 2699SOL     OW19555   3.097   3.528   1.474 -0.3049 -0.4372  0.1554
 2699SOL    HW119556   3.061   3.562   1.393 -1.7724 -1.5577  0.3311
 2699SOL    HW219557   3.134   3.444   1.447 -0.3084  0.1043 -1.4759
 2700SOL     OW19558   1.147   3.521   9.366 -0.0293  0.6155  0.4777
 2700SOL    HW119559   1.149   3.616   9.379  0.1324  0.8545 -1.3855
 2700SOL    HW219560   1.204   3.489   9.436  0.1677 -0.9360 -0.3962
 2701SOL     OW19561   3.692   2.806  10.094  0.0437 -0.3181 -0.2882
 2701SOL    HW119562   3.703   2.836  10.184  1.9262 -1.9422  0.0297
 2701SOL    HW219563   3.772   2.754  10.087 -0.4376 -1.0443 -0.3708
 2702SOL     OW19564   0.849   0.093   1.530 -0.3134 -0.2553 -0.5561
 2702SOL    HW119565   0.806   0.011   1.554  0.1826  0.2301  2.0123
 2702SOL    HW219566   0.797   0.158   1.576 -0.2303 -0.5988  0.0222
 2703SOL     OW19567   4.199   1.066   3.650 -0.0507  0.3979  0.2371
 2703SOL    HW119568   4.118   1.086   3.604  0.3691 -0.2153 -0.7625
 2703SOL    HW219569   4.170   0.995   3.706  0.3540 -0.7669 -1.0373
 2704SOL     OW19570   0.931   0.473  13.316  0.1590  0.4561  0.5784
 2704SOL    HW119571   0.944   0.490  13.409  0.2016 -2.0421  1.0297
 2704SOL    HW219572   0.884   0.553  13.294 -1.0971 -0.3147  0.4587
 2705SOL     OW19573   2.610   1.810   7.754 -0.4068  0.2890 -0.0098
 2705SOL    HW119574   2.634   1.896   7.718 -0.8193 -0.8313 -3.0119
 2705SOL    HW219575   2.614   1.747   7.682 -0.7315 -0.6698  0.8279
 2706SOL     OW19576   0.194   2.464   4.876  0.2910  0.4522 -0.3894
 2706SOL    HW119577   0.202   2.369   4.890  1.0922  0.6821  0.6763
 2706SOL    HW219578   0.109   2.477   4.918  0.2137  0.1955 -0.4602
 2707SOL     OW19579   1.699   2.580   4.260 -0.1867 -0.2384 -0.2018
 2707SOL    HW119580   1.771   2.517   4.265  0.8379  1.0222  0.6190
 2707SOL    HW219581   1.754   2.658   4.257  1.7452 -1.5408  1.6097
 2708SOL     OW19582   0.275   3.657   2.541 -0.1808 -0.4891  0.4049
 2708SOL    HW119583   0.193   3.613   2.567  0.0314 -0.2630  1.4777
 2708SOL    HW219584   0.237   3.727   2.489 -0.5246 -0.5795  0.5351
 2709SOL     OW19585   4.555   4.343   6.090 -0.0162 -0.4958 -0.2769
 2709SOL    HW119586   4.604   4.355   6.171 -1.2860 -0.3405  0.4649
 2709SOL    HW219587   4.471   4.383   6.112 -0.1930 -0.1311 -1.6517
 2710SOL     OW19588   1.774   0.879   2.327  0.4405 -0.8216 -0.1361
 2710SOL    HW119589   1.735   0.807   2.377 -1.7323  0.3539 -0.1069
 2710SOL    HW219590   1.708   0.869   2.258 -0.1884  1.4483  0.1421
 2711SOL     OW19591   3.773   2.518   5.333 -0.3555  0.0258  0.3217
 2711SOL    HW119592   3.757   2.535   5.240 -0.7558 -0.1903  0.3557
 2711SOL    HW219593   3.706   2.452   5.348 -1.0703  0.1885 -2.1133
 2712SOL     OW19594   0.087   1.684   3.033  0.1071 -0.7850  0.0972
 2712SOL    HW119595   0.135   1.664   3.113  1.0323 -0.0723 -0.2752
 2712SOL    HW219596   0.061   1.775   3.051 -2.9623 -1.6473 -0.0550
 2713SOL     OW19597   4.369   4.512  14.660  0.4837  1.1087  0.9027
 2713SOL    HW119598   4.283   4.470  14.660  2.1899 -2.3229  1.8540
 2713SOL    HW219599   4.374   4.528  14.755  0.1913  1.8454  0.7983
 2714SOL     OW19600   3.768   3.000   2.721  0.9791 -0.2145 -0.4411
 2714SOL    HW119601   3.840   2.973   2.663 -0.3284 -1.7410 -1.3520
 2714SOL    HW219602   3.778   3.095   2.728 -1.7901  0.2622 -2.9801
 2715SOL     OW19603   1.449   2.044   1.961 -0.6404 -0.1830 -0.4984
 2715SOL    HW119604   1.461   2.126   2.009  1.4244 -0.3372 -0.7485
 2715SOL    HW219605   1.386   2.081   1.899 -1.1927  0.4811  0.4580
 2716SOL     OW19606   4.435   4.081   0.210  0.5651 -0.0753 -0.3324
 2716SOL    HW119607   4.454   4.117   0.297  0.8742 -0.0706 -0.4025
 2716SOL    HW219608   4.382   4.002   0.223  0.0373  0.4906  0.9699
 2717SOL     OW19609   0.069   4.355  12.194  0.1798  0.2876  0.0420
 2717SOL    HW119610   0.051   4.262  12.181  0.0386 -0.0231  2.4674
 2717SOL    HW219611   0.135   4.380  12.128 -0.6418 -2.0516 -1.6536
 2718SOL     OW19612   1.735   3.297  11.643 -0.5438  0.3169 -0.4535
 2718SOL    HW119613   1.724   3.339  11.728  1.2903 -1.9141  0.8826
 2718SOL    HW219614   1.747   3.373  11.586 -2.0131  0.6912 -0.2483
 2719SOL     OW19615   2.544   1.693  17.615  0.1960  0.4374  0.0344
 2719SOL    HW119616   2.453   1.693  17.587  0.1991 -0.4187  0.0328
 2719SOL    HW219617   2.530   1.684   0.013  0.6515  0.6461  0.1203
 2720SOL     OW19618   1.015   2.345  14.750  0.5901  0.0343 -0.2941
 2720SOL    HW119619   1.093   2.356  14.803  0.7012 -0.1277 -0.4252
 2720SOL    HW219620   0.962   2.290  14.807 -1.6771  1.0061 -1.4489
 2721SOL     OW19621   3.039   1.312   0.882 -0.2507  0.0861 -0.4083
 2721SOL    HW119622   3.063   1.352   0.799 -2.2460 -0.3973 -1.2188
 2721SOL    HW219623   3.078   1.373   0.945 -0.1961 -1.2348  0.8319
 2722SOL     OW19624   0.223   2.652   4.678 -0.3013 -0.1928 -0.0486
 2722SOL    HW119625   0.214   2.583   4.743 -1.0712 -0.3739 -0.3476
 2722SOL    HW219626   0.269   2.605   4.608 -0.9761 -0.7145 -0.1426
 2723SOL     OW19627   1.473   0.062   3.959 -0.3674  0.0236 -0.0625
 2723SOL    HW119628   1.395   0.113   3.979 -1.4845 -0.9472 -1.9083
 2723SOL    HW219629   1.520   0.062   4.042 -0.3120  0.5794 -0.0915
 2724SOL     OW19630   1.342   1.341   8.884 -0.2990  0.4932  0.2903
 2724SOL    HW119631   1.402   1.283   8.930 -1.3998 -0.0974  0.9856
 2724SOL    HW219632   1.288   1.378   8.954  0.1564 -1.3282  1.6049
 2725SOL     OW19633   4.592   1.014   5.184 -0.1143  0.5575  0.4943
 2725SOL    HW119634   4.644   0.947   5.228 -0.9251  0.5250  1.4150
 2725SOL    HW219635   4.618   1.000   5.093  2.1207  2.8061  0.7813
 2726SOL     OW19636   1.226   1.224  10.572 -0.4092 -0.1839  0.2334
 2726SOL    HW119637   1.214   1.166  10.647 -0.1817 -0.5814 -0.0401
 2726SOL    HW219638   1.146   1.202  10.525 -0.2596  0.2309 -0.2266
 2727SOL     OW19639   2.986   2.845  13.014 -0.1037  0.4465 -0.0992
 2727SOL    HW119640   2.983   2.794  13.095  4.9876  0.0613 -0.1095
 2727SOL    HW219641   2.977   2.784  12.941  0.4434  0.7701 -0.4364
 2728SOL     OW19642   2.976   0.536  10.911 -0.6948  0.4088  0.1690
 2728SOL    HW119643   2.993   0.625  10.880 -1.0640 -0.4958 -2.6689
 2728SOL    HW219644   3.041   0.487  10.860  0.9881  1.9681  0.8223
 2729SOL     OW19645   4.134   2.411   8.530  0.3389  0.1546 -0.0085
 2729SOL    HW119646   4.047   2.375   8.550 -0.5104  1.3270 -1.6393
 2729SOL    HW219647   4.155   2.467   8.604 -0.3948 -0.9640  1.0598
 2730SOL     OW19648   4.378   3.564   3.352 -0.4222 -0.4603 -0.1345
 2730SOL    HW119649   4.446   3.514   3.396 -2.4429 -2.8511  0.2529
 2730SOL    HW219650   4.414   3.650   3.374 -1.3911  0.2141 -1.1647
 2731SOL     OW19651   3.078   1.282  13.177 -0.2211 -0.0026 -0.0672
 2731SOL    HW119652   3.149   1.218  13.184  0.0277  0.3703  0.9091
 2731SOL    HW219653   3.058   1.281  13.271 -0.4766 -0.9440 -0.1384
 2732SOL     OW19654   2.719   3.344  13.159 -0.1616 -1.1907  0.0679
 2732SOL    HW119655   2.794   3.361  13.102 -0.0160 -0.8163  0.3710
 2732SOL    HW219656   2.648   3.369  13.100 -0.9199 -0.3783  1.3134
 2733SOL     OW19657   1.663   3.869   7.504  0.7828  0.4320 -0.0654
 2733SOL    HW119658   1.701   3.839   7.421 -0.8171  0.1584 -0.6962
 2733SOL    HW219659   1.658   3.781   7.543  0.0795  0.7221  0.4928
 2734SOL     OW19660   4.587   3.033   6.556  0.0250 -0.0880 -0.0795
 2734SOL    HW119661   4.613   3.108   6.610 -1.7870  0.7103 -0.3048
 2734SOL    HW219662   4.525   3.077   6.498 -0.3628 -1.1148 -0.4544
 2735SOL     OW19663   2.174   4.353   1.168  0.1677 -0.1130 -0.6494
 2735SOL    HW119664   2.107   4.411   1.132  1.2197  2.0289  0.7892
 2735SOL    HW219665   2.204   4.413   1.236 -0.9594  0.1320 -0.3771
 2736SOL     OW19666   1.303   3.577   6.142  0.6916  0.1528 -0.5283
 2736SOL    HW119667   1.255   3.658   6.123  1.7180  0.9727  0.3949
 2736SOL    HW219668   1.361   3.607   6.212  1.8938  0.7424 -1.7700
 2737SOL     OW19669   3.954   3.965   3.806  0.1183 -0.4636 -0.5647
 2737SOL    HW119670   3.871   3.934   3.843  0.9750 -0.5685  1.2692
 2737SOL    HW219671   4.004   3.982   3.886  0.1252  2.0627 -1.0887
 2738SOL     OW19672   4.085   2.324   7.405  0.2466 -0.2039  0.4431
 2738SOL    HW119673   4.116   2.234   7.398 -2.0898 -0.8793 -1.3142
 2738SOL    HW219674   4.147   2.365   7.344  0.7674 -0.0824  1.0532
 2739SOL     OW19675   1.899   2.459   2.146 -0.0592 -0.1866 -0.0592
 2739SOL    HW119676   1.973   2.458   2.206  1.5975  0.2903 -2.0648
 2739SOL    HW219677   1.856   2.375   2.162 -0.0097 -0.6536 -2.2553
 2740SOL     OW19678   0.773   0.616   7.260  0.2782 -0.4295 -0.6684
 2740SOL    HW119679   0.721   0.680   7.211  1.1580  1.9666  1.5405
 2740SOL    HW219680   0.766   0.667   7.341 -0.4449  0.7139 -1.4476
 2741SOL     OW19681   1.567   2.585   6.157 -0.6582  0.6644 -0.4394
 2741SOL    HW119682   1.582   2.533   6.236 -1.6518  2.2553  0.7918
 2741SOL    HW219683   1.496   2.537   6.115 -1.0232 -1.3251  2.4058
 2742SOL     OW19684   1.515   1.162   0.771  0.2957 -0.6052 -0.3809
 2742SOL    HW119685   1.473   1.205   0.845  0.6643 -1.6882  0.4473
 2742SOL    HW219686   1.592   1.218   0.761  0.3306 -0.4416  0.8694
 2743SOL     OW19687   1.946   4.679  16.147 -0.1112 -0.5195  0.0734
 2743SOL    HW119688   1.911   4.662  16.235 -0.8092 -1.6870 -0.4234
 2743SOL    HW219689   1.936   4.594  16.103  0.7470 -2.0349  2.7400
 2744SOL     OW19690   3.765   3.136   6.433 -0.4366  0.0489 -0.0429
 2744SOL    HW119691   3.720   3.061   6.471  0.7307 -1.1439 -0.9868
 2744SOL    HW219692   3.698   3.191   6.393 -2.1588 -2.3759 -0.4957
 2745SOL     OW19693   4.693   2.273   3.234  0.7391 -0.3650 -0.1840
 2745SOL    HW119694   4.669   2.338   3.299 -0.0529 -1.5928  0.7452
 2745SOL    HW219695   4.659   2.330   3.165 -1.4416  2.2259  3.0373
 2746SOL     OW19696   0.766   0.420   2.294  0.2756 -0.2999  0.1084
 2746SOL    HW119697   0.815   0.400   2.214 -0.5668  0.7858 -0.6825
 2746SOL    HW219698   0.675   0.407   2.269  1.2705 -4.3702 -1.3155
 2747SOL     OW19699   0.148   3.224   5.153 -0.0468 -0.0281  0.4045
 2747SOL    HW119700   0.167   3.146   5.204 -0.6209 -0.0384  0.5959
 2747SOL    HW219701   0.090   3.176   5.093  1.4772 -0.6823 -0.5537
 2748SOL     OW19702   0.530   3.213   4.196  0.0133  0.1479  0.1171
 2748SOL    HW119703   0.497   3.269   4.267  1.7697  1.1782  0.1111
 2748SOL    HW219704   0.531   3.131   4.244  0.1229  0.7077  1.0680
 2749SOL     OW19705   4.333   1.018   6.796  0.1850  0.7789  0.0197
 2749SOL    HW119706   4.401   1.047   6.736 -1.2955 -0.1180 -2.0971
 2749SOL    HW219707   4.264   1.074   6.760  0.9090  0.9544 -1.0757
 2750SOL     OW19708   4.301   1.775   7.475 -0.6047 -0.1547  0.1900
 2750SOL    HW119709   4.370   1.823   7.521 -0.0203 -0.1163 -0.7226
 2750SOL    HW219710   4.228   1.812   7.525 -1.2074 -1.5382  0.3167
 2751SOL     OW19711   2.848   2.554   5.317 -0.3022 -0.1015 -0.4047
 2751SOL    HW119712   2.783   2.605   5.269 -2.2205  0.4153  2.7412
 2751SOL    HW219713   2.902   2.626   5.352 -0.3044  0.5273 -1.6990
 2752SOL     OW19714   2.972   2.188   9.021  0.3655  0.0413 -0.0181
 2752SOL    HW119715   2.912   2.163   9.092  0.8769 -1.2079 -0.0226
 2752SOL    HW219716   2.988   2.281   9.038  0.8526 -0.3415  1.5906
 2753SOL     OW19717   4.416   1.251   2.536 -0.3425  0.6012  0.2512
 2753SOL    HW119718   4.470   1.199   2.595 -0.7803 -1.2486 -0.9895
 2753SOL    HW219719   4.371   1.302   2.602 -3.3705 -0.4448 -1.0026
 2754SOL     OW19720   2.267   3.686   3.342  0.3203 -0.1353  0.2654
 2754SOL    HW119721   2.238   3.698   3.432  0.4749  3.1797 -0.0993
 2754SOL    HW219722   2.186   3.676   3.293  0.4518 -1.3894  0.3198
 2755SOL     OW19723   3.260   3.003   5.843 -0.2978  0.2513 -0.0541
 2755SOL    HW119724   3.344   3.019   5.887 -0.5927  0.2749  0.5019
 2755SOL    HW219725   3.269   2.915   5.807  1.7042 -0.2457  1.6450
 2756SOL     OW19726   4.680   1.468   8.121 -0.1405  0.1069  0.0591
 2756SOL    HW119727   4.707   1.376   8.124  1.9958  0.7085 -0.7928
 2756SOL    HW219728   4.693   1.485   8.028 -0.2692  1.4137  0.2839
 2757SOL     OW19729   0.842   2.275  10.636 -0.3014  0.4916 -0.2071
 2757SOL    HW119730   0.825   2.237  10.722  0.7477  1.1423  0.2923
 2757SOL    HW219731   0.936   2.288  10.652 -0.1817  0.8153 -1.1777
 2758SOL     OW19732   4.603   4.037   4.821 -0.2054 -0.2174 -0.1545
 2758SOL    HW119733   4.594   4.106   4.755  0.9761 -0.0813 -0.1652
 2758SOL    HW219734   4.698   4.035   4.823 -0.2239  0.6641  1.6488
 2759SOL     OW19735   4.314   0.925   7.454 -0.3910  0.6292 -0.0201
 2759SOL    HW119736   4.301   0.978   7.375  2.6920  0.6214 -0.5368
 2759SOL    HW219737   4.372   0.975   7.512 -0.1336  1.8346 -1.3008
 2760SOL     OW19738   1.890   2.937   3.001  0.3182 -0.0271 -0.2884
 2760SOL    HW119739   1.905   2.977   2.916 -4.2118 -0.5211 -1.3310
 2760SOL    HW219740   1.973   2.945   3.049 -1.0098 -1.9431  2.3170
 2761SOL     OW19741   2.347   3.684   4.049 -0.1094 -0.0478  0.1390
 2761SOL    HW119742   2.274   3.637   4.089 -0.3849 -2.5013 -3.3448
 2761SOL    HW219743   2.359   3.656   3.959  1.7132  1.2954 -0.0499
 2762SOL     OW19744   3.922   1.885  11.082 -0.5144 -0.5944 -0.2968
 2762SOL    HW119745   4.003   1.842  11.054  0.6382  0.7179  1.0840
 2762SOL    HW219746   3.952   1.973  11.103  0.9669 -0.9752 -0.8139
 2763SOL     OW19747   2.017   3.301   5.711  0.0637  0.4398  0.3989
 2763SOL    HW119748   1.984   3.336   5.628 -0.2924  1.5729  1.0019
 2763SOL    HW219749   2.068   3.230   5.674 -4.5794 -1.0640 -3.1917
 2764SOL     OW19750   1.229   0.803   7.600 -0.0092 -0.0444  0.3518
 2764SOL    HW119751   1.249   0.888   7.561 -0.7438 -0.0015  0.0580
 2764SOL    HW219752   1.307   0.750   7.587 -0.4663 -1.2368  2.5013
 2765SOL     OW19753   2.578   2.740   8.643 -0.4004  0.3692 -0.3539
 2765SOL    HW119754   2.569   2.732   8.738 -1.1365 -1.3998 -0.5842
 2765SOL    HW219755   2.484   2.732   8.625  0.0395  0.3928 -2.7489
 2766SOL     OW19756   1.239   0.969   2.700 -0.3997  0.3338 -0.2267
 2766SOL    HW119757   1.287   0.941   2.621  0.9579 -1.2718  1.1503
 2766SOL    HW219758   1.150   0.971   2.665  0.4926 -2.5347 -2.6234
 2767SOL     OW19759   4.245   4.307   7.447 -0.0967  0.1394 -0.0180
 2767SOL    HW119760   4.333   4.283   7.419 -0.3911  1.4577 -2.0371
 2767SOL    HW219761   4.269   4.374   7.511 -1.5975  0.3793  0.2799
 2768SOL     OW19762   0.312   2.745  12.496  0.2120 -0.3407 -0.4166
 2768SOL    HW119763   0.225   2.766  12.463  0.2402  2.6631  1.4329
 2768SOL    HW219764   0.293   2.672  12.556  0.0682  0.2647  0.2805
 2769SOL     OW19765   4.652   1.332   4.218  0.7087 -0.2432  0.5783
 2769SOL    HW119766   4.678   1.403   4.158  1.3000 -0.5296  0.4894
 2769SOL    HW219767   4.591   1.383   4.271 -1.6490 -0.2133 -2.1752
 2770SOL     OW19768   4.368   3.375   2.026  0.3437  0.3888 -0.5836
 2770SOL    HW119769   4.284   3.342   1.994  0.8214 -1.9759  0.5829
 2770SOL    HW219770   4.379   3.460   1.984 -0.5686 -0.1155 -1.8168
 2771SOL     OW19771   4.357   3.382   6.284 -0.5592  0.2876 -0.2013
 2771SOL    HW119772   4.387   3.473   6.279 -3.2897  1.0862 -1.9236
 2771SOL    HW219773   4.264   3.392   6.263 -0.9302 -2.4972  0.1231
 2772SOL     OW19774   2.310   3.545   4.953 -0.6086 -0.5796 -0.0540
 2772SOL    HW119775   2.347   3.523   5.038  1.8295  2.5667 -0.2657
 2772SOL    HW219776   2.258   3.467   4.934  0.2082 -0.6362 -2.0459
 2773SOL     OW19777   1.201   2.556   3.521  0.5742  0.6267  0.1226
 2773SOL    HW119778   1.191   2.607   3.441 -1.7192 -0.4966 -0.3147
 2773SOL    HW219779   1.127   2.592   3.570  0.6839  0.2574  0.5574
 2774SOL     OW19780   0.286   1.234   8.361  0.1095  0.4314  0.1867
 2774SOL    HW119781   0.200   1.207   8.329 -0.2997  1.1326  0.6846
 2774SOL    HW219782   0.333   1.263   8.283 -1.7878  0.9092 -0.7817
 2775SOL     OW19783   3.750   3.476  16.878 -0.4253  0.1796 -0.0476
 2775SOL    HW119784   3.695   3.534  16.930 -1.7721 -0.1986 -1.0356
 2775SOL    HW219785   3.713   3.389  16.891  0.9391 -0.3730  0.2056
 2776SOL     OW19786   3.458   3.688  17.364 -0.6260 -0.0307 -0.2872
 2776SOL    HW119787   3.461   3.622  17.433 -0.9422  1.1116  0.8138
 2776SOL    HW219788   3.366   3.695  17.342 -0.1316  1.6592 -1.8441
 2777SOL     OW19789   3.063   2.597  17.045 -0.3539 -0.0506  0.0262
 2777SOL    HW119790   3.102   2.627  16.963  3.1552 -2.2484  0.9177
 2777SOL    HW219791   2.973   2.583  17.015 -1.6667  1.8046  3.0152
 2778SOL     OW19792   0.143   4.388   9.641 -0.7156  0.1000 -0.1349
 2778SOL    HW119793   0.052   4.402   9.664 -0.3731 -0.0256  1.3265
 2778SOL    HW219794   0.143   4.335   9.562 -0.3856  2.8169 -1.9500
 2779SOL     OW19795   1.881   2.836   8.345  0.3723 -0.0946  0.1190
 2779SOL    HW119796   1.933   2.768   8.387 -1.5834 -1.7600 -0.1570
 2779SOL    HW219797   1.898   2.904   8.409  0.6726  0.1908 -0.2622
 2780SOL     OW19798   3.050   1.372   8.873 -0.3342  0.2234 -0.4048
 2780SOL    HW119799   3.016   1.438   8.812  0.4264  2.1868  1.2833
 2780SOL    HW219800   3.072   1.419   8.953  1.1501  1.5079 -1.5675
 2781SOL     OW19801   3.228   2.900   5.058  0.0219  0.2211  0.1868
 2781SOL    HW119802   3.299   2.836   5.051 -1.8332 -1.6559 -1.3528
 2781SOL    HW219803   3.270   2.984   5.039  0.9589 -0.6395 -1.6687
 2782SOL     OW19804   2.493   0.796   7.761 -0.1424 -0.3680  0.7750
 2782SOL    HW119805   2.505   0.750   7.678  0.2419  0.2290  0.4984
 2782SOL    HW219806   2.566   0.858   7.759 -1.2695  0.8637 -2.2894
 2783SOL     OW19807   3.657   0.094   1.262 -0.1419 -0.4689 -0.2179
 2783SOL    HW119808   3.734   0.070   1.211  0.0810  0.4297 -0.3090
 2783SOL    HW219809   3.603   0.128   1.191 -1.9178  0.6656  1.6873
 2784SOL     OW19810   2.550   2.436  13.238 -1.1586  0.5030 -0.0894
 2784SOL    HW119811   2.571   2.343  13.244  1.7608  1.2388  1.1820
 2784SOL    HW219812   2.490   2.455  13.310  0.0445 -1.1388  1.3481
 2785SOL     OW19813   2.203   1.230   4.751 -0.0537 -0.1021  0.3382
 2785SOL    HW119814   2.146   1.305   4.736 -1.8374 -1.4879  0.3334
 2785SOL    HW219815   2.282   1.280   4.771 -1.6135  2.6927 -0.5577
 2786SOL     OW19816   3.709   1.898   6.876 -0.0700  0.4452 -0.0934
 2786SOL    HW119817   3.719   1.803   6.878 -0.5370  0.4110  1.1884
 2786SOL    HW219818   3.621   1.916   6.842 -0.0172 -0.7866 -0.8664
 2787SOL     OW19819   1.034   1.229   5.932 -0.0125 -0.4679  0.0182
 2787SOL    HW119820   0.962   1.204   5.990 -0.3762  1.8664  0.5976
 2787SOL    HW219821   1.021   1.324   5.932  1.8793 -0.2089 -2.4144
 2788SOL     OW19822   1.291   0.263  14.886  0.4547 -0.4331  0.1168
 2788SOL    HW119823   1.258   0.221  14.806  4.0693 -1.9807 -0.5774
 2788SOL    HW219824   1.260   0.201  14.951  1.7425  2.0433  3.0667
 2789SOL     OW19825   2.666   2.108   2.427 -0.6573 -0.2980 -0.1103
 2789SOL    HW119826   2.711   2.180   2.383 -0.0164 -1.1373 -0.8162
 2789SOL    HW219827   2.670   2.151   2.512  4.4996 -0.2399 -0.4293
 2790SOL     OW19828   0.588   1.863   1.096  0.0339 -0.0958  0.3232
 2790SOL    HW119829   0.668   1.913   1.110 -0.1186  0.2244  0.0510
 2790SOL    HW219830   0.627   1.828   1.016 -0.8606  2.5218 -1.2623
 2791SOL     OW19831   0.112   2.779   3.339 -0.5775  0.0951  0.6479
 2791SOL    HW119832   0.182   2.719   3.365 -0.9258  0.0190  1.3757
 2791SOL    HW219833   0.083   2.785   3.430 -0.8109 -2.0329  0.7299
 2792SOL     OW19834   1.690   2.310   1.054  0.3608  0.2389 -0.0169
 2792SOL    HW119835   1.754   2.320   1.124  3.1381 -0.0867 -2.5403
 2792SOL    HW219836   1.609   2.280   1.096  1.0525 -1.9503 -0.2545
 2793SOL     OW19837   3.489   3.568   7.265 -0.0689  0.0794 -0.1991
 2793SOL    HW119838   3.505   3.507   7.337 -1.8535  1.8761  1.7107
 2793SOL    HW219839   3.394   3.573   7.256 -0.1613  1.5051  1.5716
 2794SOL     OW19840   0.579   0.356   5.823 -0.1762  0.7184 -0.1330
 2794SOL    HW119841   0.653   0.376   5.766  1.3222 -2.7488  0.6437
 2794SOL    HW219842   0.508   0.400   5.775  0.4200  1.3796 -0.4090
 2795SOL     OW19843   2.289   3.750   2.052 -0.2507  0.2843  1.0584
 2795SOL    HW119844   2.238   3.674   2.024  2.3587 -1.1010 -0.0492
 2795SOL    HW219845   2.262   3.817   1.989  0.9634  0.6619  0.9376
 2796SOL     OW19846   1.217   1.148  13.914 -0.0666 -0.0097  0.3007
 2796SOL    HW119847   1.172   1.233  13.916  0.8973  0.4768  1.4774
 2796SOL    HW219848   1.278   1.163  13.986 -0.5089  0.8024  0.5076
 2797SOL     OW19849   1.226   1.128  12.986  0.1737 -0.4550 -0.3648
 2797SOL    HW119850   1.166   1.117  13.060  1.0281  2.2246  0.7444
 2797SOL    HW219851   1.297   1.178  13.028 -1.1097  1.5410 -0.5785
 2798SOL     OW19852   3.737   2.960  16.492  0.1593  0.8570  0.2808
 2798SOL    HW119853   3.688   2.968  16.410  1.9900  0.2185 -0.8536
 2798SOL    HW219854   3.701   2.887  16.543  0.7699  0.3385 -0.0395
 2799SOL     OW19855   3.354   0.811   3.145 -0.2437 -0.2518 -0.0719
 2799SOL    HW119856   3.401   0.809   3.228 -0.0696 -2.1252 -0.2352
 2799SOL    HW219857   3.353   0.717   3.130  3.5891 -0.5578  1.7244
 2800SOL     OW19858   3.307   2.255   1.167 -0.3554 -0.3668  0.2528
 2800SOL    HW119859   3.216   2.230   1.179 -0.2939 -0.5058  0.4255
 2800SOL    HW219860   3.346   2.168   1.158 -3.7140 -1.7959 -0.4857
 2801SOL     OW19861   4.311   1.990  12.566 -0.3431  0.3707  0.1789
 2801SOL    HW119862   4.247   1.990  12.637 -0.7197  0.8741 -0.1508
 2801SOL    HW219863   4.394   1.990  12.613 -1.2445 -1.1078  1.7501
 2802SOL     OW19864   3.673   3.975  10.843  0.0120  0.1439  0.1874
 2802SOL    HW119865   3.651   3.884  10.824 -0.3624  0.5578 -1.3424
 2802SOL    HW219866   3.686   3.968  10.938 -1.9935 -1.2465  0.3597
 2803SOL     OW19867   1.136   1.150   2.375  0.0515 -0.0617 -0.1647
 2803SOL    HW119868   1.043   1.130   2.369  0.4724 -1.4942 -2.1059
 2803SOL    HW219869   1.136   1.228   2.318  1.3635  1.0787  1.4057
 2804SOL     OW19870   2.732   1.053  15.136 -0.1554  0.2151 -0.1930
 2804SOL    HW119871   2.799   1.000  15.178 -0.9165 -1.0420 -0.5579
 2804SOL    HW219872   2.679   1.053  15.216  2.1190  0.5967  1.3153
 2805SOL     OW19873   3.317   1.847   5.601  0.4276 -0.1388 -0.0215
 2805SOL    HW119874   3.404   1.807   5.606  0.4472 -0.4352 -2.8507
 2805SOL    HW219875   3.332   1.900   5.522  1.3141  1.6035  1.3150
 2806SOL     OW19876   1.046   2.185  14.147 -0.4321 -0.3239 -0.7505
 2806SOL    HW119877   0.996   2.261  14.118 -1.6791 -0.8840 -0.0296
 2806SOL    HW219878   0.982   2.116  14.129 -0.5664 -0.1451 -0.9576
 2807SOL     OW19879   4.116   1.293   4.630 -0.4679  0.2979  0.2406
 2807SOL    HW119880   4.109   1.201   4.655  0.2383  0.2686  0.3294
 2807SOL    HW219881   4.136   1.273   4.538  0.4592 -0.1857  0.5444
 2808SOL     OW19882   2.505   4.067   7.979 -0.0720 -0.8134  0.1535
 2808SOL    HW119883   2.470   4.012   8.049  2.0107 -1.2058  0.9056
 2808SOL    HW219884   2.427   4.120   7.962  0.8607  0.1287 -1.1653
 2809SOL     OW19885   0.898   4.046   4.746 -0.6576 -0.2239  0.1171
 2809SOL    HW119886   0.845   4.091   4.681  0.1348  0.5399 -0.0000
 2809SOL    HW219887   0.913   4.116   4.809  0.7926 -1.4292  1.1194
 2810SOL     OW19888   0.244   0.891   8.067  0.1793 -0.1039 -0.0346
 2810SOL    HW119889   0.253   0.813   8.013 -1.6434  0.7232 -1.5367
 2810SOL    HW219890   0.273   0.850   8.148  2.9009  2.4088  0.2549
 2811SOL     OW19891   0.953   3.104   9.687 -0.1876 -0.0606  0.1162
 2811SOL    HW119892   0.887   3.043   9.655 -0.9957  0.7938  0.1320
 2811SOL    HW219893   0.959   3.071   9.777 -0.7199  2.1700  0.9738
 2812SOL     OW19894   1.764   3.189   4.610  0.2010  0.0619  0.6598
 2812SOL    HW119895   1.771   3.265   4.552  0.2621  0.1045  0.7232
 2812SOL    HW219896   1.704   3.225   4.674  0.5284 -0.5480  1.3123
 2813SOL     OW19897   4.087   0.118   7.257 -0.0695 -0.0073 -0.8216
 2813SOL    HW119898   4.098   0.072   7.341 -1.2574 -2.8438 -2.2223
 2813SOL    HW219899   4.169   0.165   7.243  0.0954 -0.2030 -0.5281
 2814SOL     OW19900   4.381   3.173   5.311  0.2050 -0.1881 -0.4250
 2814SOL    HW119901   4.458   3.116   5.310  0.4005  0.0517  0.9024
 2814SOL    HW219902   4.399   3.242   5.375  1.7905 -1.5851  0.6316
 2815SOL     OW19903   0.132   2.250  13.564  0.2933 -0.0660 -0.2404
 2815SOL    HW119904   0.131   2.214  13.653  1.5720 -0.7634 -0.5042
 2815SOL    HW219905   0.216   2.216  13.534  1.0428 -0.1269  1.9321
 2816SOL     OW19906   0.066   2.103   1.125  0.6529  0.2058  0.0540
 2816SOL    HW119907   0.132   2.084   1.192 -0.7215  0.0746  1.3732
 2816SOL    HW219908   4.712   2.058   1.159  1.8081 -0.9448  1.1342
 2817SOL     OW19909   3.293   2.856  17.060  0.3848 -0.3810  0.0025
 2817SOL    HW119910   3.288   2.942  17.102 -1.0654  0.6028 -2.1798
 2817SOL    HW219911   3.212   2.818  17.092 -0.9318  1.6505 -0.9131
 2818SOL     OW19912   1.775   4.517   5.558 -0.7143 -0.2557  0.0529
 2818SOL    HW119913   1.864   4.509   5.523 -1.3188  2.1270 -2.0138
 2818SOL    HW219914   1.743   4.427   5.548 -1.6263  0.0072  0.6924
 2819SOL     OW19915   3.231   2.602   1.729 -0.2955  0.2860 -0.4143
 2819SOL    HW119916   3.279   2.584   1.648 -0.5032  0.2722 -0.5341
 2819SOL    HW219917   3.139   2.605   1.704 -0.5170  0.5746  0.4244
 2820SOL     OW19918   3.075   4.543   0.542  0.2248  0.0939  0.0855
 2820SOL    HW119919   3.155   4.491   0.540  0.0999 -0.1469  1.7405
 2820SOL    HW219920   3.009   4.475   0.529 -0.3433  1.0722 -2.2987
 2821SOL     OW19921   4.133   3.723   7.630  1.0697 -0.4643  0.0779
 2821SOL    HW119922   4.159   3.815   7.638  0.4602 -0.2940  0.0468
 2821SOL    HW219923   4.208   3.666   7.646  0.6061 -1.0503  0.1404
 2822SOL     OW19924   0.351   4.076   9.905  0.4014  0.2472 -0.1539
 2822SOL    HW119925   0.303   4.008   9.953 -1.8485  2.7873  1.2034
 2822SOL    HW219926   0.302   4.151   9.938  0.9776 -0.1493  1.5983
 2823SOL     OW19927   0.680   2.855   0.746 -0.5696  0.4828  0.4584
 2823SOL    HW119928   0.611   2.888   0.804  0.8297 -2.1602  3.6665
 2823SOL    HW219929   0.668   2.762   0.765  0.6684  0.8434  3.0219
 2824SOL     OW19930   3.948   0.628   0.592  0.3687 -0.1687 -0.7435
 2824SOL    HW119931   3.865   0.656   0.554 -0.7733 -0.8795  1.2751
 2824SOL    HW219932   3.979   0.708   0.634  1.2846 -1.7124  1.5060
 2825SOL     OW19933   1.585   1.170   7.353  0.0767  0.7535 -0.3191
 2825SOL    HW119934   1.544   1.233   7.413 -0.6065  1.0571 -1.1093
 2825SOL    HW219935   1.577   1.229   7.278  0.2032  0.1798 -0.7765
 2826SOL     OW19936   0.517   2.840   3.444  0.2114 -0.1532  0.7672
 2826SOL    HW119937   0.563   2.761   3.416  0.7898  0.2855  0.4817
 2826SOL    HW219938   0.468   2.864   3.365  1.1276  0.3249  0.3550
 2827SOL     OW19939   2.110   4.554  10.292  0.8865  0.5651  0.0039
 2827SOL    HW119940   2.157   4.521  10.216  0.0809  0.5967 -0.5003
 2827SOL    HW219941   2.021   4.520  10.284  1.2604 -0.9282  2.1866
 2828SOL     OW19942   1.194   3.814   2.596  0.0505 -0.2088 -0.6057
 2828SOL    HW119943   1.192   3.897   2.643  3.6306 -1.1211  1.1811
 2828SOL    HW219944   1.270   3.842   2.545  0.6792 -0.6038  0.1115
 2829SOL     OW19945   2.858   0.447   2.891  0.1337  0.3065  0.1396
 2829SOL    HW119946   2.847   0.375   2.952 -0.2786  0.2824  0.0380
 2829SOL    HW219947   2.915   0.399   2.831  0.6724  2.6156 -1.2232
 2830SOL     OW19948   1.454   1.188   2.633  0.0142  0.3411  0.3982
 2830SOL    HW119949   1.508   1.116   2.666  0.4972  0.0713 -1.0186
 2830SOL    HW219950   1.386   1.137   2.589 -0.1302  0.3702  0.5824
 2831SOL     OW19951   3.856   3.271   9.586 -0.0118 -0.6817 -0.0691
 2831SOL    HW119952   3.771   3.255   9.627 -0.3278 -0.3173 -0.5846
 2831SOL    HW219953   3.908   3.193   9.607 -0.7479 -0.1199  3.8394
 2832SOL     OW19954   3.471   2.271   7.967  0.6014  0.6779  0.9784
 2832SOL    HW119955   3.415   2.193   7.976  0.9437  0.3730  0.4529
 2832SOL    HW219956   3.413   2.332   8.012  0.3534  0.3626  1.0902
 2833SOL     OW19957   3.992   1.561   5.869  0.3883  0.0684  0.2564
 2833SOL    HW119958   3.925   1.561   5.801  0.0743 -0.6139  0.5570
 2833SOL    HW219959   4.018   1.653   5.877  1.2874  0.0547 -2.5257
 2834SOL     OW19960   0.997   3.925  13.430  0.1880  0.8216 -0.2480
 2834SOL    HW119961   0.997   4.020  13.439  2.2094  0.4116  3.8829
 2834SOL    HW219962   0.951   3.903  13.511 -3.7604  1.8584 -2.2113
 2835SOL     OW19963   4.322   2.985  10.819 -0.1583 -0.0806  0.2137
 2835SOL    HW119964   4.260   2.920  10.853 -1.8412  1.2755 -0.2380
 2835SOL    HW219965   4.409   2.954  10.841  0.2249  0.4115 -0.5932
 2836SOL     OW19966   0.102   4.710   9.798 -0.0574 -0.5527  0.3312
 2836SOL    HW119967   0.041   0.052   9.762 -0.4717 -0.3240  1.4548
 2836SOL    HW219968   0.185   0.034   9.799  0.6482 -1.7736 -0.0998
 2837SOL     OW19969   1.283   1.571  14.195  0.2192 -0.2929  0.0907
 2837SOL    HW119970   1.348   1.576  14.265  2.0804  1.0073 -1.7195
 2837SOL    HW219971   1.340   1.543  14.123  0.0403  0.8592 -0.4848
 2838SOL     OW19972   3.807   3.423   2.143 -0.9670 -0.1349  0.2381
 2838SOL    HW119973   3.813   3.341   2.094  1.1146  0.0459  0.1842
 2838SOL    HW219974   3.723   3.409   2.188 -0.6598  0.1540  0.8959
 2839SOL     OW19975   2.127   3.167  13.846 -0.0015 -0.5124 -0.0881
 2839SOL    HW119976   2.214   3.205  13.833  0.7659 -2.5811 -1.0570
 2839SOL    HW219977   2.133   3.163  13.942 -3.3518 -2.2734  0.0478
 2840SOL     OW19978   2.529   4.719   5.598  0.3248 -0.2857  0.2244
 2840SOL    HW119979   2.556   4.663   5.525 -0.9546 -0.7150  0.0635
 2840SOL    HW219980   2.615   0.007   5.638  1.6549  0.8942 -2.9983
 2841SOL     OW19981   3.253   4.255  12.953 -0.1952  0.5612 -0.5633
 2841SOL    HW119982   3.191   4.313  12.998 -0.3387 -1.2699  1.6472
 2841SOL    HW219983   3.339   4.274  12.991 -0.8403  1.9491  0.2060
 2842SOL     OW19984   3.632   0.072   2.051  0.1216 -0.8583 -0.3041
 2842SOL    HW119985   3.664   4.716   2.009 -4.0987 -2.1669 -0.9978
 2842SOL    HW219986   3.607   0.043   2.139  0.6710  0.3501  0.2491
 2843SOL     OW19987   3.515   0.681  11.128 -0.3700  0.0899  0.0075
 2843SOL    HW119988   3.590   0.663  11.071  0.7472  0.5008  1.3423
 2843SOL    HW219989   3.451   0.626  11.083  0.7377 -0.5723 -0.7749
 2844SOL     OW19990   2.407   2.452   8.941  0.9116  0.1987  0.6466
 2844SOL    HW119991   2.462   2.521   8.905  1.9298 -0.4930  0.8673
 2844SOL    HW219992   2.472   2.383   8.954 -0.4948 -1.6086 -1.9634
 2845SOL     OW19993   1.865   4.233   1.285 -0.2339 -0.1893  0.3467
 2845SOL    HW119994   1.902   4.305   1.335 -0.8737 -1.0245  2.0345
 2845SOL    HW219995   1.787   4.225   1.341 -0.7351  0.3674 -0.2637
 2846SOL     OW19996   0.534   3.298   9.727  0.0252 -0.4795 -0.0490
 2846SOL    HW119997   0.504   3.331   9.812 -1.1666  0.0863 -0.6884
 2846SOL    HW219998   0.622   3.334   9.725  0.2558 -1.0380  0.3239
 2847SOL     OW19999   0.408   0.187   5.433  0.2395  0.1803 -0.4975
 2847SOL    HW120000   0.361   0.254   5.383  0.7511  1.8580  1.2710
 2847SOL    HW220001   0.346   0.166   5.503  2.1016  6.1008  2.8062
 2848SOL     OW20002   3.331   3.678   8.786 -0.2807  0.0935 -0.2149
 2848SOL    HW120003   3.259   3.697   8.847 -0.7594 -0.5145 -0.5970
 2848SOL    HW220004   3.312   3.589   8.758  1.1407 -0.3704  0.2645
 2849SOL     OW20005   4.298   1.878   5.393 -0.2154 -0.3511  0.0797
 2849SOL    HW120006   4.241   1.843   5.462 -0.7829 -1.1295 -0.7745
 2849SOL    HW220007   4.354   1.934   5.446 -1.1697 -0.9607  1.7064
 2850SOL     OW20008   0.891   1.557   2.252  0.0356  0.1358 -0.3856
 2850SOL    HW120009   0.917   1.627   2.192  1.6759 -0.4979 -0.4034
 2850SOL    HW220010   0.826   1.513   2.197  1.3129 -2.2240  0.0022
 2851SOL     OW20011   4.666   1.080   4.092 -0.1501 -0.2714  0.1634
 2851SOL    HW120012   4.654   1.165   4.134 -2.5781 -1.1551  1.2892
 2851SOL    HW220013   4.631   1.086   4.003  1.2060 -2.3238 -0.4988
 2852SOL     OW20014   2.729   3.927  12.005 -0.0722 -0.2763  0.5624
 2852SOL    HW120015   2.646   3.927  12.052  0.3922  1.1613  1.3988
 2852SOL    HW220016   2.726   4.013  11.963  0.6036 -1.9554 -2.9910
 2853SOL     OW20017   4.190   1.298  15.732  0.0060 -0.3074 -0.4189
 2853SOL    HW120018   4.123   1.282  15.666  3.1312  2.4105 -4.1818
 2853SOL    HW220019   4.268   1.323  15.683  0.3300  2.3094  1.4517
 2854SOL     OW20020   0.507   4.487  15.872 -0.0708  0.1119  0.2876
 2854SOL    HW120021   0.488   4.430  15.797 -0.8808  2.4896 -1.3096
 2854SOL    HW220022   0.577   4.543  15.838 -1.1476  0.1173 -1.9063
 2855SOL     OW20023   3.626   0.937   6.289  0.7218 -0.4387  0.5530
 2855SOL    HW120024   3.648   0.933   6.382 -0.4776 -0.4454  0.8367
 2855SOL    HW220025   3.579   0.855   6.275  0.6301 -0.4267  0.7912
 2856SOL     OW20026   2.249   3.514   9.019  0.2559  0.1866  0.2283
 2856SOL    HW120027   2.233   3.473   8.934  0.1092  3.1248 -1.1505
 2856SOL    HW220028   2.171   3.568   9.029  0.0236  0.0054 -0.6683
 2857SOL     OW20029   0.654   0.483   9.851 -0.4927  0.2416 -0.4789
 2857SOL    HW120030   0.690   0.571   9.849  1.0001 -0.3904 -1.6939
 2857SOL    HW220031   0.697   0.435   9.780 -0.1074  1.1756 -0.8764
 2858SOL     OW20032   2.945   0.910   5.570 -0.5139  0.4424 -0.3918
 2858SOL    HW120033   3.029   0.953   5.552 -0.1258 -0.1362  0.0368
 2858SOL    HW220034   2.917   0.949   5.652  3.0778  0.3903  0.8625
 2859SOL     OW20035   1.648   1.536   9.782  0.8781  0.4533  0.1759
 2859SOL    HW120036   1.571   1.559   9.835 -0.7491  1.6398 -2.7228
 2859SOL    HW220037   1.715   1.595   9.815 -0.7520  2.0528  0.6412
 2860SOL     OW20038   2.167   3.364   4.613 -0.1221 -0.3801 -0.6307
 2860SOL    HW120039   2.125   3.445   4.584 -2.7812 -0.6956  2.3686
 2860SOL    HW220040   2.242   3.363   4.553  0.8031  1.1252  0.4939
 2861SOL     OW20041   3.395   0.436   9.565 -0.2106 -0.2860  0.3999
 2861SOL    HW120042   3.323   0.377   9.541  1.7792 -2.0927 -1.0909
 2861SOL    HW220043   3.379   0.508   9.504  2.3543  1.3143  1.6330
 2862SOL     OW20044   1.248   2.489  14.154 -0.6171 -0.1735  0.1781
 2862SOL    HW120045   1.172   2.444  14.190 -0.7818  0.6855  0.9114
 2862SOL    HW220046   1.220   2.581  14.149  1.9073  0.4297 -2.5368
 2863SOL     OW20047   4.390   4.268  17.547  0.2001 -0.5781  0.3260
 2863SOL    HW120048   4.322   4.299  17.606 -0.3347 -0.9670 -0.0813
 2863SOL    HW220049   4.397   4.340  17.483  2.3596  0.8393  2.1462
 2864SOL     OW20050   4.637   0.188   1.837 -0.3816  0.0432  0.4312
 2864SOL    HW120051   4.682   0.109   1.869 -0.9321 -0.6934 -0.6085
 2864SOL    HW220052   4.606   0.155   1.753 -1.7466 -1.7649  1.6356
 2865SOL     OW20053   3.157   1.479   6.976 -0.2780  0.6019  0.6599
 2865SOL    HW120054   3.096   1.541   6.936 -1.0593 -0.8693 -0.3876
 2865SOL    HW220055   3.242   1.514   6.948 -0.4701  0.6690  0.1661
 2866SOL     OW20056   0.687   2.005  13.287 -0.1245  0.0685 -0.2164
 2866SOL    HW120057   0.602   1.961  13.276 -0.9074  0.8899  2.4449
 2866SOL    HW220058   0.747   1.940  13.252  1.0434  0.2282  1.4520
 2867SOL     OW20059   1.297   0.228   2.835 -0.1757 -0.1702 -0.5438
 2867SOL    HW120060   1.314   0.158   2.772  0.1748  0.9839 -1.7136
 2867SOL    HW220061   1.232   0.280   2.789  2.1088  3.1886 -0.0050
 2868SOL     OW20062   4.068   1.047  11.528  0.2752 -0.0760 -0.4945
 2868SOL    HW120063   4.114   1.007  11.602 -0.4435 -0.1620 -0.0935
 2868SOL    HW220064   4.123   1.007  11.461  0.3215  0.5927 -0.8519
 2869SOL     OW20065   0.627   0.810   5.283  0.1874  0.4625 -0.1498
 2869SOL    HW120066   0.703   0.860   5.253  0.3527 -0.4510 -1.2583
 2869SOL    HW220067   0.584   0.889   5.316 -1.6459 -0.0873 -1.2143
 2870SOL     OW20068   2.360   0.905   2.740  0.9349  0.9329  0.0294
 2870SOL    HW120069   2.353   0.953   2.658 -0.6659  1.2768  0.3610
 2870SOL    HW220070   2.430   0.960   2.775  2.9564 -1.2767 -0.5061
 2871SOL     OW20071   4.148   3.643   5.970 -0.0893  0.9100 -0.0188
 2871SOL    HW120072   4.153   3.625   6.064 -2.3667  1.4031  0.1825
 2871SOL    HW220073   4.053   3.640   5.959 -0.1377 -1.1274  1.0078
 2872SOL     OW20074   1.633   0.523  17.547  0.1644  0.0151  0.0796
 2872SOL    HW120075   1.703   0.494  17.488 -0.7224 -1.9481  0.0216
 2872SOL    HW220076   1.628   0.615  17.519 -0.7390  0.2559  1.0404
 2873SOL     OW20077   2.340   2.061   9.091 -0.6273 -1.1473  0.2298
 2873SOL    HW120078   2.327   2.098   9.178  1.2717 -1.2163  0.5368
 2873SOL    HW220079   2.423   2.015   9.107 -0.4871 -0.4640  1.4513
 2874SOL     OW20080   2.767   2.870   6.858 -0.0112  0.0169 -0.0853
 2874SOL    HW120081   2.683   2.866   6.812 -0.4590  0.3708  0.6970
 2874SOL    HW220082   2.791   2.960   6.836 -0.4993  0.3996  0.9409
 2875SOL     OW20083   3.170   1.056   4.899  0.2915  0.3020  0.4210
 2875SOL    HW120084   3.076   1.039   4.903  0.3466 -0.1064  0.0322
 2875SOL    HW220085   3.188   1.021   4.812  1.6920 -2.3170  1.7520
 2876SOL     OW20086   2.238   3.870   8.367 -0.8953  0.5295  0.7965
 2876SOL    HW120087   2.148   3.870   8.399 -0.9084  1.2036  0.7652
 2876SOL    HW220088   2.267   3.788   8.407 -2.9642 -1.3143 -1.4828
 2877SOL     OW20089   2.447   0.054  13.978 -0.1594 -0.4802  0.0011
 2877SOL    HW120090   2.374   0.080  14.035 -0.2425  0.0040 -0.3249
 2877SOL    HW220091   2.523   0.062  14.037  0.2011 -0.8821 -0.4113
 2878SOL     OW20092   2.526   0.537   1.511  0.9857 -0.2358 -0.1177
 2878SOL    HW120093   2.438   0.519   1.542  0.4869 -1.3661 -2.2068
 2878SOL    HW220094   2.544   0.455   1.465 -3.4617 -2.3461  1.8714
 2879SOL     OW20095   3.478   2.268   4.658  0.4555 -0.3889 -0.6474
 2879SOL    HW120096   3.535   2.332   4.616 -0.2289  0.8660  0.3666
 2879SOL    HW220097   3.543   2.198   4.666  0.2810 -0.5280 -0.4510
 2880SOL     OW20098   2.743   2.543  12.964 -0.2586  0.1170  0.2212
 2880SOL    HW120099   2.752   2.615  12.901  0.3161 -0.7627 -0.7149
 2880SOL    HW220100   2.743   2.473  12.898 -1.6485 -0.3173  0.6803
 2881SOL     OW20101   2.146   4.510  15.881 -0.3092  0.7440 -0.5928
 2881SOL    HW120102   2.102   4.425  15.871  0.6983  0.0845  0.4835
 2881SOL    HW220103   2.095   4.544  15.955 -0.5608  0.9457 -0.8606
 2882SOL     OW20104   3.760   0.810  15.172 -0.6219  0.8574 -0.0625
 2882SOL    HW120105   3.796   0.813  15.260  2.4553  1.2369 -1.3416
 2882SOL    HW220106   3.707   0.731  15.171  1.3501 -0.4596 -1.2909
 2883SOL     OW20107   3.059   3.567   7.854 -0.3016 -0.3034  0.0779
 2883SOL    HW120108   3.138   3.516   7.840 -0.8034 -0.6037 -1.7066
 2883SOL    HW220109   2.986   3.506   7.839 -0.4698 -0.3442  1.0301
 2884SOL     OW20110   2.724   1.598   3.848 -0.0596  0.3818  0.0115
 2884SOL    HW120111   2.682   1.640   3.773 -1.2323 -0.9843 -0.1041
 2884SOL    HW220112   2.815   1.589   3.821 -0.4383 -0.4177 -1.0257
 2885SOL     OW20113   1.845   0.480   7.535  0.6038  0.0647  0.4616
 2885SOL    HW120114   1.879   0.432   7.459  0.3941 -0.2538  0.5698
 2885SOL    HW220115   1.852   0.566   7.494 -1.5350 -0.3899 -0.8762
 2886SOL     OW20116   2.687   2.633  15.739  0.7575  0.3989  0.0793
 2886SOL    HW120117   2.764   2.683  15.769  0.1410  1.2631  0.2220
 2886SOL    HW220118   2.638   2.630  15.821  1.2769 -0.0854  0.3746
 2887SOL     OW20119   4.087   3.193   5.377  0.2177 -0.2176 -0.1015
 2887SOL    HW120120   4.036   3.160   5.303 -0.8148  1.3478 -0.0972
 2887SOL    HW220121   4.167   3.224   5.335 -0.7235  2.8464  0.3825
 2888SOL     OW20122   2.870   4.556   9.408 -0.1237  0.3670 -0.3598
 2888SOL    HW120123   2.833   4.576   9.494 -0.3996  0.2788 -0.4573
 2888SOL    HW220124   2.885   4.462   9.419 -0.9352  0.2806  0.0174
 2889SOL     OW20125   3.139   0.542   7.006 -0.1420  0.2489  0.6366
 2889SOL    HW120126   3.128   0.595   6.928  0.4008  0.3217  0.6095
 2889SOL    HW220127   3.061   0.487   7.007  0.3124 -0.4205 -1.0202
 2890SOL     OW20128   3.182   0.499   5.136  0.0348 -0.2108 -0.4691
 2890SOL    HW120129   3.142   0.577   5.097  1.9699  0.9950 -0.0304
 2890SOL    HW220130   3.126   0.483   5.212  3.8876 -1.5671  2.0769
 2891SOL     OW20131   1.127   0.754   4.548  0.0888  0.2375 -0.1989
 2891SOL    HW120132   1.071   0.699   4.492  0.1563 -0.7657  0.7230
 2891SOL    HW220133   1.191   0.770   4.479 -0.7824 -1.1170 -1.3493
 2892SOL     OW20134   2.062   4.008   6.674 -0.2820 -0.7268 -0.2996
 2892SOL    HW120135   2.061   4.103   6.660  1.9542 -0.4549  1.3223
 2892SOL    HW220136   2.101   4.010   6.762  0.1114 -0.8756 -0.4683
 2893SOL     OW20137   1.338   1.798   3.440 -0.2874  0.2452 -0.2204
 2893SOL    HW120138   1.391   1.857   3.493 -0.1691  1.0597 -1.2667
 2893SOL    HW220139   1.372   1.713   3.469 -1.7009 -0.8103 -1.6480
 2894SOL     OW20140   3.695   3.596   5.417  0.0570 -0.5913 -0.4902
 2894SOL    HW120141   3.601   3.602   5.437 -0.0424 -0.8774 -0.8610
 2894SOL    HW220142   3.731   3.625   5.501  3.1718 -1.0289 -1.7016
 2895SOL     OW20143   3.671   3.202   4.024  0.6235  0.0877 -0.4090
 2895SOL    HW120144   3.677   3.110   3.999  1.2712  0.4756 -1.7134
 2895SOL    HW220145   3.646   3.248   3.943 -0.5528 -0.8425 -0.5704
 2896SOL     OW20146   3.251   0.772   2.114  0.0166  0.7477 -0.3965
 2896SOL    HW120147   3.228   0.847   2.169  0.8704 -1.1892  2.6121
 2896SOL    HW220148   3.330   0.736   2.154 -3.2151 -3.5540  2.2089
 2897SOL     OW20149   2.224   0.065   4.441 -0.2862  0.0571 -0.7749
 2897SOL    HW120150   2.277   0.143   4.423  2.9419 -1.7072  1.0333
 2897SOL    HW220151   2.156   0.094   4.502 -0.8073 -0.3115 -1.1819
 2898SOL     OW20152   1.086   0.249  16.767  0.1895  0.0110  0.3483
 2898SOL    HW120153   1.041   0.168  16.790 -0.2100 -0.4943 -2.1905
 2898SOL    HW220154   1.089   0.305  16.845  1.0597 -0.9728  1.0134
 2899SOL     OW20155   4.274   4.230  10.603  0.9553  0.1356  0.0156
 2899SOL    HW120156   4.252   4.213  10.512  1.5208 -0.6510  0.0262
 2899SOL    HW220157   4.326   4.153  10.627  0.4718 -0.6488 -1.4953
 2900SOL     OW20158   0.239   4.168   7.789 -0.0842 -0.0161  0.4975
 2900SOL    HW120159   0.291   4.101   7.834  0.8935 -2.0571 -3.6160
 2900SOL    HW220160   0.266   4.249   7.832 -0.6355  0.7802 -0.6548
 2901SOL     OW20161   1.244   3.076   4.913  0.5038  0.2589 -0.0886
 2901SOL    HW120162   1.249   2.995   4.964  1.7026  0.0113 -0.6106
 2901SOL    HW220163   1.336   3.101   4.916  0.8784 -1.1697  0.4883
 2902SOL     OW20164   3.356   3.071  17.237 -0.1484 -0.6195 -0.3642
 2902SOL    HW120165   3.328   3.132  17.305  0.9800 -1.8287  1.1923
 2902SOL    HW220166   3.449   3.082  17.261  0.0457 -2.7633 -0.1057
 2903SOL     OW20167   2.240   4.564  13.985  0.2714 -0.6335 -0.0043
 2903SOL    HW120168   2.297   4.523  14.050  1.7252 -0.1965 -1.0059
 2903SOL    HW220169   2.288   4.641  13.956 -0.4404 -0.0172  0.4599
 2904SOL     OW20170   0.872   0.837   5.919 -0.2007 -0.0002  0.0421
 2904SOL    HW120171   0.802   0.892   5.952 -0.1951  0.2080 -0.2857
 2904SOL    HW220172   0.893   0.914   5.865  1.7901  0.0495  0.8940
 2905SOL     OW20173   1.856   0.356   5.254 -0.1573 -0.7303  0.4874
 2905SOL    HW120174   1.915   0.287   5.225 -0.1159 -0.9488  1.0826
 2905SOL    HW220175   1.805   0.316   5.324 -2.5480  0.2744 -0.6998
 2906SOL     OW20176   4.169   4.178   4.665  0.5708  0.2575 -0.1209
 2906SOL    HW120177   4.154   4.096   4.712 -0.4146  0.4190 -0.1473
 2906SOL    HW220178   4.247   4.154   4.614  0.7957  2.2482 -0.6938
 2907SOL     OW20179   3.836   1.109   3.225  0.0562 -0.4729 -0.0968
 2907SOL    HW120180   3.777   1.086   3.297 -1.7918  0.6235 -1.2486
 2907SOL    HW220181   3.867   1.024   3.193  0.4668  0.2887 -1.6674
 2908SOL     OW20182   0.367   4.704  11.853  0.3969 -0.2021  0.4469
 2908SOL    HW120183   0.369   0.045  11.782  0.1323 -0.1328  0.5021
 2908SOL    HW220184   0.273   4.692  11.861  0.4618 -0.2429  1.1774
 2909SOL     OW20185   3.440   4.481  14.307  0.4169  0.3331 -0.0076
 2909SOL    HW120186   3.532   4.473  14.330  0.2267  1.2338  1.0682
 2909SOL    HW220187   3.431   4.577  14.301  0.7088  0.3027 -0.9646
 2910SOL     OW20188   2.230   2.934   6.817  0.1487  0.4886 -0.0282
 2910SOL    HW120189   2.198   2.865   6.875 -2.4686  1.6418 -0.0881
 2910SOL    HW220190   2.151   2.987   6.810 -1.2181 -1.7695 -1.7465
 2911SOL     OW20191   0.648   1.989  15.276  0.1269  0.6773  0.1899
 2911SOL    HW120192   0.712   1.944  15.221 -0.0415 -1.0785  1.4476
 2911SOL    HW220193   0.568   1.937  15.266  0.3096  0.3020  0.7004
 2912SOL     OW20194   1.022   0.072   1.046 -0.5699  0.2934 -0.1419
 2912SOL    HW120195   0.980   0.132   1.108  1.8308 -0.0298  1.8389
 2912SOL    HW220196   0.974   4.715   1.064 -0.1984  0.1188  0.0826
 2913SOL     OW20197   1.123   2.566  10.609 -0.2618  0.4234 -0.1035
 2913SOL    HW120198   1.188   2.636  10.606 -0.2590  0.2726 -3.8632
 2913SOL    HW220199   1.047   2.617  10.583  0.0900  1.0441  0.0781
 2914SOL     OW20200   4.321   3.498   8.675 -0.6131  0.2825  0.2834
 2914SOL    HW120201   4.262   3.483   8.749  0.0109  1.5890  1.0534
 2914SOL    HW220202   4.332   3.593   8.670  2.2743 -0.1439 -1.4220
 2915SOL     OW20203   1.314   3.873   5.005  0.6046  0.3300  0.1414
 2915SOL    HW120204   1.366   3.871   5.085  2.1141 -2.6032 -0.9400
 2915SOL    HW220205   1.297   3.968   5.000  1.6751  0.5910  1.5074
 2916SOL     OW20206   1.294   0.508   8.996 -0.2960  0.4649  0.0500
 2916SOL    HW120207   1.316   0.500   9.089  0.9231  2.3320 -0.0760
 2916SOL    HW220208   1.220   0.448   8.991 -1.2373  1.6363  0.0208
 2917SOL     OW20209   3.153   0.811   7.121  0.2398  0.5977 -0.1607
 2917SOL    HW120210   3.144   0.722   7.089 -0.6721  0.9765 -0.9509
 2917SOL    HW220211   3.119   0.809   7.211 -1.8030 -0.3762 -0.9583
 2918SOL     OW20212   3.560   0.805   5.806  0.7474  0.2874 -0.0005
 2918SOL    HW120213   3.496   0.745   5.845 -0.4538  2.0618  0.7730
 2918SOL    HW220214   3.608   0.753   5.742 -1.6355  0.5854 -2.0353
 2919SOL     OW20215   3.521   4.094  14.011  0.8024  0.6912 -0.1449
 2919SOL    HW120216   3.586   4.049  13.956  0.0475  0.7463 -1.0833
 2919SOL    HW220217   3.463   4.019  14.025  1.5612  0.1831  0.3477
 2920SOL     OW20218   0.373   1.817   7.031  0.0412 -0.0929  0.1857
 2920SOL    HW120219   0.443   1.816   7.097  0.7451 -0.7084 -0.5742
 2920SOL    HW220220   0.390   1.737   6.981 -0.0546  0.4281 -0.6619
 2921SOL     OW20221   0.342   3.653   3.233 -0.1228  0.0985 -0.2087
 2921SOL    HW120222   0.369   3.601   3.157  2.5360  0.1747  0.7135
 2921SOL    HW220223   0.257   3.687   3.202 -0.2661 -0.0185  0.0621
 2922SOL     OW20224   1.905   4.249   8.948  0.1836 -0.2670 -0.2884
 2922SOL    HW120225   1.927   4.164   8.987 -1.0026 -0.7439 -0.6774
 2922SOL    HW220226   1.924   4.315   9.015 -1.5650 -1.6596  1.6062
 2923SOL     OW20227   0.960   0.975  11.308  0.1429  0.8490  0.0071
 2923SOL    HW120228   1.050   1.000  11.290 -1.0754  3.4378 -2.5817
 2923SOL    HW220229   0.913   1.054  11.280 -0.4316  1.0519  1.5206
 2924SOL     OW20230   2.624   4.100   2.090  0.6741 -0.3761  0.3196
 2924SOL    HW120231   2.612   4.041   2.164 -3.1911 -0.9057 -0.7253
 2924SOL    HW220232   2.584   4.054   2.016  0.0165 -1.2998  1.2561
 2925SOL     OW20233   3.693   3.804   7.521  0.6787 -0.2718  0.2408
 2925SOL    HW120234   3.754   3.876   7.531  2.0429 -1.5812  1.3599
 2925SOL    HW220235   3.719   3.776   7.433  0.3822  0.6039 -0.1246
 2926SOL     OW20236   2.957   0.700   8.864  0.0611  0.1705  0.0922
 2926SOL    HW120237   2.897   0.626   8.873 -0.2878  0.3727 -0.5722
 2926SOL    HW220238   2.974   0.717   8.957 -0.5394 -1.6320  0.5295
 2927SOL     OW20239   4.542   1.839  17.175 -0.1552 -0.5554  0.0278
 2927SOL    HW120240   4.602   1.865  17.106  0.5319 -3.6857 -0.5285
 2927SOL    HW220241   4.459   1.855  17.129  0.5692  2.0373 -0.3507
 2928SOL     OW20242   4.116   4.662   1.963 -0.2745 -0.1795 -0.1303
 2928SOL    HW120243   4.021   4.652   1.967  0.0282 -2.6444  0.6415
 2928SOL    HW220244   4.130   4.630   1.874 -1.6508 -0.4970 -0.2277
 2929SOL     OW20245   4.358   3.311   8.124 -0.3345  0.1152  0.7510
 2929SOL    HW120246   4.301   3.297   8.200 -1.8822  0.2987 -0.3736
 2929SOL    HW220247   4.285   3.332   8.065  2.2651  3.4335 -1.2807
 2930SOL     OW20248   2.240   4.041   8.837 -0.0931 -0.2579  0.6208
 2930SOL    HW120249   2.148   4.017   8.846  0.0166 -0.7837  0.3480
 2930SOL    HW220250   2.280   3.975   8.779 -1.0428  2.0273 -2.6009
 2931SOL     OW20251   3.692   1.355   5.540  0.1330  0.7716  0.0303
 2931SOL    HW120252   3.719   1.383   5.452  1.1346  2.7813  0.9703
 2931SOL    HW220253   3.619   1.293   5.535  0.7856  0.0500 -0.4099
 2932SOL     OW20254   1.436   1.283   7.921 -0.1819 -0.4465 -0.0456
 2932SOL    HW120255   1.470   1.198   7.896  2.0966 -0.0408  1.6723
 2932SOL    HW220256   1.426   1.270   8.016 -1.2761 -1.0067 -0.2446
 2933SOL     OW20257   0.236   4.680   2.460  0.0057  0.5172 -0.5069
 2933SOL    HW120258   0.240   4.683   2.364  0.6561 -2.3125 -0.5750
 2933SOL    HW220259   0.161   0.012   2.478 -0.6312  0.0710 -1.7796
 2934SOL     OW20260   1.770   4.489   8.458 -0.2505 -0.9133 -0.4056
 2934SOL    HW120261   1.775   4.486   8.553  2.6580  1.1960 -0.5074
 2934SOL    HW220262   1.678   4.504   8.435 -0.3694 -1.4808 -0.3021
 2935SOL     OW20263   2.472   2.939   4.223  0.0023  0.1304 -0.0228
 2935SOL    HW120264   2.497   3.009   4.283 -0.5961 -0.0841  0.4797
 2935SOL    HW220265   2.507   2.970   4.140  1.1145  0.8505  0.7056
 2936SOL     OW20266   1.816   3.638   9.342 -0.5573  0.0945  0.1512
 2936SOL    HW120267   1.850   3.558   9.383  0.4545  0.9475  0.9697
 2936SOL    HW220268   1.896   3.677   9.306 -1.0230  1.3084  0.4300
 2937SOL     OW20269   3.813   2.642   6.945  0.3952 -0.5895  0.4110
 2937SOL    HW120270   3.793   2.722   6.898  2.2514  0.5758  1.5590
 2937SOL    HW220271   3.859   2.668   7.026  1.8011  1.0275 -0.9016
 2938SOL     OW20272   2.060   4.036   2.227  0.2550 -0.0247  0.3502
 2938SOL    HW120273   2.109   4.090   2.165  1.3757 -0.4106  0.8852
 2938SOL    HW220274   1.994   4.006   2.165 -0.5698 -0.1428  1.2957
 2939SOL     OW20275   0.615   2.593   5.580  0.1668  0.1618  0.0057
 2939SOL    HW120276   0.577   2.510   5.606 -1.6185  0.6981 -0.9411
 2939SOL    HW220277   0.578   2.662   5.636  3.6804  1.5561  0.6716
 2940SOL     OW20278   0.966   3.280   9.274 -0.4968  0.6218  0.4974
 2940SOL    HW120279   0.977   3.203   9.218  2.9900  2.6325 -1.6207
 2940SOL    HW220280   1.031   3.263   9.342  1.1446  0.4712 -1.0810
 2941SOL     OW20281   4.206   2.828   2.846 -0.3572 -0.1503  0.2210
 2941SOL    HW120282   4.213   2.909   2.795 -0.8449  1.0400  2.0479
 2941SOL    HW220283   4.161   2.770   2.785  1.0992 -0.8148 -0.2467
 2942SOL     OW20284   2.393   4.442   6.053 -0.2783  0.4806 -0.0160
 2942SOL    HW120285   2.454   4.512   6.029 -0.2847  0.4209 -0.2087
 2942SOL    HW220286   2.434   4.426   6.138  1.0720  1.4298 -0.4761
 2943SOL     OW20287   3.804   4.587   0.509 -0.1665 -0.2936  0.2643
 2943SOL    HW120288   3.812   4.637   0.428  0.1499 -0.3831  0.2366
 2943SOL    HW220289   3.875   4.523   0.497 -0.8389 -0.9190 -0.3604
 2944SOL     OW20290   2.380   2.286   8.485 -0.1781 -0.1714  0.3704
 2944SOL    HW120291   2.368   2.263   8.577 -0.4835 -0.2320  0.3154
 2944SOL    HW220292   2.368   2.200   8.444  0.9082 -0.0508 -0.1873
 2945SOL     OW20293   1.687   3.797   8.675 -0.0985 -0.0817  0.0152
 2945SOL    HW120294   1.690   3.769   8.766 -2.9018 -1.1739 -0.2238
 2945SOL    HW220295   1.757   3.862   8.672 -1.0607  0.9023 -1.4674
 2946SOL     OW20296   1.890   4.042  14.001  0.2283 -0.2042  0.4308
 2946SOL    HW120297   1.829   3.969  13.991 -0.0717  0.1629 -0.4347
 2946SOL    HW220298   1.963   4.014  13.946  1.8064  1.3763  1.7275
 2947SOL     OW20299   0.931   1.780   8.994 -0.1949  0.2523  0.0668
 2947SOL    HW120300   0.853   1.738   8.958 -0.9057  1.0646  0.6527
 2947SOL    HW220301   0.995   1.751   8.930 -0.7158 -0.5882 -0.0771
 2948SOL     OW20302   0.758   1.983   9.148  0.0702 -0.5461 -0.9395
 2948SOL    HW120303   0.802   1.920   9.091  1.3342 -0.2805 -0.2375
 2948SOL    HW220304   0.665   1.958   9.150  0.4026 -1.8048 -1.5395
 2949SOL     OW20305   3.115   2.527   2.905  0.2067 -0.3212 -0.2379
 2949SOL    HW120306   3.061   2.500   2.831  0.0214  1.2429 -0.6660
 2949SOL    HW220307   3.197   2.478   2.894 -0.1033 -1.1014  0.9686
 2950SOL     OW20308   4.447   0.707   0.803 -0.1414  0.0991 -0.1875
 2950SOL    HW120309   4.389   0.689   0.876 -0.1357 -1.7328 -0.6324
 2950SOL    HW220310   4.513   0.638   0.810  0.8971  1.2262  1.1482
 2951SOL     OW20311   3.913   0.202  14.352 -0.0219 -0.1267 -0.0356
 2951SOL    HW120312   3.886   0.274  14.409 -0.8419 -0.2604 -0.2601
 2951SOL    HW220313   4.009   0.199  14.347 -0.0998  0.5401 -1.8475
 2952SOL     OW20314   0.895   0.455   8.500 -0.0657  0.1617 -0.3883
 2952SOL    HW120315   0.841   0.401   8.443 -0.2668  2.0781 -2.0057
 2952SOL    HW220316   0.841   0.464   8.579 -0.2618 -0.7382 -0.4287
 2953SOL     OW20317   1.960   1.188   0.807 -0.6663 -0.6466 -0.0632
 2953SOL    HW120318   1.998   1.105   0.835 -0.0933 -0.5469 -0.5566
 2953SOL    HW220319   2.033   1.215   0.752  0.3504 -1.4001  0.9297
 2954SOL     OW20320   2.938   2.661   4.002  0.5817  0.1349  0.0199
 2954SOL    HW120321   3.012   2.686   4.058  1.0883  0.8889 -0.9938
 2954SOL    HW220322   2.913   2.745   3.962 -1.1972 -0.7744 -0.8027
 2955SOL     OW20323   2.063   3.640   7.874  0.2940  0.0704 -0.0410
 2955SOL    HW120324   2.064   3.566   7.814  0.8847 -0.7123  0.9505
 2955SOL    HW220325   1.972   3.632   7.904  0.9603 -4.8907  0.5622
 2956SOL     OW20326   2.820   3.881   1.912 -0.0317 -0.3589 -0.1541
 2956SOL    HW120327   2.827   3.976   1.911 -1.2204 -0.2321  1.7663
 2956SOL    HW220328   2.725   3.867   1.921  0.0034  0.1602  1.0196
 2957SOL     OW20329   0.137   2.466  17.114  0.0903 -0.4445  0.4360
 2957SOL    HW120330   0.045   2.490  17.125  0.3957  0.5497  0.8094
 2957SOL    HW220331   0.150   2.501  17.025  0.2021  3.2414  1.9181
 2958SOL     OW20332   0.785   0.187   7.201 -0.1629  0.1948 -0.1126
 2958SOL    HW120333   0.761   0.271   7.240  0.4257  0.0550  0.5513
 2958SOL    HW220334   0.829   0.152   7.279 -1.7753  0.5707  0.9747
 2959SOL     OW20335   4.434   0.653  10.792 -0.7329  0.2103 -0.3239
 2959SOL    HW120336   4.462   0.622  10.706  0.4510  0.0925  0.0983
 2959SOL    HW220337   4.511   0.689  10.836  0.1373  0.6072 -2.1920
 2960SOL     OW20338   0.110   3.027   0.310  0.1067  0.0807  0.1654
 2960SOL    HW120339   0.201   3.051   0.295  0.2533 -0.7449 -0.2455
 2960SOL    HW220340   0.071   3.111   0.284  1.4825 -0.1840 -2.6901
 2961SOL     OW20341   4.025   3.702  17.500  0.5442  0.4571 -0.1757
 2961SOL    HW120342   4.080   3.753  17.559  1.5645  0.6455 -1.2943
 2961SOL    HW220343   4.082   3.626  17.490 -1.5239 -0.9464 -1.3353
 2962SOL     OW20344   3.703   0.330  10.846 -0.0300  0.0265 -0.0468
 2962SOL    HW120345   3.778   0.335  10.905  0.8827  2.9878 -1.4217
 2962SOL    HW220346   3.629   0.347  10.904 -0.3169  0.6809 -0.5943
 2963SOL     OW20347   3.365   4.048   8.318  0.0431  0.4036 -0.1791
 2963SOL    HW120348   3.312   4.122   8.350 -0.3071 -0.1673  0.5808
 2963SOL    HW220349   3.322   4.034   8.234  0.5289 -1.5746 -0.0834
 2964SOL     OW20350   4.034   4.453   7.313 -0.0998 -0.3115  0.6499
 2964SOL    HW120351   4.072   4.465   7.226  0.5959  0.0436  1.0015
 2964SOL    HW220352   4.099   4.390   7.344 -0.1046  0.7207  2.7595
 2965SOL     OW20353   0.808   0.826   3.471 -0.0425 -0.4992 -0.2011
 2965SOL    HW120354   0.883   0.788   3.425 -0.3056 -1.5022  0.2086
 2965SOL    HW220355   0.825   0.920   3.461  1.3971 -0.8137 -0.7993
 2966SOL     OW20356   4.467   4.373   0.660  0.1917  0.1832  0.3545
 2966SOL    HW120357   4.437   4.398   0.747  0.8008 -0.9397  0.8894
 2966SOL    HW220358   4.403   4.303   0.655  0.4394 -0.1882  2.5796
 2967SOL     OW20359   3.666   2.060   4.529 -0.1110 -0.0288 -0.0575
 2967SOL    HW120360   3.722   2.056   4.451 -0.0413  0.2525 -0.0193
 2967SOL    HW220361   3.599   1.993   4.513  1.9453 -2.6222  2.1169
 2968SOL     OW20362   4.480   3.585  11.714 -0.6158  0.1355 -0.0119
 2968SOL    HW120363   4.452   3.528  11.786  2.8516 -1.3945  0.1406
 2968SOL    HW220364   4.566   3.547  11.698 -0.3809  1.1440 -1.0913
 2969SOL     OW20365   1.377   1.621   5.775  0.0396  0.4298 -0.4091
 2969SOL    HW120366   1.383   1.690   5.709 -1.3576  0.1100 -0.8595
 2969SOL    HW220367   1.316   1.564   5.728  0.8826  0.3474 -1.3900
 2970SOL     OW20368   2.749   0.899   1.617 -0.0005  0.3848  0.3136
 2970SOL    HW120369   2.834   0.864   1.645  0.3380  0.4799 -0.5889
 2970SOL    HW220370   2.784   0.941   1.538 -0.3342 -1.3420 -0.7737
 2971SOL     OW20371   1.789   1.198   0.500 -0.0319 -0.1450  0.0395
 2971SOL    HW120372   1.827   1.236   0.421 -0.3215 -0.0737 -0.0672
 2971SOL    HW220373   1.805   1.104   0.495  1.1101  0.0138  0.7883
 2972SOL     OW20374   4.272   1.330   4.970 -0.4763  0.8948 -0.0152
 2972SOL    HW120375   4.351   1.365   4.929  0.2420  0.0094  0.6342
 2972SOL    HW220376   4.277   1.239   4.942  0.1485  0.5122  1.3704
 2973SOL     OW20377   0.249   2.885   5.786  0.0449 -0.1846 -0.3751
 2973SOL    HW120378   0.194   2.918   5.856  2.8796 -1.3271  2.3748
 2973SOL    HW220379   0.289   2.809   5.829 -2.2736 -0.1165  1.8637
 2974SOL     OW20380   3.260   0.505   2.556  0.1601 -0.0025  0.4260
 2974SOL    HW120381   3.237   0.417   2.588 -1.6539  0.4629  0.4264
 2974SOL    HW220382   3.302   0.550   2.629  2.2903 -0.6012 -0.4487
 2975SOL     OW20383   1.571   4.331   5.757  0.3406  0.3273  0.0217
 2975SOL    HW120384   1.579   4.262   5.691 -1.6851  0.8504 -0.7505
 2975SOL    HW220385   1.640   4.306   5.820 -1.3313  1.0951  2.1673
 2976SOL     OW20386   4.537   1.225   5.832 -0.0892 -0.0042 -0.7557
 2976SOL    HW120387   4.615   1.280   5.840 -0.0025 -0.0359 -1.3592
 2976SOL    HW220388   4.587   1.143   5.831  1.1734  0.7269  1.1855
 2977SOL     OW20389   3.710   2.889   9.664  0.2081  0.0986  0.1742
 2977SOL    HW120390   3.649   2.904   9.592  1.7389  1.2565 -0.9073
 2977SOL    HW220391   3.650   2.892   9.738  0.8883  0.5898  0.7152
 2978SOL     OW20392   2.045   4.046  11.483  0.3449  0.1597 -0.6494
 2978SOL    HW120393   2.085   4.009  11.405 -0.8077  0.1781 -1.2512
 2978SOL    HW220394   2.106   4.117  11.504 -2.3026  2.0952  0.4392
 2979SOL     OW20395   2.467   0.355   6.414  0.1040  0.0070  0.5296
 2979SOL    HW120396   2.384   0.329   6.373  1.1278  0.0577 -1.5413
 2979SOL    HW220397   2.454   0.450   6.419 -1.0158 -0.1111 -0.1072
 2980SOL     OW20398   2.067   1.131   3.478 -0.0548  0.4298  0.0453
 2980SOL    HW120399   2.138   1.076   3.513  0.3506  2.2439  2.1174
 2980SOL    HW220400   2.018   1.146   3.559 -0.4097 -0.8485  0.0710
 2981SOL     OW20401   1.670   3.497  13.147 -0.1936  0.4241 -0.3521
 2981SOL    HW120402   1.712   3.558  13.088  1.2519  0.1581  0.4073
 2981SOL    HW220403   1.599   3.455  13.098  1.5094 -1.2168 -1.4013
 2982SOL     OW20404   2.299   3.216  15.074 -0.7902 -0.6476 -0.1306
 2982SOL    HW120405   2.340   3.301  15.057 -2.4136  0.6952  2.6170
 2982SOL    HW220406   2.235   3.208  15.003 -1.5531  0.0532  0.4764
 2983SOL     OW20407   2.044   2.950  13.713 -0.1870  0.2108 -0.2913
 2983SOL    HW120408   2.066   2.892  13.785  0.0692 -1.9192 -2.0623
 2983SOL    HW220409   2.071   3.036  13.744 -2.2902  0.5568  0.5782
 2984SOL     OW20410   4.283   0.475   7.455 -0.7125  0.3456 -0.5853
 2984SOL    HW120411   4.211   0.536   7.441 -0.8658 -0.2335 -2.2839
 2984SOL    HW220412   4.279   0.407   7.388  0.8234 -0.8543  0.5447
 2985SOL     OW20413   4.162   1.394  16.600 -0.1116  0.0707 -0.4231
 2985SOL    HW120414   4.084   1.444  16.578 -0.4190 -1.1041 -2.0200
 2985SOL    HW220415   4.135   1.307  16.572 -0.0388 -0.3651  0.8647
 2986SOL     OW20416   0.976   3.837   8.326  0.1754  0.1750  0.5595
 2986SOL    HW120417   0.995   3.883   8.408  0.4629  1.6574 -0.3358
 2986SOL    HW220418   0.887   3.809   8.348  0.2307 -1.3329 -1.1134
 2987SOL     OW20419   1.060   2.302   5.405  0.3931  0.1186  0.2595
 2987SOL    HW120420   0.972   2.302   5.368 -0.0013  0.6994  1.1752
 2987SOL    HW220421   1.099   2.219   5.378  0.5936  0.5756 -0.8727
 2988SOL     OW20422   3.947   0.735   6.795  0.1182  0.4649  0.3499
 2988SOL    HW120423   3.929   0.828   6.783 -0.1772  0.5312  1.3562
 2988SOL    HW220424   4.027   0.729   6.743 -0.1303 -0.3911  0.0677
 2989SOL     OW20425   1.745   4.496   6.692  0.0436 -0.1811  0.7936
 2989SOL    HW120426   1.708   4.435   6.628  1.1192 -1.9086  1.8306
 2989SOL    HW220427   1.696   4.465   6.767 -1.9465 -0.5149 -0.6596
 2990SOL     OW20428   4.143   2.313   2.671  0.5760 -0.4033  0.1650
 2990SOL    HW120429   4.180   2.261   2.743  0.6930  0.9889  1.1274
 2990SOL    HW220430   4.093   2.245   2.627  0.2762  0.6101 -1.0634
 2991SOL     OW20431   3.454   2.464   8.241 -0.7165 -0.4963 -0.4669
 2991SOL    HW120432   3.383   2.496   8.297 -1.8847 -2.6534 -0.7026
 2991SOL    HW220433   3.467   2.539   8.183 -1.6921 -0.4599 -0.6456
 2992SOL     OW20434   3.140   2.495   4.363 -0.1276  0.2620  0.2018
 2992SOL    HW120435   3.050   2.464   4.373 -1.1232  3.3390  0.5289
 2992SOL    HW220436   3.192   2.419   4.389  0.7213  0.9749  0.5808
 2993SOL     OW20437   2.110   4.216   7.130  0.3041 -0.1841  0.6130
 2993SOL    HW120438   2.023   4.227   7.168 -0.2174 -0.4810 -0.4788
 2993SOL    HW220439   2.174   4.250   7.192  1.7082  0.1763 -1.0607
 2994SOL     OW20440   2.764   2.037  12.761 -0.0187 -0.2981 -0.1776
 2994SOL    HW120441   2.745   1.961  12.707 -0.0345  0.7734 -1.6953
 2994SOL    HW220442   2.802   2.089  12.689 -1.3222  1.3375  0.3150
 2995SOL     OW20443   2.879   4.601   5.934 -0.6224  0.1674  0.3717
 2995SOL    HW120444   2.877   4.558   6.020  0.1872 -1.7880 -0.5814
 2995SOL    HW220445   2.952   4.661   5.946  0.3375 -0.5547 -1.9824
 2996SOL     OW20446   0.846   1.761   2.037 -0.5738 -0.7210  0.2769
 2996SOL    HW120447   0.819   1.851   2.056 -0.2678 -0.9493  1.7836
 2996SOL    HW220448   0.933   1.767   2.074 -0.0306 -1.3729 -0.8939
 2997SOL     OW20449   2.738   0.341   2.484  0.0424 -0.1074 -0.3763
 2997SOL    HW120450   2.642   0.337   2.486  0.0557  0.6276  2.1282
 2997SOL    HW220451   2.754   0.364   2.393 -3.0712  0.9492 -0.6726
 2998SOL     OW20452   0.160   1.095   5.741  0.3162  0.1097  0.0856
 2998SOL    HW120453   0.105   1.142   5.679 -0.9225  0.5066  1.4883
 2998SOL    HW220454   0.213   1.163   5.784 -1.3202  1.1029  0.5243
 2999SOL     OW20455   2.730   4.611  14.832 -0.1720 -0.5340 -0.0835
 2999SOL    HW120456   2.658   4.573  14.781 -0.3819  0.6779 -0.6973
 2999SOL    HW220457   2.715   4.705  14.818 -0.9893 -0.3487  2.0500
 3000SOL     OW20458   4.677   0.933   6.824 -0.2541  0.2203 -0.3196
 3000SOL    HW120459   4.614   0.970   6.763 -0.3243  2.4028  1.0746
 3000SOL    HW220460   4.627   0.863   6.865  1.4108  0.5509  2.2718
 3001SOL     OW20461   2.992   0.294   3.935 -0.4910  0.1024 -0.2238
 3001SOL    HW120462   2.976   0.387   3.946 -1.3475  0.0037 -0.5936
 3001SOL    HW220463   3.085   0.277   3.945 -0.3744  0.1794 -1.1592
 3002SOL     OW20464   0.697   1.489   2.446 -0.0621 -0.0979  0.0103
 3002SOL    HW120465   0.748   1.558   2.490 -0.4317 -0.4852  1.0491
 3002SOL    HW220466   0.756   1.472   2.372 -1.2692  0.6496 -1.1082
 3003SOL     OW20467   3.859   2.644   6.204  0.0464 -0.3369  0.4421
 3003SOL    HW120468   3.806   2.573   6.166  0.0232  0.4300 -0.9736
 3003SOL    HW220469   3.801   2.720   6.200 -2.9827 -2.7172 -1.0290
 3004SOL     OW20470   1.453   1.954   3.624 -0.0325  0.5333  0.5069
 3004SOL    HW120471   1.461   2.023   3.557  4.6985 -1.2700 -0.7718
 3004SOL    HW220472   1.455   2.003   3.707 -2.2048 -1.7001  1.8658
 3005SOL     OW20473   2.665   0.064  14.139  0.1310 -0.4867 -0.0467
 3005SOL    HW120474   2.626   0.009  14.207 -2.8618  2.0653  0.3072
 3005SOL    HW220475   2.758   0.040  14.140  0.5223  0.9817 -0.6185
 3006SOL     OW20476   4.507   2.738   3.596 -0.1591  0.0901 -0.4933
 3006SOL    HW120477   4.413   2.721   3.598  0.0393 -1.0462 -1.7430
 3006SOL    HW220478   4.517   2.825   3.558  1.2028 -0.8253 -2.2140
 3007SOL     OW20479   1.819   3.303   2.916  0.1948 -0.4103 -0.4065
 3007SOL    HW120480   1.839   3.368   2.848  1.7757 -0.5467 -0.0661
 3007SOL    HW220481   1.775   3.241   2.859  1.3806 -1.4287 -0.2069
 3008SOL     OW20482   0.857   2.862   8.742 -0.0298 -0.9638 -0.4960
 3008SOL    HW120483   0.844   2.876   8.648  0.6180  0.4688 -0.3788
 3008SOL    HW220484   0.772   2.889   8.775 -0.0556  0.6187 -1.8505
 3009SOL     OW20485   2.364   1.760  12.782 -0.0206 -0.0292  0.2131
 3009SOL    HW120486   2.444   1.710  12.772  0.9883  1.4370  1.0019
 3009SOL    HW220487   2.331   1.758  12.692 -1.4290 -0.1945  0.7277
 3010SOL     OW20488   0.952   4.518   8.671 -0.0569 -0.0524 -0.2591
 3010SOL    HW120489   0.876   4.468   8.641  0.8125 -2.2791  1.2531
 3010SOL    HW220490   0.917   4.605   8.689  0.8173  0.1650  0.4091
 3011SOL     OW20491   0.584   2.754  15.412  0.7083 -0.0630 -0.0722
 3011SOL    HW120492   0.668   2.798  15.417  1.8759 -2.0786 -2.0263
 3011SOL    HW220493   0.589   2.740  15.317  1.0989 -0.5113  0.0118
 3012SOL     OW20494   3.460   0.235  13.860 -0.0959 -0.0229 -0.1768
 3012SOL    HW120495   3.500   0.258  13.943 -0.8889  0.2784  0.1250
 3012SOL    HW220496   3.498   0.297  13.798  1.9972 -1.0361  0.1071
 3013SOL     OW20497   3.653   3.362  16.615 -0.3170  0.1799  0.1607
 3013SOL    HW120498   3.700   3.292  16.661 -1.7146  0.1047  1.4670
 3013SOL    HW220499   3.570   3.317  16.605 -0.3368  0.1038  0.6960
 3014SOL     OW20500   4.403   1.163   5.347  0.8367  0.5297 -0.4097
 3014SOL    HW120501   4.465   1.118   5.289  1.8737  0.4478  0.7606
 3014SOL    HW220502   4.326   1.106   5.352  2.6517 -2.0340 -1.7735
 3015SOL     OW20503   3.771   2.693   2.453 -0.7173 -0.2297  0.4273
 3015SOL    HW120504   3.698   2.652   2.408  0.3729 -0.7315 -0.8640
 3015SOL    HW220505   3.776   2.656   2.541  1.0260 -0.8034  0.0743
 3016SOL     OW20506   2.211   0.265   9.933  0.2354 -0.0309 -0.1935
 3016SOL    HW120507   2.238   0.272   9.842  0.3266 -1.2345 -0.2525
 3016SOL    HW220508   2.251   0.182   9.960 -0.5902 -0.4788 -0.3475
 3017SOL     OW20509   2.738   1.408  13.683 -0.4218 -0.5170  0.1428
 3017SOL    HW120510   2.723   1.470  13.611  1.1314  1.4486  1.5122
 3017SOL    HW220511   2.726   1.323  13.641  2.3685 -1.7401  1.8103
 3018SOL     OW20512   1.502   3.654   4.035  0.9414 -0.2728 -0.2639
 3018SOL    HW120513   1.583   3.602   4.025  0.3748 -1.8057  3.1997
 3018SOL    HW220514   1.448   3.598   3.980  2.3406 -0.4718 -1.4417
 3019SOL     OW20515   1.760   2.071  15.447  0.3910  0.8011 -0.7475
 3019SOL    HW120516   1.855   2.083  15.452  0.3957 -0.0740  1.2124
 3019SOL    HW220517   1.743   2.003  15.512  0.4361 -1.6522 -3.2998
 3020SOL     OW20518   1.579   3.843   1.773  0.5731 -0.1202 -0.3570
 3020SOL    HW120519   1.527   3.770   1.738  0.8565  0.5789 -2.2141
 3020SOL    HW220520   1.593   3.823   1.866 -0.8673  0.6200  0.0261
 3021SOL     OW20521   4.555   0.476  12.425 -0.5153 -0.3258 -0.6972
 3021SOL    HW120522   4.554   0.564  12.387  3.6181 -0.4002 -1.0337
 3021SOL    HW220523   4.605   0.427  12.359  0.5455 -0.3235  0.0960
 3022SOL     OW20524   4.379   1.172  14.689 -0.1335  0.4835  0.0828
 3022SOL    HW120525   4.333   1.126  14.619 -2.5959 -0.0514  2.0288
 3022SOL    HW220526   4.367   1.103  14.755  1.7966 -1.8154 -2.0021
 3023SOL     OW20527   4.620   1.593  17.242 -0.2357  0.7511 -0.2540
 3023SOL    HW120528   4.561   1.538  17.190 -0.0192  1.5368 -1.3372
 3023SOL    HW220529   4.580   1.679  17.232  1.6915  1.5392 -1.2283
 3024SOL     OW20530   3.313   2.968   1.607 -0.1626 -0.3747 -0.4342
 3024SOL    HW120531   3.368   2.931   1.676  1.3212 -1.6368 -2.3003
 3024SOL    HW220532   3.271   2.889   1.572 -0.3570  0.4694 -2.0618
 3025SOL     OW20533   0.364   1.676   6.020  0.0653 -0.0189 -0.0269
 3025SOL    HW120534   0.395   1.731   6.091 -0.9504  0.5951 -0.0687
 3025SOL    HW220535   0.444   1.677   5.967  0.6891  0.0568  0.9147
 3026SOL     OW20536   4.395   1.062   0.447  0.0275  0.1360  0.5091
 3026SOL    HW120537   4.362   1.035   0.533 -1.7349  1.7100  0.3425
 3026SOL    HW220538   4.488   1.058   0.469 -0.2831  3.4199  2.5262
 3027SOL     OW20539   3.742   2.343  14.810  0.6143  0.1121  0.0208
 3027SOL    HW120540   3.824   2.325  14.765  0.8728  0.4721  0.3449
 3027SOL    HW220541   3.723   2.433  14.782  1.5368  0.6447  1.0756
 3028SOL     OW20542   2.556   3.825  11.671 -0.5794 -0.2175  0.3998
 3028SOL    HW120543   2.640   3.832  11.624 -0.6706 -1.2508  0.0672
 3028SOL    HW220544   2.538   3.914  11.701  0.3388  1.1413 -3.0255
 3029SOL     OW20545   3.250   3.794   7.749 -0.0884  0.2602  0.3174
 3029SOL    HW120546   3.210   3.809   7.835 -0.6206  1.6552 -0.1763
 3029SOL    HW220547   3.177   3.772   7.693 -1.4019  0.6365  1.8727
 3030SOL     OW20548   3.280   4.382   9.418  0.2485 -0.9954  0.3346
 3030SOL    HW120549   3.294   4.466   9.374 -3.1813 -0.3510  0.4823
 3030SOL    HW220550   3.185   4.382   9.408  0.0660 -1.4271  2.1005
 3031SOL     OW20551   1.545   3.085   3.296 -0.3945 -0.5416 -0.2134
 3031SOL    HW120552   1.594   3.137   3.233  3.1802  1.2224  4.0763
 3031SOL    HW220553   1.551   2.998   3.257  1.2685 -0.4934 -0.0596
 3032SOL     OW20554   3.437   4.023   3.602  0.0375  0.4264  0.0109
 3032SOL    HW120555   3.495   3.994   3.531  1.4128  0.8536  0.9432
 3032SOL    HW220556   3.361   3.974   3.570  0.0459  0.2046  0.3356
 3033SOL     OW20557   4.318   3.590   4.890  0.2438 -0.2167 -0.2587
 3033SOL    HW120558   4.372   3.655   4.935  0.2513 -0.4499  0.0730
 3033SOL    HW220559   4.251   3.576   4.957  1.4709  1.7750  1.3641
 3034SOL     OW20560   1.276   1.414   5.604  0.5216 -0.3820  0.2730
 3034SOL    HW120561   1.208   1.481   5.595  1.5949  0.3820 -2.0852
 3034SOL    HW220562   1.240   1.343   5.550 -2.7593  0.5436  1.2672
 3035SOL     OW20563   2.374   1.778   8.193 -0.1018 -0.1152  0.8340
 3035SOL    HW120564   2.320   1.847   8.155 -0.9197 -0.4299  1.4155
 3035SOL    HW220565   2.464   1.810   8.198 -0.5591  1.1751  0.6879
 3036SOL     OW20566   2.715   3.756  16.349  0.2429 -0.7269 -0.9580
 3036SOL    HW120567   2.783   3.724  16.290 -0.7432 -0.3904 -2.2810
 3036SOL    HW220568   2.755   3.820  16.407  0.0617  1.0526 -2.8018
 3037SOL     OW20569   0.988   0.663   3.329 -0.2912 -0.0991 -0.2146
 3037SOL    HW120570   1.075   0.703   3.323  0.8889 -2.5071  0.8376
 3037SOL    HW220571   0.970   0.676   3.236  0.1214  0.3075 -0.2355
 3038SOL     OW20572   2.026   1.185   8.622 -0.3827  0.3871 -0.0668
 3038SOL    HW120573   2.051   1.264   8.574 -1.4512  0.4537 -0.5069
 3038SOL    HW220574   2.009   1.128   8.547  0.5412 -2.5927  1.9899
 3039SOL     OW20575   3.088   0.077   6.837  0.4275  0.0651 -0.1963
 3039SOL    HW120576   3.070   0.116   6.752  1.7812 -0.8239 -0.8859
 3039SOL    HW220577   3.131   4.721   6.808  1.2206  0.6737 -0.6948
 3040SOL     OW20578   2.901   2.888   4.310  0.4781  0.4633  0.0885
 3040SOL    HW120579   2.908   2.983   4.305 -0.7614  0.5738  0.4498
 3040SOL    HW220580   2.993   2.862   4.307  0.6235  1.1511 -1.4579
 3041SOL     OW20581   0.972   3.055   9.950 -0.6064 -0.1157  0.4982
 3041SOL    HW120582   1.006   2.974   9.989 -0.5080  0.0789  0.8191
 3041SOL    HW220583   0.877   3.050   9.954 -0.7223  1.8094  0.2661
 3042SOL     OW20584   3.452   1.427   3.661 -0.0659 -0.3506  0.2146
 3042SOL    HW120585   3.434   1.403   3.570 -2.0530  0.2524  0.4382
 3042SOL    HW220586   3.531   1.476   3.643 -1.1551  1.4589  0.3587
 3043SOL     OW20587   2.933   0.848   3.224  0.0558 -0.1577 -0.1690
 3043SOL    HW120588   2.972   0.886   3.145 -0.3088  1.4265  0.4082
 3043SOL    HW220589   2.842   0.877   3.215 -0.5621 -2.2453 -0.5379
 3044SOL     OW20590   1.154   0.559   8.749 -0.2951  0.0512 -0.1820
 3044SOL    HW120591   1.119   0.470   8.753 -2.1786  0.7985 -0.3852
 3044SOL    HW220592   1.233   0.549   8.803  0.0317  2.6193 -0.1951
 3045SOL     OW20593   1.846   3.569   7.324  0.0206 -0.2414  0.0418
 3045SOL    HW120594   1.809   3.585   7.238  0.5251  2.3689  0.3163
 3045SOL    HW220595   1.902   3.644   7.341  2.0888 -1.3466 -1.8408
 3046SOL     OW20596   2.873   3.856   5.296  0.1275 -0.0549  0.3437
 3046SOL    HW120597   2.839   3.887   5.212 -0.4827 -1.6346 -0.0025
 3046SOL    HW220598   2.799   3.801   5.322 -0.9622  2.0034  1.6563
 3047SOL     OW20599   2.883   0.765   6.305 -0.4302 -0.0355 -0.1127
 3047SOL    HW120600   2.946   0.697   6.328 -3.2980 -1.7061  2.8075
 3047SOL    HW220601   2.871   0.758   6.210  2.1581 -2.0332 -0.3043
 3048SOL     OW20602   2.415   4.537  12.501 -0.5431  0.2675  0.1160
 3048SOL    HW120603   2.481   4.606  12.504 -0.7633  0.5280 -1.0065
 3048SOL    HW220604   2.337   4.580  12.534 -0.7525  0.3680 -0.5153
 3049SOL     OW20605   3.321   0.934   3.722 -0.0039  0.2594  0.4736
 3049SOL    HW120606   3.339   1.012   3.774  1.8737  0.3171 -0.2523
 3049SOL    HW220607   3.412   0.905   3.715 -0.0189  0.0432  1.1591
 3050SOL     OW20608   0.780   1.633  13.386 -0.1793  0.6732  0.6348
 3050SOL    HW120609   0.795   1.698  13.317 -2.8447  0.0183 -0.5380
 3050SOL    HW220610   0.700   1.670  13.424 -2.4241 -2.4579 -1.0524
 3051SOL     OW20611   1.761   1.728   9.150  0.4335  0.2144 -0.1234
 3051SOL    HW120612   1.779   1.634   9.142  0.4601  0.1430  0.7017
 3051SOL    HW220613   1.849   1.758   9.173  1.3954 -0.8133 -2.4707
 3052SOL     OW20614   3.563   0.162   3.007  0.0785  0.1464  0.1584
 3052SOL    HW120615   3.480   0.196   2.972  0.7063  0.2238 -1.2614
 3052SOL    HW220616   3.622   0.229   2.973 -0.4424  0.1054 -0.8052
 3053SOL     OW20617   4.673   3.372   5.258  0.4293 -0.0913 -0.1940
 3053SOL    HW120618   4.649   3.401   5.170  2.7731 -1.4586 -1.2828
 3053SOL    HW220619   0.041   3.350   5.240  0.2971 -0.7805 -0.0304
 3054SOL     OW20620   3.356   0.336   3.513  0.3120 -0.1407  0.1341
 3054SOL    HW120621   3.294   0.340   3.441 -0.0134 -2.1150  0.2988
 3054SOL    HW220622   3.427   0.285   3.472  1.3495  1.8860 -0.6075
 3055SOL     OW20623   2.060   4.720   2.758 -0.4381  0.3957 -0.0382
 3055SOL    HW120624   2.115   4.720   2.679  0.2818  1.5166  0.4626
 3055SOL    HW220625   2.133   4.718   2.820  1.3628  1.1841 -2.1340
 3056SOL     OW20626   0.821   0.930   0.848  0.6185 -0.1571 -0.0649
 3056SOL    HW120627   0.772   1.010   0.829  1.1203 -0.0399 -0.8704
 3056SOL    HW220628   0.816   0.934   0.943 -0.1024 -2.0284 -0.0157
 3057SOL     OW20629   3.524   2.170   7.001  0.1014  0.0034  0.0559
 3057SOL    HW120630   3.500   2.259   6.977  0.8365 -0.4589 -2.3615
 3057SOL    HW220631   3.566   2.140   6.921  1.2926  0.0597  0.6643
 3058SOL     OW20632   1.820   2.293   6.365 -0.4143 -0.0009 -0.0595
 3058SOL    HW120633   1.906   2.294   6.407 -1.0259 -2.9845  1.2611
 3058SOL    HW220634   1.846   2.335   6.283  1.2561 -0.3484  0.2936
 3059SOL     OW20635   2.202   2.796   3.851  0.3390 -0.0920  0.1481
 3059SOL    HW120636   2.180   2.795   3.757 -0.9094  0.8723  0.4346
 3059SOL    HW220637   2.245   2.711   3.856  1.0499  0.2207 -0.5943
 3060SOL     OW20638   0.015   4.184  16.603 -0.4537  0.4821 -0.6135
 3060SOL    HW120639   0.017   4.266  16.653  1.1210  0.5549 -0.8130
 3060SOL    HW220640   4.660   4.203  16.553  0.0492  1.0897 -1.1655
 3061SOL     OW20641   3.890   4.307  13.993 -0.4366  0.1883  0.1472
 3061SOL    HW120642   3.803   4.338  14.016 -0.5609 -1.3422  1.7671
 3061SOL    HW220643   3.867   4.215  13.978 -0.3101  0.3182 -0.8796
 3062SOL     OW20644   4.519   0.951  10.548 -0.4141 -0.4343  0.1175
 3062SOL    HW120645   4.517   0.954  10.644  1.5084  0.4256  0.1335
 3062SOL    HW220646   4.522   0.856  10.542  0.1287 -0.4568  0.7293
 3063SOL     OW20647   4.007   3.572  11.859  0.2247  0.1139 -0.1306
 3063SOL    HW120648   4.071   3.536  11.919  0.4130 -0.1826 -0.5109
 3063SOL    HW220649   4.050   3.550  11.776 -1.4935  1.3320 -1.3432
 3064SOL     OW20650   0.420   2.042   4.585  0.0901  0.5723  0.2734
 3064SOL    HW120651   0.458   2.130   4.575  1.4645 -0.2188 -1.4896
 3064SOL    HW220652   0.404   2.046   4.679  0.3240 -1.4460  0.3785
 3065SOL     OW20653   1.524   3.235   3.982 -0.0669  0.1871 -0.3645
 3065SOL    HW120654   1.574   3.311   3.951  1.4568 -0.2600  1.0101
 3065SOL    HW220655   1.438   3.275   3.993  0.7593  1.4845  1.2240
 3066SOL     OW20656   2.318   0.227  15.694 -0.3056 -0.0360  0.1722
 3066SOL    HW120657   2.262   0.294  15.733  0.0407 -0.2977  1.1192
 3066SOL    HW220658   2.341   0.177  15.773 -2.1804 -1.5774 -0.2785
 3067SOL     OW20659   2.748   2.218   9.243  0.1638  0.3934 -0.5540
 3067SOL    HW120660   2.759   2.305   9.283 -0.6190 -0.0704  0.6666
 3067SOL    HW220661   2.715   2.172   9.320 -0.0538  1.3212 -0.0877
 3068SOL     OW20662   0.715   0.071  16.642 -0.1936 -0.6996  0.1301
 3068SOL    HW120663   0.669   0.139  16.691 -1.2598  0.9421 -3.1684
 3068SOL    HW220664   0.644   0.042  16.584 -0.6916 -2.6437  1.7010
 3069SOL     OW20665   2.110   1.696   4.533 -0.3111  0.9340 -0.8958
 3069SOL    HW120666   2.134   1.710   4.624 -0.1966 -0.2303 -0.7427
 3069SOL    HW220667   2.017   1.676   4.545 -0.3254  2.2734  1.1622
 3070SOL     OW20668   0.957   0.359   2.860 -0.6426 -0.1794 -0.3200
 3070SOL    HW120669   0.950   0.289   2.795  2.0325 -1.9202  1.3099
 3070SOL    HW220670   0.999   0.420   2.799  0.6326  0.2160  0.9566
 3071SOL     OW20671   1.724   3.866   4.970 -0.3608  0.3107 -0.4152
 3071SOL    HW120672   1.743   3.879   5.063  2.9614 -1.3434 -0.8895
 3071SOL    HW220673   1.799   3.900   4.922 -0.8246  0.0190 -1.3475
 3072SOL     OW20674   2.194   4.112   8.003 -0.0003  0.6549 -0.0919
 3072SOL    HW120675   2.111   4.145   8.036  1.2822  1.1190  2.5975
 3072SOL    HW220676   2.163   4.030   7.962  0.7033  0.1884  0.3113
 3073SOL     OW20677   1.492   3.738   5.765 -0.7868 -0.0656  0.7053
 3073SOL    HW120678   1.457   3.740   5.677  1.2466 -0.7054 -0.1132
 3073SOL    HW220679   1.530   3.650   5.771 -0.8866 -0.1539 -0.0785
 3074SOL     OW20680   3.954   2.529   5.906  0.8212 -0.0112  0.3062
 3074SOL    HW120681   3.949   2.557   5.997 -0.9773 -0.4230  0.3325
 3074SOL    HW220682   4.049   2.537   5.893  0.7962 -0.8857 -0.4576
 3075SOL     OW20683   3.180   3.610   3.024  0.0275 -0.1415  0.1002
 3075SOL    HW120684   3.149   3.561   2.948  2.5904 -0.3461 -0.7885
 3075SOL    HW220685   3.223   3.683   2.980 -1.7025  1.3040  0.8069
 3076SOL     OW20686   2.999   0.235   0.736  0.2258 -0.7074 -0.0705
 3076SOL    HW120687   2.955   0.150   0.724 -1.4462  0.0851  0.4772
 3076SOL    HW220688   2.927   0.296   0.752  1.0833  0.4950 -0.8458
 3077SOL     OW20689   3.583   0.186  10.291 -0.2151  0.2933  0.3395
 3077SOL    HW120690   3.564   0.233  10.209 -0.6634 -2.0508 -0.8855
 3077SOL    HW220691   3.553   0.255  10.350 -0.7892 -0.8744  1.4037
 3078SOL     OW20692   3.529   4.293   0.442 -0.7257 -0.2888  0.1170
 3078SOL    HW120693   3.607   4.344   0.420  0.7658 -3.3487 -1.6680
 3078SOL    HW220694   3.546   4.216   0.387 -0.5532  0.1674 -0.4763
 3079SOL     OW20695   1.489   1.354  16.396 -0.0287 -0.0492  0.7567
 3079SOL    HW120696   1.531   1.277  16.435 -0.4614 -0.5084  0.3160
 3079SOL    HW220697   1.566   1.379  16.345 -1.5566  0.1418 -1.4341
 3080SOL     OW20698   1.087   1.234  16.782 -0.7752  0.1942 -0.6220
 3080SOL    HW120699   1.175   1.269  16.771 -0.6826  0.8331  2.2338
 3080SOL    HW220700   1.114   1.142  16.793 -2.1247  0.0705  1.5953
 3081SOL     OW20701   2.635   4.434   4.299 -0.2776 -0.0648 -0.4203
 3081SOL    HW120702   2.728   4.455   4.287 -0.6342  3.2870  2.4168
 3081SOL    HW220703   2.597   4.522   4.301 -0.0715  0.0078  0.7553
 3082SOL     OW20704   4.271   1.556   3.063 -0.3211 -0.4047  0.1999
 3082SOL    HW120705   4.235   1.475   3.027  0.7105  0.2296 -2.2422
 3082SOL    HW220706   4.364   1.534   3.057 -0.0504  1.3673 -2.4526
 3083SOL     OW20707   2.461   0.142   4.704 -0.3266  0.3999  0.3523
 3083SOL    HW120708   2.451   0.125   4.798 -0.8129 -3.0026 -0.2935
 3083SOL    HW220709   2.384   0.195   4.682 -0.8147 -0.3769  0.1831
 3084SOL     OW20710   2.373   2.178   4.609 -0.5764 -0.3197  0.3848
 3084SOL    HW120711   2.285   2.140   4.610 -1.0791  0.8509  0.2510
 3084SOL    HW220712   2.344   2.265   4.637  0.2116 -0.4361  1.5870
 3085SOL     OW20713   4.646   2.367   6.050  0.5700  0.0386  0.0332
 3085SOL    HW120714   4.568   2.355   6.105 -2.4850  0.9292 -4.1298
 3085SOL    HW220715   4.696   2.437   6.093  0.9402 -0.7098  0.8322
 3086SOL     OW20716   4.498   0.115   7.059  0.2081  0.0347  0.0863
 3086SOL    HW120717   4.490   0.202   7.021  0.9404 -0.0952 -0.3779
 3086SOL    HW220718   4.450   0.073   6.988  0.0627  1.5695 -0.7166
 3087SOL     OW20719   1.953   1.724  15.310 -0.0269 -0.5213  0.0580
 3087SOL    HW120720   1.951   1.666  15.234 -0.2286 -2.4196  1.5042
 3087SOL    HW220721   1.879   1.692  15.361  1.9091 -1.4917  2.2791
 3088SOL     OW20722   3.560   1.695   5.609 -0.2525 -0.0241 -0.4867
 3088SOL    HW120723   3.503   1.621   5.631  0.9870 -1.2484 -1.3594
 3088SOL    HW220724   3.585   1.684   5.517  0.5011  0.8747 -0.3892
 3089SOL     OW20725   1.798   3.718   6.391  0.6141  0.2754 -0.6294
 3089SOL    HW120726   1.769   3.710   6.481  0.1361 -0.8954 -0.8866
 3089SOL    HW220727   1.862   3.789   6.402 -0.6692  0.9873  2.1167
 3090SOL     OW20728   3.304   3.035   9.534  0.4534  0.5807  0.2326
 3090SOL    HW120729   3.278   2.945   9.514 -0.6774  0.9999 -0.1894
 3090SOL    HW220730   3.238   3.072   9.593 -0.0212  1.0479 -0.6048
 3091SOL     OW20731   1.401   2.720   3.655  0.0739  1.0477  0.0064
 3091SOL    HW120732   1.396   2.661   3.731 -3.2814  0.7942 -0.4048
 3091SOL    HW220733   1.307   2.713   3.635  0.1783  1.8007 -0.7038
 3092SOL     OW20734   0.279   0.237  14.512 -0.1538  0.0716 -0.0498
 3092SOL    HW120735   0.300   0.226  14.419 -1.1420  2.1094 -0.5066
 3092SOL    HW220736   0.260   0.331  14.519 -1.9967 -0.3898  1.2790
 3093SOL     OW20737   3.152   2.040   7.045  0.3566  0.0692 -0.6647
 3093SOL    HW120738   3.076   2.073   6.996 -1.6222  0.2944  2.5823
 3093SOL    HW220739   3.195   2.122   7.066  0.2576 -0.5508  1.9325
 3094SOL     OW20740   2.416   0.635   9.925  0.0476  0.0379 -0.5661
 3094SOL    HW120741   2.343   0.615   9.984  2.3242  1.7860  2.8875
 3094SOL    HW220742   2.380   0.634   9.837 -0.5038  1.5581 -0.3666
 3095SOL     OW20743   3.503   1.400   8.794 -0.2479 -0.1167  0.0617
 3095SOL    HW120744   3.451   1.479   8.781 -1.3833 -0.7440  0.8254
 3095SOL    HW220745   3.580   1.434   8.841 -0.6707  3.2834 -1.6718
 3096SOL     OW20746   3.087   2.345   4.797 -0.4488  0.0783  0.2608
 3096SOL    HW120747   3.074   2.438   4.816 -0.1336  0.1138  0.2938
 3096SOL    HW220748   3.081   2.342   4.701  2.4738 -1.0934  0.1310
 3097SOL     OW20749   2.289   2.907   8.883 -0.2756  0.3509 -0.0660
 3097SOL    HW120750   2.238   2.838   8.839  1.0817 -0.5614 -0.2005
 3097SOL    HW220751   2.313   2.871   8.968 -1.5242  1.6465  0.8437
 3098SOL     OW20752   1.796   1.587  10.089 -0.6120  0.7234  0.3752
 3098SOL    HW120753   1.746   1.505  10.090 -1.3458  1.1678 -0.4026
 3098SOL    HW220754   1.869   1.549  10.039 -0.3659 -0.7375  1.8299
 3099SOL     OW20755   1.415   2.585   9.077 -0.5191 -0.3336  0.7671
 3099SOL    HW120756   1.333   2.621   9.045  1.7205  3.8390 -0.2227
 3099SOL    HW220757   1.440   2.529   9.003 -1.0516 -0.7351  0.8887
 3100SOL     OW20758   4.629   2.609   5.314 -0.2648  0.7160  0.4353
 3100SOL    HW120759   4.545   2.646   5.287  0.2805  2.7213  1.5255
 3100SOL    HW220760   4.608   2.560   5.393 -4.2498  0.1748 -0.9558
 3101SOL     OW20761   4.427   2.327   6.185 -0.1031  0.3820  0.5281
 3101SOL    HW120762   4.356   2.279   6.141  1.0808 -0.4053 -0.5186
 3101SOL    HW220763   4.379   2.408   6.202 -1.3765 -0.4044  0.6904
 3102SOL     OW20764   0.619   1.057   4.517  0.5480  0.8147 -0.0591
 3102SOL    HW120765   0.694   1.114   4.506  1.4778  0.1479  2.7543
 3102SOL    HW220766   0.550   1.111   4.479  1.5958  2.3932  0.2783
 3103SOL     OW20767   1.435   0.141   5.535  0.3490  0.4225 -0.3193
 3103SOL    HW120768   1.440   0.216   5.594 -0.1788  0.1085  0.1144
 3103SOL    HW220769   1.369   0.088   5.579  1.2728 -1.8340 -1.5804
 3104SOL     OW20770   0.525   3.624   0.474 -0.2613 -0.4593 -0.2834
 3104SOL    HW120771   0.587   3.636   0.546 -0.4111 -2.2763  0.1295
 3104SOL    HW220772   0.525   3.713   0.438 -1.4782 -0.1752  0.4553
 3105SOL     OW20773   1.895   0.198   0.806 -0.1625 -0.5494 -0.4408
 3105SOL    HW120774   1.902   0.293   0.798  1.7500 -0.6327  0.2319
 3105SOL    HW220775   1.805   0.200   0.774 -0.4676  0.4888  0.5059
 3106SOL     OW20776   0.044   0.216  11.862  0.2091 -0.5913 -0.3271
 3106SOL    HW120777   0.063   0.156  11.935 -1.2760  1.2407  1.5926
 3106SOL    HW220778   0.089   0.294  11.894  0.9672 -0.2427 -2.2748
 3107SOL     OW20779   2.174   4.571   5.689  0.2533 -0.8005  0.2291
 3107SOL    HW120780   2.104   4.599   5.748 -0.0240  1.9235 -1.3988
 3107SOL    HW220781   2.241   4.630   5.723  0.3202 -0.6106 -0.2380
 3108SOL     OW20782   2.434   1.713   5.918 -0.5971 -0.2275 -0.3141
 3108SOL    HW120783   2.496   1.641   5.907 -1.9026 -1.3126 -0.5923
 3108SOL    HW220784   2.472   1.788   5.871 -4.7545  2.2987  0.4063
 3109SOL     OW20785   3.497   2.659   6.787 -0.7704  0.0714 -0.3246
 3109SOL    HW120786   3.516   2.730   6.848 -0.2233  0.5128 -1.0157
 3109SOL    HW220787   3.563   2.678   6.721  0.2362 -3.5527 -0.3903
 3110SOL     OW20788   4.297   3.229   2.966 -0.1931 -0.5741 -0.5955
 3110SOL    HW120789   4.386   3.193   2.973 -0.4876 -1.9039 -3.8199
 3110SOL    HW220790   4.242   3.155   2.992 -1.4990  0.5665 -0.1633
 3111SOL     OW20791   1.274   2.266  13.964 -0.1576 -0.5471 -0.3955
 3111SOL    HW120792   1.195   2.231  14.004  0.3564  1.2940  2.2422
 3111SOL    HW220793   1.239   2.308  13.885 -1.5223 -0.5777  0.1927
 3112SOL     OW20794   2.380   1.423  11.765 -0.5754  0.2334 -0.0013
 3112SOL    HW120795   2.320   1.380  11.826 -0.5042 -0.8882 -0.7278
 3112SOL    HW220796   2.456   1.456  11.813  0.7464 -1.8686 -0.6345
 3113SOL     OW20797   3.059   1.487   1.140 -0.1195 -0.2932  0.1170
 3113SOL    HW120798   2.968   1.461   1.157  0.1492  2.2094  5.2693
 3113SOL    HW220799   3.101   1.410   1.179 -1.3353 -1.7872 -1.4755
 3114SOL     OW20800   2.718   4.323   7.070  0.2044 -0.0306  0.3208
 3114SOL    HW120801   2.755   4.291   6.987 -0.0303  0.0211  0.1939
 3114SOL    HW220802   2.718   4.418   7.060 -3.4162 -0.1365 -0.5582
 3115SOL     OW20803   1.610   2.349   7.338  0.1871  0.2634 -0.0919
 3115SOL    HW120804   1.605   2.445   7.345  1.0719  0.2242  1.1917
 3115SOL    HW220805   1.700   2.341   7.371 -1.6676  0.3976  5.0408
 3116SOL     OW20806   2.223   1.137   9.054 -0.0844  0.3224 -1.0226
 3116SOL    HW120807   2.159   1.106   9.117 -0.5633  0.6701 -1.3374
 3116SOL    HW220808   2.223   1.068   8.987 -0.2263 -1.1453  0.4838
 3117SOL     OW20809   0.257   0.179   2.675 -0.2237 -0.5277 -0.6615
 3117SOL    HW120810   0.305   0.218   2.602  1.3582 -1.5984 -0.1977
 3117SOL    HW220811   0.268   0.085   2.666 -0.1804 -0.4324 -1.5330
 3118SOL     OW20812   0.053   2.725   3.645 -0.5756  0.0386  0.0033
 3118SOL    HW120813   4.683   2.716   3.633 -0.8736  0.8374  1.7274
 3118SOL    HW220814   0.057   2.654   3.709 -0.0259  0.2369  0.1944
 3119SOL     OW20815   1.037   4.662   4.828 -0.7849 -0.0611 -0.1717
 3119SOL    HW120816   0.981   0.002   4.784 -0.1122 -0.2192 -1.2486
 3119SOL    HW220817   1.054   4.605   4.752 -0.4734  2.4170 -1.9506
 3120SOL     OW20818   1.487   3.358   3.620  0.8739 -0.4093 -0.6437
 3120SOL    HW120819   1.430   3.293   3.578  3.2095 -1.5349 -2.0295
 3120SOL    HW220820   1.452   3.442   3.590  0.5760 -0.8075 -1.3941
 3121SOL     OW20821   4.366   2.810   6.841 -0.3270  0.0094 -0.1065
 3121SOL    HW120822   4.390   2.753   6.914  1.1129  0.7036 -0.0524
 3121SOL    HW220823   4.427   2.778   6.775  1.8688 -0.1117  1.9845
 3122SOL     OW20824   4.637   3.571   8.760  0.3724  0.4460  0.0229
 3122SOL    HW120825   0.007   3.550   8.766  0.5694  0.7911 -1.7800
 3122SOL    HW220826   4.603   3.497   8.709 -0.6924  0.3445  0.8974
 3123SOL     OW20827   4.281   2.956   0.338  0.2819 -0.3888  0.6750
 3123SOL    HW120828   4.203   3.011   0.348  0.6508  0.1286  0.6789
 3123SOL    HW220829   4.345   3.026   0.348 -0.3823  0.2098  0.7610
 3124SOL     OW20830   2.877   1.924   4.307  0.2227 -0.3534 -0.2053
 3124SOL    HW120831   2.791   1.925   4.265  1.2019  0.1178 -2.2106
 3124SOL    HW220832   2.866   1.843   4.356 -0.7493  1.0094  1.8237
 3125SOL     OW20833   1.812   2.413  17.090 -0.2365 -0.5938 -0.3930
 3125SOL    HW120834   1.807   2.443  17.180 -1.6597  0.2406 -0.7515
 3125SOL    HW220835   1.824   2.499  17.050 -1.6221 -0.6244 -0.8679
 3126SOL     OW20836   1.770   1.986  12.089  0.2416 -0.3010  0.2037
 3126SOL    HW120837   1.834   2.024  12.148 -0.2324 -1.5422  1.5157
 3126SOL    HW220838   1.754   1.899  12.125 -0.9299 -0.0117  0.4120
 3127SOL     OW20839   3.708   4.176   8.351 -0.4965 -0.1372 -0.3020
 3127SOL    HW120840   3.691   4.260   8.308 -2.4925  1.0104  2.7587
 3127SOL    HW220841   3.658   4.181   8.432  0.3074  1.5595  0.0946
 3128SOL     OW20842   0.435   3.925   6.247 -0.1288 -0.1406 -0.5551
 3128SOL    HW120843   0.522   3.922   6.286 -0.8451 -2.1232  0.9120
 3128SOL    HW220844   0.375   3.911   6.320  0.5879  0.2052  0.0915
 3129SOL     OW20845   1.329   1.316  16.725  0.2323  0.1351  0.3966
 3129SOL    HW120846   1.387   1.251  16.686  1.2978  1.2769  0.0831
 3129SOL    HW220847   1.392   1.382  16.753 -0.3573  0.3055  1.3239
 3130SOL     OW20848   3.444   3.233   3.552  0.0891  0.5246  0.4716
 3130SOL    HW120849   3.385   3.277   3.490  1.4488 -1.3737 -2.1918
 3130SOL    HW220850   3.515   3.207   3.493 -0.9114 -1.7661  0.2969
 3131SOL     OW20851   1.034   0.648  12.139 -0.1879  0.4488 -0.1344
 3131SOL    HW120852   0.940   0.660  12.130 -0.2487 -0.5055 -0.7569
 3131SOL    HW220853   1.069   0.678  12.223 -0.0592 -0.3683  0.1027
 3132SOL     OW20854   1.911   3.005   6.034 -0.5060 -0.0751  0.0191
 3132SOL    HW120855   1.939   2.986   6.124  0.0837 -0.5624 -0.2704
 3132SOL    HW220856   1.980   3.068   6.016 -0.5536 -0.2568 -0.7724
 3133SOL     OW20857   4.310   3.801   7.365  0.0913 -0.0493  0.4585
 3133SOL    HW120858   4.286   3.713   7.393  1.7796 -0.6802 -0.1090
 3133SOL    HW220859   4.305   3.846   7.450 -4.3543 -1.9796  1.2564
 3134SOL     OW20860   1.249   1.573   1.255 -0.1212 -0.2656 -0.1443
 3134SOL    HW120861   1.163   1.611   1.235  0.1884  0.9988  0.9823
 3134SOL    HW220862   1.297   1.591   1.174  0.9625  0.1694  0.6056
 3135SOL     OW20863   3.704   3.221   3.119 -0.2137 -0.1874 -0.1223
 3135SOL    HW120864   3.781   3.255   3.073 -0.5682 -1.0075 -1.3236
 3135SOL    HW220865   3.685   3.141   3.071 -1.2989 -0.6905  1.1293
 3136SOL     OW20866   2.580   0.204   6.621  0.0048  0.4093 -0.5554
 3136SOL    HW120867   2.525   0.229   6.696  0.1671  0.0990 -0.3322
 3136SOL    HW220868   2.546   0.252   6.545  1.1563 -1.3101 -2.1590
 3137SOL     OW20869   3.951   3.597  11.477 -0.0493 -0.1730  0.3729
 3137SOL    HW120870   3.924   3.685  11.500  1.9701  0.7222 -0.6469
 3137SOL    HW220871   3.904   3.592  11.394  3.0441 -1.0290 -1.3390
 3138SOL     OW20872   0.609   3.465   1.496  0.3759 -0.3852 -0.2377
 3138SOL    HW120873   0.563   3.485   1.578  0.1625  3.6747 -1.3721
 3138SOL    HW220874   0.567   3.505   1.420 -2.1756 -0.4958  1.1263
 3139SOL     OW20875   0.194   3.793   7.639 -0.2663 -0.0269 -0.1572
 3139SOL    HW120876   0.206   3.704   7.606  1.2323 -0.1330  0.6748
 3139SOL    HW220877   0.281   3.815   7.672 -0.1051 -0.6295 -0.1931
 3140SOL     OW20878   4.125   1.821   4.580  0.3192 -0.3006  0.4631
 3140SOL    HW120879   4.159   1.875   4.652 -2.2820  1.0353  0.6925
 3140SOL    HW220880   4.046   1.779   4.615 -0.6619  0.6260 -0.6275
 3141SOL     OW20881   4.695   1.935   2.174  0.3001  0.0121 -0.1440
 3141SOL    HW120882   4.688   2.024   2.139  0.7906 -0.3010 -1.0515
 3141SOL    HW220883   4.699   1.880   2.096  1.3788 -1.1515  0.7508
 3142SOL     OW20884   3.391   1.131   4.355  0.1899  0.0237 -0.6283
 3142SOL    HW120885   3.358   1.216   4.386 -1.4840 -0.2403 -1.6587
 3142SOL    HW220886   3.477   1.160   4.325  1.3411 -2.2714  0.5364
 3143SOL     OW20887   3.249   0.050   4.494 -0.2560  0.1511 -0.2316
 3143SOL    HW120888   3.216   0.132   4.457 -1.2388 -1.4154 -2.8024
 3143SOL    HW220889   3.268   0.078   4.583 -1.4896  0.5106 -0.0859
 3144SOL     OW20890   3.832   0.761   3.272  0.0042 -0.9192  0.3028
 3144SOL    HW120891   3.900   0.694   3.265 -0.7544 -1.6830  0.1180
 3144SOL    HW220892   3.794   0.742   3.358  1.9135  0.7095  1.5053
 3145SOL     OW20893   4.692   3.388  17.160 -0.2554 -0.0896 -0.1229
 3145SOL    HW120894   4.659   3.316  17.214  2.3098  0.1453  1.7208
 3145SOL    HW220895   4.644   3.373  17.079  0.0240 -3.5912  0.3777
 3146SOL     OW20896   3.559   2.951   9.480 -0.1281  0.4229  0.4405
 3146SOL    HW120897   3.479   2.979   9.525  1.0773  0.4763  2.5562
 3146SOL    HW220898   3.589   3.037   9.450  0.4833 -0.0896 -0.4032
 3147SOL     OW20899   2.859   0.740   5.361 -0.0002  0.1353  0.3626
 3147SOL    HW120900   2.839   0.800   5.289 -3.3836 -1.2989  0.0896
 3147SOL    HW220901   2.878   0.795   5.436 -0.3895 -0.7302  1.0922
 3148SOL     OW20902   2.678   1.120  14.713  0.2694 -0.1125 -0.1568
 3148SOL    HW120903   2.763   1.164  14.705 -1.1928  2.5044 -1.3540
 3148SOL    HW220904   2.704   1.028  14.710 -0.4037 -0.3358  0.8735
 3149SOL     OW20905   3.714   1.665  11.805  0.7635  0.5800  0.0019
 3149SOL    HW120906   3.620   1.655  11.792  1.1383 -1.4574 -1.1592
 3149SOL    HW220907   3.735   1.594  11.866 -2.6562 -1.2860 -1.0348
 3150SOL     OW20908   2.323   2.481  12.438 -0.4896 -0.2768  0.3448
 3150SOL    HW120909   2.339   2.406  12.380  1.4556 -0.5626  1.2576
 3150SOL    HW220910   2.327   2.550  12.371 -2.1922 -0.9081 -0.3990
 3151SOL     OW20911   0.454   0.745   5.598  0.4498 -0.3344  0.2741
 3151SOL    HW120912   0.465   0.730   5.504  2.2977 -0.3023  0.4763
 3151SOL    HW220913   0.515   0.818   5.613 -0.7413  0.6942  0.1708
 3152SOL     OW20914   4.516   4.081   3.380 -0.0805  0.0876 -0.1387
 3152SOL    HW120915   4.599   4.120   3.407  0.5725 -1.5629  0.2894
 3152SOL    HW220916   4.543   4.013   3.318  2.7913  2.6429 -1.6237
 3153SOL     OW20917   3.444   4.437  11.189 -0.2544  0.2804 -0.6253
 3153SOL    HW120918   3.513   4.426  11.124 -0.2032 -3.0755 -0.0025
 3153SOL    HW220919   3.363   4.464  11.145 -1.0569 -1.0484 -0.0058
 3154SOL     OW20920   1.729   3.069   5.074 -0.6482  0.5284 -0.0851
 3154SOL    HW120921   1.726   3.142   5.137 -0.4822 -1.2985  2.0638
 3154SOL    HW220922   1.754   3.001   5.137 -0.0269  1.5351  0.7589
 3155SOL     OW20923   2.665   3.076  12.988  0.4269  0.3345  0.6575
 3155SOL    HW120924   2.658   3.071  12.893  1.2775 -0.6616  0.6542
 3155SOL    HW220925   2.718   3.154  13.006  1.5258 -0.5905  1.4197
 3156SOL     OW20926   2.673   1.298   7.130 -0.0893  0.3256 -0.3603
 3156SOL    HW120927   2.641   1.372   7.078  0.9290  0.3164 -1.0027
 3156SOL    HW220928   2.639   1.220   7.088  0.6243 -0.0824 -0.1799
 3157SOL     OW20929   2.709   0.058   1.080 -0.1151  0.5390 -0.1091
 3157SOL    HW120930   2.784   0.104   1.118  1.9698 -3.0401  0.1007
 3157SOL    HW220931   2.762   4.717   1.035 -2.4235 -2.7027  1.8665
 3158SOL     OW20932   4.450   2.036   8.200  0.1140  0.2584 -0.2632
 3158SOL    HW120933   4.516   1.967   8.203 -0.4196 -0.1738  1.7812
 3158SOL    HW220934   4.378   2.008   8.257 -1.1802 -0.0896 -2.0626
 3159SOL     OW20935   3.430   2.542   4.910 -0.0765  0.1969 -0.0491
 3159SOL    HW120936   3.345   2.520   4.873 -0.6530  1.1192  0.7471
 3159SOL    HW220937   3.449   2.630   4.877  2.1457 -0.5534 -0.7921
 3160SOL     OW20938   0.786   3.934   7.490  0.0544  0.4809 -0.0517
 3160SOL    HW120939   0.839   3.931   7.570  1.1010  0.4719 -0.7440
 3160SOL    HW220940   0.859   3.931   7.428  0.8131  0.0736  0.8587
 3161SOL     OW20941   0.133   1.704   4.869  0.0039  0.0376 -0.3327
 3161SOL    HW120942   0.065   1.636   4.874 -1.6558  1.6364 -1.6063
 3161SOL    HW220943   0.207   1.647   4.851  1.3393  1.7394 -0.2166
 3162SOL     OW20944   1.201   4.133   4.756 -0.3101  0.1457 -0.4422
 3162SOL    HW120945   1.270   4.072   4.732 -0.6217 -0.4350  0.1222
 3162SOL    HW220946   1.171   4.151   4.667 -1.5184  1.4430  0.2233
 3163SOL     OW20947   3.602   0.137  11.855 -0.1003 -0.1021 -0.1014
 3163SOL    HW120948   3.647   0.096  11.781 -1.6089  2.4217 -2.4491
 3163SOL    HW220949   3.575   0.225  11.826  0.9958  0.5518  0.8671
 3164SOL     OW20950   3.341   0.505   3.089 -0.0645 -0.4586 -0.2122
 3164SOL    HW120951   3.299   0.433   3.041 -1.5043  0.6918 -0.6696
 3164SOL    HW220952   3.333   0.467   3.177  2.8358  0.3445  0.3837
 3165SOL     OW20953   3.727   2.847  13.072 -0.0716  0.0669  0.2458
 3165SOL    HW120954   3.747   2.853  13.166  2.0460  0.1443 -0.2202
 3165SOL    HW220955   3.654   2.907  13.059  1.5181  1.7897 -0.6740
 3166SOL     OW20956   1.553   2.604   7.456  0.3442 -0.6470 -0.3878
 3166SOL    HW120957   1.550   2.644   7.543  0.0571  1.5977 -1.4124
 3166SOL    HW220958   1.502   2.667   7.405  0.8978 -0.2746 -0.4887
 3167SOL     OW20959   3.208   0.540  15.890 -0.4101  0.0157  0.3459
 3167SOL    HW120960   3.176   0.583  15.811  0.2857  1.4792  0.8532
 3167SOL    HW220961   3.266   0.609  15.923 -1.3617  0.5048  1.0129
 3168SOL     OW20962   0.481   2.472   2.808  0.2725 -0.9915  0.1569
 3168SOL    HW120963   0.452   2.415   2.879 -0.8052 -0.0111  0.5155
 3168SOL    HW220964   0.399   2.491   2.762 -0.2437  0.0135  1.4491
 3169SOL     OW20965   2.019   3.726   2.159  0.0396  0.0596  0.3127
 3169SOL    HW120966   2.087   3.792   2.143  0.7837 -0.6925  0.3995
 3169SOL    HW220967   2.050   3.648   2.112  0.8471 -0.1392  1.1688
 3170SOL     OW20968   2.390   0.145   7.931  0.9546 -0.7239  0.0516
 3170SOL    HW120969   2.347   0.226   7.903 -0.1449 -0.4089  2.7227
 3170SOL    HW220970   2.327   0.076   7.913  1.1181 -1.3314  1.8535
 3171SOL     OW20971   3.646   4.527   1.718  0.5880  0.3002 -0.0461
 3171SOL    HW120972   3.620   4.613   1.683 -0.3102 -0.6717 -1.7979
 3171SOL    HW220973   3.678   4.491   1.635  1.2436  0.7814  0.0015
 3172SOL     OW20974   0.850   0.558   3.690 -0.5630  0.5581 -1.0077
 3172SOL    HW120975   0.912   0.505   3.640 -1.2475 -1.5078  0.3232
 3172SOL    HW220976   0.880   0.558   3.781  1.5766 -1.4787 -1.6858
 3173SOL     OW20977   0.915   3.205   3.752 -0.0754  0.2727 -0.2490
 3173SOL    HW120978   1.009   3.192   3.764 -0.1127  1.4948  1.2599
 3173SOL    HW220979   0.875   3.195   3.838 -1.1852  0.3792 -0.7507
 3174SOL     OW20980   3.392   2.768   5.769 -0.0217 -0.1152 -0.0436
 3174SOL    HW120981   3.395   2.713   5.691 -1.7256 -1.8190  1.0787
 3174SOL    HW220982   3.466   2.822   5.742 -1.0071  1.0079 -0.4998
 3175SOL     OW20983   3.958   0.395   4.911  0.2228  0.1388 -0.1193
 3175SOL    HW120984   3.913   0.345   4.979  1.5294 -1.6768 -0.5981
 3175SOL    HW220985   4.041   0.411   4.955 -1.0652  0.0323  2.3657
 3176SOL     OW20986   0.317   3.854   9.203  0.0745 -0.2252  0.6401
 3176SOL    HW120987   0.291   3.771   9.243 -1.0623 -0.3060 -0.2749
 3176SOL    HW220988   0.316   3.823   9.112  1.1737  2.4572 -0.2940
 3177SOL     OW20989   0.125   3.554  15.645  0.2329  0.2813 -0.6627
 3177SOL    HW120990   0.219   3.542  15.653  0.4349  0.8146 -2.2415
 3177SOL    HW220991   0.113   3.614  15.572  0.8128  0.2772 -0.7582
 3178SOL     OW20992   0.944   2.404   0.098 -0.4995 -0.1165 -0.2909
 3178SOL    HW120993   0.912   2.464   0.165  1.1682 -2.3743  2.5142
 3178SOL    HW220994   0.931   2.319   0.140  0.0799 -0.7980 -1.4785
 3179SOL     OW20995   3.996   0.683   1.176 -0.2213 -0.5548 -0.1590
 3179SOL    HW120996   3.982   0.763   1.126  3.5791  0.7105  0.8460
 3179SOL    HW220997   3.922   0.626   1.151 -1.6635  1.5239 -0.6137
 3180SOL     OW20998   2.740   0.314   6.035  0.2642 -0.0612 -0.2164
 3180SOL    HW120999   2.744   0.278   6.123 -2.3436  0.1011 -0.0365
 3180SOL    HW221000   2.681   0.254   5.989 -1.8713  0.0605  2.4037
 3181SOL     OW21001   0.118   1.873   2.713  0.1569  0.2291  0.4761
 3181SOL    HW121002   0.170   1.940   2.668  0.3673 -0.2938 -0.0615
 3181SOL    HW221003   0.093   1.920   2.792 -0.9475 -2.1842  1.5720
 3182SOL     OW21004   4.325   2.067  15.525  0.5238 -0.1064 -0.7411
 3182SOL    HW121005   4.395   2.003  15.510 -0.6781 -1.5885 -0.1273
 3182SOL    HW221006   4.264   2.046  15.454  1.1497 -0.6398 -1.1278
 3183SOL     OW21007   4.511   0.327   4.276 -0.3240 -0.4552  0.3269
 3183SOL    HW121008   4.469   0.409   4.249 -0.7569 -0.6894  0.2881
 3183SOL    HW221009   4.476   0.265   4.212 -0.8007 -0.0559  0.2052
 3184SOL     OW21010   3.989   4.093  12.604  0.2174 -0.2060  0.3983
 3184SOL    HW121011   3.934   4.014  12.606 -0.3201  0.1517 -0.3588
 3184SOL    HW221012   4.043   4.074  12.527 -4.0645  1.6907 -3.0707
 3185SOL     OW21013   3.956   3.180   1.176  0.4416  0.3232  0.2503
 3185SOL    HW121014   4.017   3.113   1.147 -0.1000 -0.1109  0.1144
 3185SOL    HW221015   3.956   3.247   1.107  0.4419  0.7674  0.6776
 3186SOL     OW21016   0.913   1.174   2.208 -0.6938 -0.1068 -0.1066
 3186SOL    HW121017   0.969   1.249   2.186 -1.3264  0.4073  0.0419
 3186SOL    HW221018   0.845   1.173   2.140  0.9516  1.6861 -1.7806
 3187SOL     OW21019   1.872   1.600   0.154  0.3132 -0.6389  0.2173
 3187SOL    HW121020   1.966   1.605   0.140  0.0271  0.5020 -1.2901
 3187SOL    HW221021   1.854   1.525   0.097 -1.1379  0.1561 -0.3733
 3188SOL     OW21022   3.208   3.720  12.237  0.4836 -0.4299 -0.2021
 3188SOL    HW121023   3.141   3.781  12.206 -0.9837 -1.4420  0.9967
 3188SOL    HW221024   3.181   3.634  12.204  1.4384 -0.5296 -0.7247
 3189SOL     OW21025   4.362   1.531  12.764 -0.1505 -0.0394 -0.4421
 3189SOL    HW121026   4.307   1.454  12.755 -0.4856  0.1090  0.3528
 3189SOL    HW221027   4.389   1.534  12.856  2.4128 -0.7537 -1.2020
 3190SOL     OW21028   1.333   0.720   8.058 -0.0591  0.3763 -0.1937
 3190SOL    HW121029   1.283   0.653   8.011 -1.7840  2.0894 -0.7952
 3190SOL    HW221030   1.270   0.763   8.115  0.4058  1.9962 -0.8967
 3191SOL     OW21031   2.108   0.315  11.573  0.1614  0.8168  0.1968
 3191SOL    HW121032   2.038   0.371  11.539 -1.4873 -1.1166  0.3795
 3191SOL    HW221033   2.092   0.332  11.666 -0.0760 -0.5290  0.3988
 3192SOL     OW21034   3.142   3.982  10.173 -0.2725  0.2167  0.4603
 3192SOL    HW121035   3.175   4.067  10.199  2.2936 -0.8089  0.5365
 3192SOL    HW221036   3.206   3.920  10.207  0.1339  0.8276  0.7968
 3193SOL     OW21037   4.287   3.505   7.406 -0.3993 -0.4626  0.8015
 3193SOL    HW121038   4.290   3.411   7.387 -1.8506 -0.0860 -1.3925
 3193SOL    HW221039   4.322   3.515   7.494 -0.1875 -0.3491  0.7063
 3194SOL     OW21040   0.914   3.435  14.506  0.1096 -0.1117 -0.0211
 3194SOL    HW121041   0.939   3.416  14.415 -1.2699 -0.8996 -0.2331
 3194SOL    HW221042   0.956   3.369  14.561 -1.3707 -0.8449  0.2273
 3195SOL     OW21043   3.724   2.623   3.391  0.1511  0.0927 -0.6158
 3195SOL    HW121044   3.694   2.617   3.300 -0.6908  1.4525 -0.4389
 3195SOL    HW221045   3.650   2.675   3.423 -0.5991 -0.4673 -1.4350
 3196SOL     OW21046   4.357   0.546  13.782 -0.4121 -0.2964  0.6290
 3196SOL    HW121047   4.281   0.526  13.728 -2.1255  4.1012  1.4289
 3196SOL    HW221048   4.306   0.573  13.858 -0.7450 -1.3754  0.7869
 3197SOL     OW21049   4.102   4.611   1.690 -0.0897 -0.3692  0.1343
 3197SOL    HW121050   4.073   4.520   1.693 -0.3859 -0.3018 -0.5542
 3197SOL    HW221051   4.128   4.621   1.598 -1.2676 -0.0690 -0.1711
 3198SOL     OW21052   2.830   4.428   2.115 -0.1911 -0.4194  0.1124
 3198SOL    HW121053   2.853   4.518   2.139 -0.4670 -0.5153  0.7500
 3198SOL    HW221054   2.737   4.433   2.094 -0.0799  1.0586 -0.0443
 3199SOL     OW21055   1.162   1.753   3.696 -0.0327 -0.2448 -0.1953
 3199SOL    HW121056   1.257   1.746   3.687  0.0779  0.2286  0.5987
 3199SOL    HW221057   1.141   1.840   3.660 -1.0456 -0.6376 -0.5288
 3200SOL     OW21058   3.332   0.339  14.427  0.2659 -0.6195 -0.5614
 3200SOL    HW121059   3.330   0.429  14.395 -0.8172 -0.5615 -0.3071
 3200SOL    HW221060   3.329   0.341  14.523  1.1032 -2.0464 -0.5004
 3201SOL     OW21061   4.673   2.494   0.449  0.2765  0.0084  0.0385
 3201SOL    HW121062   4.666   2.577   0.495  2.3781 -0.0588  0.4552
 3201SOL    HW221063   4.601   2.480   0.388 -0.6327 -1.7433  1.5167
 3202SOL     OW21064   3.212   2.959  13.056  0.1279 -0.4660  0.0184
 3202SOL    HW121065   3.189   3.037  13.005 -0.3699  0.5222  1.7491
 3202SOL    HW221066   3.131   2.909  13.046  0.7962 -1.9216  2.0013
 3203SOL     OW21067   3.842   0.945   2.604  0.2591  0.0121 -0.0806
 3203SOL    HW121068   3.854   1.034   2.635  0.6313  0.1441 -0.6102
 3203SOL    HW221069   3.790   0.959   2.525  1.8177  0.0413 -1.0918
 3204SOL     OW21070   4.439   2.687   4.919  0.2587  0.4428 -0.3025
 3204SOL    HW121071   4.515   2.738   4.891  1.8054 -1.1927  0.9121
 3204SOL    HW221072   4.365   2.731   4.877 -2.1305 -1.1724  2.2453
 3205SOL     OW21073   2.674   2.482   1.779  0.2241  0.5469  0.1871
 3205SOL    HW121074   2.646   2.445   1.695  1.1486  0.1965  0.0268
 3205SOL    HW221075   2.640   2.422   1.845  0.1179  0.2273 -0.1604
 3206SOL     OW21076   3.820   1.012   5.032 -0.1010 -0.0759 -0.2174
 3206SOL    HW121077   3.843   0.959   4.955 -1.1614 -1.9478  0.7438
 3206SOL    HW221078   3.849   1.101   5.013 -2.3305  1.3275  3.0234
 3207SOL     OW21079   4.623   0.081   6.033 -0.6181  0.5293 -1.0811
 3207SOL    HW121080   4.528   0.069   6.045 -0.4217 -0.5382 -0.5911
 3207SOL    HW221081   4.650   0.128   6.112 -2.3661 -1.9296  0.9786
 3208SOL     OW21082   1.595   3.062   8.833  0.4163  0.3060  0.5079
 3208SOL    HW121083   1.520   3.008   8.807  1.4354 -0.3438 -1.0790
 3208SOL    HW221084   1.595   3.139   8.776 -1.0847  0.9345  1.3385
 3209SOL     OW21085   4.429   1.301   3.559 -0.3503 -0.3521  0.0633
 3209SOL    HW121086   4.394   1.268   3.477 -0.5652 -2.6301  1.0668
 3209SOL    HW221087   4.361   1.363   3.587  0.3984  0.8424 -0.7835
 3210SOL     OW21088   4.196   1.119   0.896  0.1174 -0.1659  0.2514
 3210SOL    HW121089   4.120   1.123   0.954  0.0842  0.2166  0.1770
 3210SOL    HW221090   4.253   1.179   0.943  0.1011 -0.0163  0.0782
 3211SOL     OW21091   1.052   0.753   2.261 -0.4049 -0.0436 -0.2140
 3211SOL    HW121092   0.990   0.785   2.195 -3.1820  0.0238  2.4384
 3211SOL    HW221093   1.082   0.665   2.237  3.3919  1.1297  0.3341
 3212SOL     OW21094   3.659   1.448   4.075  0.0224  0.7709 -0.0608
 3212SOL    HW121095   3.736   1.450   4.133  0.8515 -0.9411 -1.0768
 3212SOL    HW221096   3.699   1.469   3.990  2.0002  1.2954  0.9946
 3213SOL     OW21097   2.603   0.721   0.319 -0.2385 -0.2150 -0.2707
 3213SOL    HW121098   2.605   0.811   0.352  2.1614  0.1120 -1.2682
 3213SOL    HW221099   2.567   0.676   0.396  1.0071 -1.2593 -0.2987
 3214SOL     OW21100   2.076   0.088   2.131  0.4033 -0.0610  0.3622
 3214SOL    HW121101   2.077   0.169   2.080 -2.4446 -0.0858  0.2513
 3214SOL    HW221102   2.127   0.122   2.205  0.1866  2.1340 -0.4986
 3215SOL     OW21103   1.453   0.235   8.885  0.5901  0.7110  0.0357
 3215SOL    HW121104   1.479   0.245   8.977  1.0591  1.6886 -0.1979
 3215SOL    HW221105   1.454   0.139   8.881 -2.3701  0.6358  1.5975
 3216SOL     OW21106   0.088   1.110   3.151 -0.5508 -0.1710 -0.1800
 3216SOL    HW121107   0.159   1.087   3.210 -0.0899  0.1002 -0.6313
 3216SOL    HW221108   0.091   1.037   3.090  0.9902  0.9031 -1.3921
 3217SOL     OW21109   3.231   2.041   6.697 -0.2886 -0.1345  0.8375
 3217SOL    HW121110   3.266   2.128   6.714  1.6524 -0.8439  0.4231
 3217SOL    HW221111   3.226   2.035   6.601  1.9439 -0.9972  0.7874
 3218SOL     OW21112   2.588   2.625   3.164 -0.4025  0.0719 -0.3984
 3218SOL    HW121113   2.655   2.576   3.213 -0.6286  0.7227  0.5519
 3218SOL    HW221114   2.519   2.574   3.207 -1.1526 -0.7312 -2.5342
 3219SOL     OW21115   2.832   4.695   2.132  0.1490  0.0562  0.1217
 3219SOL    HW121116   2.882   0.030   2.076  0.4509 -1.3787 -1.1168
 3219SOL    HW221117   2.745   4.723   2.104  0.0200  0.9575  1.4415
 3220SOL     OW21118   3.297   0.075   4.077 -0.1094 -0.0217 -0.3439
 3220SOL    HW121119   3.278   0.167   4.060  1.8537  0.2261 -1.2611
 3220SOL    HW221120   3.266   0.025   4.002  1.5353  1.6513 -2.1397
 3221SOL     OW21121   2.727   1.087  10.648 -0.0390  0.2189  0.1303
 3221SOL    HW121122   2.668   1.159  10.624 -1.0923 -0.7754 -0.2866
 3221SOL    HW221123   2.760   1.046  10.568  0.8645 -0.7574  1.0113
 3222SOL     OW21124   3.044   2.477  11.337 -0.1985 -0.1328 -0.0855
 3222SOL    HW121125   3.105   2.454  11.407 -1.9753  0.2079  1.5710
 3222SOL    HW221126   3.103   2.491  11.263  0.3250  0.0378  0.3637
 3223SOL     OW21127   4.554   3.927   7.751  0.4792 -0.3493 -0.1766
 3223SOL    HW121128   4.596   3.858   7.698  0.8843  1.6287 -2.4302
 3223SOL    HW221129   4.607   4.005   7.735  1.8718 -1.2410  0.0375
 3224SOL     OW21130   0.716   0.035   6.987 -0.3970 -0.4551  0.1349
 3224SOL    HW121131   0.684   4.675   7.022 -1.2858  0.8985  2.5559
 3224SOL    HW221132   0.733   0.083   7.068  1.3305  0.3039 -0.6903
 3225SOL     OW21133   4.162   1.765   8.932  0.2327 -0.0042  0.3260
 3225SOL    HW121134   4.192   1.710   8.860 -0.5646  0.4987 -0.3903
 3225SOL    HW221135   4.197   1.718   9.008 -1.8434  0.1903  1.4123
 3226SOL     OW21136   4.069   1.697   8.558 -0.4647  0.5136 -0.4568
 3226SOL    HW121137   4.134   1.700   8.488  0.4096 -0.1932  0.3176
 3226SOL    HW221138   3.999   1.638   8.530 -0.6293  1.7361 -2.6216
 3227SOL     OW21139   4.049   3.331   7.047 -0.6018  0.4575 -1.2060
 3227SOL    HW121140   4.066   3.366   6.960 -0.0684  1.4001 -0.7181
 3227SOL    HW221141   4.019   3.241   7.031  0.2247  0.0827 -0.6620
 3228SOL     OW21142   0.745   2.955   9.607  0.6218  0.9500  0.6561
 3228SOL    HW121143   0.683   3.000   9.550  1.3605  1.3601  0.1777
 3228SOL    HW221144   0.688   2.940   9.682  0.8390 -2.7854  0.0530
 3229SOL     OW21145   0.905   3.285   1.396 -0.1188 -0.2483 -0.2089
 3229SOL    HW121146   0.921   3.379   1.406 -0.1845 -0.1337 -1.2489
 3229SOL    HW221147   0.877   3.270   1.486 -0.9993  1.2978 -0.2235
 3230SOL     OW21148   2.242   2.418   4.699 -0.2745 -0.2379 -0.2211
 3230SOL    HW121149   2.245   2.497   4.754  1.5324 -0.8263  0.5152
 3230SOL    HW221150   2.148   2.423   4.683 -0.4752 -1.8803  0.4670
 3231SOL     OW21151   3.727   2.935   0.918 -0.0818 -0.1087  0.1140
 3231SOL    HW121152   3.776   3.015   0.899  1.2388 -1.1909 -0.9934
 3231SOL    HW221153   3.737   2.886   0.837  2.1954  1.4480 -0.5473
 3232SOL     OW21154   3.193   3.759  12.835 -0.0969 -0.1130  0.4134
 3232SOL    HW121155   3.224   3.829  12.892  1.2629 -0.2634 -0.1271
 3232SOL    HW221156   3.257   3.688  12.837 -0.8663 -0.9158 -2.7535
 3233SOL     OW21157   2.122   3.396   2.250  0.4237  0.1652  0.2439
 3233SOL    HW121158   2.128   3.372   2.157  0.3969 -3.0377  1.0789
 3233SOL    HW221159   2.036   3.434   2.269 -0.1159 -0.6908 -0.4682
 3234SOL     OW21160   4.380   0.121   4.720  0.0683  0.7886  0.0845
 3234SOL    HW121161   4.452   0.166   4.765  1.9575 -0.8259 -1.3059
 3234SOL    HW221162   4.337   0.072   4.789 -0.7305  0.2782 -0.7849
 3235SOL     OW21163   3.832   0.128   1.730 -0.2537  0.9105 -0.6811
 3235SOL    HW121164   3.834   0.210   1.779  1.3202 -0.1443  1.0054
 3235SOL    HW221165   3.861   0.062   1.793  1.9187  2.4178 -0.0785
 3236SOL     OW21166   0.728   0.126  14.614  0.7352 -0.4191 -0.1334
 3236SOL    HW121167   0.819   0.108  14.589  1.0799  1.7164 -0.3557
 3236SOL    HW221168   0.718   0.221  14.610 -2.6165 -0.7610  0.1417
 3237SOL     OW21169   4.676   2.966   4.532 -0.5286  0.0260 -0.0907
 3237SOL    HW121170   4.608   3.032   4.550 -1.9876 -1.2828 -0.8030
 3237SOL    HW221171   4.623   2.887   4.540  0.3868 -0.7447 -1.7333
 3238SOL     OW21172   1.929   3.141  15.842  0.4614  0.2122 -0.1376
 3238SOL    HW121173   1.915   3.214  15.781  0.2991  0.2443 -0.0594
 3238SOL    HW221174   1.982   3.095  15.777 -0.4841 -0.2154 -0.6054
 3239SOL     OW21175   3.960   4.065   4.427  0.4475 -0.0624  0.5230
 3239SOL    HW121176   4.053   4.061   4.405  0.1247 -2.0147 -0.4167
 3239SOL    HW221177   3.944   3.973   4.447  1.2109 -0.4038 -0.4289
 3240SOL     OW21178   1.335   3.335   6.314  0.2569  0.0091 -0.7607
 3240SOL    HW121179   1.409   3.308   6.260 -0.9984 -0.7300 -2.0936
 3240SOL    HW221180   1.308   3.413   6.266  0.0583 -0.4558 -1.3936
 3241SOL     OW21181   3.895   2.599   1.416  0.1485 -0.1219 -0.3889
 3241SOL    HW121182   3.918   2.515   1.456 -0.4715 -0.5175 -0.8705
 3241SOL    HW221183   3.924   2.664   1.480 -1.4986  1.0011 -0.7834
 3242SOL     OW21184   0.497   2.442   6.982  0.1768  0.9178  0.0580
 3242SOL    HW121185   0.558   2.388   7.032 -0.7149 -0.5466 -0.4190
 3242SOL    HW221186   0.419   2.388   6.995 -0.8353  2.2179 -0.6145
 3243SOL     OW21187   2.808   2.215  12.542 -0.6113 -0.0788 -0.2121
 3243SOL    HW121188   2.894   2.257  12.541  0.4170 -2.2839 -2.6231
 3243SOL    HW221189   2.767   2.293  12.580  0.7219 -0.6253  2.3851
 3244SOL     OW21190   3.938   3.132  15.888 -0.3211  0.0051 -0.4107
 3244SOL    HW121191   3.974   3.131  15.800 -0.6002  1.0718 -0.5359
 3244SOL    HW221192   3.845   3.108  15.886 -0.6180  1.1759 -0.9008
 3245SOL     OW21193   2.301   1.739   0.708 -0.0674 -0.3732 -0.1993
 3245SOL    HW121194   2.301   1.644   0.708 -1.5428 -0.3763  2.9527
 3245SOL    HW221195   2.374   1.749   0.769 -0.1943  0.3347 -0.1592
 3246SOL     OW21196   2.855   2.391   7.320 -0.2659  0.4594 -0.0426
 3246SOL    HW121197   2.880   2.481   7.338  3.2877  0.0013 -2.5867
 3246SOL    HW221198   2.939   2.351   7.343 -0.2383  1.2036  1.1385
 3247SOL     OW21199   4.317   0.945   0.206 -0.3128  0.3096  0.4692
 3247SOL    HW121200   4.357   0.976   0.287 -0.3116  0.4882  0.4007
 3247SOL    HW221201   4.385   0.965   0.142  0.1948  1.0980  1.2628
 3248SOL     OW21202   1.128   4.060   2.683  0.2338  0.4845 -0.5728
 3248SOL    HW121203   1.199   4.119   2.707  0.5978 -1.5676  3.3911
 3248SOL    HW221204   1.057   4.102   2.731  1.4506  0.6085  1.1129
 3249SOL     OW21205   3.062   1.132   3.800  0.5229 -0.1422  0.0390
 3249SOL    HW121206   3.051   1.134   3.895 -0.5052 -1.3040 -0.0456
 3249SOL    HW221207   3.157   1.147   3.800  0.4625  0.2628 -1.4972
 3250SOL     OW21208   4.560   0.611   4.133 -0.2257 -1.1023 -0.0446
 3250SOL    HW121209   4.613   0.684   4.100 -0.0564 -1.1225  0.1823
 3250SOL    HW221210   4.549   0.643   4.223  1.2456  1.1831 -0.6775
 3251SOL     OW21211   0.695   4.093   3.577  0.2066 -0.5682  0.3150
 3251SOL    HW121212   0.756   4.020   3.588 -0.5075 -1.3715 -1.0672
 3251SOL    HW221213   0.744   4.162   3.622  0.9059  0.2701 -1.7232
 3252SOL     OW21214   1.408   3.008  11.037  0.5292 -0.5615 -0.9240
 3252SOL    HW121215   1.489   2.959  11.049  0.0750 -1.0850  0.1167
 3252SOL    HW221216   1.428   3.070  10.968 -0.3764  0.2007 -0.5115
 3253SOL     OW21217   2.397   3.495  11.169  0.0978  0.3991  0.1482
 3253SOL    HW121218   2.411   3.590  11.169  2.2020  0.0820  0.0388
 3253SOL    HW221219   2.337   3.481  11.242  1.7495 -2.6382  0.8988
 3254SOL     OW21220   1.804   1.560   7.077  0.3435  0.0581  0.1984
 3254SOL    HW121221   1.791   1.640   7.028  2.4361 -1.6209 -3.0574
 3254SOL    HW221222   1.866   1.518   7.018 -1.2404 -1.9910 -0.0256
 3255SOL     OW21223   3.391   0.680   8.064 -0.2312 -0.4226 -0.8358
 3255SOL    HW121224   3.392   0.603   8.121  1.5856 -0.0188 -0.3158
 3255SOL    HW221225   3.304   0.716   8.083  1.3807  1.4872  2.8755
 3256SOL     OW21226   3.835   4.257   9.556 -0.0044  1.0371  0.3045
 3256SOL    HW121227   3.892   4.294   9.624  0.9079 -0.5691  0.4211
 3256SOL    HW221228   3.810   4.179   9.606 -0.3648  0.8909 -0.1043
 3257SOL     OW21229   3.886   2.036   2.105 -0.1819  0.2233 -0.4138
 3257SOL    HW121230   3.882   2.017   2.011 -1.0211 -0.6984 -0.2010
 3257SOL    HW221231   3.921   1.952   2.134 -1.4709 -0.4136 -0.6620
 3258SOL     OW21232   3.739   1.558   2.710  0.0294 -0.3643 -0.2012
 3258SOL    HW121233   3.796   1.634   2.723  1.1536 -1.1781 -0.3127
 3258SOL    HW221234   3.650   1.590   2.721 -0.3474 -1.7214  0.6159
 3259SOL     OW21235   0.838   2.034   2.046 -0.0485  0.3822  0.3191
 3259SOL    HW121236   0.923   2.016   2.006  0.6762  1.8430  1.1788
 3259SOL    HW221237   0.860   2.124   2.071  2.0288 -0.8488  2.9794
 3260SOL     OW21238   3.851   4.354   2.739 -0.2175  0.0213  0.0011
 3260SOL    HW121239   3.910   4.380   2.810  0.2273 -0.4698 -0.1911
 3260SOL    HW221240   3.912   4.375   2.669  1.0395 -2.6114  0.3032
 3261SOL     OW21241   4.253   0.328   3.000  0.0055  0.7561  0.1058
 3261SOL    HW121242   4.159   0.341   2.987 -0.1586  0.4841  1.0029
 3261SOL    HW221243   4.299   0.410   2.986  1.3597 -0.2074 -1.0707
 3262SOL     OW21244   2.357   2.544  11.925  0.2734 -0.7181 -0.3994
 3262SOL    HW121245   2.349   2.518  12.017  2.9071 -0.8894 -0.2055
 3262SOL    HW221246   2.297   2.481  11.884  0.1489 -0.7298 -0.1996
 3263SOL     OW21247   2.190   1.324  17.047  0.7302  0.5958  0.5992
 3263SOL    HW121248   2.179   1.230  17.031  0.6091  0.5487  0.9667
 3263SOL    HW221249   2.116   1.352  16.994 -0.1568 -0.7757  1.0994
 3264SOL     OW21250   2.816   3.916  16.941  0.1739  0.0135  0.6437
 3264SOL    HW121251   2.841   4.005  16.916  2.3310 -0.6428  0.4896
 3264SOL    HW221252   2.890   3.869  16.904  1.8830  2.2131  1.2535
 3265SOL     OW21253   0.229   3.865   1.679 -0.0167 -0.3313  0.5651
 3265SOL    HW121254   0.187   3.818   1.607  1.3026 -1.9536  0.8595
 3265SOL    HW221255   0.151   3.904   1.718 -0.0066  0.7732 -0.5411
 3266SOL     OW21256   4.543   0.031   3.812 -0.0106  0.3659 -0.3816
 3266SOL    HW121257   4.593   0.104   3.848 -0.1088 -1.5648  3.6509
 3266SOL    HW221258   4.555   4.685   3.876  3.5426  0.6657 -0.7599
 3267SOL     OW21259   1.170   0.755  10.620  0.6843 -0.3704  0.3689
 3267SOL    HW121260   1.208   0.723  10.701  0.2216 -0.4861  0.5402
 3267SOL    HW221261   1.155   0.670  10.579 -2.2654  0.1388  0.3909
 3268SOL     OW21262   3.976   0.378   9.278 -0.3606  0.3803 -0.4897
 3268SOL    HW121263   4.053   0.349   9.229 -0.8482 -2.6819  0.6110
 3268SOL    HW221264   3.906   0.400   9.216 -1.9789 -2.9338  0.2119
 3269SOL     OW21265   1.849   3.734   1.129  0.8454 -0.3389 -0.2835
 3269SOL    HW121266   1.870   3.703   1.041  1.9060 -0.7293  0.1128
 3269SOL    HW221267   1.793   3.811   1.116 -0.2811 -1.3855 -1.7345
 3270SOL     OW21268   0.483   2.179   1.197 -0.0508 -0.0217  0.1775
 3270SOL    HW121269   0.459   2.246   1.133 -3.4332 -2.3945 -1.0746
 3270SOL    HW221270   0.565   2.144   1.161  0.1026  0.7146 -0.1845
 3271SOL     OW21271   1.879   3.700   5.685  0.5306 -0.0011 -0.0879
 3271SOL    HW121272   1.913   3.762   5.750  0.3353 -1.1208  1.0697
 3271SOL    HW221273   1.900   3.622   5.735 -2.6572 -0.1225  1.0383
 3272SOL     OW21274   3.346   3.353   5.217  0.3534 -0.4068 -0.2717
 3272SOL    HW121275   3.323   3.420   5.153  1.9323  1.1442  0.8005
 3272SOL    HW221276   3.285   3.374   5.287  0.0061  2.3175 -1.3975
 3273SOL     OW21277   4.689   2.852   3.896  0.6831 -0.2050  0.4331
 3273SOL    HW121278   0.016   2.782   3.854 -0.1897 -1.7520  1.9492
 3273SOL    HW221279   0.039   2.913   3.899  0.8633 -0.4140  0.2722
 3274SOL     OW21280   1.265   2.172   4.518  0.3704  0.4469  0.5952
 3274SOL    HW121281   1.218   2.250   4.488  1.3749  1.5435  1.8628
 3274SOL    HW221282   1.315   2.207   4.592  0.4766  0.0810  0.6982
 3275SOL     OW21283   4.102   0.820   3.066 -0.1696 -0.5878 -0.6776
 3275SOL    HW121284   4.078   0.745   3.121 -3.0906 -0.7626 -2.2115
 3275SOL    HW221285   4.043   0.806   2.992 -0.8370 -1.0153 -0.0642
 3276SOL     OW21286   3.803   2.116  15.942  0.0076  0.4390  0.0252
 3276SOL    HW121287   3.774   2.098  16.032 -1.3921 -0.1136 -0.5321
 3276SOL    HW221288   3.895   2.140  15.946  0.4413 -1.1685  0.0346
 3277SOL     OW21289   1.593   0.012   8.247  0.1391  0.0496 -0.1120
 3277SOL    HW121290   1.505   4.704   8.226  0.0885 -0.3898  0.7388
 3277SOL    HW221291   1.571   0.097   8.283  0.2473  0.2738 -0.5847
 3278SOL     OW21292   2.729   0.579   3.342 -0.5507 -0.5198 -0.7256
 3278SOL    HW121293   2.775   0.607   3.421  1.7811 -1.3013 -1.8066
 3278SOL    HW221294   2.771   0.621   3.267  0.7139 -0.8169 -0.1828
 3279SOL     OW21295   0.369   2.400   8.361 -0.3377  0.1146 -0.5073
 3279SOL    HW121296   0.354   2.312   8.329  2.3136 -1.2348  1.9808
 3279SOL    HW221297   0.293   2.396   8.420  1.4398 -1.1833  1.6900
 3280SOL     OW21298   3.796   0.318   2.725 -0.2969  0.5445  0.1126
 3280SOL    HW121299   3.871   0.356   2.679  1.5155 -2.4371  0.5874
 3280SOL    HW221300   3.736   0.393   2.729 -0.2079  0.6621 -0.7941
 3281SOL     OW21301   0.919   1.581  16.112 -0.1430 -0.3795  0.1167
 3281SOL    HW121302   1.009   1.599  16.086  0.1738 -2.9419 -0.5271
 3281SOL    HW221303   0.866   1.598  16.034 -2.5029 -0.2268  1.7323
 3282SOL     OW21304   3.709   0.919   8.628  0.4176  0.1523 -0.3891
 3282SOL    HW121305   3.632   0.910   8.685  2.3903  1.2197  2.4316
 3282SOL    HW221306   3.691   0.848   8.567 -2.9466  1.0108 -0.3935
 3283SOL     OW21307   4.557   4.415   4.715 -0.5446 -0.4917 -0.1952
 3283SOL    HW121308   4.584   4.477   4.783 -0.3837  0.1496 -0.8556
 3283SOL    HW221309   4.554   4.478   4.644  0.3955 -0.1299  0.0826
 3284SOL     OW21310   3.638   3.465   8.559 -0.6046  0.1889 -0.1764
 3284SOL    HW121311   3.642   3.531   8.629 -1.2890 -1.4223  1.3864
 3284SOL    HW221312   3.549   3.486   8.529 -0.0507  1.9494 -0.5682
 3285SOL     OW21313   1.966   3.223   9.955  0.3824 -0.1276 -0.0696
 3285SOL    HW121314   1.937   3.238  10.045 -0.5648 -1.0542 -0.2285
 3285SOL    HW221315   2.046   3.276   9.957  0.0937  0.2046  3.1276
 3286SOL     OW21316   0.966   3.757   6.563  0.1389 -0.2584 -0.6432
 3286SOL    HW121317   0.935   3.667   6.562 -0.8772  0.1078 -2.7028
 3286SOL    HW221318   0.920   3.788   6.641  1.2450 -2.0022  0.6897
 3287SOL     OW21319   3.076   1.682   0.736  0.0335  0.4506 -0.0636
 3287SOL    HW121320   3.163   1.723   0.731 -0.2537  0.9748 -0.6644
 3287SOL    HW221321   3.094   1.601   0.689 -1.8010 -0.2206  0.3878
 3288SOL     OW21322   1.439   0.635   7.524  0.0267 -0.0096 -0.3286
 3288SOL    HW121323   1.415   0.551   7.485  2.2151 -1.5662  1.7113
 3288SOL    HW221324   1.496   0.653   7.449 -0.9017 -1.4452 -1.3837
 3289SOL     OW21325   4.147   4.497   5.294  1.0602  0.3713  0.5357
 3289SOL    HW121326   4.237   4.479   5.321  1.5169  0.7486 -0.7425
 3289SOL    HW221327   4.119   4.547   5.370  0.0975 -0.4291  0.7028
 3290SOL     OW21328   4.296   0.455   0.978  0.0718 -0.0188  0.5179
 3290SOL    HW121329   4.202   0.438   0.967 -0.1623 -0.3840  3.0427
 3290SOL    HW221330   4.307   0.550   0.980 -0.2080  0.0428 -1.1117
 3291SOL     OW21331   3.961   0.231   7.019  0.2055 -0.3337  0.1092
 3291SOL    HW121332   3.871   0.198   7.018  0.3397 -0.6915 -0.2666
 3291SOL    HW221333   4.002   0.194   7.097  1.2718 -1.2583 -0.8862
 3292SOL     OW21334   4.110   2.577   8.320 -0.0879 -0.3541  0.5363
 3292SOL    HW121335   4.113   2.514   8.392  0.2792 -0.9533 -0.0145
 3292SOL    HW221336   4.205   2.583   8.311  0.0581 -1.8581  1.1593
 3293SOL     OW21337   2.938   1.579   8.667 -0.3489 -0.1586 -0.5445
 3293SOL    HW121338   3.028   1.594   8.639 -0.1145 -0.5577  0.0001
 3293SOL    HW221339   2.921   1.637   8.741 -1.0870 -0.9157 -0.1202
 3294SOL     OW21340   2.557   0.364   5.037  0.0258 -0.3322 -0.5729
 3294SOL    HW121341   2.580   0.456   5.020 -0.8024  0.3420  1.9025
 3294SOL    HW221342   2.635   0.319   5.005  0.5552  1.1706 -1.4242
 3295SOL     OW21343   1.150   0.324   6.965 -0.1753 -0.4199 -0.2381
 3295SOL    HW121344   1.206   0.389   6.922  1.5250 -0.7217  1.4988
 3295SOL    HW221345   1.065   0.368   6.967  0.1471  0.0929  3.8232
 3296SOL     OW21346   0.557   0.141   5.990 -0.9744 -0.0350 -0.1251
 3296SOL    HW121347   0.574   0.210   5.926 -1.6856 -0.1526 -0.4338
 3296SOL    HW221348   0.643   0.147   6.032 -0.8693 -0.9963 -0.2031
 3297SOL     OW21349   4.200   1.839  13.011  0.1257 -0.3394  0.1668
 3297SOL    HW121350   4.158   1.758  13.037 -1.8776  1.4751  2.6380
 3297SOL    HW221351   4.241   1.883  13.086 -0.2256 -0.9046  0.6872
 3298SOL     OW21352   3.976   4.276   8.883  1.0633 -0.0348  0.3566
 3298SOL    HW121353   4.002   4.292   8.793  0.0825 -1.8063 -0.2265
 3298SOL    HW221354   4.053   4.306   8.932  1.9835 -1.3940 -0.2837
 3299SOL     OW21355   3.382   3.526   1.597  0.0040  0.3995  0.0671
 3299SOL    HW121356   3.360   3.498   1.508 -2.6112  2.2217  0.1356
 3299SOL    HW221357   3.296   3.557   1.626 -0.5360 -1.9277  1.0021
 3300SOL     OW21358   1.349   3.754   7.662  0.0845 -0.1308  0.0295
 3300SOL    HW121359   1.419   3.773   7.724  1.8594 -0.4322 -1.8864
 3300SOL    HW221360   1.323   3.844   7.643 -0.8965 -0.4031  0.0692
 3301SOL     OW21361   1.198   4.140   5.032  0.0770  0.2929 -0.5038
 3301SOL    HW121362   1.110   4.130   5.070  1.0686 -1.8222  1.2339
 3301SOL    HW221363   1.178   4.143   4.938 -0.9649 -3.3551 -0.4145
 3302SOL     OW21364   0.358   2.878   3.237  0.1567 -0.4765 -0.2409
 3302SOL    HW121365   0.265   2.861   3.220 -0.2461  1.3760  0.0983
 3302SOL    HW221366   0.406   2.801   3.208 -1.0379 -1.2734 -0.1106
 3303SOL     OW21367   2.391   3.569   4.305  0.2060  0.0258  0.1760
 3303SOL    HW121368   2.401   3.511   4.229  0.1647 -0.0682  0.2423
 3303SOL    HW221369   2.434   3.519   4.374  1.2103  1.4527  0.5742
 3304SOL     OW21370   1.747   2.010  14.236  0.4008  0.0333 -0.2751
 3304SOL    HW121371   1.667   1.958  14.230  0.3290 -0.0013  1.0431
 3304SOL    HW221372   1.709   2.093  14.265 -0.4632 -0.7111  0.7306
 3305SOL     OW21373   0.201   1.316   7.649 -0.0175 -0.0162  0.1626
 3305SOL    HW121374   0.198   1.309   7.745  1.2332 -0.4880  0.1743
 3305SOL    HW221375   0.297   1.323   7.646  0.0125 -0.1702  0.6662
 3306SOL     OW21376   3.775   3.099   1.676  0.0361  0.6119 -0.3055
 3306SOL    HW121377   3.829   3.033   1.633 -2.9960 -2.6808  0.8378
 3306SOL    HW221378   3.719   3.049   1.736  0.9988  0.9841  0.9120
 3307SOL     OW21379   4.723   3.372   5.791 -0.0852  0.5097 -0.1473
 3307SOL    HW121380   4.700   3.328   5.709 -0.7002  0.6801 -0.0676
 3307SOL    HW221381   4.643   3.359   5.842  0.5008 -0.6835  0.4753
 3308SOL     OW21382   1.600   0.640   9.152  0.3633 -0.0023  0.0153
 3308SOL    HW121383   1.512   0.612   9.176  0.2727 -0.7702 -1.2229
 3308SOL    HW221384   1.607   0.733   9.131 -0.6179 -0.5807 -2.8492
 3309SOL     OW21385   1.209   3.017   2.920 -0.0094  0.5174  0.1974
 3309SOL    HW121386   1.256   3.043   2.841  2.2113 -2.0764  0.6729
 3309SOL    HW221387   1.247   3.076   2.986 -0.0888 -0.1142  0.8062
 3310SOL     OW21388   3.604   3.093   5.445  0.2060 -0.2037  0.4107
 3310SOL    HW121389   3.631   3.034   5.516 -1.3470 -0.3005  0.9281
 3310SOL    HW221390   3.518   3.058   5.424 -0.9679  3.0516 -0.3223
 3311SOL     OW21391   4.703   2.518   6.690  0.1990  0.3904 -0.0700
 3311SOL    HW121392   4.621   2.471   6.673  0.2196 -0.2027  1.4654
 3311SOL    HW221393   4.676   2.609   6.685  0.7573  0.5398 -0.4118
 3312SOL     OW21394   4.512   3.197  16.854 -0.3429 -0.4911  0.0325
 3312SOL    HW121395   4.478   3.183  16.766  1.9584  0.6121 -1.0430
 3312SOL    HW221396   4.440   3.171  16.912 -0.6428 -1.0464 -0.5915
 3313SOL     OW21397   0.433   3.852   7.757 -0.3512 -0.0646  0.1402
 3313SOL    HW121398   0.524   3.825   7.746 -0.1368  1.6670 -2.5045
 3313SOL    HW221399   0.403   3.803   7.833 -0.1851  1.1209  0.9699
 3314SOL     OW21400   2.111   1.118  14.086  0.0110 -0.2649 -0.1863
 3314SOL    HW121401   2.145   1.046  14.139  1.2213  0.1451 -0.3858
 3314SOL    HW221402   2.187   1.147  14.035  0.5781 -0.2270  0.6716
 3315SOL     OW21403   4.534   3.439   0.105 -0.4496  0.2265  0.2968
 3315SOL    HW121404   4.564   3.529   0.091 -2.0291  0.6971 -0.1244
 3315SOL    HW221405   4.440   3.456   0.112 -0.5660 -0.6021  0.6670
 3316SOL     OW21406   4.619   4.152   0.014  0.0292 -0.1818  0.9375
 3316SOL    HW121407   4.543   4.138   0.071  0.6664 -0.6222  1.6793
 3316SOL    HW221408   4.582   4.203  17.638  1.5322  0.1524  0.4073
 3317SOL     OW21409   3.041   0.374  16.879 -0.0185  1.1475 -0.6581
 3317SOL    HW121410   3.025   0.467  16.892 -1.3235  0.8260 -0.0594
 3317SOL    HW221411   3.089   0.364  16.796  2.2235  0.5931  0.6869
 3318SOL     OW21412   3.771   3.491  15.647  0.6246  0.4562  0.0432
 3318SOL    HW121413   3.858   3.508  15.683  1.1169 -0.7459 -0.5616
 3318SOL    HW221414   3.797   3.508  15.556 -1.3370  1.1022 -0.3860
 3319SOL     OW21415   3.747   2.399   4.283 -0.6748  0.7204  0.2707
 3319SOL    HW121416   3.663   2.444   4.272  0.1167  1.7782 -1.4491
 3319SOL    HW221417   3.715   2.309   4.287  3.2660 -0.6447  0.4059
 3320SOL     OW21418   1.339   1.047   7.524 -0.1098 -0.6701  0.6336
 3320SOL    HW121419   1.394   1.017   7.452  0.3976  0.3658  0.5925
 3320SOL    HW221420   1.368   1.136   7.545  1.6581 -1.0913 -0.0462
 3321SOL     OW21421   1.162   0.529   7.939 -0.2678 -0.0208 -0.1002
 3321SOL    HW121422   1.153   0.485   7.854 -0.3897  0.2713 -0.2398
 3321SOL    HW221423   1.075   0.516   7.976 -0.9457  0.5404 -1.4944
 3322SOL     OW21424   2.295   0.677   5.554  0.0997  0.3396  0.4721
 3322SOL    HW121425   2.318   0.589   5.524  0.1564  0.0249  1.4169
 3322SOL    HW221426   2.205   0.686   5.525  0.2912 -0.9393 -0.5354
 3323SOL     OW21427   1.850   1.393   7.628  0.1584 -0.3859  0.5926
 3323SOL    HW121428   1.862   1.317   7.571 -2.4747  0.3835 -1.0296
 3323SOL    HW221429   1.849   1.460   7.559 -1.2028 -1.2909 -0.2743
 3324SOL     OW21430   3.310   3.003   7.184 -0.0323  0.9077 -0.4457
 3324SOL    HW121431   3.362   2.965   7.255  2.4548  2.4018 -1.4565
 3324SOL    HW221432   3.360   2.979   7.106  2.5307  0.2037  1.4133
 3325SOL     OW21433   1.111   3.610   7.664  0.2149  0.0214 -0.3492
 3325SOL    HW121434   1.183   3.673   7.657  0.7571 -0.6639 -0.9656
 3325SOL    HW221435   1.136   3.548   7.732  0.3049  2.1259  1.5360
 3326SOL     OW21436   0.444   4.021   3.899 -0.3810 -0.1641 -0.1382
 3326SOL    HW121437   0.381   4.010   3.970 -1.0270 -0.3693 -0.7521
 3326SOL    HW221438   0.507   3.952   3.920 -0.8650  0.1889  2.4889
 3327SOL     OW21439   1.556   4.209   7.173 -0.1316 -0.2253  0.1378
 3327SOL    HW121440   1.503   4.288   7.178 -1.6763 -1.4010  2.3787
 3327SOL    HW221441   1.528   4.158   7.249  1.3905 -0.9242  0.2412
 3328SOL     OW21442   0.394   3.384   3.631 -0.3115 -0.2286  0.4156
 3328SOL    HW121443   0.444   3.427   3.562 -2.7217  2.1725  0.1569
 3328SOL    HW221444   0.439   3.425   3.705 -1.3088  0.2129  0.7724
 3329SOL     OW21445   4.380   2.877  11.102 -0.0537 -0.2038 -0.0967
 3329SOL    HW121446   4.298   2.869  11.053  0.5237  2.0760 -1.4544
 3329SOL    HW221447   4.370   2.966  11.135 -1.1381 -0.4458  0.2157
 3330SOL     OW21448   1.876   4.386   3.186  0.1020 -0.1504  0.2690
 3330SOL    HW121449   1.814   4.314   3.194  1.8003 -1.7070 -0.6135
 3330SOL    HW221450   1.951   4.375   3.245 -0.3700 -1.8788  0.5278
 3331SOL     OW21451   3.342   3.490   3.245  0.1110 -0.0426  0.5357
 3331SOL    HW121452   3.433   3.493   3.214  0.8691 -1.9451  2.6012
 3331SOL    HW221453   3.331   3.396   3.262 -1.9764 -0.1013 -1.2264
 3332SOL     OW21454   2.892   0.436  12.963  0.0164 -0.2221 -0.5475
 3332SOL    HW121455   2.863   0.378  13.034 -0.4663 -1.6051 -1.8903
 3332SOL    HW221456   2.814   0.490  12.949 -0.6667 -1.3141 -0.8995
 3333SOL     OW21457   3.327   0.422   6.799 -0.2784  0.3343  0.3090
 3333SOL    HW121458   3.354   0.333   6.824 -2.3690  0.3302  2.5751
 3333SOL    HW221459   3.356   0.463   6.880  1.8898  0.8779 -0.7418
 3334SOL     OW21460   3.974   0.563  12.385  0.3540 -0.3780 -0.5900
 3334SOL    HW121461   4.011   0.596  12.304 -0.1336 -2.0080 -1.4681
 3334SOL    HW221462   3.989   0.468  12.381 -0.9406 -0.5867 -0.6069
 3335SOL     OW21463   3.258   0.280   3.917  0.5387  0.2719 -0.2337
 3335SOL    HW121464   3.280   0.201   3.868 -1.5733 -0.4909  0.0506
 3335SOL    HW221465   3.270   0.347   3.849  0.6925 -0.9272 -1.3966
 3336SOL     OW21466   0.173   1.074   2.074  0.1230  0.3080  0.0135
 3336SOL    HW121467   0.171   1.016   2.150  2.4961 -0.5456 -0.5966
 3336SOL    HW221468   0.228   1.027   2.012 -1.3077 -0.1621 -0.8945
 3337SOL     OW21469   0.668   0.597   1.992 -0.4202  0.1557 -0.0782
 3337SOL    HW121470   0.721   0.530   1.947  0.3446  0.5107  0.3016
 3337SOL    HW221471   0.727   0.668   1.969  0.5346  0.5258  3.6132
 3338SOL     OW21472   2.645   0.114  15.555 -0.2670  0.2901 -0.1374
 3338SOL    HW121473   2.599   0.157  15.483  1.6893  0.2722 -1.4239
 3338SOL    HW221474   2.652   0.183  15.622 -1.3337  1.1029 -0.8684
 3339SOL     OW21475   2.215   4.721   9.404  0.0412 -0.1636 -0.4593
 3339SOL    HW121476   2.147   0.012   9.337  0.4446  1.0597 -0.5966
 3339SOL    HW221477   2.199   4.632   9.437  0.1030 -0.2691 -0.7065
 3340SOL     OW21478   0.421   4.483   6.186  0.4596 -0.7202 -0.0280
 3340SOL    HW121479   0.376   4.565   6.162  0.8987 -0.5137 -0.1514
 3340SOL    HW221480   0.512   4.511   6.174 -0.0916  0.6969 -0.9349
 3341SOL     OW21481   0.567   0.004  14.420  0.0193  0.5450 -0.7539
 3341SOL    HW121482   0.633   0.044  14.477  0.5003 -1.1028 -0.1533
 3341SOL    HW221483   0.560   0.077  14.359  0.8768  0.6071 -0.7838
 3342SOL     OW21484   4.503   4.463   7.959  0.2789  0.2358 -0.2243
 3342SOL    HW121485   4.520   4.394   7.895 -2.1818  0.1960 -0.8417
 3342SOL    HW221486   4.503   4.409   8.038 -1.0101 -0.6887 -0.8551
 3343SOL     OW21487   2.085   4.561   0.555  0.5574  0.0810 -0.2495
 3343SOL    HW121488   2.174   4.595   0.568  1.2601 -1.7158 -0.2974
 3343SOL    HW221489   2.044   4.593   0.635  1.6009 -1.8164  1.0373
 3344SOL     OW21490   4.370   4.379  11.440  0.1457 -0.2326 -0.4270
 3344SOL    HW121491   4.392   4.471  11.456  0.1172 -0.0546 -1.4556
 3344SOL    HW221492   4.445   4.345  11.392  1.1788  1.3837  0.0590
 3345SOL     OW21493   3.157   0.744   7.655  0.2679 -0.1103 -0.5446
 3345SOL    HW121494   3.170   0.812   7.721 -0.2787 -1.9212  1.4272
 3345SOL    HW221495   3.121   0.668   7.701 -1.8215  0.4664 -1.2378
 3346SOL     OW21496   0.437   2.087   8.588  0.3770 -0.2317 -0.1202
 3346SOL    HW121497   0.506   2.149   8.609  1.5140 -1.9535  1.2377
 3346SOL    HW221498   0.407   2.107   8.499  0.0914 -1.1345 -0.2261
 3347SOL     OW21499   3.668   3.766   4.501 -0.2459  0.4039 -0.0985
 3347SOL    HW121500   3.763   3.764   4.504 -0.2949 -1.2901  0.4556
 3347SOL    HW221501   3.664   3.701   4.430  0.2599 -1.6446  1.7715
 3348SOL     OW21502   0.919   3.362   2.452  0.0435  0.4171 -0.2197
 3348SOL    HW121503   0.927   3.383   2.359  2.4648 -0.0426 -0.0967
 3348SOL    HW221504   0.941   3.449   2.484 -2.0550  1.0392 -0.4464
 3349SOL     OW21505   3.205   4.073   0.793  0.2577  0.5674  0.2375
 3349SOL    HW121506   3.176   4.164   0.800  1.2254  0.9826 -1.0558
 3349SOL    HW221507   3.125   4.032   0.758  2.6902 -1.7379 -2.5761
 3350SOL     OW21508   2.769   1.089   5.774  0.5351  0.0924 -0.2000
 3350SOL    HW121509   2.824   1.017   5.807  0.8908 -0.1490 -1.3098
 3350SOL    HW221510   2.767   1.153   5.845 -1.0197  0.4389 -0.5758
 3351SOL     OW21511   1.741   2.864   2.017 -0.1251 -0.1824  0.1630
 3351SOL    HW121512   1.705   2.830   1.935  2.0254 -3.2644  0.4936
 3351SOL    HW221513   1.833   2.874   1.995 -0.2819 -1.4158 -1.0875
 3352SOL     OW21514   3.402   2.368   2.431  0.0675  0.6089 -0.1526
 3352SOL    HW121515   3.376   2.459   2.441 -1.3434  0.0738  0.9247
 3352SOL    HW221516   3.315   2.332   2.419  1.4347 -3.1424  1.1805
 3353SOL     OW21517   0.672   0.393   1.030  0.4393 -0.2336  0.0008
 3353SOL    HW121518   0.632   0.479   1.021  1.6950  0.2339 -1.0269
 3353SOL    HW221519   0.664   0.369   0.937  2.3369  0.8634 -0.4519
 3354SOL     OW21520   3.105   0.925  10.373  0.4029 -0.3873  0.4695
 3354SOL    HW121521   3.147   0.878  10.445  0.5410  0.2972  0.8406
 3354SOL    HW221522   3.187   0.960  10.339  1.5680 -0.4752  3.1493
 3355SOL     OW21523   3.730   2.834   1.185  0.0790  0.3235 -0.1728
 3355SOL    HW121524   3.666   2.763   1.181 -0.0014  0.3624  0.4094
 3355SOL    HW221525   3.744   2.846   1.091 -0.3557 -2.0897 -0.5400
 3356SOL     OW21526   0.600   4.533   9.540 -0.5491 -0.6528  0.6514
 3356SOL    HW121527   0.517   4.521   9.586 -1.2099 -0.9414 -0.6060
 3356SOL    HW221528   0.648   4.455   9.567  0.8594 -0.7789 -2.1969
 3357SOL     OW21529   0.990   2.947   6.128 -0.5708  0.4513 -0.4397
 3357SOL    HW121530   1.032   3.020   6.081 -1.1786  0.1633 -1.4229
 3357SOL    HW221531   0.910   2.988   6.160 -1.4906  0.2471 -2.4485
 3358SOL     OW21532   1.353   2.803   7.025  0.3202 -0.0129 -0.6430
 3358SOL    HW121533   1.365   2.880   6.970 -1.7975  1.6598  1.2302
 3358SOL    HW221534   1.257   2.806   7.032  0.2094  0.4737 -2.3852
 3359SOL     OW21535   3.984   1.775  15.344 -0.1257  0.0781  0.0258
 3359SOL    HW121536   4.030   1.858  15.348  0.4423 -0.2254 -0.2362
 3359SOL    HW221537   3.943   1.777  15.257 -0.2178  0.0694  0.0687
 3360SOL     OW21538   1.717   4.666   0.584  0.4461  0.3727 -0.2913
 3360SOL    HW121539   1.750   4.619   0.508  0.0327  1.6660 -1.2696
 3360SOL    HW221540   1.647   4.610   0.617  0.2064  0.1647 -1.1720
 3361SOL     OW21541   0.720   2.913   1.109  0.3149 -0.3447  0.1478
 3361SOL    HW121542   0.734   3.000   1.145 -1.8375  0.1386 -0.1748
 3361SOL    HW221543   0.653   2.918   1.040 -0.0083  0.2624  0.5151
 3362SOL     OW21544   3.826   4.020   7.373 -0.6725 -0.7271  0.3079
 3362SOL    HW121545   3.911   3.988   7.403 -1.1807 -1.3313  1.1002
 3362SOL    HW221546   3.822   4.112   7.402  2.2306 -0.7119  0.6459
 3363SOL     OW21547   2.197   1.482  14.399  0.6049  0.2456  0.1969
 3363SOL    HW121548   2.155   1.440  14.323 -4.2581  1.8906  1.9375
 3363SOL    HW221549   2.155   1.568  14.394  0.8876  0.3938  0.3794
 3364SOL     OW21550   4.226   2.351  14.022 -0.2720 -0.1540  0.3321
 3364SOL    HW121551   4.256   2.260  14.014  0.4518  0.1991 -0.9129
 3364SOL    HW221552   4.137   2.338  13.989 -0.2149 -0.7366  0.4006
 3365SOL     OW21553   1.221   2.428   3.134 -0.7442 -0.3759 -0.6688
 3365SOL    HW121554   1.127   2.430   3.148 -0.5423  1.9479  0.3878
 3365SOL    HW221555   1.230   2.332   3.133  0.2267 -0.3068  0.9289
 3366SOL     OW21556   3.104   3.665   8.961  0.0135 -0.4277 -0.2395
 3366SOL    HW121557   3.138   3.626   9.042  0.9056  3.4609  1.2672
 3366SOL    HW221558   3.049   3.733   8.998  1.1657  0.4775 -0.1686
 3367SOL     OW21559   4.081   2.758   1.947 -0.0056  0.2476  0.1668
 3367SOL    HW121560   4.041   2.713   1.872  0.4250 -0.8325  0.5862
 3367SOL    HW221561   4.005   2.750   2.005  0.8436  2.2378  1.5259
 3368SOL     OW21562   1.159   2.081  11.288 -0.1791  0.2624 -0.2515
 3368SOL    HW121563   1.232   2.041  11.241  0.7223  0.0673  1.3089
 3368SOL    HW221564   1.170   2.172  11.262  0.0989  0.7793  1.6537
 3369SOL     OW21565   1.793   0.057   7.388 -0.1052 -0.2108  0.0769
 3369SOL    HW121566   1.790   4.723   7.465 -0.8052 -0.6406 -0.2718
 3369SOL    HW221567   1.704   0.041   7.358  0.4003 -3.0501  0.0864
 3370SOL     OW21568   1.276   3.233  11.228  0.4500 -0.0813 -0.9332
 3370SOL    HW121569   1.285   3.138  11.221  0.6642 -0.2097  0.9911
 3370SOL    HW221570   1.343   3.256  11.293  0.6177 -0.5307 -0.9418
 3371SOL     OW21571   0.031   0.348   5.042 -0.5315  0.0058 -0.2543
 3371SOL    HW121572   0.026   0.332   4.948  0.9120  3.5109 -0.9223
 3371SOL    HW221573   0.055   0.270   5.092  1.5696  0.5972 -0.3377
 3372SOL     OW21574   0.527   0.722   5.921  0.2442 -0.0785 -0.0099
 3372SOL    HW121575   0.524   0.716   5.825 -3.5580 -0.8561  0.1493
 3372SOL    HW221576   0.438   0.698   5.945 -0.4366  0.7760 -1.6216
 3373SOL     OW21577   4.347   3.949   6.244  0.0489 -0.6262  0.1850
 3373SOL    HW121578   4.435   3.979   6.265  0.9080 -1.7501 -1.8087
 3373SOL    HW221579   4.290   4.004   6.298  0.8551 -1.4716  1.9157
 3374SOL     OW21580   2.903   4.447   8.805  0.2297  0.3141 -0.1223
 3374SOL    HW121581   2.894   4.457   8.900 -2.3411 -1.1491 -0.2114
 3374SOL    HW221582   2.812   4.467   8.783  0.2427  0.2835 -0.2002
 3375SOL     OW21583   2.883   3.484   9.806 -0.0856 -0.0834  0.5362
 3375SOL    HW121584   2.878   3.411   9.868  1.1895 -0.5074  0.1463
 3375SOL    HW221585   2.911   3.559   9.859  1.2371 -0.3954  0.2877
 3376SOL     OW21586   2.922   0.368   7.001  0.2660 -0.1142 -0.0540
 3376SOL    HW121587   2.849   0.403   6.949  0.4258 -0.3305 -0.4210
 3376SOL    HW221588   2.941   0.308   6.929  3.3230  1.8207 -0.8687
 3377SOL     OW21589   4.379   4.172   6.805  0.0884  0.1914  0.3653
 3377SOL    HW121590   4.302   4.116   6.815 -0.8257  0.9469 -2.6258
 3377SOL    HW221591   4.421   4.131   6.729  1.6605 -0.2434  1.4667
 3378SOL     OW21592   1.200   2.208   4.066 -0.2953 -0.4195  1.1242
 3378SOL    HW121593   1.106   2.225   4.061 -0.5173 -1.4868  1.7863
 3378SOL    HW221594   1.228   2.290   4.107  1.6962 -1.4106  1.7514
 3379SOL     OW21595   0.885   2.428  11.034  0.2071  0.1406 -0.1594
 3379SOL    HW121596   0.938   2.504  11.011  2.9233 -1.7694 -0.2340
 3379SOL    HW221597   0.902   2.422  11.128 -0.1901  0.6741 -0.0546
 3380SOL     OW21598   4.476   2.315   2.216  0.0117 -0.4651 -0.2344
 3380SOL    HW121599   4.392   2.332   2.173  0.3936  1.0005 -0.3834
 3380SOL    HW221600   4.449   2.345   2.302  0.5896 -0.0716 -0.1914
 3381SOL     OW21601   3.645   2.900   6.880  0.2044  0.4966  0.6700
 3381SOL    HW121602   3.647   2.879   6.973  2.7687  1.6872  0.8777
 3381SOL    HW221603   3.615   2.990   6.874  1.0617  0.8879  2.4510
 3382SOL     OW21604   0.774   2.719   7.838  0.2541 -0.2175 -0.0831
 3382SOL    HW121605   0.684   2.731   7.809  0.0190  0.8533  1.1153
 3382SOL    HW221606   0.820   2.791   7.794 -1.9644 -1.2512 -4.0506
 3383SOL     OW21607   0.438   0.516   1.823  0.6803  0.4695  0.7112
 3383SOL    HW121608   0.488   0.589   1.858  1.3552  0.0912  0.5285
 3383SOL    HW221609   0.393   0.485   1.902 -2.2122 -0.0808 -1.1411
 3384SOL     OW21610   3.320   2.006  13.582 -0.1755 -0.4544  0.5952
 3384SOL    HW121611   3.381   2.018  13.509 -1.2034 -1.4184 -0.4307
 3384SOL    HW221612   3.300   1.915  13.560 -1.8503 -0.0517  0.4352
 3385SOL     OW21613   0.223   4.374   7.607 -0.8913 -0.7654  0.4919
 3385SOL    HW121614   0.154   4.415   7.659 -2.1973 -0.9205 -1.1354
 3385SOL    HW221615   0.242   4.291   7.651  1.7491 -2.2027 -3.3054
 3386SOL     OW21616   0.339   1.416  10.283  0.6043  0.4516  0.0100
 3386SOL    HW121617   0.328   1.494  10.228  1.4780  0.2682 -0.4221
 3386SOL    HW221618   0.311   1.451  10.368  1.3032 -1.2325  0.9241
 3387SOL     OW21619   1.236   1.374   3.362 -0.2507 -0.0088 -0.0956
 3387SOL    HW121620   1.264   1.414   3.444 -0.3461  0.4288 -0.2737
 3387SOL    HW221621   1.318   1.357   3.316  1.3953 -0.3987  3.0058
 3388SOL     OW21622   4.133   4.653   5.716 -0.2030  0.4106 -0.1168
 3388SOL    HW121623   4.170   4.714   5.780 -1.1744  1.5881 -0.6925
 3388SOL    HW221624   4.061   4.610   5.763  3.1066 -1.5260  3.1923
 3389SOL     OW21625   3.316   0.074   7.967 -0.2081 -0.8360 -0.2491
 3389SOL    HW121626   3.262   0.072   7.888 -1.9263 -0.4882  0.9184
 3389SOL    HW221627   3.330   4.704   7.983  2.3927 -0.0653  2.0379
 3390SOL     OW21628   0.396   2.054   2.571 -0.2020  0.6880 -0.2171
 3390SOL    HW121629   0.339   2.037   2.496  0.1896 -2.8186  0.2815
 3390SOL    HW221630   0.484   2.020   2.554 -0.1212  1.4316 -1.2535
 3391SOL     OW21631   1.291   4.491   8.601 -0.2920 -0.4691  0.1445
 3391SOL    HW121632   1.282   4.579   8.564 -0.3369 -0.4674  0.1589
 3391SOL    HW221633   1.362   4.448   8.553  0.3258 -1.6811  2.1635
 3392SOL     OW21634   0.307   0.828   6.963  0.2067  0.0882  0.4089
 3392SOL    HW121635   0.368   0.756   6.977  1.7504  0.9294 -1.9140
 3392SOL    HW221636   0.254   0.822   7.042 -0.9661 -0.2766 -0.4160
 3393SOL     OW21637   3.680   4.068   8.656  0.4170  0.3041 -0.1247
 3393SOL    HW121638   3.762   4.032   8.622  1.4117  1.2181  1.3282
 3393SOL    HW221639   3.647   3.994   8.707  0.5982  0.7596  0.6441
 3394SOL     OW21640   3.138   1.808  16.157  0.0786  0.3017 -0.0384
 3394SOL    HW121641   3.116   1.725  16.199 -1.1257  0.1853 -0.8889
 3394SOL    HW221642   3.060   1.826  16.105  0.2314  0.5765 -0.1676
 3395SOL     OW21643   1.508   3.273  12.028  0.3235  0.0716  0.4538
 3395SOL    HW121644   1.501   3.187  11.987 -0.4432  0.5501 -0.4429
 3395SOL    HW221645   1.479   3.238  12.112  0.5815 -1.1550  0.0327
 3396SOL     OW21646   4.452   3.272   2.307 -0.6153 -0.4634 -0.1064
 3396SOL    HW121647   4.402   3.302   2.232 -0.8783  0.5249  0.4580
 3396SOL    HW221648   4.545   3.292   2.299 -0.3663 -1.4915  0.2719
 3397SOL     OW21649   1.075   0.696   2.583 -0.0655 -0.2224  0.4851
 3397SOL    HW121650   1.157   0.686   2.534  0.0727  0.3487  0.5949
 3397SOL    HW221651   1.056   0.602   2.582 -0.8614 -0.0579 -0.1510
 3398SOL     OW21652   2.520   2.045   4.442 -0.0791 -0.5888  0.8041
 3398SOL    HW121653   2.446   2.088   4.484 -0.3375 -0.7430  0.5093
 3398SOL    HW221654   2.583   2.038   4.514  1.0776 -1.5768 -0.2991
 3399SOL     OW21655   0.023   1.959   7.204 -0.5750  0.0786  0.0602
 3399SOL    HW121656   0.044   1.870   7.178  0.4900 -0.3258  2.3027
 3399SOL    HW221657   0.075   1.945   7.283  0.0127  0.7045 -0.2032
 3400SOL     OW21658   4.319   0.552   5.956 -0.0456  0.2836 -0.4028
 3400SOL    HW121659   4.362   0.550   6.042 -3.1073 -0.7195  1.0897
 3400SOL    HW221660   4.230   0.525   5.978 -0.7136  0.6540 -2.6095
 3401SOL     OW21661   4.347   4.545   5.904 -0.2770  0.4691  0.4753
 3401SOL    HW121662   4.386   4.631   5.918  2.8902 -0.8572 -0.2402
 3401SOL    HW221663   4.423   4.519   5.851  0.2644  1.8301  0.5807
 3402SOL     OW21664   3.066   1.385   3.574 -0.1081 -0.2790  0.1425
 3402SOL    HW121665   3.142   1.440   3.556  0.4004 -1.2073 -0.5455
 3402SOL    HW221666   3.112   1.302   3.590 -0.5116 -0.3789  0.7994
 3403SOL     OW21667   3.923   0.762   4.470 -0.3272  0.5298 -0.1639
 3403SOL    HW121668   3.866   0.687   4.483 -1.6591  1.8104  1.4121
 3403SOL    HW221669   3.927   0.761   4.374 -2.7154  0.3636 -0.2370
 3404SOL     OW21670   3.037   3.751   3.186 -0.0830 -0.4909 -0.3461
 3404SOL    HW121671   2.969   3.776   3.124  0.2107  0.9355 -0.1048
 3404SOL    HW221672   3.084   3.690   3.129 -0.7470 -2.1225  0.8657
 3405SOL     OW21673   1.594   4.670   3.003  0.0756  0.2064 -0.4538
 3405SOL    HW121674   1.542   0.016   3.044  0.9511 -0.1951  1.3479
 3405SOL    HW221675   1.655   0.007   2.962 -1.0816  0.9754 -1.0157
 3406SOL     OW21676   3.475   1.380  15.298 -0.4670  0.4966  0.8078
 3406SOL    HW121677   3.429   1.317  15.354  1.4103  0.6565  2.5231
 3406SOL    HW221678   3.509   1.449  15.355  0.8527 -0.3396  1.0228
 3407SOL     OW21679   2.105   1.821  17.031  0.4893 -0.0564  0.0110
 3407SOL    HW121680   2.054   1.747  16.997  0.0134  1.5366 -2.6983
 3407SOL    HW221681   2.052   1.894  17.000  2.4660  0.3834 -2.2932
 3408SOL     OW21682   1.427   3.589   3.521 -0.7794  0.2359  0.1975
 3408SOL    HW121683   1.365   3.605   3.449 -0.2580  2.0831  0.1532
 3408SOL    HW221684   1.440   3.680   3.545  1.3179 -0.6236  2.2702
 3409SOL     OW21685   2.046   4.549  13.379 -0.0204 -0.6477 -0.2679
 3409SOL    HW121686   2.052   4.601  13.460 -1.6455 -2.8907  1.2984
 3409SOL    HW221687   1.954   4.521  13.385  0.8641 -3.2613  1.3059
 3410SOL     OW21688   2.922   3.165   4.248  0.0109  0.4330  0.0007
 3410SOL    HW121689   2.891   3.255   4.257 -0.3421  0.0483  2.7078
 3410SOL    HW221690   3.015   3.187   4.246  0.3741 -0.9615  1.1542
 3411SOL     OW21691   3.504   3.702   7.696 -0.0998  0.5840  0.3537
 3411SOL    HW121692   3.421   3.744   7.715  1.1170  2.5491  1.3648
 3411SOL    HW221693   3.553   3.748   7.627 -0.7530 -1.6956 -1.6202
 3412SOL     OW21694   1.087   1.403  14.324  0.3330  0.3084 -0.0786
 3412SOL    HW121695   1.095   1.457  14.403  0.4501  0.0504  0.0900
 3412SOL    HW221696   1.159   1.432  14.270 -1.3964  1.6551 -1.6450
 3413SOL     OW21697   3.794   2.313   6.848  0.1314 -0.2601  0.3791
 3413SOL    HW121698   3.878   2.359   6.856 -0.5166  0.7375  1.4820
 3413SOL    HW221699   3.732   2.375   6.886 -0.3607 -0.9104  0.6386
 3414SOL     OW21700   4.442   4.212   4.588 -0.0429 -0.3386 -0.1307
 3414SOL    HW121701   4.488   4.277   4.642  0.1241  1.0825 -2.0185
 3414SOL    HW221702   4.432   4.262   4.508 -0.7130 -0.2273  0.0250
 3415SOL     OW21703   2.435   1.314   4.848  0.3117 -0.2077 -0.0073
 3415SOL    HW121704   2.492   1.294   4.774  0.3607  1.7271 -0.4925
 3415SOL    HW221705   2.467   1.400   4.875  0.2508  0.5946 -2.4322
 3416SOL     OW21706   2.475   4.012   4.284  0.3419  0.5481  0.8678
 3416SOL    HW121707   2.462   4.103   4.314 -0.3403 -0.5566  3.9312
 3416SOL    HW221708   2.396   3.970   4.318  0.8233 -1.1023 -0.0906
 3417SOL     OW21709   1.381   0.226   8.334 -0.1383  0.5230 -0.1803
 3417SOL    HW121710   1.417   0.313   8.355 -1.0138  0.9079 -0.2657
 3417SOL    HW221711   1.349   0.247   8.246 -2.0668 -1.0403  0.1675
 3418SOL     OW21712   2.502   3.869   6.189 -0.1231 -0.0438 -0.1675
 3418SOL    HW121713   2.473   3.868   6.280 -1.1481  3.2024 -0.4585
 3418SOL    HW221714   2.418   3.890   6.148 -1.8540 -4.3514  1.1864
 3419SOL     OW21715   0.928   3.380   0.379 -0.0306 -0.1631  0.2049
 3419SOL    HW121716   0.859   3.388   0.313  1.4678  1.9799 -1.1063
 3419SOL    HW221717   0.966   3.466   0.357  3.2520 -1.3902  1.0897
 3420SOL     OW21718   3.545   3.065   7.912  0.1646 -0.3706 -0.0982
 3420SOL    HW121719   3.532   3.155   7.941  1.3291 -0.7025  1.4647
 3420SOL    HW221720   3.574   3.092   7.825  1.9528  2.8602  1.5000
 3421SOL     OW21721   3.203   0.957   7.843 -0.3277  0.1617  0.2142
 3421SOL    HW121722   3.291   0.995   7.836 -1.2280  2.1959  0.1159
 3421SOL    HW221723   3.170   1.007   7.918  0.8761 -0.1225  0.9365
 3422SOL     OW21724   3.775   0.026  13.593  0.4042 -0.1013  0.6580
 3422SOL    HW121725   3.852   0.053  13.643  0.3307 -1.9534  1.7806
 3422SOL    HW221726   3.808   4.679  13.537  0.1592  0.5634 -0.3224
 3423SOL     OW21727   0.057   2.338  15.629 -0.4720  0.2387 -0.0121
 3423SOL    HW121728   0.083   2.253  15.664  0.3474  1.9190  3.5255
 3423SOL    HW221729   4.716   2.316  15.562 -1.5853  0.1060  1.0935
 3424SOL     OW21730   3.659   3.605   6.285  0.0252 -0.2317  0.2323
 3424SOL    HW121731   3.579   3.557   6.303 -0.6674  1.3121  1.2649
 3424SOL    HW221732   3.633   3.694   6.309  1.4556  0.7831 -1.8914
 3425SOL     OW21733   3.294   0.727  10.513  0.3946 -0.0709  0.0449
 3425SOL    HW121734   3.328   0.675  10.440  0.0542  1.2583 -1.0666
 3425SOL    HW221735   3.248   0.656  10.558 -0.1287 -0.7388 -1.5152
 3426SOL     OW21736   2.784   0.269   4.936 -0.0711 -0.2800  0.3619
 3426SOL    HW121737   2.873   0.295   4.913  0.7066 -1.2214  2.3230
 3426SOL    HW221738   2.786   0.178   4.907  1.8431  0.2756 -1.2586
 3427SOL     OW21739   1.037   1.602  15.501  0.5325  0.6328 -0.0717
 3427SOL    HW121740   1.098   1.536  15.469 -2.9173 -2.0321 -1.0414
 3427SOL    HW221741   0.988   1.541  15.555  0.3730  1.6386  0.9199
 3428SOL     OW21742   2.800   3.925   0.848  0.2707  0.1174 -0.0565
 3428SOL    HW121743   2.724   3.980   0.831 -0.5512 -1.0007 -0.0524
 3428SOL    HW221744   2.806   3.927   0.944 -0.5977 -1.9506  0.0436
 3429SOL     OW21745   3.404   4.715  14.149 -0.1321  0.3894 -0.3390
 3429SOL    HW121746   3.471   0.060  14.154 -0.0827  0.2481  0.8996
 3429SOL    HW221747   3.330   0.039  14.186 -0.4717  1.6183 -2.5912
 3430SOL     OW21748   3.459   3.208   6.294 -0.4457 -0.2143 -0.6594
 3430SOL    HW121749   3.370   3.243   6.298 -0.3164  0.1399 -0.9455
 3430SOL    HW221750   3.455   3.171   6.383 -3.5364 -1.1882 -1.1973
 3431SOL     OW21751   2.338   0.132   7.089 -0.6952 -0.8827  0.1453
 3431SOL    HW121752   2.264   0.073   7.080 -2.2902  0.9153  1.5754
 3431SOL    HW221753   2.364   0.142   6.997  2.6036 -3.1385  0.8295
 3432SOL     OW21754   3.022   4.662   8.711 -0.2203 -0.3215  0.1916
 3432SOL    HW121755   2.986   4.575   8.729  2.5236 -1.5450 -0.2682
 3432SOL    HW221756   2.955   4.715   8.755 -1.6920 -1.6325 -0.4613
 3433SOL     OW21757   3.467   0.171  10.655 -0.0472  0.2191 -0.3845
 3433SOL    HW121758   3.383   0.132  10.677 -0.7461  1.3113 -1.1230
 3433SOL    HW221759   3.441   0.245  10.600 -0.4851  2.3481  2.6962
 3434SOL     OW21760   3.908   4.645  10.488  0.0987  0.1544 -0.5519
 3434SOL    HW121761   3.846   4.602  10.429  1.0089 -0.2908 -1.1886
 3434SOL    HW221762   3.886   4.628  10.579 -1.2031  1.6808 -0.5803
 3435SOL     OW21763   4.583   0.420  13.879  0.2215  0.0037 -0.1264
 3435SOL    HW121764   4.513   0.468  13.835 -1.3626 -0.9080  1.4241
 3435SOL    HW221765   4.617   0.496  13.926 -0.4988  1.3327 -1.7573
 3436SOL     OW21766   4.041   2.101   3.485 -0.1494 -0.1508  0.1358
 3436SOL    HW121767   4.085   2.184   3.500 -1.1377  0.3122  0.4786
 3436SOL    HW221768   3.976   2.103   3.555  1.1378  1.6592  1.2793
 3437SOL     OW21769   3.779   2.969   6.058  0.5265  0.2232  0.0578
 3437SOL    HW121770   3.798   2.974   5.964 -0.0333 -1.7308 -0.1587
 3437SOL    HW221771   3.696   2.922   6.063  0.4487  0.4549  0.8303
 3438SOL     OW21772   0.205   0.690   7.854  0.8836 -1.2572 -0.6292
 3438SOL    HW121773   0.167   0.611   7.892  0.2987 -0.6126  0.1188
 3438SOL    HW221774   0.286   0.656   7.815  0.0931 -1.0851 -2.4159
 3439SOL     OW21775   1.321   0.481   6.835  0.4926 -0.0420 -0.4391
 3439SOL    HW121776   1.410   0.516   6.846  0.0681  0.9346 -0.1650
 3439SOL    HW221777   1.339   0.411   6.772  0.6980  0.3458 -0.8113
 3440SOL     OW21778   0.412   3.043   9.886  0.2377  0.0388  0.0321
 3440SOL    HW121779   0.364   3.121   9.858 -1.9905 -1.3980 -0.1138
 3440SOL    HW221780   0.341   2.992   9.925  1.4601 -1.4034  0.3665
 3441SOL     OW21781   3.658   3.275   1.505  0.0754  0.4518  0.4530
 3441SOL    HW121782   3.693   3.195   1.544  0.8382 -0.3389 -1.8455
 3441SOL    HW221783   3.574   3.234   1.487  0.1736 -0.5468  2.3642
 3442SOL     OW21784   4.153   3.251   5.848 -0.4821 -0.0898 -0.5448
 3442SOL    HW121785   4.067   3.231   5.808 -0.8938 -1.2308  0.9054
 3442SOL    HW221786   4.125   3.288   5.931 -0.3861 -0.2881 -0.4236
 3443SOL     OW21787   3.661   1.151   4.258  0.1810  0.1780 -0.1477
 3443SOL    HW121788   3.695   1.222   4.203  0.3916 -0.8648 -1.3784
 3443SOL    HW221789   3.738   1.095   4.266  0.1428 -0.0518 -1.3200
 3444SOL     OW21790   1.717   3.413   7.026  0.4640  0.7294  0.0915
 3444SOL    HW121791   1.725   3.508   7.039  2.4460  0.1252  3.2366
 3444SOL    HW221792   1.792   3.380   7.076 -0.6739 -1.2822  0.4684
 3445SOL     OW21793   1.694   2.911   2.677 -0.0157 -0.8414 -0.0862
 3445SOL    HW121794   1.708   2.839   2.615  0.4645 -0.0822 -0.8607
 3445SOL    HW221795   1.653   2.867   2.751 -0.3137 -2.2594 -1.0963
 3446SOL     OW21796   3.747   0.875   7.447  0.4851  0.6602 -0.0220
 3446SOL    HW121797   3.810   0.837   7.508  1.1797  0.7131 -0.7133
 3446SOL    HW221798   3.736   0.958   7.493 -0.9990  0.2906  0.3072
 3447SOL     OW21799   0.223   2.206   0.929  0.7830  0.1275  0.0306
 3447SOL    HW121800   0.274   2.128   0.905  0.7370 -0.7674  2.7361
 3447SOL    HW221801   0.171   2.164   0.998 -1.3268  0.8616 -1.1185
 3448SOL     OW21802   2.607   0.060  10.593  0.0169  0.2108 -0.6983
 3448SOL    HW121803   2.636   0.129  10.653 -2.7473  0.9712 -0.2290
 3448SOL    HW221804   2.692   0.018  10.580  0.7169  1.2425  0.4977
 3449SOL     OW21805   2.212   2.913  15.057 -0.1525  0.2333 -0.9234
 3449SOL    HW121806   2.249   2.893  14.971  1.8593  0.9961 -0.2289
 3449SOL    HW221807   2.162   2.991  15.034 -0.8559 -0.3076 -1.2746
 3450SOL     OW21808   4.377   3.605  11.373  0.3340 -0.4428 -0.1009
 3450SOL    HW121809   4.379   3.518  11.413  0.4085 -0.3472  0.1068
 3450SOL    HW221810   4.471   3.616  11.355  0.0049  0.3224 -1.3415
 3451SOL     OW21811   3.838   3.860  12.651 -0.0724  0.0399  0.2516
 3451SOL    HW121812   3.745   3.875  12.631 -0.2029 -1.2359 -0.0703
 3451SOL    HW221813   3.839   3.768  12.623 -0.6761  0.3764 -0.8694
 3452SOL     OW21814   1.170   2.704   8.100 -0.0957 -0.2262  0.6079
 3452SOL    HW121815   1.168   2.635   8.033  0.6714  0.2499  0.0918
 3452SOL    HW221816   1.200   2.779   8.049  1.2172 -2.5156 -2.0182
 3453SOL     OW21817   4.323   2.162   7.071 -0.6672  0.3447 -0.4351
 3453SOL    HW121818   4.292   2.097   7.008 -0.1391  0.0699 -0.4068
 3453SOL    HW221819   4.366   2.104   7.133  2.6044  0.2469 -2.8307
 3454SOL     OW21820   0.039   1.984   6.168  0.0048 -0.0087 -0.1456
 3454SOL    HW121821   0.124   1.959   6.132  0.2017  0.5489 -0.0575
 3454SOL    HW221822   0.047   2.078   6.181  0.3036  0.2650 -2.4089
 3455SOL     OW21823   1.034   3.739   0.591  0.1918 -0.7989  0.0556
 3455SOL    HW121824   1.053   3.788   0.671  1.4428 -0.2669 -0.5739
 3455SOL    HW221825   1.118   3.746   0.546  0.1917  1.1196  0.3392
 3456SOL     OW21826   3.720   3.284   2.663 -0.5990  0.1689 -0.5984
 3456SOL    HW121827   3.638   3.268   2.709 -0.5996 -0.2516 -0.7476
 3456SOL    HW221828   3.770   3.344   2.719 -1.8660 -0.8145  1.5635
 3457SOL     OW21829   1.641   1.358   6.764  0.1925  0.3840  0.6288
 3457SOL    HW121830   1.572   1.395   6.709 -0.3058 -3.1808 -1.1759
 3457SOL    HW221831   1.691   1.321   6.692  0.2083  0.3848  0.6394
 3458SOL     OW21832   0.178   2.628  16.897 -0.0583 -0.3870  0.2784
 3458SOL    HW121833   0.237   2.694  16.862 -0.7421  0.3320  0.4888
 3458SOL    HW221834   0.104   2.650  16.839  0.2066  1.6653  0.7320
 3459SOL     OW21835   0.225   1.363  14.689  0.1874 -0.6110 -0.0737
 3459SOL    HW121836   0.303   1.317  14.718  0.5539 -0.0943 -0.2457
 3459SOL    HW221837   0.228   1.357  14.594  1.5114  0.5271 -0.1131
 3460SOL     OW21838   1.430   0.986   4.231  0.0248  0.4628 -0.2326
 3460SOL    HW121839   1.430   1.062   4.290 -1.4509  2.7400 -3.1256
 3460SOL    HW221840   1.364   1.010   4.166  0.0674 -0.0927 -0.4787
 3461SOL     OW21841   2.494   3.092  16.579  0.5577 -0.2680  0.3805
 3461SOL    HW121842   2.442   3.036  16.637  0.1963  0.0842  0.3997
 3461SOL    HW221843   2.441   3.170  16.561 -0.4512 -0.9486  0.3959
 3462SOL     OW21844   3.452   3.909   4.580 -0.2398 -0.7429  0.2309
 3462SOL    HW121845   3.519   3.849   4.548 -1.2671 -2.2537  0.9441
 3462SOL    HW221846   3.473   3.987   4.529  1.2718 -1.4373 -0.2248
 3463SOL     OW21847   2.664   2.761   1.804 -0.4349  0.6529  0.0796
 3463SOL    HW121848   2.601   2.763   1.733  0.0925  1.3290 -0.3643
 3463SOL    HW221849   2.674   2.668   1.826  0.6409  0.4610 -1.2638
 3464SOL     OW21850   1.494   3.808   4.812  0.5799  0.1507 -0.2946
 3464SOL    HW121851   1.571   3.829   4.865 -1.2957  0.8171  2.1668
 3464SOL    HW221852   1.423   3.801   4.877 -0.6749  0.1378 -1.6713
 3465SOL     OW21853   2.732   1.775   7.308  0.0991 -0.3444  0.6589
 3465SOL    HW121854   2.782   1.728   7.241 -0.3260  0.3256 -0.1263
 3465SOL    HW221855   2.664   1.809   7.250  0.6063 -2.0119 -0.9427
 3466SOL     OW21856   3.962   4.453   2.516  0.0689 -0.2581  0.1683
 3466SOL    HW121857   4.045   4.463   2.469  0.0240 -1.7671 -0.2297
 3466SOL    HW221858   3.955   4.545   2.543  1.2196 -0.1652  0.1316
 3467SOL     OW21859   3.693   2.417   8.304  0.0200  0.0919 -0.0644
 3467SOL    HW121860   3.712   2.371   8.222  1.4831 -0.8092  0.7863
 3467SOL    HW221861   3.598   2.418   8.296  0.0938  1.5215 -0.9792
 3468SOL     OW21862   4.594   3.009   5.236  0.0808  0.3673  0.9150
 3468SOL    HW121863   4.637   3.026   5.153 -4.0594  1.7681 -0.9478
 3468SOL    HW221864   4.550   2.928   5.209  1.0170  0.2090 -0.1321
 3469SOL     OW21865   1.155   0.489   6.143  0.0474 -0.4670 -0.2163
 3469SOL    HW121866   1.116   0.447   6.067 -1.4527 -1.9815  1.3820
 3469SOL    HW221867   1.081   0.540   6.177  2.0115  2.4745 -0.3333
 3470SOL     OW21868   0.590   1.859   4.482 -0.2164 -0.4850 -0.4450
 3470SOL    HW121869   0.518   1.921   4.496 -0.0891 -0.5320  0.3950
 3470SOL    HW221870   0.659   1.901   4.532 -0.3006 -0.9548  0.0610
 3471SOL     OW21871   3.864   1.657  15.570  0.0226 -0.5029  0.1339
 3471SOL    HW121872   3.935   1.626  15.626 -1.4586 -2.2174  1.0728
 3471SOL    HW221873   3.909   1.710  15.504  1.2282 -1.6810  0.0065
 3472SOL     OW21874   2.532   3.224   2.210 -0.1436  0.7851  1.2008
 3472SOL    HW121875   2.549   3.129   2.211  1.9671  1.1541 -0.4595
 3472SOL    HW221876   2.460   3.230   2.147  0.6093  0.5532  0.3190
 3473SOL     OW21877   0.406   3.543   8.657  0.2179  0.1295 -0.7795
 3473SOL    HW121878   0.442   3.630   8.643 -0.5910  0.9967  2.7436
 3473SOL    HW221879   0.488   3.494   8.655  1.3586  2.0324 -0.5661
 3474SOL     OW21880   0.074   4.170   2.099 -0.7742 -0.2894  0.2737
 3474SOL    HW121881   0.115   4.091   2.065 -2.6489 -0.9770 -0.3655
 3474SOL    HW221882   0.152   4.222   2.118 -1.9905  1.7276 -0.2666
 3475SOL     OW21883   4.124   0.898   8.389 -0.0987  0.9594  0.9537
 3475SOL    HW121884   4.201   0.874   8.442  0.6295 -1.2025 -1.1145
 3475SOL    HW221885   4.115   0.815   8.342 -3.6200  2.3888 -0.8342
 3476SOL     OW21886   3.880   0.528  14.380  0.5470 -0.4387  0.6969
 3476SOL    HW121887   3.946   0.553  14.445 -0.4640  0.8366  1.2389
 3476SOL    HW221888   3.813   0.484  14.433  0.8292 -0.9426  0.6381
 3477SOL     OW21889   4.101   2.599   9.120 -0.0343  0.1731 -0.4319
 3477SOL    HW121890   4.031   2.614   9.183 -1.1842  0.5093 -1.7873
 3477SOL    HW221891   4.126   2.513   9.152 -1.5814 -0.7509 -1.7313
 3478SOL     OW21892   1.874   3.817  16.031  0.5125 -0.0188  0.4110
 3478SOL    HW121893   1.787   3.853  16.048  0.3822  1.3743 -3.3097
 3478SOL    HW221894   1.872   3.830  15.936  2.1843  0.4781  0.4520
 3479SOL     OW21895   2.408   0.950   2.206  0.3404 -0.8708 -0.1102
 3479SOL    HW121896   2.376   0.927   2.119  0.1709  0.1131 -0.3091
 3479SOL    HW221897   2.437   0.866   2.241  1.5318 -0.8665 -1.1052
 3480SOL     OW21898   1.070   3.765   3.346 -0.0515  0.0653 -0.3066
 3480SOL    HW121899   1.001   3.765   3.412  0.6142  0.5906  0.3951
 3480SOL    HW221900   1.083   3.670   3.336 -0.5348 -0.1224  0.8414
 3481SOL     OW21901   3.620   0.296   9.447 -0.0349  0.1058  0.5742
 3481SOL    HW121902   3.556   0.341   9.503 -1.2865 -0.9946  0.0234
 3481SOL    HW221903   3.587   0.300   9.357 -0.2677  1.5767  0.7167
 3482SOL     OW21904   4.496   4.586  16.191  0.7813  0.1265  0.4616
 3482SOL    HW121905   4.428   4.644  16.157  0.3725  0.1244  1.2915
 3482SOL    HW221906   4.548   4.650  16.240  1.1475  0.1612  0.0384
 3483SOL     OW21907   0.088   0.645   2.962  0.2530  0.0639  0.2704
 3483SOL    HW121908   0.026   0.574   2.978 -1.2661  1.1177 -0.9304
 3483SOL    HW221909   0.058   0.666   2.873  2.2510 -0.5526 -0.5416
 3484SOL     OW21910   2.995   3.514   2.190 -0.3121  0.5333 -0.1395
 3484SOL    HW121911   2.985   3.568   2.112 -2.9860 -1.0738 -0.9229
 3484SOL    HW221912   3.064   3.454   2.160 -1.9081 -0.3210 -2.0967
 3485SOL     OW21913   1.789   1.313   5.749  0.1278 -0.8189  0.9365
 3485SOL    HW121914   1.732   1.236   5.753 -1.7646  0.5015 -0.3508
 3485SOL    HW221915   1.849   1.285   5.680  0.1421  0.7898  0.2932
 3486SOL     OW21916   0.009   0.213   5.807 -0.0719  0.9465 -0.0343
 3486SOL    HW121917   4.682   0.181   5.882 -0.0895 -1.6603 -1.1958
 3486SOL    HW221918   4.691   0.158   5.742  1.2383 -1.4101  1.1318
 3487SOL     OW21919   4.206   0.475   4.400  0.3054 -0.5016 -0.3891
 3487SOL    HW121920   4.209   0.498   4.307  0.9423  3.3201  0.5686
 3487SOL    HW221921   4.161   0.391   4.399  1.8974 -1.3680  0.2575
 3488SOL     OW21922   2.626   0.370   7.853 -0.0341  0.5864 -0.4734
 3488SOL    HW121923   2.576   0.292   7.829  1.2599 -0.8690  1.4679
 3488SOL    HW221924   2.698   0.325   7.898 -1.0928  1.6559  2.3294
 3489SOL     OW21925   1.924   4.082   2.454  0.9165  0.6079  0.3814
 3489SOL    HW121926   1.966   4.073   2.369  0.9984  0.5320  0.4305
 3489SOL    HW221927   1.831   4.078   2.430  0.9944  1.6344 -0.1157
 3490SOL     OW21928   1.055   4.229   7.386  0.0048  1.3463  0.5421
 3490SOL    HW121929   1.028   4.140   7.361  1.7769  0.7923  0.6033
 3490SOL    HW221930   1.049   4.219   7.481 -0.0519 -0.6260  0.3358
 3491SOL     OW21931   3.263   1.704   5.338  0.1100 -0.4840  0.0052
 3491SOL    HW121932   3.247   1.723   5.246  2.0244  1.9933  0.1726
 3491SOL    HW221933   3.300   1.789   5.362  0.3829 -0.5941 -0.0261
 3492SOL     OW21934   1.807   3.675  11.791 -0.5640 -0.3828  0.5623
 3492SOL    HW121935   1.865   3.627  11.731  1.2394  1.0853  1.1523
 3492SOL    HW221936   1.735   3.614  11.808  0.3010 -1.2067  1.2601
 3493SOL     OW21937   0.942   3.479  16.998 -0.1675  0.5506 -0.5822
 3493SOL    HW121938   1.018   3.480  17.056 -0.2186  2.0121 -0.5406
 3493SOL    HW221939   0.966   3.552  16.941  1.4929 -0.3570 -1.0264
 3494SOL     OW21940   3.316   4.412   4.296  0.5558 -0.3178 -0.2887
 3494SOL    HW121941   3.232   4.385   4.258  0.4454 -1.5427  0.8369
 3494SOL    HW221942   3.330   4.501   4.263 -2.0107  0.3759  0.4496
 3495SOL     OW21943   3.644   0.455   3.032  0.6244  0.0810 -0.0171
 3495SOL    HW121944   3.664   0.455   3.126 -2.5083  2.4645  0.6605
 3495SOL    HW221945   3.549   0.443   3.028  0.3770  2.3676 -1.0849
 3496SOL     OW21946   1.744   1.653  13.097 -0.0708  0.3297 -0.2060
 3496SOL    HW121947   1.689   1.641  13.019 -2.6523 -0.8851  1.7717
 3496SOL    HW221948   1.691   1.719  13.143 -0.0138  0.9562 -1.0415
 3497SOL     OW21949   1.950   3.947   9.005 -0.4103  0.2737 -0.3896
 3497SOL    HW121950   2.003   3.944   9.085 -1.0691  0.7168  0.0662
 3497SOL    HW221951   1.868   3.911   9.040  0.5367 -0.7571  0.8087
 3498SOL     OW21952   1.600   1.819   8.214 -0.1380  0.0179 -0.1770
 3498SOL    HW121953   1.674   1.879   8.210  1.1927 -1.5664  0.4794
 3498SOL    HW221954   1.638   1.764   8.282  1.6134 -0.3185 -1.4081
 3499SOL     OW21955   4.669   4.456   7.328 -0.4537 -0.2776  0.2324
 3499SOL    HW121956   4.634   4.376   7.288 -1.1887 -0.4474  1.2226
 3499SOL    HW221957   4.599   4.516   7.304  0.6637  1.2150  0.7314
 3500SOL     OW21958   3.870   1.642  12.224  0.1883 -0.0770 -0.8105
 3500SOL    HW121959   3.936   1.671  12.286 -0.7731  0.2173  0.0715
 3500SOL    HW221960   3.822   1.720  12.194 -0.4190  0.4471  1.5239
 3501SOL     OW21961   0.518   2.606  13.395  0.6974 -0.3333  0.3498
 3501SOL    HW121962   0.435   2.652  13.383  0.8596  0.2872  1.6773
 3501SOL    HW221963   0.483   2.517  13.406  1.4743 -0.4637  1.7683
 3502SOL     OW21964   4.238   0.552   7.059  0.4256 -0.3079  0.4230
 3502SOL    HW121965   4.172   0.555   7.128  0.4904 -1.3813  0.5286
 3502SOL    HW221966   4.191   0.510   6.987  1.2159  0.0587 -0.3063
 3503SOL     OW21967   0.785   0.297  14.949 -0.2740  0.8531 -0.0931
 3503SOL    HW121968   0.758   0.220  14.999 -0.7019  0.5154 -0.8598
 3503SOL    HW221969   0.881   0.294  14.956 -0.3121 -0.8284 -0.5173
 3504SOL     OW21970   3.968   1.927   2.541 -0.4995  0.5577  0.0916
 3504SOL    HW121971   4.022   1.852   2.515 -5.5624 -0.7562 -6.3880
 3504SOL    HW221972   3.899   1.893   2.598  0.0770  1.3488  1.2666
 3505SOL     OW21973   0.618   4.453   2.214 -0.5429 -0.1065 -0.2929
 3505SOL    HW121974   0.618   4.378   2.154  2.1600 -0.2345 -0.1313
 3505SOL    HW221975   0.558   4.415   2.278 -0.1371  1.8420  1.2460
 3506SOL     OW21976   2.308   0.445   8.429 -0.1439  0.3739 -0.4287
 3506SOL    HW121977   2.263   0.364   8.453 -0.3212  0.3956 -0.6841
 3506SOL    HW221978   2.297   0.497   8.509 -0.6611  2.7752 -2.0412
 3507SOL     OW21979   0.547   4.283   6.649 -0.1716  0.2494 -0.0247
 3507SOL    HW121980   0.485   4.327   6.590 -2.0499 -1.5940  0.5569
 3507SOL    HW221981   0.634   4.317   6.629 -1.1651  2.1189 -1.2203
 3508SOL     OW21982   4.098   1.184  11.805 -0.3214 -0.6076 -0.1240
 3508SOL    HW121983   4.101   1.089  11.800  2.2148 -0.4887 -0.9131
 3508SOL    HW221984   4.178   1.212  11.761  0.4677  0.1885  1.8148
 3509SOL     OW21985   3.914   4.462   3.615  0.0982 -0.2063  0.9481
 3509SOL    HW121986   3.991   4.498   3.659  0.1472  1.8854 -0.8122
 3509SOL    HW221987   3.910   4.376   3.655  2.7894  0.8670  3.5510
 3510SOL     OW21988   2.940   1.211  14.689  0.2310 -0.1355  0.3339
 3510SOL    HW121989   2.986   1.166  14.618 -0.5637  0.8621 -0.8137
 3510SOL    HW221990   2.958   1.157  14.766 -2.6246  0.0372  1.1104
 3511SOL     OW21991   0.234   3.866  12.072 -0.1894  0.5091  0.3536
 3511SOL    HW121992   0.234   3.808  11.996 -0.2835  1.7610 -0.6122
 3511SOL    HW221993   0.287   3.823  12.139  0.1617  0.7076  0.2054
 3512SOL     OW21994   3.321   3.663   2.678  0.2451  0.4286 -0.4237
 3512SOL    HW121995   3.236   3.620   2.689 -0.1601  0.7398 -2.4676
 3512SOL    HW221996   3.365   3.598   2.624  0.4935 -0.8214  1.2914
 3513SOL     OW21997   4.138   1.793   0.807 -0.2793 -0.6730  0.0227
 3513SOL    HW121998   4.219   1.741   0.804 -1.5617 -2.6347 -0.7291
 3513SOL    HW221999   4.162   1.867   0.862 -0.3360 -1.4716  1.1172
 3514SOL     OW22000   3.096   2.739   7.006  0.1825  0.0138  0.2665
 3514SOL    HW122001   3.009   2.698   7.012  0.1855 -0.0222  0.0744
 3514SOL    HW222002   3.065   2.829   6.999 -3.1868 -1.0812  0.9727
 3515SOL     OW22003   2.006   0.947   0.582  0.5497 -1.0231 -0.2730
 3515SOL    HW122004   1.956   0.923   0.504  1.1694 -1.4556 -0.5433
 3515SOL    HW222005   1.931   0.964   0.639  0.7695  0.0104 -0.2954
 3516SOL     OW22006   3.062   2.923   9.185 -0.3193 -0.4300 -0.1577
 3516SOL    HW122007   3.084   2.831   9.196 -1.7120 -0.6877  0.4991
 3516SOL    HW222008   3.112   2.928   9.104  0.4764  0.6690  0.3949
 3517SOL     OW22009   0.233   1.521  13.315 -0.1288  0.3026  0.2522
 3517SOL    HW122010   0.190   1.596  13.356  0.2486 -0.8095  2.6913
 3517SOL    HW222011   0.220   1.458  13.386  1.0330 -2.0120 -1.5726
 3518SOL     OW22012   1.777   0.393  12.438  0.2558  0.1416  0.9486
 3518SOL    HW122013   1.735   0.369  12.520 -1.5844  0.8209  0.2021
 3518SOL    HW222014   1.863   0.413  12.475  0.4016 -0.3453  0.8690
 3519SOL     OW22015   3.123   4.053   7.041 -0.1035 -0.5520 -0.0008
 3519SOL    HW122016   3.198   4.039   7.098 -0.4541  0.7319  0.7772
 3519SOL    HW222017   3.056   4.018   7.101 -0.1862 -0.9157 -0.3059
 3520SOL     OW22018   3.621   2.581   5.580  0.5746  0.1585  0.3886
 3520SOL    HW122019   3.646   2.660   5.533  0.4284 -1.0115 -1.6729
 3520SOL    HW222020   3.703   2.556   5.623  0.9574 -2.5964 -1.8775
 3521SOL     OW22021   4.124   1.002  12.644 -0.5412 -0.2841 -0.1032
 3521SOL    HW122022   4.125   1.064  12.571  1.4834  0.5486  0.6249
 3521SOL    HW222023   4.101   0.926  12.591 -1.0619  0.1251 -0.4596
 3522SOL     OW22024   1.658   0.342   8.263 -0.3068  0.7349 -0.1985
 3522SOL    HW122025   1.619   0.414   8.312  0.6504  0.1922  1.3441
 3522SOL    HW222026   1.709   0.397   8.202  0.6267 -0.8555 -0.8493
 3523SOL     OW22027   4.697   0.057   8.102  0.5071 -1.0789 -0.7235
 3523SOL    HW122028   4.608   0.072   8.068  1.5386  0.8042 -2.5746
 3523SOL    HW222029   4.672   0.028   8.189  0.2901  0.9493 -0.1231
 3524SOL     OW22030   2.446   4.701   1.782  0.6155  0.7503 -0.1405
 3524SOL    HW122031   2.431   4.654   1.863  2.8025  0.2368 -0.0328
 3524SOL    HW222032   2.392   0.056   1.787 -2.2007 -1.1891 -0.1055
 3525SOL     OW22033   4.508   4.169   5.897 -0.5089 -0.5659 -0.0744
 3525SOL    HW122034   4.521   4.101   5.963  2.1002  0.1109  0.1027
 3525SOL    HW222035   4.548   4.248   5.934  1.4685 -1.2587 -0.7093
 3526SOL     OW22036   0.648   2.454   2.132 -0.2055  0.1876  0.0739
 3526SOL    HW122037   0.589   2.379   2.142  1.2230 -0.9532 -0.1498
 3526SOL    HW222038   0.613   2.497   2.054  0.2365 -1.0658 -0.7946
 3527SOL     OW22039   4.063   2.643  12.826  0.5807  0.0882 -0.2053
 3527SOL    HW122040   4.107   2.671  12.746  0.4693  0.2478 -0.2101
 3527SOL    HW222041   4.108   2.708  12.880  1.6272 -0.9462  0.1788
 3528SOL     OW22042   4.308   3.613   7.941 -0.7838  0.1345  0.3951
 3528SOL    HW122043   4.266   3.699   7.954  0.9263  1.0214 -0.0053
 3528SOL    HW222044   4.253   3.559   7.998  0.9340 -2.3210 -0.3104
 3529SOL     OW22045   1.293   3.878   5.873  0.0245 -0.6313 -0.1107
 3529SOL    HW122046   1.376   3.833   5.856  0.5133  0.6690 -1.1606
 3529SOL    HW222047   1.265   3.843   5.958  1.8610 -3.1283 -0.5402
 3530SOL     OW22048   1.427   2.514   5.284 -0.5871 -0.1215  0.4732
 3530SOL    HW122049   1.506   2.541   5.236 -0.8326 -0.8574 -0.3431
 3530SOL    HW222050   1.432   2.584   5.349  0.5664  0.8641 -0.6565
 3531SOL     OW22051   1.161   2.046   3.696 -0.0803  0.2781  0.2012
 3531SOL    HW122052   1.241   2.067   3.744  0.2681  0.3784 -0.4245
 3531SOL    HW222053   1.173   2.110   3.626  0.5833 -0.0955 -0.0293
 3532SOL     OW22054   2.296   0.163   6.081  0.9276  0.3602  0.1147
 3532SOL    HW122055   2.352   0.187   6.007  1.3747  1.4776  0.8258
 3532SOL    HW222056   2.247   0.087   6.048 -0.5581  1.5320 -0.3612
 3533SOL     OW22057   4.503   1.985   6.082 -0.4611  0.2083  0.1805
 3533SOL    HW122058   4.589   1.977   6.125 -0.2120 -1.4680 -0.6270
 3533SOL    HW222059   4.458   1.965   6.164 -2.6703 -0.6447 -1.2329
 3534SOL     OW22060   4.625   2.927   7.805  0.5078  0.2285 -0.1747
 3534SOL    HW122061   4.565   2.866   7.761 -0.1133 -1.1874  2.6822
 3534SOL    HW222062   4.582   3.010   7.785 -0.7578 -0.1924  0.7932
 3535SOL     OW22063   0.821   0.707   0.585 -0.2157 -0.4701 -0.2410
 3535SOL    HW122064   0.753   0.656   0.629  0.8104 -2.3375 -0.8438
 3535SOL    HW222065   0.767   0.761   0.527 -2.0412 -0.5771  1.3641
 3536SOL     OW22066   3.658   3.579   1.128  0.6297 -0.4794 -0.2276
 3536SOL    HW122067   3.727   3.518   1.153 -1.0710 -1.7989  1.3442
 3536SOL    HW222068   3.709   3.654   1.099  1.9470 -1.2146  0.2006
 3537SOL     OW22069   0.735   3.330   3.382 -0.0895  0.0889  0.2890
 3537SOL    HW122070   0.714   3.243   3.416  2.2378 -1.0715 -1.2157
 3537SOL    HW222071   0.650   3.372   3.393 -1.5776 -3.3991  1.8902
 3538SOL     OW22072   4.171   4.516   2.183 -0.7789 -0.6288 -0.7593
 3538SOL    HW122073   4.200   4.554   2.100 -0.7653  0.3932 -0.2907
 3538SOL    HW222074   4.093   4.569   2.201 -0.1756 -0.6893  2.1695
 3539SOL     OW22075   3.337   0.899   5.689 -0.3074  0.3174  0.2572
 3539SOL    HW122076   3.422   0.897   5.732 -0.4912  0.0996  0.6080
 3539SOL    HW222077   3.327   0.811   5.652 -0.6218  0.5591 -0.2347
 3540SOL     OW22078   0.491   3.959   3.263 -0.3610  0.2536 -0.3501
 3540SOL    HW122079   0.555   3.956   3.191  0.1121 -0.8472  0.1201
 3540SOL    HW222080   0.483   3.866   3.284  1.3490 -0.3802 -2.5036
 3541SOL     OW22081   0.256   2.237   6.256  0.1034 -0.0763  0.3626
 3541SOL    HW122082   0.330   2.242   6.316  1.9495  0.8312 -2.0096
 3541SOL    HW222083   0.284   2.179   6.186 -1.3097  1.0852 -1.1671
 3542SOL     OW22084   2.041   3.445  16.251 -0.4629  0.4577  0.2995
 3542SOL    HW122085   1.965   3.422  16.304 -0.3732  0.9316  0.6410
 3542SOL    HW222086   2.042   3.369  16.194 -0.5287  1.3766 -0.9286
 3543SOL     OW22087   0.678   0.051  15.047 -0.2073  0.2804  0.6675
 3543SOL    HW122088   0.658   0.105  15.123  1.2481  2.3221 -0.3914
 3543SOL    HW222089   0.727   4.704  15.088 -0.5322  0.4215  1.3038
 3544SOL     OW22090   3.944   2.611   3.145 -0.0502  0.5692 -0.0381
 3544SOL    HW122091   3.928   2.580   3.234  3.2488 -0.5101  0.1587
 3544SOL    HW222092   4.020   2.668   3.143 -0.1148  0.7070  1.5188
 3545SOL     OW22093   0.998   3.580   3.101  0.3706 -0.5343 -0.2923
 3545SOL    HW122094   0.958   3.493   3.104  1.8047 -1.1901 -0.2812
 3545SOL    HW222095   0.981   3.597   3.009 -2.6695  0.6553  0.4884
 3546SOL     OW22096   3.958   0.807   2.833 -0.0001 -0.5413  0.6202
 3546SOL    HW122097   3.888   0.751   2.866 -0.1508 -1.3909 -1.1605
 3546SOL    HW222098   3.922   0.854   2.758  2.1143 -0.0793 -0.1121
 3547SOL     OW22099   3.099   2.020   6.054  0.6902  0.1605  0.1236
 3547SOL    HW122100   3.054   1.955   6.107  0.2794 -0.5719 -1.1136
 3547SOL    HW222101   3.147   1.974   5.985  0.8828  1.3476 -0.5471
 3548SOL     OW22102   3.872   2.792   5.181 -0.3143  0.2567 -0.1643
 3548SOL    HW122103   3.833   2.726   5.125  2.0602  0.1967 -1.7487
 3548SOL    HW222104   3.816   2.784   5.258  0.2587 -1.2401  0.1026
 3549SOL     OW22105   3.618   2.214  12.913 -0.5285  0.1920  0.1189
 3549SOL    HW122106   3.689   2.278  12.921 -2.3798  1.9805  2.2216
 3549SOL    HW222107   3.649   2.135  12.957 -3.0972 -1.7343 -1.5408
 3550SOL     OW22108   4.129   2.263  15.908  0.3536  0.4949  0.0718
 3550SOL    HW122109   4.149   2.352  15.936  1.3667  0.2856  0.0152
 3550SOL    HW222110   4.162   2.257  15.818 -0.0054  1.1106 -0.0967
 3551SOL     OW22111   2.889   1.426   7.895  0.0517  0.1582  0.0108
 3551SOL    HW122112   2.843   1.356   7.849 -0.1642 -0.1860  0.7521
 3551SOL    HW222113   2.977   1.414   7.858 -0.5268  1.4560 -1.8061
 3552SOL     OW22114   3.186   2.921  15.865 -0.4473  0.0976  0.0942
 3552SOL    HW122115   3.108   2.912  15.920 -0.0367  0.6016  0.7483
 3552SOL    HW222116   3.143   2.918  15.780  0.7843 -1.7048 -0.4779
 3553SOL     OW22117   2.001   3.687   8.253  0.4223  0.0565  0.2761
 3553SOL    HW122118   2.001   3.783   8.259  0.8154  0.0220  0.8309
 3553SOL    HW222119   2.082   3.682   8.201  0.3013 -0.6208  0.1612
 3554SOL     OW22120   0.904   1.973  12.332  0.7762 -0.1463 -0.1943
 3554SOL    HW122121   0.853   2.045  12.297  0.1368  0.9810  3.0448
 3554SOL    HW222122   0.919   1.992  12.425  0.3646 -2.4602  0.3719
 3555SOL     OW22123   4.089   0.592   3.642  0.5186 -0.3048  0.2645
 3555SOL    HW122124   4.116   0.678   3.613  1.3337 -0.5631  0.2658
 3555SOL    HW222125   4.110   0.538   3.566 -1.2969  0.5806 -0.8774
 3556SOL     OW22126   0.983   2.143   0.196 -0.5721  0.4378 -0.3560
 3556SOL    HW122127   0.944   2.057   0.177  1.3221 -0.5260  0.0929
 3556SOL    HW222128   0.957   2.138   0.288  1.4352 -2.6640  0.0510
 3557SOL     OW22129   3.750   3.174   0.362  0.0218  0.3748  0.1614
 3557SOL    HW122130   3.756   3.175   0.458  2.2088  2.6923 -0.0136
 3557SOL    HW222131   3.656   3.158   0.349  0.0446 -0.1465  0.6193
 3558SOL     OW22132   0.065   2.821   9.363 -0.5678 -0.4098 -0.5464
 3558SOL    HW122133   0.093   2.879   9.434  1.0947 -2.9849  0.9320
 3558SOL    HW222134   0.017   2.754   9.411 -0.0725 -1.3508 -1.3676
 3559SOL     OW22135   1.716   0.320   3.640 -0.0352 -0.2002 -0.3951
 3559SOL    HW122136   1.799   0.278   3.618  1.1615  3.0078 -1.9787
 3559SOL    HW222137   1.698   0.378   3.566 -1.5218  0.1715  0.2479
 3560SOL     OW22138   0.383   2.588  17.351 -0.5393  0.0817  0.0374
 3560SOL    HW122139   0.472   2.553  17.348 -0.9399 -1.0186  0.6693
 3560SOL    HW222140   0.328   2.515  17.379 -1.7815  1.6567  1.7068
 3561SOL     OW22141   1.922   1.415   8.925  0.2599 -0.0693  0.1121
 3561SOL    HW122142   1.895   1.475   8.855 -1.9972  0.0851  1.1145
 3561SOL    HW222143   2.010   1.392   8.895 -0.2658 -1.2734 -0.5127
 3562SOL     OW22144   4.322   4.661  10.067  0.2941 -0.3861 -0.1102
 3562SOL    HW122145   4.311   4.673  10.162  3.1760 -0.0085  0.1640
 3562SOL    HW222146   4.406   4.616  10.061  0.7183  0.5391 -1.1056
 3563SOL     OW22147   4.503   1.216   6.356 -0.5103 -0.0599 -0.1367
 3563SOL    HW122148   4.511   1.245   6.266 -0.7260  0.9868  0.1863
 3563SOL    HW222149   4.446   1.284   6.391 -0.7355 -0.5099  0.3708
 3564SOL     OW22150   0.281   2.540  12.660  0.8567 -0.6091  0.4534
 3564SOL    HW122151   0.317   2.497  12.737 -0.3094  0.3186  1.5204
 3564SOL    HW222152   0.204   2.487  12.639  0.2825 -0.3030  1.7753
 3565SOL     OW22153   1.351   0.833  13.453  0.6463 -0.3952 -0.6657
 3565SOL    HW122154   1.386   0.873  13.533 -1.0405  0.8072 -0.5180
 3565SOL    HW222155   1.420   0.846  13.388  0.2642 -0.4223 -1.0803
 3566SOL     OW22156   3.934   3.519   9.898 -0.1939  0.0588 -0.1193
 3566SOL    HW122157   3.909   3.495   9.987  1.9534  0.9159  0.7043
 3566SOL    HW222158   3.870   3.587   9.876  0.4460  0.1870 -1.6011
 3567SOL     OW22159   3.438   3.863  11.093 -0.1407 -0.0591  0.2122
 3567SOL    HW122160   3.531   3.883  11.088 -0.1228  0.0969  1.1997
 3567SOL    HW222161   3.446   3.771  11.118  0.5312 -0.0999 -0.1434
 3568SOL     OW22162   1.780   1.750   6.892  0.6154 -0.2987 -0.0596
 3568SOL    HW122163   1.814   1.705   6.814  1.5275 -0.6116  0.5127
 3568SOL    HW222164   1.785   1.839   6.858  1.1949 -1.1710 -2.2461
 3569SOL     OW22165   0.436   3.551   5.858  0.2903 -0.0592  0.1489
 3569SOL    HW122166   0.344   3.564   5.834 -0.2814 -0.0130  2.3123
 3569SOL    HW222167   0.475   3.554   5.771 -1.5731  0.1196 -0.6958
 3570SOL     OW22168   3.740   1.984   3.576  0.3326 -0.0549  0.0749
 3570SOL    HW122169   3.653   1.950   3.595  0.0009  1.3259  1.0546
 3570SOL    HW222170   3.724   2.078   3.568 -1.1870 -0.4462 -1.3755
 3571SOL     OW22171   4.395   3.615   1.879  0.1522  0.0720 -0.0998
 3571SOL    HW122172   4.413   3.706   1.902 -0.2085 -0.0341  0.6059
 3571SOL    HW222173   4.441   3.596   1.797  1.3638  2.2731  0.0868
 3572SOL     OW22174   1.409   1.555   3.510  0.0221  0.5932  0.0511
 3572SOL    HW122175   1.497   1.553   3.547  0.3086  2.7791 -0.5005
 3572SOL    HW222176   1.425   1.526   3.420 -0.4224 -1.3137  0.5776
 3573SOL     OW22177   2.035   3.444   7.709 -0.4135 -0.8611  0.2894
 3573SOL    HW122178   1.950   3.419   7.671 -0.7949  0.9090  0.0010
 3573SOL    HW222179   2.091   3.425   7.634  0.3557  2.2195  0.1196
 3574SOL     OW22180   3.490   0.301  14.714 -0.2290  0.1281  0.1149
 3574SOL    HW122181   3.467   0.208  14.708 -0.9574  0.3218 -0.1390
 3574SOL    HW222182   3.581   0.288  14.740 -0.2849  0.1218  0.3099
 3575SOL     OW22183   4.256   2.606   3.681 -0.7013 -0.0124 -0.2832
 3575SOL    HW122184   4.305   2.594   3.762  0.2157  1.4497 -0.6317
 3575SOL    HW222185   4.169   2.598   3.720 -0.4570 -0.7156  0.1254
 3576SOL     OW22186   0.906   4.600  16.307 -0.0221  0.4061  0.1059
 3576SOL    HW122187   0.833   4.555  16.349 -1.4676  1.1493 -1.6198
 3576SOL    HW222188   0.951   4.629  16.386 -0.2592  0.8628  0.0717
 3577SOL     OW22189   2.566   3.280  13.368 -0.1664 -0.0386  0.1199
 3577SOL    HW122190   2.643   3.308  13.318 -0.4254  1.8727  0.8164
 3577SOL    HW222191   2.545   3.208  13.308  0.9204  1.1202 -1.6495
 3578SOL     OW22192   4.388   1.439   1.961 -0.3234  0.4168  0.2193
 3578SOL    HW122193   4.318   1.385   1.997 -0.0961  0.4053  0.6481
 3578SOL    HW222194   4.460   1.380   1.983 -0.9399 -0.5701 -0.4440
 3579SOL     OW22195   3.727   2.200   6.510 -0.1738 -0.2135  0.2017
 3579SOL    HW122196   3.665   2.200   6.436 -2.5201 -1.7201  2.1651
 3579SOL    HW222197   3.786   2.128   6.489  3.0891  2.3450  0.6088
 3580SOL     OW22198   3.923   2.343   5.047 -0.4921  0.0070  0.5345
 3580SOL    HW122199   3.997   2.282   5.049 -1.0660 -0.6289  2.5825
 3580SOL    HW222200   3.849   2.288   5.024 -1.3290  1.3264  0.0760
 3581SOL     OW22201   4.350   3.631   6.207  0.0315 -0.4953 -0.0490
 3581SOL    HW122202   4.326   3.716   6.243 -0.7551 -1.2324  1.1541
 3581SOL    HW222203   4.370   3.665   6.119  0.5300  1.4199  0.7981
 3582SOL     OW22204   3.392   1.102  11.136 -0.1550 -0.0975 -0.1654
 3582SOL    HW122205   3.361   1.112  11.046  2.2885  1.5653 -0.8373
 3582SOL    HW222206   3.407   1.194  11.156 -1.0915  0.0885 -0.3353
 3583SOL     OW22207   2.254   4.145   8.496 -0.4216 -0.2328  0.5195
 3583SOL    HW122208   2.343   4.145   8.531  0.3377 -1.7351 -1.4402
 3583SOL    HW222209   2.267   4.075   8.432  0.6217  1.5884 -1.2178
 3584SOL     OW22210   2.119   3.638   5.498 -0.2243  0.2638 -0.0871
 3584SOL    HW122211   2.054   3.638   5.568 -1.6732 -2.1710 -1.4246
 3584SOL    HW222212   2.088   3.570   5.438  2.7581 -1.3349  0.1978
 3585SOL     OW22213   3.863   4.382   7.636  0.2984 -0.1175 -0.1002
 3585SOL    HW122214   3.825   4.360   7.550 -1.5658 -3.0054  1.4786
 3585SOL    HW222215   3.824   4.467   7.656  0.1530 -0.1729 -0.1502
 3586SOL     OW22216   1.836   2.635   4.631 -0.0012  0.5857  0.0589
 3586SOL    HW122217   1.895   2.567   4.665 -0.3846 -0.7426 -1.9637
 3586SOL    HW222218   1.903   2.696   4.602  0.2247 -0.5233 -1.7220
 3587SOL     OW22219   1.967   4.596   6.791  0.0973 -0.3262  0.9359
 3587SOL    HW122220   1.928   4.672   6.748  0.9505  0.1672  1.0164
 3587SOL    HW222221   1.916   4.523   6.758  1.5212 -0.4671 -0.9573
 3588SOL     OW22222   2.288   1.790   8.721 -0.0767  0.1737  0.1304
 3588SOL    HW122223   2.304   1.697   8.736  0.6961 -0.0784 -2.1595
 3588SOL    HW222224   2.360   1.830   8.769  0.5220  0.0896 -0.6979
 3589SOL     OW22225   4.048   1.160   7.454  1.0483  0.0309  0.6501
 3589SOL    HW122226   3.975   1.119   7.501 -0.2116  1.4064 -0.0778
 3589SOL    HW222227   4.108   1.174   7.527  0.9583 -1.0657  0.9283
 3590SOL     OW22228   2.665   3.692   0.771  0.5151 -0.3495 -0.5083
 3590SOL    HW122229   2.634   3.650   0.851  1.5262 -0.3256 -0.1075
 3590SOL    HW222230   2.693   3.777   0.806  0.3480 -0.2579 -0.5986
 3591SOL     OW22231   0.857   2.626   1.402 -0.3083 -0.1844  0.1080
 3591SOL    HW122232   0.808   2.664   1.475 -1.9011 -0.6503 -0.7269
 3591SOL    HW222233   0.942   2.668   1.415 -0.8434  0.9388  0.0322
 3592SOL     OW22234   1.637   2.961   6.259 -0.0519  0.3876  0.2217
 3592SOL    HW122235   1.687   3.038   6.286 -0.2050 -0.4768  2.8984
 3592SOL    HW222236   1.568   2.950   6.324  1.0411  1.3877  1.5340
 3593SOL     OW22237   4.367   0.295   0.674  0.1626  0.2013 -0.1986
 3593SOL    HW122238   4.286   0.346   0.673  0.7817  1.2423  1.8435
 3593SOL    HW222239   4.429   0.340   0.616  0.2691 -1.1476 -1.1247
 3594SOL     OW22240   3.847   1.507   4.909 -0.0094 -0.1530  0.0159
 3594SOL    HW122241   3.923   1.553   4.873 -0.8014 -0.4079 -2.0114
 3594SOL    HW222242   3.889   1.446   4.970  2.2830  0.1537 -1.2330
 3595SOL     OW22243   0.978   3.066   9.084 -0.1053 -0.4606 -0.4737
 3595SOL    HW122244   0.959   2.999   9.150  1.5360 -0.7994 -0.3551
 3595SOL    HW222245   1.035   3.031   9.016 -0.1216  0.7569 -1.1057
 3596SOL     OW22246   3.813   1.829   5.450 -0.0227 -0.0644 -0.4027
 3596SOL    HW122247   3.865   1.780   5.514  0.6366  2.2135  0.7990
 3596SOL    HW222248   3.878   1.876   5.398  1.0768  1.5621  2.3969
 3597SOL     OW22249   1.703   4.269   5.977 -0.2552 -0.1177 -0.1155
 3597SOL    HW122250   1.724   4.180   6.005 -0.8769  0.1210  1.1043
 3597SOL    HW222251   1.694   4.304   6.065 -2.2971  0.5856 -0.6048
 3598SOL     OW22252   0.557   3.956  12.419 -0.3297 -0.1477 -0.4620
 3598SOL    HW122253   0.574   3.919  12.332  0.2046 -1.5334  0.2261
 3598SOL    HW222254   0.494   3.895  12.457  0.7679 -1.6245 -1.0112
 3599SOL     OW22255   2.982   0.853   7.497 -0.1060  0.2238  0.1027
 3599SOL    HW122256   3.039   0.867   7.573  0.3488 -1.0935 -0.0003
 3599SOL    HW222257   3.030   0.782   7.456  0.9140  0.2965  1.1499
 3600SOL     OW22258   0.742   1.850   8.664  0.9082  0.1579  0.2507
 3600SOL    HW122259   0.807   1.920   8.672 -0.0467  0.6793  3.4295
 3600SOL    HW222260   0.678   1.886   8.726  1.3279  0.9593  0.2120
 3601SOL     OW22261   2.881   3.979  10.045 -0.3272 -0.2695 -0.2377
 3601SOL    HW122262   2.971   3.983  10.077 -0.9389  0.5274  1.3733
 3601SOL    HW222263   2.873   3.903   9.987  0.4679 -0.3800 -0.1901
 3602SOL     OW22264   1.143   2.130   8.316 -0.1252 -0.2143 -0.3551
 3602SOL    HW122265   1.063   2.080   8.328  0.0469 -0.5311 -0.5198
 3602SOL    HW222266   1.184   2.136   8.402 -0.5200 -1.0083 -0.1172
 3603SOL     OW22267   3.827   0.399  15.507  0.3608 -0.7664 -0.3064
 3603SOL    HW122268   3.796   0.466  15.567 -1.0207 -0.1157 -1.7506
 3603SOL    HW222269   3.890   0.453  15.461  1.3476  1.0219  3.1405
 3604SOL     OW22270   4.482   1.075   3.100  0.0363 -0.4639 -0.4408
 3604SOL    HW122271   4.479   1.140   3.030  1.0316  1.2064  1.0760
 3604SOL    HW222272   4.474   1.134   3.175 -2.0626 -0.9704 -0.2607
 3605SOL     OW22273   4.099   4.065   4.917  0.6717 -0.2508 -0.1564
 3605SOL    HW122274   4.079   4.052   5.009 -0.8515  0.0758 -0.4369
 3605SOL    HW222275   4.053   4.142   4.882  1.7048  0.2416 -0.4423
 3606SOL     OW22276   0.814   4.537   5.408 -0.6245  0.7037 -0.1575
 3606SOL    HW122277   0.787   4.472   5.343 -0.8387 -0.4269  1.0595
 3606SOL    HW222278   0.735   4.578   5.443 -1.5192  0.2605 -1.6636
 3607SOL     OW22279   3.203   4.656   4.901  0.1253  0.0446 -0.1314
 3607SOL    HW122280   3.190   4.692   4.989 -1.9528 -1.4846  0.1930
 3607SOL    HW222281   3.227   0.007   4.848 -0.3338 -0.4511 -1.0452
 3608SOL     OW22282   3.901   0.701   6.413 -1.4493  0.3520  0.0557
 3608SOL    HW122283   3.836   0.643   6.374 -0.0769  0.5755 -2.5892
 3608SOL    HW222284   3.849   0.760   6.467 -0.8983  0.9536 -0.0714
 3609SOL     OW22285   1.433   4.074   4.208 -0.3164  0.0679  0.4953
 3609SOL    HW122286   1.359   4.125   4.242 -0.0877  0.4807  0.3805
 3609SOL    HW222287   1.473   4.046   4.290 -0.4046  0.6815  0.7490
 3610SOL     OW22288   3.974   1.979   5.249 -0.0158  0.4812  0.1327
 3610SOL    HW122289   4.032   1.946   5.180  1.6022  0.6202  1.4051
 3610SOL    HW222290   4.030   2.015   5.318 -2.1057  0.0739  2.0363
 3611SOL     OW22291   4.593   2.630  12.338  0.1005  0.1193  0.1844
 3611SOL    HW122292   4.554   2.550  12.374 -3.8802  1.8452 -0.2035
 3611SOL    HW222293   4.585   2.617  12.244  1.9225 -0.8316  0.1839
 3612SOL     OW22294   2.463   3.668   7.974 -0.4172  0.1529  0.2405
 3612SOL    HW122295   2.453   3.702   7.885  3.1737  0.0030 -0.2534
 3612SOL    HW222296   2.559   3.666   7.978 -0.4030 -0.6249 -0.3933
 3613SOL     OW22297   2.444   2.508   9.890 -0.0822 -0.3771  0.0240
 3613SOL    HW122298   2.355   2.529   9.918  0.4739  0.2284  1.3462
 3613SOL    HW222299   2.477   2.449   9.958 -0.3028 -1.8564 -1.1559
 3614SOL     OW22300   2.370   4.221   5.908  0.2113  0.1519  0.1003
 3614SOL    HW122301   2.362   4.295   5.968 -1.7051 -0.1037  0.1559
 3614SOL    HW222302   2.323   4.257   5.832 -0.5255  1.9334  1.4255
 3615SOL     OW22303   1.305   1.292   4.698  0.0966  0.2728 -0.2952
 3615SOL    HW122304   1.250   1.312   4.774 -1.4370 -0.6364 -1.1663
 3615SOL    HW222305   1.234   1.251   4.649  0.1699  0.1382 -0.2873
 3616SOL     OW22306   1.168   2.333   7.525  0.9786 -1.0386  0.3249
 3616SOL    HW122307   1.165   2.239   7.509 -0.4267 -1.3176  2.2406
 3616SOL    HW222308   1.091   2.336   7.581 -0.7606 -0.8364 -2.0935
 3617SOL     OW22309   2.162   3.993   4.610  0.1821  0.1014 -0.1406
 3617SOL    HW122310   2.209   4.061   4.657  1.2184  1.0488 -2.5304
 3617SOL    HW222311   2.218   3.919   4.634  0.0984  0.0395 -0.1324
 3618SOL     OW22312   4.142   3.279   2.512 -0.0519  0.3496  0.2466
 3618SOL    HW122313   4.134   3.184   2.500 -0.4193  0.4722 -0.4574
 3618SOL    HW222314   4.133   3.298   2.419  2.3235  0.6414  0.0795
 3619SOL     OW22315   3.491   2.830   0.531 -0.2005 -0.2997  0.2309
 3619SOL    HW122316   3.543   2.756   0.500 -1.7808 -1.6167  0.7305
 3619SOL    HW222317   3.422   2.783   0.579 -0.2865 -0.9273 -0.5080
 3620SOL     OW22318   1.988   2.149   4.758  0.2897 -0.3750 -0.1538
 3620SOL    HW122319   2.058   2.126   4.820  1.7794  0.7179 -1.4543
 3620SOL    HW222320   1.919   2.085   4.776  0.3786 -0.3319  0.3523
 3621SOL     OW22321   0.468   4.052   0.824  0.0113  0.0476  0.4539
 3621SOL    HW122322   0.535   4.120   0.822 -1.1585  1.1707 -1.2850
 3621SOL    HW222323   0.475   4.016   0.735 -0.9147 -0.0943  0.4312
 3622SOL     OW22324   0.494   2.842  12.305 -0.3082 -0.2967  0.3123
 3622SOL    HW122325   0.441   2.791  12.367 -0.6341 -2.4030 -1.6914
 3622SOL    HW222326   0.537   2.899  12.369  1.5857 -1.4037  0.0106
 3623SOL     OW22327   0.175   2.043  16.031 -0.1800  0.0203 -0.0162
 3623SOL    HW122328   0.082   2.049  16.052 -0.3446  1.2896 -1.1775
 3623SOL    HW222329   0.210   2.110  16.090 -0.2196  0.0772 -0.0578
 3624SOL     OW22330   1.938   0.213  16.582 -0.9393  0.1631 -0.3620
 3624SOL    HW122331   1.990   0.292  16.594  2.0653 -1.7735 -0.5804
 3624SOL    HW222332   1.926   0.210  16.487  0.9453  0.3739 -0.6132
 3625SOL     OW22333   1.593   4.021   5.240 -0.0042  0.2205  0.2984
 3625SOL    HW122334   1.520   4.082   5.239  0.5390  0.8827  2.6342
 3625SOL    HW222335   1.672   4.073   5.227 -0.8982  1.4005 -0.4103
 3626SOL     OW22336   1.332   2.766   5.428  0.3928  0.6777  0.1068
 3626SOL    HW122337   1.355   2.746   5.519  1.7418 -2.6747 -0.9814
 3626SOL    HW222338   1.261   2.702   5.417  0.9421  0.2165 -0.7814
 3627SOL     OW22339   1.471   1.410  14.046  0.7653  0.3758  0.3583
 3627SOL    HW122340   1.541   1.354  14.013  0.5240  1.4995 -2.0821
 3627SOL    HW222341   1.432   1.347  14.107  0.5986 -1.4428 -1.6341
 3628SOL     OW22342   1.235   2.198   1.371  0.4753  0.3710 -0.0895
 3628SOL    HW122343   1.271   2.270   1.320  0.3831 -0.6670 -1.6340
 3628SOL    HW222344   1.245   2.121   1.315  1.7700  1.5649 -1.5068
 3629SOL     OW22345   2.130   0.111   7.394 -0.3917  0.6230 -0.0825
 3629SOL    HW122346   2.130   0.086   7.486 -0.5878 -1.3559 -0.6127
 3629SOL    HW222347   2.116   0.033   7.340 -1.2017 -1.2277  2.8122
 3630SOL     OW22348   0.540   4.717   4.192 -0.3275  0.1215  0.3298
 3630SOL    HW122349   0.445   4.706   4.191 -0.3846  0.8258 -1.1610
 3630SOL    HW222350   0.544   0.088   4.177  0.5123  0.2593  1.4148
 3631SOL     OW22351   2.036   2.183   7.517  0.2336  0.1811 -0.5312
 3631SOL    HW122352   2.124   2.218   7.532 -0.0121  0.2385  0.7482
 3631SOL    HW222353   1.997   2.245   7.455  0.9158  2.5164  1.3629
 3632SOL     OW22354   1.698   2.462   3.934  0.3684 -0.1660  0.0704
 3632SOL    HW122355   1.675   2.401   4.004 -0.4152  0.6932  0.5760
 3632SOL    HW222356   1.609   2.474   3.901 -0.3680  3.7384  3.4174
 3633SOL     OW22357   1.945   4.446  12.198 -0.3491  0.0747  0.4185
 3633SOL    HW122358   1.928   4.535  12.166 -0.3899 -0.2336 -0.4320
 3633SOL    HW222359   2.035   4.459  12.229 -0.1639  0.6126 -0.3408
 3634SOL     OW22360   0.699   2.639  13.187  0.0395 -0.3449 -0.5595
 3634SOL    HW122361   0.665   2.623  13.275  1.5083 -1.5150 -0.2100
 3634SOL    HW222362   0.652   2.717  13.156 -0.8852 -0.5344  0.3811
 3635SOL     OW22363   1.986   3.644   6.198 -0.7025 -0.3259 -0.6265
 3635SOL    HW122364   1.920   3.646   6.267  0.2276 -1.9982  0.3018
 3635SOL    HW222365   2.015   3.553   6.205  1.3927  0.4228  0.4584
 3636SOL     OW22366   3.519   4.681   0.943  0.4095 -0.0110 -0.3115
 3636SOL    HW122367   3.515   0.050   0.967 -2.8155 -0.3823  0.5707
 3636SOL    HW222368   3.600   4.689   0.893  0.9207 -1.5261  0.2829
 3637SOL     OW22369   4.560   2.500   3.699 -0.3720  0.2105  0.0412
 3637SOL    HW122370   4.525   2.492   3.788 -0.1068  2.4072  0.3482
 3637SOL    HW222371   4.517   2.578   3.664 -2.3240  0.5264  3.1372
 3638SOL     OW22372   1.315   0.865  12.871  0.3696 -0.2284 -0.0046
 3638SOL    HW122373   1.295   0.800  12.939 -2.3792  0.6998  0.0584
 3638SOL    HW222374   1.263   0.939  12.903  0.3226  0.0444 -0.7232
 3639SOL     OW22375   2.640   3.154   4.353  0.1046  0.3120 -0.3269
 3639SOL    HW122376   2.678   3.173   4.267 -1.0475 -0.9969 -1.1207
 3639SOL    HW222377   2.703   3.199   4.409  0.3922 -1.7085  0.9651
 3640SOL     OW22378   0.569   4.661   5.491  0.2281  0.3356  0.2739
 3640SOL    HW122379   0.510   0.007   5.463 -0.7617 -0.4518  0.4117
 3640SOL    HW222380   0.530   4.617   5.566  1.5337 -0.1469  0.6708
 3641SOL     OW22381   1.992   1.565  13.182 -0.1181 -0.0690 -0.4716
 3641SOL    HW122382   1.987   1.641  13.240  0.9036  0.5773 -1.2279
 3641SOL    HW222383   1.915   1.578  13.126  0.3043  0.2601 -0.9811
 3642SOL     OW22384   2.608   2.487   4.407  0.2877  0.0842  0.4473
 3642SOL    HW122385   2.605   2.545   4.331  2.9647  0.6102  0.7282
 3642SOL    HW222386   2.572   2.410   4.366 -1.1027  1.7373 -1.4172
 3643SOL     OW22387   0.485   3.745  12.159  0.0115 -0.2927  0.1930
 3643SOL    HW122388   0.528   3.695  12.090 -2.0070  0.2180 -1.4349
 3643SOL    HW222389   0.529   3.829  12.143 -1.1974  0.3624  0.2766
 3644SOL     OW22390   1.708   3.489   6.753  0.0599  0.4830 -0.0773
 3644SOL    HW122391   1.701   3.479   6.848 -0.8638 -1.4838 -0.3636
 3644SOL    HW222392   1.724   3.583   6.747 -1.3445  0.7190  0.0147
 3645SOL     OW22393   3.073   2.038   2.165 -0.1214 -0.3533  0.6729
 3645SOL    HW122394   2.989   1.997   2.188  0.9831 -3.5978 -1.0964
 3645SOL    HW222395   3.058   2.051   2.072  1.9522 -0.8684  0.2650
 3646SOL     OW22396   2.151   1.466   2.035  0.3741  0.5370 -0.0127
 3646SOL    HW122397   2.120   1.378   2.056  1.1162  0.3221  0.1529
 3646SOL    HW222398   2.246   1.459   2.045  0.5721  2.6410 -0.3345
 3647SOL     OW22399   3.971   3.279  16.842 -0.2959  0.4110 -0.3054
 3647SOL    HW122400   3.943   3.241  16.925 -1.8104 -0.2231 -1.1107
 3647SOL    HW222401   3.915   3.227  16.785 -0.4997  1.3241 -0.9462
 3648SOL     OW22402   1.784   0.660  11.585  0.2647  0.0667 -0.5204
 3648SOL    HW122403   1.863   0.618  11.552 -0.7529 -2.5997  0.4383
 3648SOL    HW222404   1.763   0.595  11.652 -2.0466  2.2459  0.8610
 3649SOL     OW22405   2.467   0.786  14.942 -0.1091  0.2410 -0.0371
 3649SOL    HW122406   2.391   0.799  14.885 -0.5780 -0.2760  0.4730
 3649SOL    HW222407   2.542   0.824  14.896 -0.9519  2.1427  0.1648
 3650SOL     OW22408   3.767   1.032  16.337 -0.6077  0.1825  0.3198
 3650SOL    HW122409   3.765   0.987  16.422  0.4267 -2.6259 -1.1365
 3650SOL    HW222410   3.695   0.982  16.297 -1.6323  1.5748  0.4353
 3651SOL     OW22411   2.249   1.480  16.755  0.0080 -0.1194  0.5362
 3651SOL    HW122412   2.253   1.427  16.676  2.9129  2.0340 -0.7626
 3651SOL    HW222413   2.328   1.449  16.799 -0.1728 -0.3697  0.6773
 3652SOL     OW22414   3.580   4.064   4.866 -0.8581  0.5622 -0.1778
 3652SOL    HW122415   3.510   4.070   4.801 -1.1041 -0.9549 -0.0521
 3652SOL    HW222416   3.531   4.022   4.936  0.4669 -0.9345 -0.1262
 3653SOL     OW22417   0.682   3.938   3.077  0.0775  0.1840  0.6054
 3653SOL    HW122418   0.774   3.929   3.102  1.3154  0.7573 -3.8036
 3653SOL    HW222419   0.679   3.861   3.021  0.0472  0.8553 -0.3057
 3654SOL     OW22420   0.383   1.428   2.236  0.5487  0.0928 -0.1621
 3654SOL    HW122421   0.316   1.361   2.224 -0.9446  1.6155 -0.2772
 3654SOL    HW222422   0.407   1.424   2.328 -0.7713 -4.7024 -0.0654
 3655SOL     OW22423   1.391   0.149  10.869  0.0924 -0.1405 -0.1647
 3655SOL    HW122424   1.378   0.213  10.940 -2.4811  0.7089 -1.3909
 3655SOL    HW222425   1.464   0.094  10.896 -0.9325 -0.0860  2.7439
 3656SOL     OW22426   3.554   1.747   9.030  1.0570 -0.1419 -0.0355
 3656SOL    HW122427   3.459   1.755   9.027  1.1262  0.1796 -1.1241
 3656SOL    HW222428   3.571   1.774   9.120 -0.8110  0.3564  0.1576
 3657SOL     OW22429   2.265   0.659   2.648 -0.5199 -0.5700  0.2105
 3657SOL    HW122430   2.278   0.743   2.693  0.8202 -0.5695 -0.1842
 3657SOL    HW222431   2.272   0.672   2.554 -0.4291 -0.9530  0.1619
 3658SOL     OW22432   2.130   0.132  13.337  1.0124 -0.4826 -0.5188
 3658SOL    HW122433   2.145   0.077  13.414  0.6818 -0.6505 -0.5776
 3658SOL    HW222434   2.151   0.220  13.370  0.3267  0.0569 -1.5257
 3659SOL     OW22435   0.994   1.021  15.778 -0.0148  0.0255 -0.3158
 3659SOL    HW122436   1.042   0.965  15.717 -0.2164  0.7475 -1.1482
 3659SOL    HW222437   0.905   1.018  15.743  0.1709 -0.4097 -0.7493
 3660SOL     OW22438   4.714   0.285  14.301 -0.4517 -0.3850  0.1916
 3660SOL    HW122439   0.068   0.324  14.260 -1.0752  0.0034 -0.6374
 3660SOL    HW222440   0.009   0.192  14.312 -0.3630 -0.3239  0.5331
 3661SOL     OW22441   4.357   3.209   3.508 -0.2529 -0.1491  0.4292
 3661SOL    HW122442   4.426   3.143   3.517 -1.1263 -1.3643 -1.9004
 3661SOL    HW222443   4.302   3.182   3.581 -0.0928 -0.0930  0.5710
 3662SOL     OW22444   4.172   0.163   6.286  0.1292  0.0426 -0.1078
 3662SOL    HW122445   4.116   0.201   6.354 -1.4451 -0.1208 -1.3373
 3662SOL    HW222446   4.236   0.124   6.346 -0.8811  0.1710  1.0438
 3663SOL     OW22447   1.043   2.209   5.092 -0.0807 -0.3153 -0.4999
 3663SOL    HW122448   1.118   2.229   5.036  0.4705 -2.1064 -0.4161
 3663SOL    HW222449   0.986   2.286   5.091 -0.6218 -0.7258 -1.2401
 3664SOL     OW22450   1.950   0.830   5.539 -0.9472  0.1489  0.0223
 3664SOL    HW122451   1.963   0.736   5.528 -0.7139  0.0785  0.9015
 3664SOL    HW222452   1.892   0.847   5.464 -0.4054  0.4601 -0.3269
 3665SOL     OW22453   0.190   0.624   5.967 -0.6049 -0.1684 -0.3599
 3665SOL    HW122454   0.176   0.688   5.897 -0.6453  0.0707 -0.1334
 3665SOL    HW222455   0.120   0.560   5.950 -1.5964  0.5508  0.9823
 3666SOL     OW22456   1.787   2.979   5.336 -0.3778 -0.6507  0.3555
 3666SOL    HW122457   1.706   2.976   5.388 -0.3670  0.2459  0.4192
 3666SOL    HW222458   1.836   2.911   5.382 -0.4831 -1.2003 -0.3494
 3667SOL     OW22459   0.219   3.970   0.443 -0.2847 -0.0069 -0.2384
 3667SOL    HW122460   0.235   4.044   0.500  3.2842 -1.0257  0.0517
 3667SOL    HW222461   0.279   3.985   0.370 -0.6501  0.2242 -0.4921
 3668SOL     OW22462   0.979   1.451   2.561  0.0350 -0.4751 -0.2095
 3668SOL    HW122463   0.951   1.361   2.542 -1.8465 -0.2089  1.3122
 3668SOL    HW222464   0.943   1.451   2.650  1.1047 -2.9295  0.2377
 3669SOL     OW22465   4.670   1.258   7.557  0.2871 -0.3714 -0.0385
 3669SOL    HW122466   4.679   1.201   7.481 -0.2241  0.6402 -0.8637
 3669SOL    HW222467   0.035   1.271   7.591  0.2099  0.3817 -0.1218
 3670SOL     OW22468   1.003   1.835   0.936  0.5502 -0.1178  0.6451
 3670SOL    HW122469   0.959   1.751   0.921 -0.0281  0.2602  0.2611
 3670SOL    HW222470   0.949   1.894   0.883  0.6624  0.0556  0.7262
 3671SOL     OW22471   1.302   3.065  17.607  0.0688 -0.6579 -0.0448
 3671SOL    HW122472   1.245   2.997  17.569 -0.0788  0.8718 -2.5801
 3671SOL    HW222473   1.231   3.126  17.626 -1.5506 -2.3712 -0.4792
 3672SOL     OW22474   0.639   1.458   2.121  0.0471  0.3122 -0.2118
 3672SOL    HW122475   0.556   1.469   2.169  1.0964  0.1115  1.6733
 3672SOL    HW222476   0.633   1.365   2.101  0.7023 -0.0434  1.2033
 3673SOL     OW22477   4.445   3.361  17.555 -0.4020  0.4739  0.3058
 3673SOL    HW122478   4.444   3.265  17.553 -3.6145  0.5808 -4.4218
 3673SOL    HW222479   4.510   3.379  17.622  0.6101 -0.2762 -0.4735
 3674SOL     OW22480   2.093   2.969  15.697  0.1754 -0.2346  0.7666
 3674SOL    HW122481   2.121   2.935  15.613  1.0157 -0.6423  1.2157
 3674SOL    HW222482   2.174   2.958  15.746  1.0966  0.7523 -0.5598
 3675SOL     OW22483   2.679   0.333   7.202 -0.2195 -0.1125 -0.1276
 3675SOL    HW122484   2.629   0.382   7.268  1.4246  1.1224  0.2099
 3675SOL    HW222485   2.658   0.370   7.117 -0.3007 -0.0103 -0.0637
 3676SOL     OW22486   1.039   3.590  10.638  0.0047 -0.4854  0.1979
 3676SOL    HW122487   1.016   3.514  10.691 -1.3136  0.1105  0.4680
 3676SOL    HW222488   1.013   3.665  10.692 -1.2026 -0.6632 -0.1513
 3677SOL     OW22489   4.033   3.293   6.079  0.7703  0.6672 -0.2837
 3677SOL    HW122490   3.965   3.350   6.116  0.6359  1.1741 -1.3303
 3677SOL    HW222491   4.038   3.227   6.149 -0.3259  1.8068  0.8861
 3678SOL     OW22492   0.825   3.900   6.758 -0.5747 -0.2990 -0.8552
 3678SOL    HW122493   0.746   3.860   6.796  0.5552 -0.1170  1.6955
 3678SOL    HW222494   0.815   3.994   6.771  2.2255  0.1195 -1.8015
 3679SOL     OW22495   2.999   1.864   6.251  0.1162  0.4196 -0.2600
 3679SOL    HW122496   3.023   1.803   6.321 -1.8237  1.5406  1.4050
 3679SOL    HW222497   2.924   1.811   6.224  0.0243  1.9150 -2.9911
 3680SOL     OW22498   4.224   4.421   8.832  0.3350  0.0356  0.5557
 3680SOL    HW122499   4.245   4.434   8.740  1.2570 -0.5785  0.6843
 3680SOL    HW222500   4.289   4.355   8.854 -1.9608 -2.4032  0.0064
 3681SOL     OW22501   2.484   0.883  10.037  0.1011 -0.3989  0.0576
 3681SOL    HW122502   2.409   0.943  10.042  0.1618 -0.2769 -0.4634
 3681SOL    HW222503   2.432   0.802  10.037  0.8776 -0.8909  0.3746
 3682SOL     OW22504   1.972   3.600   9.023 -0.3567 -0.7757 -0.9424
 3682SOL    HW122505   1.976   3.659   9.099  0.2395 -0.4142 -1.2492
 3682SOL    HW222506   1.936   3.522   9.064 -1.6479  0.6261  0.5714
 3683SOL     OW22507   2.056   0.670   3.572 -0.1835 -0.7594 -0.3784
 3683SOL    HW122508   2.057   0.602   3.506  0.5137 -1.6342  0.5343
 3683SOL    HW222509   2.020   0.749   3.531  0.5047  0.4281  1.2902
 3684SOL     OW22510   2.146   4.148   4.360  0.0993 -0.0346 -0.6944
 3684SOL    HW122511   2.151   4.098   4.441 -0.6239 -0.0385 -0.6495
 3684SOL    HW222512   2.231   4.192   4.362  1.4183 -2.7009  3.3432
 3685SOL     OW22513   0.632   2.477   6.186  0.6735 -0.1152  0.4168
 3685SOL    HW122514   0.691   2.548   6.210  2.7916 -1.8358  0.3711
 3685SOL    HW222515   0.559   2.507   6.239  1.8977 -0.1686  2.1280
 3686SOL     OW22516   0.531   4.523   3.889  0.0374 -0.2612  0.2984
 3686SOL    HW122517   0.499   4.432   3.896 -0.5739  0.1026  2.2723
 3686SOL    HW222518   0.446   4.567   3.884  0.9145  1.4213  0.4814
 3687SOL     OW22519   2.174   2.967   8.354  0.2456  0.1832 -0.4552
 3687SOL    HW122520   2.127   2.936   8.276 -2.9045  1.7412  0.8203
 3687SOL    HW222521   2.122   3.047   8.365 -0.5123 -0.5053  0.9964
 3688SOL     OW22522   2.045   2.611  12.067  0.2395  0.2348 -0.6193
 3688SOL    HW122523   2.044   2.597  11.972 -2.7954  3.8958 -1.0807
 3688SOL    HW222524   2.018   2.523  12.096  0.9589  0.5718  1.1008
 3689SOL     OW22525   2.679   2.205   8.662 -0.4708  0.4627 -0.3732
 3689SOL    HW122526   2.716   2.117   8.655 -2.5538 -0.5051  0.8027
 3689SOL    HW222527   2.586   2.183   8.662 -0.7197  1.5528 -1.8542
 3690SOL     OW22528   4.117   3.280   1.972 -0.0671 -0.1628  0.4407
 3690SOL    HW122529   4.114   3.185   1.987 -2.6934 -0.4797 -2.1326
 3690SOL    HW222530   4.046   3.298   1.911  0.6084  1.2207  0.0535
 3691SOL     OW22531   4.271   4.332   3.010  0.2626  0.1108  0.2436
 3691SOL    HW122532   4.344   4.385   2.977 -1.0086  1.7326  0.0461
 3691SOL    HW222533   4.260   4.377   3.094  1.8858 -1.5378  1.3414
 3692SOL     OW22534   2.250   0.325   3.708 -0.0423 -0.7916 -0.1616
 3692SOL    HW122535   2.259   0.265   3.782  1.4451 -0.8666 -0.3950
 3692SOL    HW222536   2.259   0.264   3.634 -1.9130  1.3078 -2.1213
 3693SOL     OW22537   3.114   3.437   5.823  0.0181 -0.2247 -1.1713
 3693SOL    HW122538   3.119   3.520   5.870  2.2979 -1.0486  0.0783
 3693SOL    HW222539   3.176   3.376   5.863 -0.3781 -0.4498 -0.9018
 3694SOL     OW22540   4.538   2.051   2.585  0.0276  0.1749  0.6197
 3694SOL    HW122541   4.457   2.026   2.630  0.9443  2.4970  3.5761
 3694SOL    HW222542   4.571   1.961   2.584  2.2869  1.0106  1.6330
 3695SOL     OW22543   3.990   3.556  13.661  0.6597 -0.1177 -0.1559
 3695SOL    HW122544   3.929   3.511  13.602  2.0496 -2.5077  0.1975
 3695SOL    HW222545   3.967   3.508  13.741  0.3578  0.3145  0.0160
 3696SOL     OW22546   3.983   4.167  17.437  0.3730 -0.1082  0.2202
 3696SOL    HW122547   4.038   4.224  17.383 -0.0323 -0.5640 -0.6832
 3696SOL    HW222548   3.956   4.103  17.371  2.1754 -0.3245 -0.2962
 3697SOL     OW22549   2.320   1.506   1.677  0.0423 -0.2107  0.1448
 3697SOL    HW122550   2.326   1.588   1.725 -0.1409 -0.3711  0.4401
 3697SOL    HW222551   2.232   1.485   1.710 -0.6010  0.4491 -1.1185
 3698SOL     OW22552   4.254   3.494  13.734  0.4718 -0.1399  0.2758
 3698SOL    HW122553   4.180   3.520  13.680 -0.7752 -2.9433  0.5867
 3698SOL    HW222554   4.284   3.583  13.751  1.2227 -0.3241 -0.1023
 3699SOL     OW22555   4.383   1.727   7.179 -0.5291  0.8120 -0.1050
 3699SOL    HW122556   4.353   1.701   7.266  0.9853  0.2517  0.2529
 3699SOL    HW222557   4.314   1.700   7.119  1.1563 -0.3939 -1.4908
 3700SOL     OW22558   2.511   4.680   4.306  0.4082 -0.2620 -0.2715
 3700SOL    HW122559   2.528   4.714   4.394  0.0802  0.6660 -0.5689
 3700SOL    HW222560   2.525   0.038   4.259  0.8937  0.4293  1.0697
 3701SOL     OW22561   3.898   4.572   5.833 -0.0807 -0.4565 -0.0606
 3701SOL    HW122562   3.936   4.498   5.881  0.8291 -0.3578 -0.6274
 3701SOL    HW222563   3.804   4.560   5.847 -0.1508  0.6930  0.4478
 3702SOL     OW22564   2.590   1.540   4.100  0.2651  0.5192 -0.0431
 3702SOL    HW122565   2.641   1.522   4.021 -3.3968 -0.1452 -2.2450
 3702SOL    HW222566   2.527   1.605   4.068  0.6213  0.7526 -0.2742
 3703SOL     OW22567   1.477   1.583   2.293  0.9707  0.5705 -0.3389
 3703SOL    HW122568   1.509   1.496   2.316  0.9006  0.8966  0.9603
 3703SOL    HW222569   1.387   1.566   2.262  0.4842  0.1186  1.3343
 3704SOL     OW22570   2.055   1.677   8.242 -0.0629  0.3148  0.4565
 3704SOL    HW122571   2.130   1.670   8.183 -0.7170 -0.8475 -0.2577
 3704SOL    HW222572   1.984   1.688   8.178  0.3554  1.8136  0.2540
 3705SOL     OW22573   2.101   0.983   6.356  0.2374  0.3045 -0.0818
 3705SOL    HW122574   2.030   0.973   6.292  0.2928  0.4480 -0.1669
 3705SOL    HW222575   2.136   1.072   6.347  1.8469 -0.4214 -0.9765
 3706SOL     OW22576   0.349   0.960   3.001 -0.7574  0.5577 -0.0843
 3706SOL    HW122577   0.320   0.873   3.027 -0.4416  0.3491 -0.4463
 3706SOL    HW222578   0.413   0.937   2.934 -1.7434  0.7837 -1.0967
 3707SOL     OW22579   1.622   3.668   8.925 -0.1293  0.0899  0.3907
 3707SOL    HW122580   1.535   3.656   8.963  0.4453 -0.2246  1.5918
 3707SOL    HW222581   1.665   3.713   8.997  0.7959  1.3487 -0.9272
 3708SOL     OW22582   4.686   1.488   4.448  0.2484 -0.0376  0.0524
 3708SOL    HW122583   4.697   1.406   4.498  1.4108 -0.5449 -1.0305
 3708SOL    HW222584   0.054   1.512   4.437 -0.2190  1.3974 -0.5814
 3709SOL     OW22585   1.153   3.435   3.732  0.2257  0.1456  0.3461
 3709SOL    HW122586   1.182   3.345   3.744 -0.3788 -0.0155  0.6146
 3709SOL    HW222587   1.060   3.423   3.753  0.4893 -1.3976  0.6375
 3710SOL     OW22588   0.674   0.966   4.137  0.7203 -1.0448 -0.5649
 3710SOL    HW122589   0.594   1.014   4.120 -1.2087 -3.4444  1.7835
 3710SOL    HW222590   0.667   0.883   4.090  2.9420 -3.1390  2.7765
 3711SOL     OW22591   2.213   3.908  11.268  0.4918  0.0059 -0.3971
 3711SOL    HW122592   2.221   3.973  11.198 -0.4309  0.6461  0.0906
 3711SOL    HW222593   2.281   3.844  11.246 -1.8474 -2.7460  0.3755
 3712SOL     OW22594   2.120   2.127   7.791  0.1974  0.6877  0.3411
 3712SOL    HW122595   2.080   2.200   7.839 -0.1110 -0.5495  1.9552
 3712SOL    HW222596   2.212   2.146   7.772  0.3518 -0.1056  0.2929
 3713SOL     OW22597   1.764   4.268   2.573  0.3083  0.4938 -0.2638
 3713SOL    HW122598   1.848   4.222   2.580 -0.1976 -0.7396 -2.3580
 3713SOL    HW222599   1.807   4.353   2.573 -1.3999  1.3654  2.2004
 3714SOL     OW22600   1.174   2.532   2.612  0.4096  0.1233  0.2641
 3714SOL    HW122601   1.096   2.560   2.564  1.3409  2.6468  0.2637
 3714SOL    HW222602   1.239   2.597   2.585  0.6126  0.1897  0.9323
 3715SOL     OW22603   1.919   1.897   9.565  0.0108 -0.1907 -0.3074
 3715SOL    HW122604   1.994   1.838   9.574  0.0136 -0.2464 -0.6941
 3715SOL    HW222605   1.929   1.928   9.475  1.8320  3.6517  1.1788
 3716SOL     OW22606   1.397   3.546  11.088 -0.2650 -0.0247  0.2307
 3716SOL    HW122607   1.362   3.506  11.009 -1.9088  1.0168  0.4270
 3716SOL    HW222608   1.458   3.483  11.126  1.1653  1.5118  0.4637
 3717SOL     OW22609   0.531   2.732   7.738 -0.1717  0.3033 -0.2853
 3717SOL    HW122610   0.461   2.713   7.676 -2.7016 -1.6100  3.1540
 3717SOL    HW222611   0.520   2.660   7.800  2.0737 -1.1467 -1.5602
 3718SOL     OW22612   2.545   0.777  10.970  0.1318  0.6458  0.0451
 3718SOL    HW122613   2.598   0.709  10.929  0.8406  2.2901 -1.7814
 3718SOL    HW222614   2.556   0.751  11.061  0.7375  0.8064  0.0136
 3719SOL     OW22615   0.874   3.991   1.064  0.0444 -0.0025  0.3446
 3719SOL    HW122616   0.789   4.014   1.027 -0.1585 -0.0709  0.7713
 3719SOL    HW222617   0.883   4.057   1.132  0.3497 -2.5724  2.7791
 3720SOL     OW22618   1.831   1.402   4.398  0.0186 -0.6884 -0.2628
 3720SOL    HW122619   1.843   1.447   4.482  1.3340 -2.8700  0.7019
 3720SOL    HW222620   1.738   1.423   4.386  0.4423  1.0414 -0.6199
 3721SOL     OW22621   3.703   4.303   0.782  0.0010  0.4402  0.2800
 3721SOL    HW122622   3.608   4.319   0.778  0.2384  2.0516  0.8047
 3721SOL    HW222623   3.715   4.309   0.877  1.4184 -1.8510  0.2330
 3722SOL     OW22624   2.828   4.333   2.665 -0.0474 -0.2377  0.8225
 3722SOL    HW122625   2.924   4.332   2.658 -0.1231 -0.0823 -0.1561
 3722SOL    HW222626   2.814   4.246   2.702 -0.1778 -1.0851 -1.2154
 3723SOL     OW22627   3.317   0.995   3.463 -1.0777 -0.3845  0.7493
 3723SOL    HW122628   3.311   0.966   3.554 -0.3616  0.8142  1.1914
 3723SOL    HW222629   3.247   0.945   3.422  0.3052 -0.6951 -1.2472
 3724SOL     OW22630   1.317   0.226   5.275  0.1112  0.3090  0.1230
 3724SOL    HW122631   1.392   0.184   5.233 -0.2767 -0.8583  0.5935
 3724SOL    HW222632   1.357   0.242   5.361 -0.0045  0.7792  0.0854
 3725SOL     OW22633   4.625   2.443   4.895  0.0255 -0.2193  0.2141
 3725SOL    HW122634   4.560   2.497   4.941 -0.7855 -0.2636 -0.8840
 3725SOL    HW222635   4.573   2.367   4.870  0.2998 -0.4585  0.3673
 3726SOL     OW22636   2.562   3.083  17.384 -0.0804 -0.2143 -0.0189
 3726SOL    HW122637   2.501   3.136  17.435 -0.4622 -2.9969  2.4242
 3726SOL    HW222638   2.610   3.152  17.338 -2.3492  1.6001  0.3401
 3727SOL     OW22639   3.514   3.944  12.877  0.0220  0.0914 -0.1601
 3727SOL    HW122640   3.429   3.951  12.921 -0.9822 -0.2069 -2.0666
 3727SOL    HW222641   3.564   3.876  12.922  2.1590  2.0075  0.3171
 3728SOL     OW22642   4.278   2.346   0.256  0.3599  0.1322  0.1801
 3728SOL    HW122643   4.297   2.343   0.350  0.4243  2.5118  0.2285
 3728SOL    HW222644   4.365   2.350   0.217 -0.0315  0.2018 -0.6777
 3729SOL     OW22645   2.929   1.106  11.709  0.0651 -0.0566 -0.2742
 3729SOL    HW122646   3.004   1.052  11.734 -1.5016 -2.2677 -0.3712
 3729SOL    HW222647   2.896   1.116  11.798  2.5083  0.0121  0.6217
 3730SOL     OW22648   4.061   4.329   1.712  0.5908 -0.4530  0.1389
 3730SOL    HW122649   4.117   4.284   1.775  0.2253  0.1745  0.9093
 3730SOL    HW222650   3.977   4.290   1.736  1.2074 -1.8956 -0.0514
 3731SOL     OW22651   3.932   4.376   6.390 -0.1669  0.4962 -0.2791
 3731SOL    HW122652   4.027   4.378   6.379 -0.0478 -2.0622  0.3493
 3731SOL    HW222653   3.926   4.281   6.376 -1.5551  0.2098  2.4175
 3732SOL     OW22654   4.556   0.853   3.806  0.4964  0.4412  0.1040
 3732SOL    HW122655   4.488   0.829   3.744  1.6807  1.1516 -1.4737
 3732SOL    HW222656   4.547   0.948   3.819  1.0657  0.5552 -0.3378
 3733SOL     OW22657   3.375   4.673   1.579 -0.4157 -0.2231  0.3219
 3733SOL    HW122658   3.330   0.033   1.566  3.3867  1.7813  0.2996
 3733SOL    HW222659   3.467   4.696   1.588 -0.8815  1.4047  1.0163
 3734SOL     OW22660   0.555   2.693  12.728  0.4022  0.1940  0.2061
 3734SOL    HW122661   0.626   2.725  12.785  1.3947 -1.7441  0.0414
 3734SOL    HW222662   0.586   2.605  12.708 -2.1297 -0.8583  1.0520
 3735SOL     OW22663   2.145   0.995   8.802  0.4808  0.1748  0.0420
 3735SOL    HW122664   2.116   0.904   8.812 -2.8377  1.1613 -0.6090
 3735SOL    HW222665   2.088   1.023   8.730 -0.2103  1.4536  1.0927
 3736SOL     OW22666   4.239   4.271  14.983 -0.0943  0.1620 -0.1377
 3736SOL    HW122667   4.217   4.236  15.070 -0.6813 -0.9804 -0.7408
 3736SOL    HW222668   4.307   4.206  14.969 -0.4577  0.3668 -2.8248
 3737SOL     OW22669   2.347   2.218   7.705  0.3825  0.0395 -0.4618
 3737SOL    HW122670   2.407   2.267   7.762 -1.5819  0.3815  1.3082
 3737SOL    HW222671   2.319   2.285   7.642  0.3622  0.6620  0.2060
 3738SOL     OW22672   4.260   4.154   1.919 -0.7915  0.8518  0.4846
 3738SOL    HW122673   4.238   4.144   2.011  0.0656 -0.0278  0.5855
 3738SOL    HW222674   4.320   4.227   1.934 -0.6116  0.8500 -0.2207
 3739SOL     OW22675   1.840   1.425   9.440  0.6454 -0.4112  0.0387
 3739SOL    HW122676   1.822   1.519   9.444 -1.1925 -0.7999  1.0592
 3739SOL    HW222677   1.833   1.406   9.347 -0.1300 -1.7149  0.3573
 3740SOL     OW22678   2.611   4.394   4.634 -0.2166  0.1612 -0.1419
 3740SOL    HW122679   2.686   4.388   4.575  0.3888  1.1740  0.5241
 3740SOL    HW222680   2.580   4.482   4.614 -1.0230 -0.0430  0.1921
 3741SOL     OW22681   2.902   0.984   4.904  0.0906  0.1594  0.2678
 3741SOL    HW122682   2.899   0.914   4.839 -1.3494  0.2345  0.2610
 3741SOL    HW222683   2.866   1.051   4.846  0.5815  0.8698  0.7754
 3742SOL     OW22684   2.807   0.451   0.682  0.6332  0.3134 -0.0213
 3742SOL    HW122685   2.763   0.368   0.702  2.3055  0.0096  2.3418
 3742SOL    HW222686   2.776   0.499   0.759  0.2754  1.7345 -1.0477
 3743SOL     OW22687   1.944   1.126   6.898 -0.1425  0.1162  0.4619
 3743SOL    HW122688   1.889   1.173   6.835  3.2562  2.8041 -0.5457
 3743SOL    HW222689   2.019   1.186   6.896 -0.4854  0.5999  2.6157
 3744SOL     OW22690   3.747   1.685   6.511  0.0091  0.0411 -0.5671
 3744SOL    HW122691   3.735   1.610   6.454  0.8040 -0.5244  0.0201
 3744SOL    HW222692   3.655   1.712   6.518 -0.2806 -0.9929 -0.3757
 3745SOL     OW22693   4.376   2.149   5.720 -0.3238  0.3271 -0.4581
 3745SOL    HW122694   4.345   2.110   5.639 -3.0820 -0.9371  1.2163
 3745SOL    HW222695   4.454   2.095   5.735 -0.4169 -0.3222 -2.4046
 3746SOL     OW22696   2.302   3.999   2.368 -0.3265 -0.4517 -1.0648
 3746SOL    HW122697   2.328   3.917   2.411 -3.1217 -0.1419  1.2310
 3746SOL    HW222698   2.214   3.979   2.333 -0.5756 -1.0283 -0.1132
 3747SOL     OW22699   1.556   0.496  12.708 -0.3323  0.0954  0.8556
 3747SOL    HW122700   1.608   0.420  12.681  0.0836  1.3304 -1.7818
 3747SOL    HW222701   1.519   0.472  12.793 -3.5067  0.2329 -0.5082
 3748SOL     OW22702   4.395   0.510  11.557  0.0667  0.0888  0.0327
 3748SOL    HW122703   4.404   0.605  11.563  2.0708  0.0900 -2.7624
 3748SOL    HW222704   4.338   0.485  11.629  0.7769  1.0851  0.9379
 3749SOL     OW22705   0.281   2.902   2.962 -0.1299  0.3130 -0.3279
 3749SOL    HW122706   0.336   2.895   2.883  1.1862  2.3279  0.4073
 3749SOL    HW222707   0.348   2.930   3.024 -2.1993  3.2426  0.5165
 3750SOL     OW22708   2.493   3.208   3.583 -0.3046 -0.0433 -0.3291
 3750SOL    HW122709   2.482   3.297   3.551 -1.2269  0.6139  1.7948
 3750SOL    HW222710   2.585   3.190   3.566  0.0596  0.4108  1.1605
 3751SOL     OW22711   2.211   4.216   5.422  0.4214  0.5666  0.3433
 3751SOL    HW122712   2.179   4.139   5.469  3.4404  0.7583  2.6581
 3751SOL    HW222713   2.287   4.232   5.478  1.3379 -1.3149 -0.3485
 3752SOL     OW22714   2.096   2.230   8.656  0.1676  0.3628 -0.3797
 3752SOL    HW122715   2.128   2.196   8.739  0.1949  1.7378  0.1779
 3752SOL    HW222716   2.058   2.158   8.606 -3.0452 -0.4006  3.1403
 3753SOL     OW22717   1.766   1.680   0.629  0.7439  0.0135 -0.1947
 3753SOL    HW122718   1.721   1.710   0.550 -1.0347  0.9582  1.1774
 3753SOL    HW222719   1.714   1.698   0.708  0.9206  0.9921 -0.3025
 3754SOL     OW22720   1.506   2.962   0.033 -0.0105 -0.1417  0.3506
 3754SOL    HW122721   1.426   3.007   0.008  1.2010  1.2767 -0.9419
 3754SOL    HW222722   1.544   2.944  17.644  0.3004 -0.6150  0.5837
 3755SOL     OW22723   2.222   2.531   2.469  0.1756  0.2586  0.0765
 3755SOL    HW122724   2.283   2.472   2.513  0.4224  0.6449  0.2509
 3755SOL    HW222725   2.169   2.549   2.546  0.7616  0.0870  0.5196
 3756SOL     OW22726   4.525   3.566   5.432  0.7673  0.0620 -0.2437
 3756SOL    HW122727   4.467   3.501   5.472  0.5296  0.0225 -0.6499
 3756SOL    HW222728   4.558   3.503   5.368  2.1580  1.1907 -0.6230
 3757SOL     OW22729   4.614   4.464  14.177 -0.2940 -0.6991  0.1713
 3757SOL    HW122730   4.537   4.448  14.231 -0.6579 -1.3849 -0.5347
 3757SOL    HW222731   4.682   4.452  14.243  0.2937 -0.6736 -0.4215
 3758SOL     OW22732   2.496   2.953  13.583 -0.5136 -0.5646  0.4686
 3758SOL    HW122733   2.553   3.025  13.554 -0.8587 -0.2209  0.6342
 3758SOL    HW222734   2.528   2.957  13.673  1.5271  0.0483 -0.2962
 3759SOL     OW22735   0.070   3.425  10.328 -0.2256 -0.3825 -0.2601
 3759SOL    HW122736   0.033   3.473  10.402  0.9583 -0.6679  0.5019
 3759SOL    HW222737   0.010   3.351  10.326 -1.1873  0.4562 -3.1100
 3760SOL     OW22738   1.921   3.994   7.246 -0.6275 -0.0969  0.0928
 3760SOL    HW122739   1.856   4.064   7.245  1.5765  1.9312  1.1443
 3760SOL    HW222740   1.965   4.019   7.327  0.9988  0.7465 -1.0583
 3761SOL     OW22741   4.546   1.570   5.700  0.0944  0.4650  0.3744
 3761SOL    HW122742   4.494   1.499   5.663  0.8066 -0.8027  1.8150
 3761SOL    HW222743   4.521   1.635   5.634 -0.6854  1.2948  1.4755
 3762SOL     OW22744   3.932   0.329   6.467 -0.4430  0.0230 -0.1878
 3762SOL    HW122745   3.887   0.334   6.551  1.9732 -0.0360  1.0975
 3762SOL    HW222746   3.859   0.323   6.404 -0.1332  2.0669 -0.7196
 3763SOL     OW22747   2.661   0.471   2.039  0.3729 -0.2182  0.6339
 3763SOL    HW122748   2.688   0.563   2.048  3.2733 -1.0694  0.5824
 3763SOL    HW222749   2.570   0.483   2.011  0.7525  3.7565  1.0281
 3764SOL     OW22750   1.802   0.146   8.414 -0.0818  0.3233  0.3553
 3764SOL    HW122751   1.758   0.189   8.340 -3.9359 -2.7327  0.9111
 3764SOL    HW222752   1.730   0.103   8.459 -1.5443  1.7796 -0.5618
 3765SOL     OW22753   1.546   3.014   5.493  0.0257  0.1941  0.5372
 3765SOL    HW122754   1.470   3.057   5.454  0.6415  0.2528 -0.6188
 3765SOL    HW222755   1.526   2.984   5.581 -1.4141 -0.7830 -0.1206
 3766SOL     OW22756   3.432   0.006  14.493 -0.3180  0.3717 -0.0751
 3766SOL    HW122757   3.373   4.655  14.490 -1.1940  1.0812 -0.4420
 3766SOL    HW222758   3.447   0.023  14.587 -2.0762  0.5750  0.1604
 3767SOL     OW22759   3.322   4.535  14.811 -0.6547  0.2933 -0.1784
 3767SOL    HW122760   3.369   4.474  14.867 -0.7068 -1.4027 -1.9622
 3767SOL    HW222761   3.329   4.498  14.723  3.3051 -0.5630  0.4789
 3768SOL     OW22762   3.199   0.803  11.026  0.2717  0.3487  0.1911
 3768SOL    HW122763   3.183   0.820  11.119  0.2377  1.9139 -0.1013
 3768SOL    HW222764   3.133   0.865  10.994 -0.8054 -0.6830  0.4252
 3769SOL     OW22765   4.545   1.613   3.854 -0.6171  0.4626 -0.1012
 3769SOL    HW122766   4.551   1.628   3.949  0.3074 -3.4704  0.4524
 3769SOL    HW222767   4.566   1.520   3.853 -1.1434  0.3866 -2.5711
 3770SOL     OW22768   3.267   3.071   7.934  0.4784 -0.4118 -0.5400
 3770SOL    HW122769   3.224   3.059   7.850 -1.5498  0.3984  0.3916
 3770SOL    HW222770   3.358   3.066   7.905 -0.3940 -1.5008 -3.0702
 3771SOL     OW22771   2.638   2.830   8.278  0.0986 -0.0005  0.2050
 3771SOL    HW122772   2.584   2.768   8.326  1.7141  0.1761  2.2294
 3771SOL    HW222773   2.590   2.913   8.274  0.4604  0.3033  2.4189
 3772SOL     OW22774   1.501   4.535   4.407 -0.1250 -0.4994  0.0591
 3772SOL    HW122775   1.569   4.538   4.339 -0.5105  3.5329 -0.0882
 3772SOL    HW222776   1.533   4.463   4.461  0.4082  0.1777  0.6425
 3773SOL     OW22777   3.998   0.752  15.318 -0.4045 -0.2288 -0.6416
 3773SOL    HW122778   4.041   0.809  15.383  0.8609 -1.5286 -0.3388
 3773SOL    HW222779   4.041   0.788  15.241  2.0405 -0.8349  0.4255
 3774SOL     OW22780   2.863   2.893   8.777  0.7190  0.2654  0.2742
 3774SOL    HW122781   2.813   2.812   8.781 -2.4358  2.2558  0.9231
 3774SOL    HW222782   2.798   2.958   8.805  0.6994  0.6676 -0.7204
 3775SOL     OW22783   2.160   0.578  13.600 -0.1447 -0.0017  0.3753
 3775SOL    HW122784   2.143   0.545  13.688  0.7048  1.2904  1.0369
 3775SOL    HW222785   2.247   0.617  13.611  0.7634 -1.7563 -0.5960
 3776SOL     OW22786   3.658   0.326   8.372  0.4333 -0.2278  0.3698
 3776SOL    HW122787   3.588   0.373   8.418  0.7823  0.6953 -0.0467
 3776SOL    HW222788   3.695   0.271   8.442 -2.2167 -1.3984  0.8433
 3777SOL     OW22789   0.685   2.291  10.412 -0.0260 -0.3890  0.4478
 3777SOL    HW122790   0.744   2.289  10.487  0.4246 -2.0571  0.0534
 3777SOL    HW222791   0.712   2.366  10.359 -1.1476 -0.9415 -0.9081
 3778SOL     OW22792   3.553   2.655   1.107 -0.3762 -0.2761 -0.0287
 3778SOL    HW122793   3.564   2.620   1.018 -2.8071  0.7224 -0.7366
 3778SOL    HW222794   3.582   2.576   1.152  1.5316 -0.2065 -1.1507
 3779SOL     OW22795   1.398   0.301  12.488  0.1328 -0.3359  0.2723
 3779SOL    HW122796   1.342   0.316  12.564  3.1043  0.6382  2.3177
 3779SOL    HW222797   1.478   0.269  12.531  0.6255  1.2062  0.5214
 3780SOL     OW22798   3.854   1.388  17.176  0.5370  0.1498  0.1928
 3780SOL    HW122799   3.818   1.357  17.093  0.3616  0.4907  0.1402
 3780SOL    HW222800   3.812   1.474  17.181 -0.5113 -0.5408  3.2202
 3781SOL     OW22801   1.214   2.348   0.629  0.0205 -0.3831  0.1125
 3781SOL    HW122802   1.131   2.308   0.652 -1.5565  2.9216  0.2057
 3781SOL    HW222803   1.218   2.329   0.535 -2.7134 -2.7646  0.5057
 3782SOL     OW22804   3.578   1.834   4.129  0.6420  0.0174  0.4037
 3782SOL    HW122805   3.512   1.779   4.170  1.3493 -1.0299  0.1466
 3782SOL    HW222806   3.558   1.920   4.164  2.0483 -0.0589  1.4186
 3783SOL     OW22807   2.439   4.390   7.159  0.4302  0.2530  0.2258
 3783SOL    HW122808   2.438   4.484   7.176  0.7669  0.9192 -3.4395
 3783SOL    HW222809   2.533   4.372   7.152  0.0370 -2.0357  0.7968
 3784SOL     OW22810   1.399   1.357   1.328 -0.4786 -0.1437 -0.0955
 3784SOL    HW122811   1.326   1.418   1.333 -0.2022  0.2815 -1.2845
 3784SOL    HW222812   1.456   1.427   1.297 -2.9668  0.8838 -2.3639
 3785SOL     OW22813   0.972   1.193   0.689 -0.4926  0.0062 -0.1928
 3785SOL    HW122814   0.935   1.215   0.775 -2.1028 -0.2649 -0.8223
 3785SOL    HW222815   0.885   1.172   0.656 -0.0575 -1.9656 -0.0345
 3786SOL     OW22816   4.652   2.022   4.787  0.5157  0.5183 -0.2687
 3786SOL    HW122817   4.594   1.990   4.717 -0.1378 -0.2584  0.6371
 3786SOL    HW222818   4.682   1.943   4.831  1.3782  1.5546  0.9926
 3787SOL     OW22819   3.309   1.031  10.606  0.1004 -0.1343 -0.0761
 3787SOL    HW122820   3.292   0.950  10.655  3.2277 -1.0285 -0.4552
 3787SOL    HW222821   3.299   0.991  10.520  0.1333 -0.5984  0.1345
 3788SOL     OW22822   1.614   1.115   5.428  0.5908  0.7314  0.2814
 3788SOL    HW122823   1.621   1.162   5.511  0.1467 -0.4323  0.9811
 3788SOL    HW222824   1.562   1.175   5.374  0.5951  2.1304  1.8609
 3789SOL     OW22825   3.725   1.499   6.293 -0.2555  0.5359  0.3404
 3789SOL    HW122826   3.651   1.543   6.251 -0.2751  0.5193  0.3577
 3789SOL    HW222827   3.771   1.469   6.215 -1.8168 -0.2540 -0.2701
 3790SOL     OW22828   1.753   1.142  15.396  0.2780 -0.1997 -0.1673
 3790SOL    HW122829   1.819   1.175  15.335 -0.6004  0.0978 -0.9576
 3790SOL    HW222830   1.678   1.199  15.377  0.7315  0.8638  1.2482
 3791SOL     OW22831   3.022   1.456  14.576 -0.3124  0.8935 -0.2523
 3791SOL    HW122832   2.949   1.487  14.523 -0.9936  1.0211  0.7662
 3791SOL    HW222833   2.982   1.385  14.626 -1.2073 -0.2731 -2.6070
 3792SOL     OW22834   4.125   3.387   2.234  0.5132 -0.2730 -0.2564
 3792SOL    HW122835   4.124   3.354   2.144 -1.8035 -0.3829 -0.2027
 3792SOL    HW222836   4.033   3.413   2.239 -0.4531 -3.6055 -0.4282
 3793SOL     OW22837   3.456   4.425  16.463  0.4050  0.2301 -0.2813
 3793SOL    HW122838   3.493   4.490  16.404  2.0230 -0.0297  0.4172
 3793SOL    HW222839   3.495   4.351  16.418 -1.5857 -0.8288 -0.2343
 3794SOL     OW22840   4.163   2.933   4.209 -0.4103 -0.7390  0.0509
 3794SOL    HW122841   4.075   2.943   4.175 -0.1667  2.9051  0.4713
 3794SOL    HW222842   4.148   2.938   4.304  0.7730  1.5809  0.1314
 3795SOL     OW22843   1.584   2.489  15.871 -0.2014 -0.1993  0.2756
 3795SOL    HW122844   1.567   2.560  15.933  0.4830  2.2979 -2.3941
 3795SOL    HW222845   1.675   2.471  15.898  0.0489  1.8694  0.8223
 3796SOL     OW22846   3.188   1.859   7.509 -0.2113 -0.3035  0.0649
 3796SOL    HW122847   3.094   1.877   7.514  0.1982  1.7123  0.7118
 3796SOL    HW222848   3.224   1.940   7.546 -0.6162 -0.2066  0.2507
 3797SOL     OW22849   2.931   2.785   7.598 -0.9483 -0.6001 -0.9171
 3797SOL    HW122850   2.890   2.721   7.657  0.9527 -0.7182  0.2711
 3797SOL    HW222851   2.905   2.868   7.638 -1.3743 -0.6130 -1.1702
 3798SOL     OW22852   1.684   2.237  13.142  0.3704 -0.1322  0.5913
 3798SOL    HW122853   1.735   2.157  13.154  0.9935  0.6507  2.9619
 3798SOL    HW222854   1.598   2.205  13.112 -0.8640  2.0249  1.7847
 3799SOL     OW22855   2.606   1.345   8.246 -0.1599  0.6184  0.1326
 3799SOL    HW122856   2.545   1.323   8.175  0.1228 -0.4654  0.2145
 3799SOL    HW222857   2.689   1.350   8.198  0.8130 -0.4236  1.7078
 3800SOL     OW22858   1.036   4.602  11.866  0.1214 -0.6864 -0.1791
 3800SOL    HW122859   1.033   4.646  11.951  0.2887  0.2220 -0.6527
 3800SOL    HW222860   1.053   4.679  11.813  2.2827 -0.6198  0.6069
 3801SOL     OW22861   3.887   2.069   6.755  0.1348  0.2759 -0.8152
 3801SOL    HW122862   3.844   2.146   6.791  0.5043  0.6715 -1.2225
 3801SOL    HW222863   3.840   2.005   6.808 -0.5690  0.6542 -0.9900
 3802SOL     OW22864   4.438   0.091   4.415 -0.4835 -0.1511  0.2246
 3802SOL    HW122865   4.388   0.103   4.496  0.3041 -0.5637  0.7700
 3802SOL    HW222866   4.472   0.176   4.387 -2.4750 -0.1635 -2.1872
 3803SOL     OW22867   0.550   4.050   0.556  0.1200  0.6201  0.3309
 3803SOL    HW122868   0.611   4.111   0.514  0.3465 -0.5298 -0.9927
 3803SOL    HW222869   0.559   3.971   0.504 -3.1280 -0.6659  1.6793
 3804SOL     OW22870   2.227   3.043   2.696 -0.0687  0.6933  0.2432
 3804SOL    HW122871   2.241   3.107   2.626 -0.6189 -1.3851 -1.7772
 3804SOL    HW222872   2.233   2.955   2.660 -2.9275  0.3684  0.5454
 3805SOL     OW22873   4.282   2.168   2.857  0.3617 -0.0483 -0.2678
 3805SOL    HW122874   4.275   2.099   2.792  1.7942  0.5508 -1.0687
 3805SOL    HW222875   4.225   2.131   2.923  0.4763 -0.7532 -0.5691
 3806SOL     OW22876   0.886   4.181  15.290  0.8989  0.5366 -0.0801
 3806SOL    HW122877   0.944   4.241  15.337  1.4708 -1.1024  1.3031
 3806SOL    HW222878   0.880   4.124  15.367 -3.3093  0.9468 -0.0937
 3807SOL     OW22879   1.848   0.623   4.168  0.3017 -0.1260 -0.2682
 3807SOL    HW122880   1.901   0.703   4.168 -0.8480  0.6336  0.8128
 3807SOL    HW222881   1.769   0.663   4.203  0.3999  0.3073 -0.5439
 3808SOL     OW22882   0.362   0.787   8.300 -0.3173  0.1491 -0.3243
 3808SOL    HW122883   0.399   0.827   8.379  2.6152  0.7562 -2.0030
 3808SOL    HW222884   0.440   0.732   8.290  1.3030  2.0276  2.0750
 3809SOL     OW22885   1.421   3.641   1.653  0.3981 -0.5811 -0.4365
 3809SOL    HW122886   1.352   3.589   1.695  1.0352 -1.2912 -0.2716
 3809SOL    HW222887   1.387   3.660   1.566  0.4749  3.0883  0.3185
 3810SOL     OW22888   4.382   1.508   4.507  0.3050  0.0549 -0.0779
 3810SOL    HW122889   4.393   1.416   4.485  1.4915  0.5688 -1.7054
 3810SOL    HW222890   4.430   1.520   4.589 -1.3187  0.9012  0.7432
 3811SOL     OW22891   0.361   1.088   6.595  0.0781 -0.3341 -0.5530
 3811SOL    HW122892   0.327   1.144   6.664  1.0660 -1.3368  0.7464
 3811SOL    HW222893   0.310   1.010   6.617 -3.2310  1.4589 -1.8620
 3812SOL     OW22894   3.016   0.396   4.858 -0.0531  0.4393 -0.0826
 3812SOL    HW122895   3.089   0.389   4.919 -2.3841 -2.4829  2.3842
 3812SOL    HW222896   3.061   0.395   4.773 -0.7420 -0.3621 -0.4388
 3813SOL     OW22897   2.442   4.018   7.332 -0.0532  0.6750  0.2657
 3813SOL    HW122898   2.457   3.930   7.365  2.5033  0.8467 -0.4152
 3813SOL    HW222899   2.521   4.057   7.369 -1.1055  0.9625  2.2171
 3814SOL     OW22900   0.173   3.982   9.407 -0.6939  0.2891 -0.2069
 3814SOL    HW122901   0.229   3.943   9.341 -2.0991 -0.7772 -0.7771
 3814SOL    HW222902   0.228   3.978   9.485  0.2101  0.1790 -0.8517
 3815SOL     OW22903   1.623   2.139   6.507  0.2952 -0.3895  0.6974
 3815SOL    HW122904   1.708   2.179   6.489 -0.2668  0.4046 -0.2159
 3815SOL    HW222905   1.582   2.197   6.571 -0.2065 -0.5443  0.5176
 3816SOL     OW22906   1.599   0.811   5.170 -0.3041  0.8217 -0.1974
 3816SOL    HW122907   1.540   0.760   5.225 -1.2713  0.8759 -1.1878
 3816SOL    HW222908   1.561   0.792   5.084 -0.6941  2.6941 -0.4286
 3817SOL     OW22909   2.368   3.202  13.763 -0.0813 -0.0064  0.2713
 3817SOL    HW122910   2.331   3.254  13.692  1.1964 -0.2586 -0.5637
 3817SOL    HW222911   2.455   3.192  13.726 -0.4786  1.0000 -0.9250
 3818SOL     OW22912   0.107   1.308   2.209  0.0307  0.4328  0.5726
 3818SOL    HW122913   0.121   1.240   2.144  0.7891  3.1166 -2.1121
 3818SOL    HW222914   0.084   1.260   2.289  0.2697 -0.0076  0.3727
 3819SOL     OW22915   2.728   4.094   8.890 -0.8289  0.0037 -0.2523
 3819SOL    HW122916   2.709   4.157   8.821  1.9372 -0.1272 -1.1531
 3819SOL    HW222917   2.700   4.145   8.966  1.6792 -1.0135  1.3515
 3820SOL     OW22918   2.878   3.039   7.682 -0.0033  0.2702 -0.0561
 3820SOL    HW122919   2.847   3.099   7.614  1.8076 -0.4376 -1.5232
 3820SOL    HW222920   2.806   3.027   7.744 -1.2671  1.0495 -1.3836
 3821SOL     OW22921   1.094   1.742   7.267  0.1029 -0.0539  0.1770
 3821SOL    HW122922   1.082   1.652   7.297  0.8556 -0.3382 -0.3455
 3821SOL    HW222923   1.033   1.799   7.313  0.8950  1.1063 -0.2118
 3822SOL     OW22924   0.953   4.414  13.812  0.5832 -0.2419  0.0686
 3822SOL    HW122925   0.986   4.398  13.723  0.0527 -1.2755  0.0589
 3822SOL    HW222926   1.035   4.429  13.859 -0.1978 -0.4944  1.4966
 3823SOL     OW22927   3.061   0.113   8.299  0.8644  0.7742 -0.0541
 3823SOL    HW122928   2.973   0.089   8.328 -0.2737  1.0766 -3.2251
 3823SOL    HW222929   3.064   0.208   8.286 -2.0245  1.0954  1.5878
 3824SOL     OW22930   0.208   2.423   6.516 -0.2343 -0.4456 -0.5009
 3824SOL    HW122931   0.289   2.437   6.566 -0.0909 -1.4974 -0.4375
 3824SOL    HW222932   0.150   2.476   6.571 -0.7956  0.1057 -1.6371
 3825SOL     OW22933   2.438   1.936   4.200  0.2749 -0.1840  0.0669
 3825SOL    HW122934   2.478   1.963   4.283  1.8442  0.9627 -1.0544
 3825SOL    HW222935   2.367   1.894   4.248 -0.4627  2.7971  1.5159
 3826SOL     OW22936   3.536   3.003   2.307  0.0769  0.2991 -0.5066
 3826SOL    HW122937   3.522   3.044   2.222 -2.0125  0.1361 -0.2318
 3826SOL    HW222938   3.618   3.049   2.325  0.3369 -1.2767  2.3288
 3827SOL     OW22939   2.029   0.177   5.189  0.2202 -0.0329 -0.1905
 3827SOL    HW122940   2.035   0.096   5.240  0.4100  1.4950  2.1920
 3827SOL    HW222941   2.074   0.169   5.104  0.1449  1.7081 -0.3794
 3828SOL     OW22942   1.689   4.270   6.557  0.7393 -0.2987 -0.1731
 3828SOL    HW122943   1.651   4.281   6.469  0.1104 -0.7018  0.0440
 3828SOL    HW222944   1.614   4.227   6.600  1.2286  0.8459  1.8084
 3829SOL     OW22945   1.037   0.563   0.516 -0.0124  0.8847  0.5773
 3829SOL    HW122946   0.956   0.607   0.544 -0.5931 -0.1320  0.4841
 3829SOL    HW222947   0.994   0.479   0.529  2.3366 -0.3324  0.5353
 3830SOL     OW22948   2.328   3.460   2.427  0.0108  0.1373 -0.1762
 3830SOL    HW122949   2.357   3.543   2.388 -0.1142 -0.3228 -1.2216
 3830SOL    HW222950   2.268   3.427   2.360  0.1771  1.3798 -0.9325
 3831SOL     OW22951   3.798   3.541  17.388  0.5662  0.3535  0.4467
 3831SOL    HW122952   3.740   3.610  17.354  0.7436  1.2020  1.8653
 3831SOL    HW222953   3.856   3.596  17.441  1.1287  1.2953 -1.1307
 3832SOL     OW22954   4.651   1.503   7.657  0.0022 -0.6550  0.1678
 3832SOL    HW122955   4.648   1.412   7.627  1.4794 -0.3586 -0.8813
 3832SOL    HW222956   4.680   1.543   7.576  0.5517 -1.1132  0.1340
 3833SOL     OW22957   2.586   1.348   7.608 -0.6797  0.3469 -0.6918
 3833SOL    HW122958   2.567   1.294   7.532  1.7120 -0.0445 -1.0252
 3833SOL    HW222959   2.674   1.367   7.576 -0.2027 -1.8106 -0.6678
 3834SOL     OW22960   2.319   1.175  13.913 -0.2514  0.2287 -0.7753
 3834SOL    HW122961   2.361   1.229  13.847 -1.8563  2.3038 -0.0816
 3834SOL    HW222962   2.393   1.123  13.944  1.3682  2.5640 -0.7436
 3835SOL     OW22963   1.015   3.985  16.201 -0.4657 -0.1964  0.0641
 3835SOL    HW122964   0.934   3.945  16.233 -1.1121 -0.4518 -1.9390
 3835SOL    HW222965   1.048   3.918  16.141 -2.1864 -1.0085  0.0250
 3836SOL     OW22966   2.307   2.303  15.205  1.0680 -0.1144  0.7061
 3836SOL    HW122967   2.302   2.207  15.203  2.3178 -0.1798  0.6354
 3836SOL    HW222968   2.367   2.324  15.276 -1.0639 -0.8253  2.7107
 3837SOL     OW22969   3.326   3.977   7.452  0.2494 -0.2733 -0.5023
 3837SOL    HW122970   3.295   3.905   7.397  1.1937 -1.5104  0.5782
 3837SOL    HW222971   3.417   3.987   7.427  0.5430  2.8042  1.6994
 3838SOL     OW22972   0.023   4.103   9.121 -0.3449  0.1376 -0.4631
 3838SOL    HW122973   0.031   4.146   9.035  0.1774 -1.9480 -1.4605
 3838SOL    HW222974   0.108   4.061   9.133 -1.1775 -1.2721  0.5007
 3839SOL     OW22975   3.436   4.481   6.992  0.3053 -0.5656 -0.5005
 3839SOL    HW122976   3.486   4.491   7.073 -1.9736 -1.2678  1.0002
 3839SOL    HW222977   3.372   4.552   7.001  2.5833  1.3286  0.7516
 3840SOL     OW22978   1.330   3.989   5.490  0.6137 -0.3070  0.2930
 3840SOL    HW122979   1.268   4.039   5.543  0.9542 -2.3147  2.6366
 3840SOL    HW222980   1.287   3.998   5.405 -0.9179 -4.1332  0.6516
 3841SOL     OW22981   1.204   3.445   9.093  0.3720  0.4319 -0.2014
 3841SOL    HW122982   1.238   3.379   9.153 -0.1577  0.3816  0.0469
 3841SOL    HW222983   1.214   3.391   9.015 -1.2772  0.1151 -0.2070
 3842SOL     OW22984   1.504   3.550   4.632 -1.0762 -0.2823 -0.0943
 3842SOL    HW122985   1.588   3.589   4.607 -0.5588 -1.7166 -0.6444
 3842SOL    HW222986   1.473   3.615   4.694 -3.0094  0.5226 -1.9255
 3843SOL     OW22987   3.392   1.361  13.210  0.3967 -0.4479 -0.0637
 3843SOL    HW122988   3.423   1.316  13.132  1.8501  0.6928 -0.1322
 3843SOL    HW222989   3.453   1.432  13.230 -2.7901  2.0226  1.0441
 3844SOL     OW22990   0.846   4.562   2.362 -0.1886 -0.4651 -0.0991
 3844SOL    HW122991   0.805   4.531   2.281  0.0368 -1.3015  0.1025
 3844SOL    HW222992   0.769   4.575   2.418  0.3333  0.7840  0.3220
 3845SOL     OW22993   1.853   1.980  10.678  0.6118  0.0558  0.0502
 3845SOL    HW122994   1.825   1.895  10.644  0.7110 -0.8974  2.3742
 3845SOL    HW222995   1.794   2.052  10.655  0.2209 -0.6590 -1.1861
 3846SOL     OW22996   3.276   4.687   2.377  0.4457 -0.8463 -0.2498
 3846SOL    HW122997   3.288   4.689   2.472  2.1894 -2.1571 -0.4396
 3846SOL    HW222998   3.202   0.021   2.361  0.4842 -0.9254 -0.6986
 3847SOL     OW22999   1.881   0.989   4.613 -0.0528 -0.4207  0.4572
 3847SOL    HW123000   1.966   0.956   4.642  0.7701  1.1574 -0.1127
 3847SOL    HW223001   1.906   1.019   4.525 -1.0995 -0.5954  0.1034
 3848SOL     OW23002   1.281   1.577  16.341  0.1808  0.1486  0.4230
 3848SOL    HW123003   1.347   1.508  16.339 -0.8076 -0.8206  0.9178
 3848SOL    HW223004   1.230   1.550  16.418  0.7033  0.1296  0.7684
 3849SOL     OW23005   4.388   0.586   2.929 -0.4966  0.1706  0.0834
 3849SOL    HW123006   4.398   0.670   2.972 -0.0414  0.6003 -0.8745
 3849SOL    HW223007   4.331   0.609   2.856 -0.1806 -1.3164 -0.6220
 3850SOL     OW23008   2.447   0.445   1.819 -0.3497  0.5246 -0.2753
 3850SOL    HW123009   2.507   0.519   1.821  0.3436  0.0152 -2.4438
 3850SOL    HW223010   2.358   0.479   1.807 -1.6187 -2.4705  0.6097
 3851SOL     OW23011   1.656   3.496   5.701  0.4408 -0.9114  0.1713
 3851SOL    HW123012   1.721   3.461   5.762  0.3565 -0.4462  0.5332
 3851SOL    HW223013   1.647   3.419   5.646  2.5213  0.0084 -1.4510
 3852SOL     OW23014   0.049   0.683  10.788  0.0145 -0.4159 -0.0884
 3852SOL    HW123015   0.000   0.765  10.783  2.5028  0.9854 -1.4008
 3852SOL    HW223016   0.029   0.656  10.877  0.8499 -1.5384 -0.2354
 3853SOL     OW23017   1.366   3.335  16.217 -0.4528 -0.5395  0.0234
 3853SOL    HW123018   1.415   3.267  16.262  0.1214 -0.5869 -0.6772
 3853SOL    HW223019   1.424   3.411  16.208  1.5625 -2.1536 -0.4458
 3854SOL     OW23020   1.668   2.358  14.792  0.1050 -0.4180 -0.0364
 3854SOL    HW123021   1.680   2.263  14.791  1.2680 -0.2636 -0.6586
 3854SOL    HW223022   1.748   2.390  14.833 -0.6098 -1.7971  2.4460
 3855SOL     OW23023   2.469   0.627   2.334  0.1099  0.3530 -0.0628
 3855SOL    HW123024   2.471   0.636   2.239  3.0038  1.3566  0.0843
 3855SOL    HW223025   2.393   0.681   2.353  0.3268  0.9402 -0.8765
 3856SOL     OW23026   1.365   0.289   8.058  0.1124  0.7025  0.4273
 3856SOL    HW123027   1.339   0.339   7.981  0.5821 -0.2893 -0.3705
 3856SOL    HW223028   1.460   0.292   8.046  0.3263  0.0544  1.8798
 3857SOL     OW23029   3.363   0.492   7.107 -0.4888  0.2309  0.4619
 3857SOL    HW123030   3.351   0.416   7.163  0.3773  0.3612  0.8189
 3857SOL    HW223031   3.275   0.505   7.071 -0.6801 -1.2394  0.4200
 3858SOL     OW23032   0.975   0.950   2.046  0.2553 -0.4610 -0.6295
 3858SOL    HW123033   1.026   1.004   1.985  1.9343 -0.7710  0.4928
 3858SOL    HW223034   0.993   0.996   2.128 -2.7739 -0.5048  0.0754
 3859SOL     OW23035   2.898   4.182   2.344 -0.0758 -0.3303 -0.1344
 3859SOL    HW123036   2.911   4.180   2.250 -0.3750 -0.1501 -0.1806
 3859SOL    HW223037   2.889   4.088   2.360 -0.4081 -0.5886 -1.8858
 3860SOL     OW23038   4.664   0.169   3.024 -0.5297  0.1636 -0.2928
 3860SOL    HW123039   4.702   0.177   3.111 -0.9709  0.8242 -0.1627
 3860SOL    HW223040   4.599   0.103   3.046  0.1762 -0.6749 -0.7520
 3861SOL     OW23041   0.752   0.156   2.957  0.1589  0.3692  0.7362
 3861SOL    HW123042   0.834   0.132   2.913 -0.9413  1.3359 -1.8363
 3861SOL    HW223043   0.783   0.161   3.047  0.6080  1.0710  0.5410
 3862SOL     OW23044   3.040   3.523   4.147 -0.3312 -0.0143 -0.2889
 3862SOL    HW123045   3.047   3.549   4.055 -1.3347  0.6007 -0.1880
 3862SOL    HW223046   3.001   3.604   4.180  0.0423  1.4769 -3.4707
 3863SOL     OW23047   1.307   4.702   4.953  0.6878 -0.2582  0.0518
 3863SOL    HW123048   1.307   0.074   4.949  1.9182 -0.3069 -1.1802
 3863SOL    HW223049   1.217   4.680   4.931 -0.1710  1.9455  1.3532
 3864SOL     OW23050   3.374   3.450  16.009  0.2452  0.9257 -0.5774
 3864SOL    HW123051   3.338   3.361  16.007 -0.6060  1.2788 -0.9623
 3864SOL    HW223052   3.469   3.441  16.010  0.1785  0.0214 -1.5857
 3865SOL     OW23053   1.298   3.431   5.875 -0.1066 -0.2564  0.4368
 3865SOL    HW123054   1.322   3.475   5.957 -2.7123  0.7480  0.6380
 3865SOL    HW223055   1.367   3.367   5.853 -1.0783 -2.0834  2.7366
 3866SOL     OW23056   2.878   4.350  15.030  0.5509 -0.3019 -0.1979
 3866SOL    HW123057   2.927   4.290  15.086  1.9098  1.5694  0.5912
 3866SOL    HW223058   2.804   4.362  15.089  2.2714 -1.6949  2.2291
 3867SOL     OW23059   3.390   3.749  12.024  0.6133  0.0251  0.3801
 3867SOL    HW123060   3.337   3.732  12.102  0.0710  0.2903  0.0724
 3867SOL    HW223061   3.447   3.673  12.015  2.3167  1.4650 -0.7728
 3868SOL     OW23062   0.317   3.784   0.643 -0.0337 -0.0184  0.5205
 3868SOL    HW123063   0.318   3.723   0.569 -0.2588  0.4622  0.1271
 3868SOL    HW223064   0.300   3.862   0.591 -0.4767  0.7175  1.7647
 3869SOL     OW23065   3.764   0.914   6.549 -0.1242 -0.1933  0.2477
 3869SOL    HW123066   3.695   0.949   6.605  1.2939  1.6497  0.8253
 3869SOL    HW223067   3.837   0.931   6.608 -0.4776  0.3406  0.5316
 3870SOL     OW23068   3.968   2.837  12.559 -0.0284  0.8080  0.2138
 3870SOL    HW123069   3.956   2.875  12.646  0.4229 -3.1824  1.9880
 3870SOL    HW223070   4.024   2.761  12.574 -2.8143 -1.3440 -0.3724
 3871SOL     OW23071   4.720   3.238   5.503 -0.1546  0.1939  0.2241
 3871SOL    HW123072   0.019   3.243   5.410  0.9743  2.0195  0.5966
 3871SOL    HW223073   0.048   3.160   5.522 -2.2445 -1.3147 -0.2183
 3872SOL     OW23074   1.645   2.579   9.304  0.0645 -0.2689  0.5227
 3872SOL    HW123075   1.553   2.603   9.318 -0.2485 -1.0011 -0.2223
 3872SOL    HW223076   1.635   2.557   9.211  0.1553 -0.1802  0.4924
 3873SOL     OW23077   4.078   3.050   8.471  0.0104  0.4212  0.1864
 3873SOL    HW123078   4.108   3.138   8.494  0.3508 -0.0813  1.6331
 3873SOL    HW223079   4.124   2.997   8.536  1.5400 -0.8852 -1.9382
 3874SOL     OW23080   2.011   0.786  13.821 -0.2945  0.1659  0.6168
 3874SOL    HW123081   2.084   0.838  13.787 -2.1954  2.5037  0.1000
 3874SOL    HW223082   2.006   0.723  13.749  0.1006  1.6386 -0.7119
 3875SOL     OW23083   4.010   2.206   9.159  0.1705 -0.1583  0.0381
 3875SOL    HW123084   4.096   2.235   9.189  0.2432 -0.8220  0.4686
 3875SOL    HW223085   4.024   2.111   9.158 -1.6614 -0.4342 -0.4208
 3876SOL     OW23086   3.742   1.158  12.228 -0.4262  0.1185 -0.0797
 3876SOL    HW123087   3.653   1.151  12.194 -0.5384  0.7273  0.0867
 3876SOL    HW223088   3.742   1.089  12.294  3.1683  0.2610  0.0970
 3877SOL     OW23089   3.081   0.144   3.040  0.4273 -0.2606 -0.0851
 3877SOL    HW123090   3.073   0.136   2.945  3.5928  2.9133 -0.5834
 3877SOL    HW223091   3.060   0.054   3.067  0.5343 -0.2736 -0.0450
 3878SOL     OW23092   0.547   3.234   5.924  0.9466 -0.4584 -0.1259
 3878SOL    HW123093   0.490   3.292   5.873  0.2861 -0.5834  0.4654
 3878SOL    HW223094   0.570   3.303   5.986  0.2104 -1.4201  1.2015
 3879SOL     OW23095   1.694   2.206   4.829  0.4608 -0.4397 -0.4399
 3879SOL    HW123096   1.685   2.167   4.916 -2.4689  1.0651 -0.0972
 3879SOL    HW223097   1.769   2.265   4.838  0.4087 -0.5760  0.8758
 3880SOL     OW23098   0.211   1.694   5.768  0.2413 -0.1226 -0.1035
 3880SOL    HW123099   0.277   1.760   5.748 -1.0012  1.4822  1.0960
 3880SOL    HW223100   0.245   1.657   5.849 -0.9737 -0.9461  0.0278
 3881SOL     OW23101   3.496   0.023  14.764 -0.4352  0.1077 -0.2747
 3881SOL    HW123102   3.570   4.721  14.820 -1.0782 -2.9063 -0.8446
 3881SOL    HW223103   3.436   4.678  14.791 -3.7813  3.1232 -0.0002
 3882SOL     OW23104   0.052   3.651  16.040 -0.0277  0.3338  0.3049
 3882SOL    HW123105   0.004   3.572  16.017  2.1966 -1.4603  1.8846
 3882SOL    HW223106   0.143   3.626  16.027  0.4872  3.1489 -1.5866
 3883SOL     OW23107   2.707   2.548   3.710 -0.4040 -0.3753  0.6082
 3883SOL    HW123108   2.687   2.635   3.744  1.2438  0.4773 -0.6356
 3883SOL    HW223109   2.632   2.525   3.654  1.6845 -2.0662 -1.4715
 3884SOL     OW23110   1.369   1.774   6.960  0.3460 -0.1921  0.4707
 3884SOL    HW123111   1.382   1.763   7.054 -0.5094 -0.5362  0.5447
 3884SOL    HW223112   1.436   1.714   6.926  1.3931  0.3190  1.6737
 3885SOL     OW23113   2.797   0.341   8.273 -0.0724  0.7414  0.3464
 3885SOL    HW123114   2.892   0.346   8.281  0.2608  0.4368 -3.3766
 3885SOL    HW223115   2.793   0.410   8.206  0.1351  0.1146 -0.3162
 3886SOL     OW23116   4.641   1.408   7.019 -0.3934 -0.0474  0.8463
 3886SOL    HW123117   4.641   1.434   6.927 -2.9395 -1.4830  0.4391
 3886SOL    HW223118   4.704   1.338   7.033 -1.3818 -1.1484 -0.3461
 3887SOL     OW23119   1.907   3.908   4.514 -0.2595 -0.2308 -0.1743
 3887SOL    HW123120   1.992   3.948   4.533 -0.2409 -0.1448 -0.4386
 3887SOL    HW223121   1.866   3.985   4.475 -0.3053 -2.0016 -3.6189
 3888SOL     OW23122   4.260   2.271   1.385 -0.0682  0.0654 -0.4160
 3888SOL    HW123123   4.263   2.184   1.424 -1.2155  0.2779  0.1689
 3888SOL    HW223124   4.352   2.297   1.383 -0.6521  1.8678 -3.7473
 3889SOL     OW23125   3.988   3.899   1.489 -0.3880  0.4723  0.6029
 3889SOL    HW123126   4.068   3.921   1.441  0.2387 -1.0650  0.9324
 3889SOL    HW223127   4.024   3.923   1.574  0.5666 -1.9298  0.8707
 3890SOL     OW23128   0.123   4.681   5.986 -0.0981 -0.0149 -0.2251
 3890SOL    HW123129   0.034   4.715   5.984  0.2709  1.0255  0.7529
 3890SOL    HW223130   0.125   4.627   6.065 -0.4977  0.5338  0.1571
 3891SOL     OW23131   4.480   3.602   1.621 -0.5600  0.2966 -0.0975
 3891SOL    HW123132   4.394   3.570   1.593 -0.8596  0.9485  0.0675
 3891SOL    HW223133   4.519   3.523   1.659  1.4935  1.0978 -0.5869
 3892SOL     OW23134   3.852   1.769   8.728  0.5470  0.3264  0.3119
 3892SOL    HW123135   3.933   1.751   8.680  0.8751 -0.6168  1.2247
 3892SOL    HW223136   3.792   1.767   8.653  0.3852  1.3851  0.4110
 3893SOL     OW23137   3.531   1.570  12.082 -0.1614  0.5857  0.4593
 3893SOL    HW123138   3.598   1.540  12.020 -0.4665 -1.0288  0.9158
 3893SOL    HW223139   3.517   1.488  12.130 -1.3301  1.0361  0.8842
 3894SOL     OW23140   0.494   2.680  15.654 -0.2046  0.1376 -1.0196
 3894SOL    HW123141   0.564   2.618  15.675  0.2140  1.2986  0.9195
 3894SOL    HW223142   0.523   2.710  15.567  2.1875  0.1200 -0.2037
 3895SOL     OW23143   0.306   3.014   7.123 -0.3074 -0.0179 -0.2606
 3895SOL    HW123144   0.344   2.956   7.189 -0.0692 -1.8467 -1.9915
 3895SOL    HW223145   0.220   3.022   7.164 -1.2442 -2.1692 -1.8563
 3896SOL     OW23146   1.321   1.763   5.530 -0.7399 -0.1672 -0.3774
 3896SOL    HW123147   1.306   1.696   5.462 -2.7118 -1.2258  1.0897
 3896SOL    HW223148   1.361   1.834   5.481  0.0648  0.7172  1.5671
 3897SOL     OW23149   3.203   0.815   5.926 -0.1115  1.0997  0.2409
 3897SOL    HW123150   3.266   0.864   5.872  1.4478 -1.1585  0.0014
 3897SOL    HW223151   3.257   0.791   6.001  1.2749  1.1348 -0.7338
 3898SOL     OW23152   4.614   0.832  17.088 -0.0375 -0.0156  0.1192
 3898SOL    HW123153   4.602   0.901  17.023  0.8451 -1.7899 -1.9180
 3898SOL    HW223154   4.687   0.857  17.145  0.2907  0.0818 -0.3446
 3899SOL     OW23155   3.064   1.561   7.308  0.1127  0.3638 -0.0996
 3899SOL    HW123156   3.079   1.484   7.254 -1.8007 -0.4444  0.5289
 3899SOL    HW223157   2.973   1.581   7.285  0.1470 -2.5615 -2.7358
 3900SOL     OW23158   4.043   3.859   7.183  0.1725  0.7353 -0.1166
 3900SOL    HW123159   4.051   3.950   7.155  0.7602  1.2375  1.7064
 3900SOL    HW223160   4.134   3.839   7.204 -0.2115 -3.2268 -2.1923
 3901SOL     OW23161   0.083   0.440   5.288  0.4929  0.3041 -0.3117
 3901SOL    HW123162   0.177   0.449   5.274  0.5033 -1.3583 -1.3056
 3901SOL    HW223163   0.051   0.417   5.200  1.2273  0.7629 -0.7065
 3902SOL     OW23164   1.151   0.412  16.989 -0.2518  0.2871  0.0956
 3902SOL    HW123165   1.105   0.381  17.066  0.6502  0.0407  0.5357
 3902SOL    HW223166   1.237   0.370  16.995 -0.6972 -0.3353  1.7708
 3903SOL     OW23167   4.002   4.285   9.810  0.1522  0.3245  0.6729
 3903SOL    HW123168   3.947   4.213   9.840  0.5698 -0.0907  0.4429
 3903SOL    HW223169   4.090   4.247   9.819  0.6299  1.0968 -0.8137
 3904SOL     OW23170   0.231   0.632   4.669  0.4236 -0.3351 -0.2908
 3904SOL    HW123171   0.159   0.657   4.611  0.2577  1.5036  0.6928
 3904SOL    HW223172   0.278   0.714   4.684 -0.4191 -0.0729  0.9271
 3905SOL     OW23173   3.968   2.510   8.789 -0.7892 -0.0161 -0.2550
 3905SOL    HW123174   3.885   2.510   8.838 -0.2679  1.3075  0.6472
 3905SOL    HW223175   3.984   2.417   8.804  1.0343  0.3801  0.3174
 3906SOL     OW23176   3.952   3.661   1.356 -0.3208  0.0054 -0.0911
 3906SOL    HW123177   3.982   3.729   1.416  0.4900  0.4575 -1.0184
 3906SOL    HW223178   3.879   3.626   1.407 -0.5890  1.8956  0.8360
 3907SOL     OW23179   1.053   0.156   5.768 -0.2495  0.2731  0.5026
 3907SOL    HW123180   1.024   0.066   5.750  2.6123 -0.7320  0.9181
 3907SOL    HW223181   0.999   0.204   5.705  0.4940  2.6722  1.7123
 3908SOL     OW23182   1.957   1.267   2.294 -0.2975  0.4055  0.0251
 3908SOL    HW123183   2.021   1.324   2.338 -1.0496  0.6286  0.8444
 3908SOL    HW223184   2.004   1.184   2.292  0.2033  0.6703  0.6933
 3909SOL     OW23185   3.688   4.212   7.127 -0.2259  0.0705  0.0464
 3909SOL    HW123186   3.625   4.181   7.062  1.7585 -0.8115 -1.4481
 3909SOL    HW223187   3.765   4.210   7.071  0.2078  2.2687  0.5551
 3910SOL     OW23188   3.660   2.632   0.505  0.6750  0.3181  0.4702
 3910SOL    HW123189   3.647   2.601   0.415  0.5820 -0.9880  0.9339
 3910SOL    HW223190   3.694   2.554   0.547 -0.4449  0.4250  1.5726
 3911SOL     OW23191   3.615   3.619  16.585  0.3672 -0.6931 -0.2037
 3911SOL    HW123192   3.528   3.639  16.619 -0.0871 -3.0902  0.0213
 3911SOL    HW223193   3.637   3.532  16.617  2.3826  0.4591  1.5278
 3912SOL     OW23194   0.837   2.492   7.985 -0.1909  0.1293  0.5846
 3912SOL    HW123195   0.853   2.559   7.919 -2.3347  1.1708  1.1121
 3912SOL    HW223196   0.924   2.453   7.994 -0.6326 -0.5739  1.7634
 3913SOL     OW23197   3.763   4.513   4.571 -0.1804 -0.1333  0.2941
 3913SOL    HW123198   3.837   4.571   4.587  0.5222 -0.2988 -2.3652
 3913SOL    HW223199   3.815   4.435   4.552 -0.0332  0.3293 -1.1882
 3914SOL     OW23200   0.193   0.075  13.218  0.1908  0.2612  0.1574
 3914SOL    HW123201   0.123   0.055  13.280  2.0353 -0.6346  1.9363
 3914SOL    HW223202   0.209   0.166  13.244 -2.0228  0.5225  0.6089
 3915SOL     OW23203   0.523   4.017   6.661  0.0670 -0.4488 -0.0321
 3915SOL    HW123204   0.431   4.032   6.687  0.1528  0.0620 -0.0213
 3915SOL    HW223205   0.558   4.104   6.679 -1.7427  0.1735  0.5274
 3916SOL     OW23206   0.232   2.521   2.567 -0.4150  0.4174 -0.9808
 3916SOL    HW123207   0.215   2.606   2.607 -0.0600 -0.0105  0.0698
 3916SOL    HW223208   0.141   2.496   2.551 -1.1206  2.5832 -0.4202
 3917SOL     OW23209   2.363   1.677   1.194  0.4011  0.3492 -0.3857
 3917SOL    HW123210   2.288   1.646   1.244  1.8754  0.2966  1.7485
 3917SOL    HW223211   2.324   1.736   1.129  2.1054 -0.9856 -2.6165
 3918SOL     OW23212   2.984   2.039   5.032  0.7742 -0.7263 -0.0179
 3918SOL    HW123213   3.063   2.017   4.982  0.2277 -0.3422 -1.0416
 3918SOL    HW223214   2.919   1.986   4.986  0.0370 -0.3203  0.5627
 3919SOL     OW23215   4.510   4.059  12.314 -0.5966 -0.2081  0.3563
 3919SOL    HW123216   4.439   4.030  12.371  0.4078  1.8847  2.6935
 3919SOL    HW223217   4.501   4.155  12.312 -0.4604 -0.2139 -0.5103
 3920SOL     OW23218   0.681   2.324   7.157 -0.2339  0.3930  0.4529
 3920SOL    HW123219   0.721   2.254   7.105  1.1042 -0.3717  2.5309
 3920SOL    HW223220   0.640   2.263   7.219 -0.1157 -0.0102  0.1342
 3921SOL     OW23221   3.237   0.119   8.712 -0.1172 -0.3624 -0.0218
 3921SOL    HW123222   3.284   0.140   8.631 -0.0652  0.7528  0.2955
 3921SOL    HW223223   3.162   0.064   8.687 -0.2899 -0.5718  0.9699
 3922SOL     OW23224   1.542   2.988  13.102 -0.3231 -0.4874  0.4814
 3922SOL    HW123225   1.623   2.957  13.143 -1.1479 -0.4920  2.0904
 3922SOL    HW223226   1.471   2.960  13.159  1.6671  0.5236  3.4941
 3923SOL     OW23227   2.919   3.011  13.252  0.3949 -0.4054  0.2682
 3923SOL    HW123228   2.863   2.936  13.232  1.7916 -1.6165  0.8866
 3923SOL    HW223229   2.971   3.013  13.171 -2.1621 -0.0273 -1.3410
 3924SOL     OW23230   3.379   0.828   5.100 -0.1718  0.1726 -0.0391
 3924SOL    HW123231   3.293   0.852   5.133  0.0689  1.3771 -0.2755
 3924SOL    HW223232   3.423   0.912   5.113 -0.3272  0.4665 -1.3513
 3925SOL     OW23233   3.714   0.959   2.372 -0.6813 -0.4899 -1.0408
 3925SOL    HW123234   3.764   1.001   2.302 -0.6433 -0.2213 -0.8513
 3925SOL    HW223235   3.626   0.971   2.336 -1.3092  0.8748  0.9636
 3926SOL     OW23236   3.598   3.663   4.190  0.4304 -0.3742 -0.3703
 3926SOL    HW123237   3.693   3.675   4.186  0.3901  0.4725  1.1393
 3926SOL    HW223238   3.570   3.754   4.197 -0.0606 -0.5141 -0.5661
 3927SOL     OW23239   2.430   0.736   8.836  0.1404  0.4392  0.2910
 3927SOL    HW123240   2.503   0.792   8.809  1.0499 -0.7768  0.2615
 3927SOL    HW223241   2.423   0.768   8.926  1.7194 -0.8333  0.8596
 3928SOL     OW23242   1.043   3.545  10.098  0.0852  0.0464 -0.4682
 3928SOL    HW123243   1.093   3.465  10.083 -0.2874 -0.1185 -0.8551
 3928SOL    HW223244   0.953   3.511  10.105 -0.5855  1.6954 -0.8957
 3929SOL     OW23245   1.310   2.478   7.326  0.2947  0.2093  0.0907
 3929SOL    HW123246   1.399   2.458   7.355  0.1831 -0.6084 -0.1278
 3929SOL    HW223247   1.256   2.438   7.395  0.4982 -3.1343 -1.6609
 3930SOL     OW23248   4.670   4.533   5.445 -0.4225 -0.0777 -0.0628
 3930SOL    HW123249   4.590   4.585   5.440  1.4787  2.8754 -0.4174
 3930SOL    HW223250   0.013   4.582   5.397 -0.6452  1.2664  1.0060
 3931SOL     OW23251   0.950   2.164   5.787 -0.2565 -0.6481 -0.6711
 3931SOL    HW123252   0.897   2.221   5.842  0.4543 -2.3334  1.7613
 3931SOL    HW223253   0.965   2.094   5.850 -0.8033 -2.4551 -2.5597
 3932SOL     OW23254   4.107   3.471   3.494  0.0890  0.1765  0.5594
 3932SOL    HW123255   4.183   3.487   3.438  0.2317  0.0388  0.7133
 3932SOL    HW223256   4.151   3.513   3.568  0.4322  0.1139  0.3948
 3933SOL     OW23257   2.521   4.315  11.713 -0.6641 -0.2356 -0.2607
 3933SOL    HW123258   2.611   4.345  11.700 -0.7090  0.7819  1.7455
 3933SOL    HW223259   2.467   4.388  11.682  0.0905  0.2993 -0.3363
 3934SOL     OW23260   2.179   0.315   9.340 -0.1352 -0.0374 -0.1852
 3934SOL    HW123261   2.230   0.329   9.260  1.2715  0.0613  0.7286
 3934SOL    HW223262   2.217   0.238   9.381 -1.4713  0.2357  1.5486
 3935SOL     OW23263   1.665   1.908  16.882 -0.3605 -0.0931 -0.9905
 3935SOL    HW123264   1.663   1.876  16.972  0.5356  2.2979 -0.1292
 3935SOL    HW223265   1.730   1.977  16.897 -2.7591  1.7108  1.0570
 3936SOL     OW23266   4.046   2.265   8.861  0.3934  0.2032  0.4183
 3936SOL    HW123267   4.087   2.185   8.827 -0.9156 -0.9293  1.5014
 3936SOL    HW223268   4.055   2.246   8.955 -2.5346  1.3388  0.9267
 3937SOL     OW23269   2.657   0.523   8.763  0.3314  0.2406  0.3870
 3937SOL    HW123270   2.634   0.616   8.760 -2.4494 -0.4051  2.2553
 3937SOL    HW223271   2.712   0.512   8.840 -0.8163 -2.0861  0.8639
 3938SOL     OW23272   4.174   1.119  13.105  0.0501 -0.3371 -0.2430
 3938SOL    HW123273   4.106   1.131  13.039  0.0353 -1.5515 -0.4390
 3938SOL    HW223274   4.228   1.049  13.067 -0.6277 -1.5515  1.0461
 3939SOL     OW23275   1.494   1.105   9.273  0.1088  0.4030  0.9398
 3939SOL    HW123276   1.520   1.114   9.365 -1.5818  0.0862  1.4594
 3939SOL    HW223277   1.400   1.086   9.279  0.0192  0.4546 -0.3199
 3940SOL     OW23278   3.018   1.174  13.795 -0.2399  0.5713  0.1677
 3940SOL    HW123279   2.971   1.256  13.808 -1.3268  0.0587 -0.5518
 3940SOL    HW223280   2.952   1.110  13.770 -2.4613  2.3176  1.5913
 3941SOL     OW23281   1.226   4.087  13.328  0.0936 -0.1674 -0.1565
 3941SOL    HW123282   1.188   4.069  13.242  0.4036 -0.7970 -0.1639
 3941SOL    HW223283   1.175   4.166  13.345  1.7872  0.7352  0.8091
 3942SOL     OW23284   0.478   1.353   2.481 -0.2291 -0.1647 -0.0611
 3942SOL    HW123285   0.545   1.418   2.464  0.0500 -0.4627 -0.1080
 3942SOL    HW223286   0.531   1.273   2.488 -2.3369 -1.4979  0.7746
 3943SOL     OW23287   4.147   3.474  11.637  0.2361  0.3136 -0.5001
 3943SOL    HW123288   4.230   3.451  11.595 -0.2289 -0.0858 -1.1899
 3943SOL    HW223289   4.089   3.486  11.562 -0.6882 -0.8628  0.0369
 3944SOL     OW23290   2.132   4.530   1.635  0.3582  0.1706 -0.0900
 3944SOL    HW123291   2.143   4.598   1.569  0.5598 -1.0631 -1.3252
 3944SOL    HW223292   2.121   4.585   1.713  2.8585 -0.9983  1.1019
 3945SOL     OW23293   0.043   1.196   2.448 -0.2727  0.4781  0.4318
 3945SOL    HW123294   4.696   1.184   2.510 -0.0659  2.5055  1.0343
 3945SOL    HW223295   0.065   1.288   2.462  0.7997  0.3023 -0.0629
 3946SOL     OW23296   4.020   1.396   1.069  0.2348 -0.2466 -0.9915
 3946SOL    HW123297   3.998   1.308   1.038 -0.0316 -1.0478  1.4367
 3946SOL    HW223298   4.043   1.440   0.988  0.2473 -1.6772 -1.7549
 3947SOL     OW23299   4.236   4.443   9.919 -0.0151 -0.8725  0.3924
 3947SOL    HW123300   4.247   4.351   9.896 -0.4509 -1.0257  0.8133
 3947SOL    HW223301   4.293   4.446   9.995 -0.0392  3.1107  0.2864
 3948SOL     OW23302   2.103   0.729   6.439 -0.7638 -0.7354 -0.2855
 3948SOL    HW123303   2.100   0.815   6.399 -2.2568 -0.8714 -0.4651
 3948SOL    HW223304   2.083   0.666   6.369 -0.3776  0.0987 -1.1377
 3949SOL     OW23305   0.924   4.567  14.896 -0.0172 -0.1499  0.3327
 3949SOL    HW123306   0.858   4.631  14.868  0.0131 -0.8824 -1.4133
 3949SOL    HW223307   0.965   4.602  14.975 -0.9473  0.0163  0.7424
 3950SOL     OW23308   1.361   4.622   8.130  0.3598 -0.4231 -0.0513
 3950SOL    HW123309   1.339   4.599   8.040  1.1914  0.7483 -0.5648
 3950SOL    HW223310   1.273   4.629   8.167  0.9318  0.5475  1.1439
 3951SOL     OW23311   1.733   3.601  13.423 -0.6637  0.5678 -0.1372
 3951SOL    HW123312   1.700   3.598  13.333 -0.3259 -0.7292 -0.2192
 3951SOL    HW223313   1.741   3.507  13.440 -1.9330  0.3518 -0.7688
 3952SOL     OW23314   3.477   1.489  17.212  0.0424 -0.3778 -0.2133
 3952SOL    HW123315   3.478   1.419  17.276 -1.3147  0.7328  1.0313
 3952SOL    HW223316   3.453   1.440  17.134 -0.8268 -0.5037  0.1399
 3953SOL     OW23317   3.488   4.339  14.958 -0.0013 -0.2790  0.6814
 3953SOL    HW123318   3.417   4.276  14.971 -1.1469  0.8562 -0.0850
 3953SOL    HW223319   3.533   4.334  15.043  1.5045  1.7654 -0.0057
 3954SOL     OW23320   0.724   4.560   4.089  0.4404 -0.0255 -0.0878
 3954SOL    HW123321   0.651   4.589   4.144 -1.4563 -1.7612 -1.6597
 3954SOL    HW223322   0.687   4.532   4.005 -0.2544  1.5819 -0.3095
 3955SOL     OW23323   3.686   2.826  12.661 -0.2098  0.5603 -0.2933
 3955SOL    HW123324   3.764   2.859  12.706 -0.1527  1.3447 -0.9660
 3955SOL    HW223325   3.679   2.747  12.715  1.8042  0.8011  0.3331
 3956SOL     OW23326   0.958   4.680  16.590 -0.2468 -0.4493  0.4234
 3956SOL    HW123327   0.952   4.624  16.667  0.6000  0.0899  0.8865
 3956SOL    HW223328   0.878   0.003  16.611  0.3493  0.6485  0.2453
 3957SOL     OW23329   3.755   2.039   2.955  0.2248  0.3138  0.7997
 3957SOL    HW123330   3.781   2.010   3.042  1.4919  0.1826  0.3856
 3957SOL    HW223331   3.668   2.076   2.972  0.3261  0.4794  0.9474
 3958SOL     OW23332   4.236   0.934   7.965 -0.0122  0.3600 -0.1686
 3958SOL    HW123333   4.329   0.911   7.965 -0.1002  0.0051 -0.2440
 3958SOL    HW223334   4.201   0.870   8.027  0.1620  0.5977  0.1816
 3959SOL     OW23335   3.926   0.584   5.698 -0.1111  0.4448  0.3946
 3959SOL    HW123336   3.878   0.647   5.644 -1.6571 -0.9591  0.1444
 3959SOL    HW223337   3.996   0.647   5.719  0.5773  0.1751 -1.0854
 3960SOL     OW23338   0.734   0.274   1.719  0.1903 -0.5524 -0.2530
 3960SOL    HW123339   0.676   0.312   1.654 -0.4259  0.0856  0.6680
 3960SOL    HW223340   0.792   0.346   1.745 -1.4743  1.3414 -1.8068
 3961SOL     OW23341   1.160   1.617   0.842  0.6841 -0.8792  0.0502
 3961SOL    HW123342   1.122   1.682   0.782  0.1336 -0.8030  0.4786
 3961SOL    HW223343   1.221   1.673   0.891 -0.4488  0.1614  0.2915
 3962SOL     OW23344   4.101   3.656  14.764 -0.9255 -0.2400 -0.1794
 3962SOL    HW123345   4.130   3.703  14.685 -0.6427  1.1359  0.7522
 3962SOL    HW223346   4.038   3.590  14.735  0.2018 -1.1823 -0.5142
 3963SOL     OW23347   0.344   4.634   2.714 -0.0724  0.5473 -0.0716
 3963SOL    HW123348   0.327   4.546   2.748 -1.0955  0.5344 -0.6384
 3963SOL    HW223349   0.301   4.627   2.629  1.7367  0.3586 -0.9723
 3964SOL     OW23350   1.900   1.571   2.272  0.1459  0.1197  0.4066
 3964SOL    HW123351   1.903   1.622   2.190 -0.2078  0.7142  0.7647
 3964SOL    HW223352   1.870   1.489   2.233 -0.0502  0.2252  0.3345
 3965SOL     OW23353   4.364   2.781   8.969  0.3909 -0.0207 -0.0602
 3965SOL    HW123354   4.403   2.748   9.050  0.0816 -1.9227 -0.6876
 3965SOL    HW223355   4.326   2.863   9.002  1.1529 -0.5245  2.0590
 3966SOL     OW23356   3.320   1.889   3.877  0.0089  0.5111  0.3271
 3966SOL    HW123357   3.353   1.831   3.945  1.6529  0.4757 -0.4979
 3966SOL    HW223358   3.236   1.849   3.857  0.3991 -0.8929  1.4602
 3967SOL     OW23359   1.663   4.077  10.686  0.0867  0.1114 -0.4261
 3967SOL    HW123360   1.704   4.022  10.752 -1.7517 -1.1796 -0.3445
 3967SOL    HW223361   1.580   4.029  10.677  0.1142 -0.2335  1.2860
 3968SOL     OW23362   1.476   4.191   3.570  0.1197 -0.2207  1.2604
 3968SOL    HW123363   1.503   4.118   3.626  0.6343 -0.8044  0.2448
 3968SOL    HW223364   1.564   4.221   3.548 -0.7420  2.4019  1.4390
 3969SOL     OW23365   0.530   0.121  16.053 -0.1296  0.4981  0.3932
 3969SOL    HW123366   0.618   0.086  16.038 -0.0180  1.1557 -0.5284
 3969SOL    HW223367   0.558   0.196  16.106 -0.7626  1.4106 -0.5739
 3970SOL     OW23368   1.841   1.866   3.958  0.5565 -0.0768 -0.2824
 3970SOL    HW123369   1.771   1.829   4.011 -0.1718  0.8812 -0.5626
 3970SOL    HW223370   1.797   1.883   3.874  1.4097  1.4913 -0.4210
 3971SOL     OW23371   4.513   3.716  10.898  0.0156  0.2358  0.5012
 3971SOL    HW123372   4.449   3.704  10.968  0.2114  0.0509  0.6490
 3971SOL    HW223373   4.456   3.727  10.821  0.2135 -1.6690  0.0871
 3972SOL     OW23374   1.732   3.684   4.538 -0.4514  0.4713 -0.1113
 3972SOL    HW123375   1.699   3.710   4.453  0.8852  1.8905 -0.1959
 3972SOL    HW223376   1.802   3.746   4.557 -1.0111  1.8886 -2.7745
 3973SOL     OW23377   2.752   2.679   4.872 -0.4198  0.6708  0.1117
 3973SOL    HW123378   2.693   2.675   4.797 -0.1129  0.1710 -0.1032
 3973SOL    HW223379   2.767   2.590   4.904  0.2917  0.8168  0.1713
 3974SOL     OW23380   3.586   4.206   1.672  0.1724 -0.0882  0.2799
 3974SOL    HW123381   3.605   4.292   1.635 -1.6788  1.8595  3.8797
 3974SOL    HW223382   3.673   4.166   1.668 -0.2827 -1.0074 -0.4400
 3975SOL     OW23383   3.854   0.865   5.632 -0.0061  0.0773  0.6067
 3975SOL    HW123384   3.930   0.869   5.690  0.0480 -2.4567  0.6963
 3975SOL    HW223385   3.832   0.958   5.631  0.3694  0.1471 -0.7071
 3976SOL     OW23386   3.839   3.893   9.205  0.1307 -0.1116  0.2929
 3976SOL    HW123387   3.930   3.901   9.176  0.0326 -0.3536 -0.0828
 3976SOL    HW223388   3.798   3.977   9.185  1.3301  0.5410  0.6055
 3977SOL     OW23389   0.508   0.688   2.930 -0.9174 -0.2156  0.2439
 3977SOL    HW123390   0.540   0.649   3.011  0.0552 -1.0742 -0.5652
 3977SOL    HW223391   0.478   0.610   2.883  1.9013 -0.5367 -0.9990
 3978SOL     OW23392   1.269   2.020  14.239 -0.0344 -0.0686 -0.0765
 3978SOL    HW123393   1.208   2.092  14.221 -0.1596  0.0843  0.9292
 3978SOL    HW223394   1.212   1.945  14.221 -1.4353  1.3814 -1.7193
 3979SOL     OW23395   0.984   0.746   9.001  1.0031 -0.1825  0.0233
 3979SOL    HW123396   0.962   0.730   8.909 -2.4936  0.1795  0.7973
 3979SOL    HW223397   1.079   0.755   9.009  1.1365 -1.4331 -0.1549
 3980SOL     OW23398   1.797   2.028   4.516 -0.5788  0.0023  0.3609
 3980SOL    HW123399   1.773   2.119   4.532  0.0375 -0.0812  1.7164
 3980SOL    HW223400   1.802   1.989   4.603 -1.5991 -1.3368 -0.1796
 3981SOL     OW23401   1.781   1.344   2.106 -0.2095 -0.2696 -0.1462
 3981SOL    HW123402   1.845   1.304   2.165 -0.9542  0.5431  1.2368
 3981SOL    HW223403   1.693   1.333   2.143  0.3471 -0.3737  1.1491
 3982SOL     OW23404   1.416   3.756   0.152 -0.4904 -0.0276  0.1818
 3982SOL    HW123405   1.336   3.785   0.195 -1.0000 -2.4306  0.8983
 3982SOL    HW223406   1.386   3.731   0.065  1.0535  1.7680 -0.8637
 3983SOL     OW23407   0.564   0.107   7.967 -0.5975 -0.0943 -0.1924
 3983SOL    HW123408   0.541   0.194   8.001 -0.5319 -0.7381  1.4851
 3983SOL    HW223409   0.524   0.110   7.880 -0.1137 -1.3412 -0.4592
 3984SOL     OW23410   4.163   2.051   6.860  0.4259 -0.3259  0.1140
 3984SOL    HW123411   4.096   2.019   6.799 -0.3667  3.1266 -0.8214
 3984SOL    HW223412   4.141   2.004   6.940  3.3607 -0.6882  0.6864
 3985SOL     OW23413   0.865   1.647   8.536 -0.0658 -0.8012 -0.0779
 3985SOL    HW123414   0.817   1.575   8.576  1.3130 -1.3099  0.6643
 3985SOL    HW223415   0.823   1.722   8.578  1.5271 -0.1880  0.4042
 3986SOL     OW23416   3.198   1.858   8.119  0.5391 -0.8139  0.4564
 3986SOL    HW123417   3.124   1.906   8.158  0.4810 -0.8037  0.3347
 3986SOL    HW223418   3.177   1.764   8.121 -0.4538 -0.5708  1.9713
 3987SOL     OW23419   3.502   2.930   2.697  0.2655  0.6092 -0.1328
 3987SOL    HW123420   3.492   2.843   2.735  0.0687  1.1481  1.0567
 3987SOL    HW223421   3.593   2.952   2.717  0.3719 -0.2479  0.3441
 3988SOL     OW23422   3.489   1.663   2.741 -0.4873 -0.0622  0.2663
 3988SOL    HW123423   3.470   1.653   2.835 -2.2066  1.2804  0.0605
 3988SOL    HW223424   3.460   1.752   2.723 -1.6949 -0.2979  1.0350
 3989SOL     OW23425   3.018   4.625  13.529 -0.4409 -0.3167  0.3565
 3989SOL    HW123426   2.993   4.674  13.607 -0.5759  1.0561 -0.5564
 3989SOL    HW223427   3.112   4.611  13.535 -0.1117  0.9951 -1.7226
 3990SOL     OW23428   0.986   1.653   6.823 -0.1941  0.1863  0.2337
 3990SOL    HW123429   1.046   1.598   6.875 -0.7919  0.7519  1.5201
 3990SOL    HW223430   0.937   1.580   6.787 -0.4924 -0.0885  1.1989
 3991SOL     OW23431   2.633   1.830  14.842  0.0904  0.5790 -0.4081
 3991SOL    HW123432   2.673   1.750  14.808  0.6396  0.7986 -0.2701
 3991SOL    HW223433   2.574   1.844  14.768 -0.5400  2.5243  0.4644
 3992SOL     OW23434   1.835   1.984   1.103 -0.1571 -0.1530 -0.1176
 3992SOL    HW123435   1.885   2.009   1.026  0.8716  2.0542  1.2601
 3992SOL    HW223436   1.859   2.058   1.159  2.0712 -2.0344  1.4221
 3993SOL     OW23437   1.299   0.566   5.688 -0.3441  0.4134  0.1574
 3993SOL    HW123438   1.228   0.581   5.750 -0.0446 -1.8607  1.0634
 3993SOL    HW223439   1.286   0.631   5.619 -0.7729  0.0339 -0.1174
 3994SOL     OW23440   0.137   4.382  16.750 -0.3301 -0.2674  0.0895
 3994SOL    HW123441   0.232   4.372  16.747 -0.4222 -0.8789 -1.0269
 3994SOL    HW223442   0.115   4.435  16.673 -0.5920 -0.9520 -0.3055
 3995SOL     OW23443   2.732   1.672   7.984  0.8509  0.1826  0.3290
 3995SOL    HW123444   2.711   1.740   7.920 -2.8265  0.1092  1.4024
 3995SOL    HW223445   2.714   1.593   7.934  1.1085  1.4683 -1.7601
 3996SOL     OW23446   0.365   1.974   5.488 -0.2076  0.3076  0.4308
 3996SOL    HW123447   0.337   1.953   5.577 -2.2515  0.9450 -0.0669
 3996SOL    HW223448   0.460   1.980   5.491 -0.0866 -0.3544 -1.8878
 3997SOL     OW23449   2.039   3.699   4.358  0.3216 -0.2555 -0.1985
 3997SOL    HW123450   2.056   3.642   4.432 -1.3183  0.1938  0.5312
 3997SOL    HW223451   1.971   3.752   4.399  1.4854  0.1636  1.1839
 3998SOL     OW23452   3.078   0.217  17.110 -0.1048 -0.3331 -0.2874
 3998SOL    HW123453   2.994   0.245  17.148  0.8983  1.4972  0.5842
 3998SOL    HW223454   3.081   0.282  17.040  0.1295 -1.4368 -1.2964
 3999SOL     OW23455   2.002   3.023   6.295  0.2411 -0.1280 -0.4055
 3999SOL    HW123456   2.090   3.024   6.334  0.6299 -0.3208 -1.2744
 3999SOL    HW223457   1.951   3.053   6.371  2.3633  2.2546  0.1072
 4000SOL     OW23458   4.593   3.628   7.198 -0.2785  0.7532  0.1052
 4000SOL    HW123459   4.542   3.556   7.159  1.1630  0.8870 -2.0501
 4000SOL    HW223460   4.538   3.659   7.270 -0.8720 -0.4558  0.1753
 4001SOL     OW23461   0.120   4.464   4.590  0.0307  0.0157  0.4346
 4001SOL    HW123462   0.107   4.429   4.502  0.6652  1.3062 -0.1712
 4001SOL    HW223463   0.143   4.385   4.639 -0.0047 -1.3852 -1.8129
 4002SOL     OW23464   3.688   3.782  17.300  0.7805  0.0703  0.0465
 4002SOL    HW123465   3.674   3.874  17.321 -0.2477 -0.3440  1.2288
 4002SOL    HW223466   3.599   3.746  17.309  0.0715  0.9642 -3.6664
 4003SOL     OW23467   3.980   2.052  12.185 -0.5788  0.1014  0.2299
 4003SOL    HW123468   3.971   2.035  12.279 -1.3486 -1.3725 -0.1102
 4003SOL    HW223469   3.951   1.971  12.143  0.5635  1.3500 -2.8960
 4004SOL     OW23470   2.909   3.630   7.245  0.4936  0.0762 -0.1606
 4004SOL    HW123471   2.827   3.655   7.201 -0.7072 -1.7444  1.0432
 4004SOL    HW223472   2.881   3.589   7.326 -1.1156 -1.2313 -1.3772
 4005SOL     OW23473   2.475   0.819   1.406  0.4434  0.0052 -0.0924
 4005SOL    HW123474   2.475   0.732   1.366 -0.8143  0.1718 -0.4338
 4005SOL    HW223475   2.476   0.877   1.330  0.7037  0.6777  0.4276
 4006SOL     OW23476   3.419   0.581   5.936 -0.2069  0.1832  0.5773
 4006SOL    HW123477   3.371   0.513   5.888 -1.6010 -0.4171  2.7972
 4006SOL    HW223478   3.444   0.531   6.014 -0.3935  0.4215  0.7891
 4007SOL     OW23479   2.769   0.925   0.090  0.4258 -0.3299  0.0133
 4007SOL    HW123480   2.778   0.888   0.002  0.5205 -0.4290  0.0643
 4007SOL    HW223481   2.675   0.921   0.108  0.2509 -0.8430 -0.9864
 4008SOL     OW23482   2.219   1.268  16.582 -0.1605 -0.7886  0.1012
 4008SOL    HW123483   2.269   1.197  16.542 -0.4472 -0.1004 -1.4433
 4008SOL    HW223484   2.176   1.293  16.501 -0.5284  0.7143  0.7663
 4009SOL     OW23485   4.575   2.807   3.182 -0.3116 -0.4274 -0.1440
 4009SOL    HW123486   4.663   2.800   3.219 -0.7082  0.9469  1.0498
 4009SOL    HW223487   4.584   2.867   3.108  1.9552 -1.4539 -0.6862
 4010SOL     OW23488   0.549   3.786   5.954  0.3378 -0.0971 -0.1065
 4010SOL    HW123489   0.543   3.807   5.861 -1.3329  1.3986  0.3360
 4010SOL    HW223490   0.511   3.698   5.962 -2.0379  0.8401 -0.9194
 4011SOL     OW23491   2.219   4.509   4.819  0.2216 -0.0269  0.1962
 4011SOL    HW123492   2.267   4.541   4.743  0.9804  1.4573  1.2854
 4011SOL    HW223493   2.269   4.429   4.828  0.5650  0.1345 -0.2781
 4012SOL     OW23494   2.161   3.593   6.639 -0.1617  0.3843  0.2032
 4012SOL    HW123495   2.134   3.623   6.552 -0.9314 -1.7494 -0.3022
 4012SOL    HW223496   2.146   3.668   6.696  0.7793  0.8109 -0.1101
 4013SOL     OW23497   1.434   4.053   4.677  0.1043  0.1447  0.1120
 4013SOL    HW123498   1.500   4.106   4.722 -1.3347  0.6190  1.6896
 4013SOL    HW223499   1.449   3.969   4.720 -0.9186  0.2082  0.5996
 4014SOL     OW23500   1.527   1.312   5.635  0.3121  0.4668 -0.2996
 4014SOL    HW123501   1.435   1.338   5.638  0.6069  1.5311 -0.3465
 4014SOL    HW223502   1.566   1.384   5.587  1.9444 -0.6981 -0.7265
 4015SOL     OW23503   1.740   1.922   2.529  0.0382 -0.1414 -0.0941
 4015SOL    HW123504   1.831   1.948   2.513 -0.2929 -0.4355 -2.3945
 4015SOL    HW223505   1.742   1.828   2.509  0.5573 -0.0241 -0.5977
 4016SOL     OW23506   1.427   2.697   4.493  0.3371  0.3467  0.1940
 4016SOL    HW123507   1.379   2.750   4.556 -0.5119 -0.4264  0.1901
 4016SOL    HW223508   1.505   2.752   4.485 -1.5929  3.0886  0.1405
 4017SOL     OW23509   0.942   1.944   5.501 -0.1571  0.0174  0.2051
 4017SOL    HW123510   0.994   1.931   5.581 -0.4270 -0.0738  0.3643
 4017SOL    HW223511   1.005   1.974   5.435  1.5211 -1.9360  0.8933
 4018SOL     OW23512   3.815   1.952  14.374  0.2877  0.1462 -0.5535
 4018SOL    HW123513   3.734   2.003  14.367 -0.5289 -0.8949  1.1154
 4018SOL    HW223514   3.850   1.982  14.458  0.2205  2.8607 -1.5011
 4019SOL     OW23515   4.285   0.308   7.240  0.7795  0.6029  0.0881
 4019SOL    HW123516   4.244   0.355   7.167 -0.1885 -0.4426 -0.0385
 4019SOL    HW223517   4.359   0.262   7.199  1.7161  0.2391  2.2243
 4020SOL     OW23518   4.362   0.422   2.283  0.1037  0.0464 -0.1375
 4020SOL    HW123519   4.400   0.450   2.199 -1.3416 -0.3110 -0.9181
 4020SOL    HW223520   4.421   0.458   2.349 -2.2064 -1.3918  2.6741
 4021SOL     OW23521   2.612   1.307  16.681  0.6250  0.5107 -0.1900
 4021SOL    HW123522   2.619   1.401  16.663  3.0587 -0.0213 -1.8945
 4021SOL    HW223523   2.571   1.322  16.766 -1.7360  0.6599 -1.3620
 4022SOL     OW23524   2.359   1.808   5.303 -0.4136 -0.2270  0.6342
 4022SOL    HW123525   2.400   1.891   5.276  2.2048 -1.2819  1.3246
 4022SOL    HW223526   2.427   1.761   5.352 -0.8119  0.3238  1.7213
 4023SOL     OW23527   2.060   0.984  12.318 -0.1068  0.1200  0.4895
 4023SOL    HW123528   1.983   0.954  12.270 -1.1329  0.8391  1.6792
 4023SOL    HW223529   2.015   1.025  12.392 -0.5433 -0.7710  0.7305
 4024SOL     OW23530   3.947   1.063  12.050  0.2643  0.0610  0.0045
 4024SOL    HW123531   3.971   1.125  11.982  0.0346 -1.8985 -1.8801
 4024SOL    HW223532   3.878   1.116  12.090  0.5141  1.5884 -1.6105
 4025SOL     OW23533   1.605   3.649  13.671 -0.7224  0.2072 -0.1765
 4025SOL    HW123534   1.655   3.618  13.596  0.4901  2.3142 -0.2496
 4025SOL    HW223535   1.567   3.733  13.642 -0.4845  0.2818 -0.2721
 4026SOL     OW23536   4.015   1.192  12.897  0.1563  0.5673 -0.2556
 4026SOL    HW123537   3.937   1.243  12.916 -1.1402 -1.7469  0.5978
 4026SOL    HW223538   3.988   1.147  12.817 -1.9964  0.9847  0.2431
 4027SOL     OW23539   3.888   3.334   7.376 -0.4778 -0.3310  0.2953
 4027SOL    HW123540   3.949   3.273   7.418 -0.2527 -0.9028 -0.8767
 4027SOL    HW223541   3.894   3.400   7.445  0.5210 -0.0274 -0.0808
 4028SOL     OW23542   3.767   0.165   2.392 -0.2646  0.0440  0.0195
 4028SOL    HW123543   3.737   0.201   2.476 -2.8524  0.3447 -1.0562
 4028SOL    HW223544   3.696   0.105   2.373 -0.4254  0.1797  0.1899
 4029SOL     OW23545   3.969   1.915   4.294 -0.2076  0.3385 -0.1932
 4029SOL    HW123546   3.916   1.846   4.253  1.5553  0.8664 -3.3387
 4029SOL    HW223547   4.033   1.876   4.353 -1.7559 -2.0858 -0.0985
 4030SOL     OW23548   3.642   3.132   3.373 -0.1572 -0.2850  0.3138
 4030SOL    HW123549   3.577   3.080   3.326 -1.1345  0.8527  0.4159
 4030SOL    HW223550   3.670   3.188   3.300 -1.0653 -0.7897 -0.4195
 4031SOL     OW23551   2.107   1.586   7.994  0.1086 -0.7374  0.8489
 4031SOL    HW123552   2.169   1.644   7.950  0.8013 -3.1684 -1.4089
 4031SOL    HW223553   2.175   1.524   8.021  0.2189 -1.3020 -0.7189
 4032SOL     OW23554   0.064   1.697   7.151  0.0470 -0.7313  0.0605
 4032SOL    HW123555   0.140   1.650   7.116  0.2427  0.0732 -0.5736
 4032SOL    HW223556   4.719   1.660   7.096 -0.7856 -0.0891  0.6753
 4033SOL     OW23557   0.103   3.738   3.919  0.1553 -0.5661  0.4858
 4033SOL    HW123558   0.147   3.704   3.997 -1.2104  0.2864  1.6281
 4033SOL    HW223559   0.040   3.666   3.926  0.1105 -0.4589  1.1678
 4034SOL     OW23560   2.726   1.599   2.403 -0.5672  0.2333  0.5890
 4034SOL    HW123561   2.776   1.634   2.330 -2.5816  1.1042 -0.3850
 4034SOL    HW223562   2.648   1.582   2.350 -1.2639 -1.9936  2.3332
 4035SOL     OW23563   1.347   0.810  15.326 -0.1908  0.1640  0.0562
 4035SOL    HW123564   1.382   0.843  15.243 -2.5501  0.2103 -0.9025
 4035SOL    HW223565   1.354   0.716  15.313  1.2593  0.1798  0.7543
 4036SOL     OW23566   3.853   3.175  17.443 -0.0451  0.0035 -0.2586
 4036SOL    HW123567   3.898   3.217  17.369  1.9068  0.7372  1.3333
 4036SOL    HW223568   3.868   3.083  17.424 -0.8183  0.1441 -1.5407
 4037SOL     OW23569   0.869   1.741   8.143 -0.7457 -0.0298  0.2638
 4037SOL    HW123570   0.890   1.670   8.203  0.5602 -0.1390 -0.3412
 4037SOL    HW223571   0.953   1.786   8.142  0.0917 -1.5468  2.4035
 4038SOL     OW23572   3.705   0.659   4.060  0.5408  0.1904 -0.4049
 4038SOL    HW123573   3.640   0.594   4.037  2.1498 -0.5009 -3.0116
 4038SOL    HW223574   3.651   0.733   4.088 -0.7216 -0.8708 -0.0675
 4039SOL     OW23575   0.535   0.859   4.924  0.2718  0.2130  0.0460
 4039SOL    HW123576   0.495   0.878   4.840  2.1936  1.6871 -0.5327
 4039SOL    HW223577   0.555   0.766   4.914 -0.3713  0.0753  0.0727
 4040SOL     OW23578   0.974   0.609   4.398  0.1337 -0.4439 -0.1692
 4040SOL    HW123579   0.913   0.572   4.462  0.4614  1.4254  1.2430
 4040SOL    HW223580   0.955   0.556   4.321 -1.2056  1.9791 -1.4920
 4041SOL     OW23581   3.492   4.261  10.765  0.1804 -0.3308  0.3051
 4041SOL    HW123582   3.438   4.248  10.844 -3.0421 -1.9067 -2.1750
 4041SOL    HW223583   3.453   4.338  10.725 -0.1122 -0.9479 -0.5909
 4042SOL     OW23584   2.874   0.005   6.350  0.0541  0.3746  0.7866
 4042SOL    HW123585   2.807   0.064   6.384  0.9114  1.8907 -0.1397
 4042SOL    HW223586   2.819   4.682   6.287  0.7081 -1.8746  1.9176
 4043SOL     OW23587   0.308   3.434   6.755 -0.2237  0.5390 -0.3000
 4043SOL    HW123588   0.337   3.487   6.830  1.1655  1.8898 -1.7924
 4043SOL    HW223589   0.253   3.376   6.809  1.1866 -1.0331 -0.5526
 4044SOL     OW23590   3.050   3.668   3.884  0.1280 -0.3307 -0.3062
 4044SOL    HW123591   3.110   3.743   3.888 -0.5314  0.3358 -3.1341
 4044SOL    HW223592   2.979   3.705   3.832 -0.0637  1.4159  1.2185
 4045SOL     OW23593   0.028   0.287   1.540 -0.5834 -0.2310 -0.3277
 4045SOL    HW123594   4.675   0.289   1.483 -0.8206  2.0561  0.0534
 4045SOL    HW223595   0.024   0.367   1.593  0.0137  0.0226 -0.6759
 4046SOL     OW23596   4.502   1.443   7.283  0.6970  0.0755 -0.2818
 4046SOL    HW123597   4.546   1.430   7.199 -1.7286 -1.1226 -1.3591
 4046SOL    HW223598   4.577   1.460   7.340 -0.0139  1.4760  0.2149
 4047SOL     OW23599   1.497   0.951   3.866 -0.0331 -0.0331  0.1408
 4047SOL    HW123600   1.470   0.989   3.782  0.2996  0.4200  0.2363
 4047SOL    HW223601   1.418   0.903   3.891  0.1805  0.9266  2.6004
 4048SOL     OW23602   1.763   1.760   3.218 -0.0405 -0.2644 -0.0735
 4048SOL    HW123603   1.742   1.800   3.133  1.1370  0.3603 -0.0763
 4048SOL    HW223604   1.819   1.829   3.255  2.4316 -1.3320 -1.8254
 4049SOL     OW23605   4.425   0.943  14.147 -0.5170  0.2712 -0.5500
 4049SOL    HW123606   4.402   0.981  14.062  1.5072 -0.4280 -1.4226
 4049SOL    HW223607   4.417   1.020  14.203  1.6366 -0.5415  0.8535
 4050SOL     OW23608   3.130   3.237   4.591  0.3184  0.1147  0.0859
 4050SOL    HW123609   3.220   3.211   4.571  0.1313 -2.3232  2.4437
 4050SOL    HW223610   3.120   3.317   4.540  0.5451  0.1617  0.1157
 4051SOL     OW23611   3.317   2.909   2.443 -0.2676 -0.2501 -0.3771
 4051SOL    HW123612   3.337   2.929   2.535 -1.7504 -0.0823 -0.1021
 4051SOL    HW223613   3.401   2.920   2.399 -0.0906  2.9747  0.7237
 4052SOL     OW23614   1.622   3.082   9.747 -0.2992 -0.2849  0.7250
 4052SOL    HW123615   1.676   3.160   9.732 -0.3553 -0.5529 -0.8496
 4052SOL    HW223616   1.677   3.007   9.725 -0.5817 -0.1235 -0.5247
 4053SOL     OW23617   2.205   2.165   3.166  0.4526  0.0178 -0.3029
 4053SOL    HW123618   2.236   2.100   3.228  0.2956  0.5060  0.2841
 4053SOL    HW223619   2.252   2.153   3.083  0.7482 -2.8236  0.3039
 4054SOL     OW23620   2.097   2.171  11.993 -0.0199 -0.4281  0.1063
 4054SOL    HW123621   2.086   2.080  11.964  0.6046  0.0264 -1.5464
 4054SOL    HW223622   2.170   2.146  12.049 -0.9717  1.3674  2.1545
 4055SOL     OW23623   1.704   3.831   2.596 -0.2311 -0.2350  0.3554
 4055SOL    HW123624   1.691   3.747   2.641  0.8712  0.0518  1.2162
 4055SOL    HW223625   1.771   3.873   2.650  1.8516  0.6903 -2.9663
 4056SOL     OW23626   3.548   4.394   5.391  0.1139  0.0272  0.2579
 4056SOL    HW123627   3.600   4.388   5.311 -1.3644  0.6631 -0.7593
 4056SOL    HW223628   3.553   4.488   5.410 -0.4508  0.4180 -1.5547
 4057SOL     OW23629   0.117   0.208  11.599  0.9495 -0.4035 -0.2624
 4057SOL    HW123630   0.196   0.216  11.653  1.2089  1.0866 -0.8646
 4057SOL    HW223631   0.053   0.209  11.670 -1.3841  2.3916 -2.4407
 4058SOL     OW23632   0.400   2.987   1.457  0.0596 -0.3698  0.4938
 4058SOL    HW123633   0.453   2.918   1.417  0.9262  0.2604  0.5665
 4058SOL    HW223634   0.442   3.068   1.429  1.4640 -1.8679 -1.7467
 4059SOL     OW23635   4.002   3.750   9.701  0.4597 -0.4891  0.0525
 4059SOL    HW123636   3.994   3.721   9.610 -4.9529 -0.4279  0.4535
 4059SOL    HW223637   4.021   3.670   9.749  1.6481 -0.7000 -0.7886
 4060SOL     OW23638   4.409   3.549   4.520  0.0680  0.4411  0.2475
 4060SOL    HW123639   4.479   3.532   4.456 -0.4853  2.7092 -0.9683
 4060SOL    HW223640   4.454   3.617   4.569  1.7946 -0.9752  0.6122
 4061SOL     OW23641   0.180   3.668   6.310  0.5948  0.0597 -0.4180
 4061SOL    HW123642   0.103   3.711   6.273 -1.2343 -0.6922  2.5105
 4061SOL    HW223643   0.212   3.730   6.375  0.8410  1.3068 -1.7347
 4062SOL     OW23644   1.151   0.102  12.019  0.3945 -0.1886 -0.1536
 4062SOL    HW123645   1.191   0.177  11.976  0.3117  0.5660  1.0887
 4062SOL    HW223646   1.221   0.040  12.037  0.1217 -1.1315 -2.2715
 4063SOL     OW23647   0.147   1.018   4.607 -0.0699  0.9129  0.3475
 4063SOL    HW123648   0.233   0.988   4.634 -0.6441 -0.5895  0.5024
 4063SOL    HW223649   0.140   1.008   4.512 -1.5297  0.1916  0.5271
 4064SOL     OW23650   0.898   1.408   9.077  0.0251  0.4946 -0.3623
 4064SOL    HW123651   0.879   1.356   9.155  1.0411 -2.3906 -2.0565
 4064SOL    HW223652   0.814   1.439   9.043 -0.2830 -0.2670 -0.3010
 4065SOL     OW23653   0.129   1.244  10.099 -0.5112  0.2324 -0.4113
 4065SOL    HW123654   0.191   1.213  10.165  0.6226  0.6587 -1.2857
 4065SOL    HW223655   0.175   1.320  10.064  1.0218 -0.5081 -0.0038
 4066SOL     OW23656   1.556   4.294  15.645 -0.0601 -0.2278 -0.4147
 4066SOL    HW123657   1.555   4.308  15.740  0.0943 -1.2545 -0.2682
 4066SOL    HW223658   1.635   4.241  15.641  1.4959  1.9365  1.5964
 4067SOL     OW23659   2.458   2.963   2.833 -0.1820 -0.2507 -0.0918
 4067SOL    HW123660   2.370   2.975   2.797  0.1971  0.8003 -0.6633
 4067SOL    HW223661   2.451   2.974   2.928  1.1027 -0.6488  0.0493
 4068SOL     OW23662   4.038   3.014   5.656  0.2095 -0.9404  0.0234
 4068SOL    HW123663   4.069   3.038   5.569  0.5252 -0.0474  0.3799
 4068SOL    HW223664   4.102   2.943   5.668  0.4155 -1.0008 -1.4235
 4069SOL     OW23665   4.293   2.926   2.053  0.4138 -0.3866 -0.3045
 4069SOL    HW123666   4.244   2.855   2.011  0.2677 -0.3223 -0.2435
 4069SOL    HW223667   4.333   2.971   1.979  1.5065  0.1423  0.6049
 4070SOL     OW23668   3.744   0.740   3.804  0.2418  0.1341 -0.2886
 4070SOL    HW123669   3.720   0.734   3.896  0.0422  1.1403 -0.2826
 4070SOL    HW223670   3.790   0.657   3.792 -2.0835 -0.7233 -3.2373
 4071SOL     OW23671   2.437   3.859  17.069 -0.4207  0.3088  0.6589
 4071SOL    HW123672   2.393   3.884  17.150 -0.6650 -1.8239  1.1753
 4071SOL    HW223673   2.379   3.789  17.040  0.5544 -1.5822  3.2642
 4072SOL     OW23674   4.559   3.283   7.742  0.1497 -0.3327 -0.1597
 4072SOL    HW123675   4.550   3.311   7.834 -0.1286  0.0903 -0.3125
 4072SOL    HW223676   4.619   3.347   7.705  0.8374  0.3852  2.1617
 4073SOL     OW23677   0.899   0.181   5.547 -0.1816 -0.8224  0.6210
 4073SOL    HW123678   0.805   0.186   5.527  0.9090  3.1107 -3.3083
 4073SOL    HW223679   0.931   0.146   5.464  1.6974 -0.6945  1.2898
 4074SOL     OW23680   2.325   3.447  12.599 -0.0134  0.6729 -0.3689
 4074SOL    HW123681   2.413   3.444  12.563 -0.6423  2.8206 -2.0294
 4074SOL    HW223682   2.350   3.422  12.688 -0.4821  0.6670 -0.2339
 4075SOL     OW23683   1.657   1.084   7.866  0.0891 -0.7526 -1.0294
 4075SOL    HW123684   1.714   1.058   7.794 -0.8101 -0.2874 -1.9069
 4075SOL    HW223685   1.714   1.100   7.941  2.3005 -0.1065 -2.8575
 4076SOL     OW23686   3.842   2.492   7.794  0.3990 -0.1341 -0.4563
 4076SOL    HW123687   3.924   2.539   7.779 -0.6483  1.6203 -0.7100
 4076SOL    HW223688   3.807   2.487   7.705 -2.1256 -2.9686  0.6792
 4077SOL     OW23689   1.365   2.403   6.051 -0.1127  0.5978  0.3716
 4077SOL    HW123690   1.326   2.374   5.969 -0.3065  0.2402  0.5902
 4077SOL    HW223691   1.330   2.346   6.120 -0.2668 -0.5838 -0.7004
 4078SOL     OW23692   3.149   1.451   5.646 -0.2429 -0.0713 -0.2626
 4078SOL    HW123693   3.098   1.396   5.706 -0.6274 -0.7522 -1.2071
 4078SOL    HW223694   3.223   1.471   5.703  1.5965 -1.9039 -2.0010
 4079SOL     OW23695   2.359   3.059  12.367  0.6654 -0.3618  0.8278
 4079SOL    HW123696   2.333   3.028  12.281 -1.3315  0.8169  1.0084
 4079SOL    HW223697   2.380   3.150  12.349 -0.9833 -0.0156  0.7192
 4080SOL     OW23698   2.294   1.638   6.194 -0.0493  0.5315  0.2667
 4080SOL    HW123699   2.236   1.706   6.159 -0.0987  0.4001  0.0932
 4080SOL    HW223700   2.246   1.558   6.175  0.0676  0.1641  1.4968
 4081SOL     OW23701   3.801   3.372   7.999 -0.6285  0.3630 -0.0919
 4081SOL    HW123702   3.788   3.465   7.979  2.1261  1.4364  3.0824
 4081SOL    HW223703   3.709   3.351   7.986 -0.2252 -1.6826  0.3576
 4082SOL     OW23704   0.989   1.691  13.596 -0.3915 -0.1180 -0.5357
 4082SOL    HW123705   1.020   1.775  13.562  0.5670  0.2775  1.3349
 4082SOL    HW223706   0.910   1.684  13.542  0.4512 -0.3421 -1.7420
 4083SOL     OW23707   1.334   2.848   4.697 -0.5780  0.0204 -0.2084
 4083SOL    HW123708   1.370   2.937   4.704  2.8813 -1.4843  0.8611
 4083SOL    HW223709   1.359   2.811   4.781  0.7902  0.6897 -0.3271
 4084SOL     OW23710   4.548   0.565   3.583 -0.0573  0.1108 -0.4322
 4084SOL    HW123711   4.538   0.550   3.677  0.4206 -1.1939 -0.5887
 4084SOL    HW223712   4.484   0.505   3.545 -1.0112  0.8375  0.0288
 4085SOL     OW23713   4.307   2.775   3.362  0.0714  0.4468  0.4588
 4085SOL    HW123714   4.361   2.705   3.327 -0.8385 -0.1038  0.1341
 4085SOL    HW223715   4.291   2.823   3.280  3.1985  2.0629  0.8034
 4086SOL     OW23716   0.114   2.829   6.520 -0.1412 -0.5984  0.3796
 4086SOL    HW123717   0.135   2.879   6.441  1.3268 -1.1806  0.4065
 4086SOL    HW223718   0.034   2.786   6.488  0.6105 -0.5429 -1.5554
 4087SOL     OW23719   0.947   0.077   7.423  0.1900  0.5837  0.1399
 4087SOL    HW123720   1.010   0.149   7.423 -0.7202  1.3864  1.9057
 4087SOL    HW223721   0.994   0.020   7.362  0.9089  0.5048  0.7577
 4088SOL     OW23722   2.534   1.083  12.879 -0.1592 -0.2744 -0.4282
 4088SOL    HW123723   2.607   1.144  12.890 -0.3425  0.0263 -0.8711
 4088SOL    HW223724   2.486   1.126  12.809  2.3651  3.2728  0.0470
 4089SOL     OW23725   1.669   4.113   9.125 -0.0634  0.3072  0.0164
 4089SOL    HW123726   1.734   4.110   9.196  0.4955  0.2451 -0.5009
 4089SOL    HW223727   1.676   4.027   9.084 -0.4121 -0.3806  1.3914
 4090SOL     OW23728   1.051   2.255   8.962  0.3564  0.6435 -0.3683
 4090SOL    HW123729   1.074   2.320   8.895  1.3761  0.3833 -0.2700
 4090SOL    HW223730   1.103   2.287   9.036  0.4614  0.5470 -0.4006
 4091SOL     OW23731   3.304   4.518   4.677  0.1100  0.1036  0.7491
 4091SOL    HW123732   3.274   4.545   4.764 -2.2000 -0.3732  0.0949
 4091SOL    HW223733   3.290   4.601   4.631 -2.3817 -0.0809  1.1788
 4092SOL     OW23734   3.720   3.214   7.199  0.1447  0.0473 -0.6541
 4092SOL    HW123735   3.769   3.259   7.267 -1.4932  0.2011  0.4339
 4092SOL    HW223736   3.782   3.217   7.127  1.0932 -1.9116  0.0740
 4093SOL     OW23737   1.320   0.282  11.898 -0.3676  0.1189  0.0462
 4093SOL    HW123738   1.299   0.362  11.947 -3.8869 -0.3098 -0.7741
 4093SOL    HW223739   1.412   0.294  11.874 -0.2956  0.1813  0.3512
 4094SOL     OW23740   1.713   3.378   7.947  0.1547  0.5141 -0.5654
 4094SOL    HW123741   1.645   3.386   8.013  0.6866  0.5927 -0.0295
 4094SOL    HW223742   1.788   3.372   8.005 -0.7409  0.8600  0.6208
 4095SOL     OW23743   4.384   1.251   8.242 -0.0205 -0.5737 -0.2421
 4095SOL    HW123744   4.317   1.227   8.306  0.9094 -1.4528  0.3913
 4095SOL    HW223745   4.349   1.208   8.163  2.9006  1.9341 -2.8985
 4096SOL     OW23746   0.413   1.313  15.108 -0.5068 -0.5175  0.6091
 4096SOL    HW123747   0.474   1.353  15.046 -0.4789  0.9734  1.5948
 4096SOL    HW223748   0.379   1.241  15.055 -1.7802  0.2518  0.3991
 4097SOL     OW23749   1.241   0.630  14.135  0.1472  0.2874 -0.0464
 4097SOL    HW123750   1.236   0.717  14.097  2.6889 -0.2557 -1.6436
 4097SOL    HW223751   1.197   0.575  14.070  1.5798  1.0232 -1.6310
 4098SOL     OW23752   2.125   3.219  12.491 -0.0841  0.0420 -0.5801
 4098SOL    HW123753   2.180   3.220  12.413 -0.6804 -0.1581 -1.0043
 4098SOL    HW223754   2.067   3.146  12.468 -0.6646  0.4252 -0.3272
 4099SOL     OW23755   2.714   2.831  13.158 -0.6020 -0.5706 -0.6294
 4099SOL    HW123756   2.656   2.767  13.116 -0.7662 -0.3776 -0.6994
 4099SOL    HW223757   2.707   2.908  13.102 -0.2920  1.6231  2.3969
 4100SOL     OW23758   1.495   3.036   4.924  0.0012 -0.0668  0.2168
 4100SOL    HW123759   1.541   2.999   4.849  0.5454 -1.2411  1.1333
 4100SOL    HW223760   1.557   3.032   4.997 -1.1625  1.3486  1.3031
 4101SOL     OW23761   0.864   1.734   4.666 -0.0878 -0.6080  0.6951
 4101SOL    HW123762   0.821   1.819   4.660  0.1205 -0.6490 -1.5052
 4101SOL    HW223763   0.902   1.742   4.578 -3.5146  0.9392 -0.6249
 4102SOL     OW23764   1.121   1.773   4.150 -0.0514 -0.3390 -0.1630
 4102SOL    HW123765   1.169   1.784   4.233  0.6801 -1.4185 -0.4503
 4102SOL    HW223766   1.187   1.820   4.099  1.0289  0.7776  2.2569
 4103SOL     OW23767   2.086   3.711  15.334 -0.2839  0.0637  0.4618
 4103SOL    HW123768   2.064   3.753  15.417 -0.9117 -1.7896  1.2376
 4103SOL    HW223769   2.103   3.781  15.272 -2.0495 -0.4682 -0.6092
 4104SOL     OW23770   0.110   2.627   7.899 -0.0824  0.0914 -0.1481
 4104SOL    HW123771   0.104   2.533   7.884  3.9151 -0.2405  0.3970
 4104SOL    HW223772   0.169   2.635   7.974 -0.5902 -1.6548  0.4197
 4105SOL     OW23773   1.283   1.133   7.214  0.6179 -0.2374 -0.0945
 4105SOL    HW123774   1.209   1.167   7.265  1.4317 -1.1477  1.6904
 4105SOL    HW223775   1.263   1.150   7.122 -0.7307 -1.0398  0.0463
 4106SOL     OW23776   2.200   2.069  13.293 -0.2005  0.1546 -0.8126
 4106SOL    HW123777   2.246   2.041  13.215 -1.1146 -0.9334 -0.9703
 4106SOL    HW223778   2.155   2.149  13.268 -0.0008  0.4568 -0.2058
 4107SOL     OW23779   2.360   1.646   5.578 -0.1832 -0.0909 -0.5449
 4107SOL    HW123780   2.438   1.698   5.600 -1.5981  1.9715 -0.4185
 4107SOL    HW223781   2.298   1.719   5.570 -1.9840 -1.5531  0.1306
 4108SOL     OW23782   4.207   1.907  11.006  0.5346  0.2179  0.0658
 4108SOL    HW123783   4.274   1.839  10.998  0.8960  0.9613 -3.0714
 4108SOL    HW223784   4.247   1.970  11.065 -1.4785  0.1623  1.5042
 4109SOL     OW23785   2.392   1.202   8.448 -0.4066  0.1310 -0.3466
 4109SOL    HW123786   2.486   1.189   8.455 -0.4927  0.7045  1.8634
 4109SOL    HW223787   2.368   1.119   8.408  0.4222  0.0212 -0.6193
 4110SOL     OW23788   3.084   1.349   9.490 -0.1971 -0.2363  0.3660
 4110SOL    HW123789   3.118   1.367   9.578  0.5994  1.1580 -0.2318
 4110SOL    HW223790   3.144   1.401   9.437  0.8689  1.2476  3.0155
 4111SOL     OW23791   4.359   3.442  12.504  0.2263 -0.2432 -0.4291
 4111SOL    HW123792   4.315   3.443  12.419 -1.7766  1.7212  0.6406
 4111SOL    HW223793   4.394   3.353  12.506 -1.3177 -0.8409  0.1964
 4112SOL     OW23794   3.229   1.098   2.680 -0.0528  0.0608  0.1523
 4112SOL    HW123795   3.301   1.160   2.664 -0.1540  0.4247  1.1274
 4112SOL    HW223796   3.170   1.143   2.739 -1.9951 -0.9244 -1.0507
 4113SOL     OW23797   2.099   3.196   5.969  0.3097 -0.4536  0.0182
 4113SOL    HW123798   2.127   3.238   5.888  2.5220 -0.6501  0.6734
 4113SOL    HW223799   2.146   3.249   6.034  0.9177 -2.0688  0.9049
 4114SOL     OW23800   2.872   1.460   4.378 -0.5975  0.1889 -0.1098
 4114SOL    HW123801   2.869   1.386   4.317 -1.1127  1.0262 -1.1096
 4114SOL    HW223802   2.935   1.511   4.328  1.2351 -0.8053  1.2074
 4115SOL     OW23803   4.367   3.377  11.514  0.2186  0.2949 -0.0577
 4115SOL    HW123804   4.371   3.286  11.482  0.1400 -0.3081  1.6627
 4115SOL    HW223805   4.453   3.382  11.555  1.6581  1.2547 -3.2415
 4116SOL     OW23806   2.661   1.435   9.695 -0.2225 -0.3563  0.0386
 4116SOL    HW123807   2.687   1.481   9.615  0.6891  0.1088  0.5903
 4116SOL    HW223808   2.687   1.346   9.670 -0.0825 -0.7786  1.6617
 4117SOL     OW23809   2.354   3.710   2.310  0.1921 -0.1016  0.2865
 4117SOL    HW123810   2.437   3.757   2.318  0.5273 -0.7551  0.6238
 4117SOL    HW223811   2.359   3.713   2.214 -0.4810 -0.2701  0.2424
 4118SOL     OW23812   4.228   0.844  10.474 -0.1431 -0.3100  0.1141
 4118SOL    HW123813   4.308   0.888  10.503 -0.2451 -0.9783  1.4216
 4118SOL    HW223814   4.185   0.921  10.438  0.0625  0.5755  1.7661
 4119SOL     OW23815   2.185   1.389   8.470  0.1332  0.0329 -0.1238
 4119SOL    HW123816   2.253   1.324   8.457  3.2842  3.6909 -1.8476
 4119SOL    HW223817   2.233   1.471   8.477  0.9912 -0.4926  0.0544
 4120SOL     OW23818   3.727   0.147  17.189  0.2839 -0.1735 -0.0322
 4120SOL    HW123819   3.749   0.114  17.102 -0.7839 -0.3790 -0.2250
 4120SOL    HW223820   3.635   0.174  17.186  0.7041  1.4304  0.9965
 4121SOL     OW23821   0.470   1.124   7.504 -0.3208  0.0647 -0.0623
 4121SOL    HW123822   0.394   1.075   7.474 -0.5125  1.1192 -1.3068
 4121SOL    HW223823   0.511   1.130   7.418 -0.1707 -1.7738 -0.1099
 4122SOL     OW23824   3.671   4.296  14.687 -0.2647 -0.3450 -0.3288
 4122SOL    HW123825   3.736   4.345  14.637  0.3434 -0.7468  0.0655
 4122SOL    HW223826   3.647   4.363  14.751 -2.2951 -0.0087 -1.4449
 4123SOL     OW23827   0.214   4.525   2.034 -0.1553 -0.2422  0.8055
 4123SOL    HW123828   0.254   4.560   2.114  0.3468  1.7450 -0.3336
 4123SOL    HW223829   0.260   4.442   2.020  1.0488  0.3798  1.1088
 4124SOL     OW23830   1.347   1.689   7.210  0.1744 -0.2182  0.1066
 4124SOL    HW123831   1.387   1.711   7.294 -0.5491  1.5961 -0.0466
 4124SOL    HW223832   1.261   1.716   7.240 -0.2098  0.1435 -1.3182
 4125SOL     OW23833   1.511   1.906   7.666 -0.4801 -0.0220  1.0219
 4125SOL    HW123834   1.575   1.970   7.634  0.5415 -1.0488  1.0104
 4125SOL    HW223835   1.556   1.822   7.670 -0.4201 -0.0342  0.0531
 4126SOL     OW23836   1.124   1.957   7.070  0.7352 -0.0920  0.3448
 4126SOL    HW123837   1.154   1.923   6.985  2.0050 -2.9665  1.9597
 4126SOL    HW223838   1.128   1.876   7.119 -2.8185 -0.5928 -0.1665
 4127SOL     OW23839   0.634   3.038   0.518  0.4182  0.3965 -0.0199
 4127SOL    HW123840   0.664   2.990   0.595 -0.0745 -1.3283 -0.8982
 4127SOL    HW223841   0.669   3.123   0.543  0.7467  0.5167 -0.8840
 4128SOL     OW23842   0.229   3.739   5.308 -0.1737  0.1088 -0.4254
 4128SOL    HW123843   0.229   3.673   5.377 -0.7261 -1.4690 -1.9484
 4128SOL    HW223844   0.234   3.824   5.351 -1.3719 -0.7566  1.3975
 4129SOL     OW23845   2.448   2.482   2.693  0.0545 -0.1128 -0.0787
 4129SOL    HW123846   2.465   2.530   2.774  1.2569  2.1904 -1.6786
 4129SOL    HW223847   2.429   2.398   2.733 -0.4295 -0.5536 -1.2151
 4130SOL     OW23848   3.034   3.802  16.801  0.0869  0.2665  0.9354
 4130SOL    HW123849   3.124   3.834  16.796 -0.3702  1.4755  0.3880
 4130SOL    HW223850   3.046   3.708  16.810  0.5583  0.7114  5.2746
 4131SOL     OW23851   3.701   4.550   2.245 -0.0896 -0.6240 -0.1581
 4131SOL    HW123852   3.643   4.621   2.272  0.3977 -0.9310  1.6608
 4131SOL    HW223853   3.663   4.498   2.174 -1.3848  1.8021 -1.2674
 4132SOL     OW23854   1.330   1.286   6.488 -0.2124  0.7147 -0.1913
 4132SOL    HW123855   1.377   1.225   6.431  1.6786  1.9556  0.0675
 4132SOL    HW223856   1.391   1.359   6.495 -0.0875  0.5345  0.5672
 4133SOL     OW23857   3.937   2.632  10.106  0.4270  0.3603  0.1046
 4133SOL    HW123858   3.967   2.547  10.073 -2.7263 -0.6898 -0.0748
 4133SOL    HW223859   3.930   2.624  10.201 -3.6420 -1.9708 -0.3725
 4134SOL     OW23860   0.893   0.490   1.814  0.2076 -0.6134 -0.4140
 4134SOL    HW123861   0.967   0.432   1.827  0.5529  0.0272  0.4567
 4134SOL    HW223862   0.935   0.576   1.807  0.0746 -0.3964  1.7031
 4135SOL     OW23863   1.253   3.711   2.978  0.2983  0.2450  0.2706
 4135SOL    HW123864   1.313   3.666   3.037  1.4519 -0.8850 -1.7836
 4135SOL    HW223865   1.185   3.717   3.044  0.9369  0.5192  0.9076
 4136SOL     OW23866   2.396   2.710   7.757 -0.2795  0.0879  0.4446
 4136SOL    HW123867   2.456   2.770   7.713  0.3701 -0.3043  0.7855
 4136SOL    HW223868   2.408   2.728   7.850 -1.2897  1.9380  0.2059
 4137SOL     OW23869   3.463   2.027   5.905 -0.4187  0.2101 -0.0211
 4137SOL    HW123870   3.386   1.972   5.889 -0.4025  0.6827 -1.7666
 4137SOL    HW223871   3.427   2.116   5.911  1.4412  1.0067 -0.6661
 4138SOL     OW23872   2.307   3.833   7.558  0.4391 -0.0335  0.5909
 4138SOL    HW123873   2.235   3.884   7.596  0.7655  0.4663  0.5347
 4138SOL    HW223874   2.270   3.810   7.473  0.8424  2.0431 -0.1498
 4139SOL     OW23875   1.754   3.912  11.632  0.1073 -0.7074 -0.2989
 4139SOL    HW123876   1.797   3.972  11.693  0.6461 -1.1309 -0.2575
 4139SOL    HW223877   1.754   3.829  11.680 -0.3266  0.0523  0.9784
 4140SOL     OW23878   2.172   1.713   5.827  0.3216 -0.2850  0.9234
 4140SOL    HW123879   2.141   1.775   5.893 -0.6231 -0.7291  0.8996
 4140SOL    HW223880   2.261   1.704   5.861  1.0093 -1.5285 -1.2454
 4141SOL     OW23881   0.186   4.276   6.508 -0.4791 -0.5733 -0.1144
 4141SOL    HW123882   0.202   4.369   6.525  1.2306 -0.8120 -0.4892
 4141SOL    HW223883   0.255   4.259   6.444  0.3864  0.0049  0.6689
 4142SOL     OW23884   2.730   4.208   8.506  0.5707 -0.2538 -0.6588
 4142SOL    HW123885   2.745   4.170   8.420 -0.0423 -1.3311 -0.2916
 4142SOL    HW223886   2.687   4.288   8.478  0.3870 -0.2777 -0.4406
 4143SOL     OW23887   0.881   2.426   0.368  0.3318  0.6192  0.4649
 4143SOL    HW123888   0.817   2.491   0.339  1.7793  1.4900 -0.7815
 4143SOL    HW223889   0.830   2.372   0.429  0.6791 -1.1009 -0.7819
 4144SOL     OW23890   1.920   1.975   5.706  0.3195 -0.0607  0.1549
 4144SOL    HW123891   1.825   1.964   5.699  0.3879  2.2585 -4.7323
 4144SOL    HW223892   1.953   1.894   5.666 -0.2773  0.8271 -2.1544
 4145SOL     OW23893   0.250   0.016   8.423  0.4569  0.5718  0.3501
 4145SOL    HW123894   0.241   0.063   8.506  0.6658  1.1329  0.0519
 4145SOL    HW223895   0.340   4.714   8.446  0.3525 -0.3987 -0.3433
 4146SOL     OW23896   2.223   2.967   4.403 -0.1193  0.0318 -0.1650
 4146SOL    HW123897   2.229   3.062   4.415 -2.1903  0.1325  0.1921
 4146SOL    HW223898   2.307   2.944   4.364 -0.6865 -0.3631 -1.1607
 4147SOL     OW23899   3.066   4.235  13.636  0.1001  0.2847  0.7483
 4147SOL    HW123900   3.009   4.254  13.710  1.7997  0.5916  1.9927
 4147SOL    HW223901   3.142   4.287  13.664  1.2066 -1.1722  0.4607
 4148SOL     OW23902   0.205   1.524  14.909 -0.7716  0.8597  0.2089
 4148SOL    HW123903   0.217   1.484  14.823 -1.2296  0.4788  0.3186
 4148SOL    HW223904   0.113   1.507  14.931 -0.3312  0.5271  1.7990
 4149SOL     OW23905   3.175   4.079  10.629 -1.0124  0.3105  0.3524
 4149SOL    HW123906   3.158   4.153  10.687  3.1068  3.2939 -2.3393
 4149SOL    HW223907   3.088   4.078  10.589 -0.5355 -1.0936 -0.6508
 4150SOL     OW23908   0.448   2.232   7.732  0.1803  0.3187  0.5091
 4150SOL    HW123909   0.510   2.286   7.683 -0.9705  2.0066  0.9439
 4150SOL    HW223910   0.506   2.156   7.744 -0.1738 -0.0068  0.1319
 4151SOL     OW23911   3.973   3.714   2.785 -0.0771 -0.5784  0.5865
 4151SOL    HW123912   4.033   3.696   2.858 -0.3962  2.1412  1.5271
 4151SOL    HW223913   3.941   3.626   2.766 -0.4796 -0.5776  1.2677
 4152SOL     OW23914   4.202   1.488   3.612  0.0038 -0.4703 -1.1107
 4152SOL    HW123915   4.191   1.574   3.654  1.9963 -0.8488  0.2073
 4152SOL    HW223916   4.233   1.513   3.525  1.1913 -1.3857 -0.9555
 4153SOL     OW23917   1.788   0.555   6.139  0.0864 -0.3238 -0.3495
 4153SOL    HW123918   1.877   0.572   6.167 -0.1887  0.6692 -0.0968
 4153SOL    HW223919   1.773   0.641   6.101 -1.4014 -0.3819  0.0853
 4154SOL     OW23920   2.908   1.849   8.458 -0.2060  0.1363  0.3741
 4154SOL    HW123921   3.002   1.848   8.475 -0.5280  1.1622  2.2097
 4154SOL    HW223922   2.891   1.932   8.503 -0.3294 -0.1534  0.8647
 4155SOL     OW23923   4.481   4.636   7.251  0.4678  0.4888  0.0059
 4155SOL    HW123924   4.520   4.712   7.208  1.5935 -0.7380 -1.1901
 4155SOL    HW223925   4.443   4.681   7.326  1.5092  1.0119  0.2216
 4156SOL     OW23926   2.965   0.246   2.584  0.8297 -0.7310 -0.1053
 4156SOL    HW123927   2.990   0.191   2.510 -2.3378 -1.2914 -0.7314
 4156SOL    HW223928   2.887   0.287   2.548  2.3255  1.7527 -0.5798
 4157SOL     OW23929   2.055   0.811  10.504  0.0549  0.3036  0.0156
 4157SOL    HW123930   2.079   0.772  10.588  0.0625  0.8773  0.2811
 4157SOL    HW223931   1.959   0.813  10.503 -0.0093 -1.6076  2.0151
 4158SOL     OW23932   3.981   2.344   1.494  0.5091 -0.0632 -0.2704
 4158SOL    HW123933   3.950   2.254   1.487  3.1592 -0.9831  0.0471
 4158SOL    HW223934   4.073   2.339   1.467  0.4349 -1.4216 -0.2446
 4159SOL     OW23935   2.555   1.446   7.845  0.5443 -0.3444 -0.0018
 4159SOL    HW123936   2.576   1.411   7.759 -1.5101 -1.0630 -0.1926
 4159SOL    HW223937   2.544   1.368   7.899  1.6009  0.0080  0.7447
 4160SOL     OW23938   0.977   3.311   8.048  0.1914 -0.5073 -0.4147
 4160SOL    HW123939   0.908   3.378   8.049  0.9512  0.2739  0.1028
 4160SOL    HW223940   0.977   3.288   7.956 -1.4482  0.3259 -0.6267
 4161SOL     OW23941   2.860   3.134   7.062  0.2956  0.1628 -0.3140
 4161SOL    HW123942   2.764   3.125   7.067  0.3497  1.1736  2.5789
 4161SOL    HW223943   2.860   3.148   6.968 -0.4590 -1.0161 -0.4944
 4162SOL     OW23944   1.225   1.044   5.991  0.1961  0.3289  0.5628
 4162SOL    HW123945   1.162   1.107   5.957  0.7398 -0.7167 -2.3909
 4162SOL    HW223946   1.292   1.032   5.923 -0.3319  1.8464 -0.2111
 4163SOL     OW23947   0.273   0.645   2.605 -0.5541  0.2970 -0.6921
 4163SOL    HW123948   0.341   0.650   2.538 -0.0434 -3.2666 -0.4296
 4163SOL    HW223949   0.316   0.587   2.667  0.9741  0.5863 -1.4947
 4164SOL     OW23950   2.346   2.635   6.991  0.0260 -0.1780 -0.1764
 4164SOL    HW123951   2.254   2.631   6.964  0.0152  1.4839 -0.3579
 4164SOL    HW223952   2.395   2.570   6.940  0.3768 -0.4891  0.5541
 4165SOL     OW23953   1.054   4.256   3.848 -0.4049 -0.1886 -0.2093
 4165SOL    HW123954   1.131   4.199   3.837 -0.1393 -0.2433  2.0760
 4165SOL    HW223955   1.029   4.218   3.932 -2.6533  1.4137 -0.1695
 4166SOL     OW23956   1.551   1.826   9.720  0.5143  0.1381 -0.0541
 4166SOL    HW123957   1.465   1.858   9.693  0.2192  0.7609  1.6423
 4166SOL    HW223958   1.516   1.765   9.785  0.1969  0.3522 -0.0284
 4167SOL     OW23959   3.427   3.452   1.056 -0.2741 -0.4666 -0.0365
 4167SOL    HW123960   3.399   3.504   0.981  0.9082 -1.1951 -0.9747
 4167SOL    HW223961   3.514   3.490   1.070  1.1518 -3.6383 -0.3646
 4168SOL     OW23962   0.331   1.191   8.665  0.2349  0.0249  0.0306
 4168SOL    HW123963   0.326   1.192   8.570 -1.1417 -0.4703  0.0966
 4168SOL    HW223964   0.326   1.099   8.690 -0.1870 -0.0172 -0.2106
 4169SOL     OW23965   0.747   4.543  15.258  0.1130  0.0775  0.3350
 4169SOL    HW123966   0.825   4.501  15.223 -1.0360 -2.1983  0.5138
 4169SOL    HW223967   0.696   4.478  15.307 -1.4162  1.4349  0.5708
 4170SOL     OW23968   0.588   3.326   6.968 -0.4086 -0.4863 -0.0808
 4170SOL    HW123969   0.627   3.242   6.942  2.1681 -0.4790  3.7671
 4170SOL    HW223970   0.544   3.292   7.046 -3.4023  1.3602 -0.9533
 4171SOL     OW23971   2.451   3.066   7.377  0.6794 -0.2244 -0.1370
 4171SOL    HW123972   2.457   3.071   7.473 -5.2840 -0.0306  0.1871
 4171SOL    HW223973   2.387   3.136   7.368  1.4314  0.2430 -1.8612
 4172SOL     OW23974   2.397   2.294   2.476  0.2822 -0.3115 -0.5319
 4172SOL    HW123975   2.441   2.332   2.401  2.1175 -1.2434  0.0785
 4172SOL    HW223976   2.469   2.283   2.538 -1.6410  0.5666  1.8477
 4173SOL     OW23977   0.076   3.484   2.526 -0.0488 -0.0376  0.3289
 4173SOL    HW123978   0.075   3.456   2.435 -2.1809  0.8059  0.0978
 4173SOL    HW223979   4.709   3.507   2.548  0.8003  2.1958  1.5256
 4174SOL     OW23980   1.346   4.309  15.448  0.4831  0.6960 -0.0912
 4174SOL    HW123981   1.415   4.316  15.513  1.6151  0.8347 -1.2973
 4174SOL    HW223982   1.363   4.371  15.377  0.8596  0.3876 -0.2702
 4175SOL     OW23983   2.670   2.282   2.628 -0.5651  0.2910 -0.1539
 4175SOL    HW123984   2.694   2.287   2.721 -0.8489  2.6390 -0.1975
 4175SOL    HW223985   2.725   2.352   2.592 -1.0584  1.0125  0.4945
 4176SOL     OW23986   2.186   3.806   5.230 -0.3798 -0.1917 -0.2179
 4176SOL    HW123987   2.114   3.866   5.247  1.1220  1.9364 -1.4322
 4176SOL    HW223988   2.145   3.719   5.230 -1.2886  0.2310  0.5821
 4177SOL     OW23989   2.613   3.971  17.624  0.2759  0.3417  0.5474
 4177SOL    HW123990   2.575   3.891  17.661  0.4524 -0.2573 -0.5626
 4177SOL    HW223991   2.692   3.939  17.581  0.3953  1.5670 -0.1462
 4178SOL     OW23992   1.082   1.826  15.325  0.2267 -0.4213 -0.2344
 4178SOL    HW123993   1.046   1.750  15.370 -1.7521 -0.5868 -2.0931
 4178SOL    HW223994   1.100   1.882  15.400 -0.4000  0.1702 -0.5265
 4179SOL     OW23995   2.025   0.163   1.235 -0.1932 -0.3568  0.0765
 4179SOL    HW123996   1.973   0.243   1.224 -0.7535 -1.0026 -1.8976
 4179SOL    HW223997   1.982   0.108   1.170 -2.1867 -0.7982  1.7565
 4180SOL     OW23998   2.049   0.761   2.110 -0.1342  0.0363 -0.1134
 4180SOL    HW123999   2.071   0.825   2.041 -2.0938 -0.7304 -1.4553
 4180SOL    HW224000   2.080   0.684   2.063  0.1897  0.8434 -1.2345
 4181SOL     OW24001   4.643   0.102  17.618 -0.0801 -0.9754 -0.5977
 4181SOL    HW124002   4.622   0.181  17.667  0.5909 -0.2647 -1.4639
 4181SOL    HW224003   4.596   0.037  17.670 -1.1223  0.1537 -0.1285
 4182SOL     OW24004   3.832   1.768   7.468  0.0125  0.2024  0.7218
 4182SOL    HW124005   3.865   1.678   7.469  2.7016  1.1937  0.1519
 4182SOL    HW224006   3.849   1.792   7.559  1.5979 -0.6149  0.6380
 4183SOL     OW24007   2.402   1.027   4.908 -0.6591 -0.1403  0.0576
 4183SOL    HW124008   2.455   1.106   4.897  0.0418 -0.6258 -0.0408
 4183SOL    HW224009   2.373   1.032   4.999 -0.3617  4.0548 -0.0426
 4184SOL     OW24010   2.480   2.276  16.760 -0.1134  0.7690 -0.1721
 4184SOL    HW124011   2.475   2.276  16.856  0.8602  0.0181 -0.1262
 4184SOL    HW224012   2.461   2.182  16.753  1.1263  0.7500 -3.0709
 4185SOL     OW24013   4.674   0.407   3.284 -0.2147 -0.1507 -0.5241
 4185SOL    HW124014   0.046   0.410   3.275 -0.3344  1.6169 -1.0725
 4185SOL    HW224015   4.646   0.444   3.201 -0.5822  0.9980  0.1169
 4186SOL     OW24016   1.556   3.065   6.599  0.0832  0.5118  0.0732
 4186SOL    HW124017   1.555   2.989   6.657  0.1312 -0.2570 -0.9375
 4186SOL    HW224018   1.478   3.050   6.545 -0.0024 -0.0038  0.3467
 4187SOL     OW24019   2.823   0.147   1.539  0.0997 -0.5664  0.2862
 4187SOL    HW124020   2.774   0.212   1.588  3.3112  2.0548  0.0242
 4187SOL    HW224021   2.903   0.197   1.522 -0.6759  0.1920 -1.1912
 4188SOL     OW24022   0.720   2.478   3.662 -0.6158 -0.2879 -0.3607
 4188SOL    HW124023   0.655   2.409   3.672 -0.1254 -0.7153 -0.0913
 4188SOL    HW224024   0.672   2.554   3.694  0.8862  1.5890 -2.5890
 4189SOL     OW24025   2.020   0.533  17.336  0.2418 -0.0885  0.6403
 4189SOL    HW124026   2.019   0.562  17.427 -0.0981  1.7242  0.0537
 4189SOL    HW224027   1.957   0.461  17.349  0.4313 -0.0419  1.8302
 4190SOL     OW24028   1.203   1.525  17.197 -0.2243  0.0059  0.4221
 4190SOL    HW124029   1.195   1.453  17.134  1.4838  0.3782 -0.2225
 4190SOL    HW224030   1.123   1.514  17.249  0.4670 -1.4479  1.2089
 4191SOL     OW24031   1.451   4.047   6.409  0.3378 -0.6809  0.2150
 4191SOL    HW124032   1.358   4.033   6.424 -0.3001  1.8223 -1.3546
 4191SOL    HW224033   1.476   4.076   6.497 -1.0520  0.1980  0.3110
 4192SOL     OW24034   0.380   1.470   6.740  0.8791  0.0273 -0.8826
 4192SOL    HW124035   0.389   1.554   6.696  1.0863  0.7809  0.6263
 4192SOL    HW224036   0.440   1.412   6.693  0.1918  0.0556 -1.7909
 4193SOL     OW24037   3.384   4.706  17.147  0.5982  0.3485 -0.1701
 4193SOL    HW124038   3.289   4.701  17.151  0.7738 -1.5291  1.6052
 4193SOL    HW224039   3.398   4.719  17.053 -0.6417 -1.4696 -0.6129
 4194SOL     OW24040   0.821   4.317   3.661  0.1021  1.0298  0.8982
 4194SOL    HW124041   0.818   4.413   3.662  1.5057  1.0727  1.3716
 4194SOL    HW224042   0.911   4.299   3.686  0.9418  1.2364 -1.9722
 4195SOL     OW24043   2.938   0.920  15.301  0.2766  0.0854  0.1676
 4195SOL    HW124044   3.027   0.889  15.286  1.3806  1.6565  3.5032
 4195SOL    HW224045   2.919   0.898  15.392  0.9823 -1.6810 -0.1145
 4196SOL     OW24046   0.446   3.024   6.875 -0.1407 -0.3043 -0.2923
 4196SOL    HW124047   0.424   3.023   6.968 -0.6695 -1.6624 -0.4347
 4196SOL    HW224048   0.386   3.089   6.839  1.3541  1.2149 -0.0673
 4197SOL     OW24049   1.033   0.343   5.958 -0.0016 -0.3873  0.2599
 4197SOL    HW124050   1.055   0.270   5.901  1.5532  2.1691 -2.4423
 4197SOL    HW224051   0.969   0.391   5.904 -1.1896 -3.5699 -1.1230
 4198SOL     OW24052   2.085   2.368   9.100 -0.5913 -0.2539  0.5510
 4198SOL    HW124053   2.100   2.433   9.168  1.6208 -2.0536  1.7624
 4198SOL    HW224054   2.079   2.292   9.158  0.7384 -0.4016  0.4854
 4199SOL     OW24055   1.769   4.072  11.407  0.1897  0.5809  0.8136
 4199SOL    HW124056   1.777   4.028  11.492 -0.8566 -2.0227 -0.4293
 4199SOL    HW224057   1.860   4.086  11.382  0.4229 -0.3133  1.1616
 4200SOL     OW24058   4.024   0.647   8.286  0.1014  0.4938  0.2865
 4200SOL    HW124059   4.009   0.593   8.364  1.0269 -0.1899 -0.0155
 4200SOL    HW224060   3.933   0.678   8.279  0.1721  0.2386 -1.7116
 4201SOL     OW24061   2.674   0.974   3.473 -0.0961 -0.5924  0.6791
 4201SOL    HW124062   2.664   0.881   3.494  0.3662 -1.1853 -1.7392
 4201SOL    HW224063   2.664   0.966   3.378 -0.9980 -0.4355  0.7626
 4202SOL     OW24064   2.461   1.122   3.135  0.3246  0.8017  0.2830
 4202SOL    HW124065   2.429   1.097   3.222 -1.1284  0.6764 -0.3037
 4202SOL    HW224066   2.390   1.181   3.110  1.1848  0.5841 -2.6077
 4203SOL     OW24067   4.029   3.308  17.588 -0.2432 -0.6847  0.1770
 4203SOL    HW124068   4.060   3.221  17.612 -2.3338 -1.4169  0.2104
 4203SOL    HW224069   3.937   3.286  17.573 -0.2347 -0.2773 -0.4499
 4204SOL     OW24070   3.879   3.692   5.234 -0.0528  0.2628 -0.5934
 4204SOL    HW124071   3.857   3.780   5.262 -2.2735 -0.5645  0.2134
 4204SOL    HW224072   3.831   3.640   5.298 -0.5452  1.1002 -0.2877
 4205SOL     OW24073   2.104   1.877   5.330  0.1034 -0.7071 -0.3440
 4205SOL    HW124074   2.199   1.865   5.320 -0.0088 -1.1485 -0.8755
 4205SOL    HW224075   2.092   1.820   5.406  0.8657  0.0596  0.3566
 4206SOL     OW24076   3.587   2.353   5.341 -0.2443  0.0306 -0.1284
 4206SOL    HW124077   3.591   2.265   5.378 -0.7337  0.4069  0.8055
 4206SOL    HW224078   3.498   2.385   5.349 -1.3185 -2.0692 -3.7514
 4207SOL     OW24079   4.086   3.473  15.483  0.0614  0.1731  0.0801
 4207SOL    HW124080   4.049   3.555  15.451  1.1259  0.2724 -0.8747
 4207SOL    HW224081   4.096   3.417  15.406  1.3520  0.1784  0.2480
 4208SOL     OW24082   2.684   1.651   7.540 -0.4170  0.4686 -0.0629
 4208SOL    HW124083   2.701   1.697   7.458 -0.6474 -0.1270 -0.4387
 4208SOL    HW224084   2.755   1.587   7.542 -0.4074  0.5011  0.6522
 4209SOL     OW24085   3.624   4.587   5.860 -0.3018  0.8495 -0.5493
 4209SOL    HW124086   3.646   4.637   5.938 -0.0076 -1.9718  1.1791
 4209SOL    HW224087   3.598   4.659   5.802 -0.0270  1.2391 -0.1911
 4210SOL     OW24088   2.032   1.618   0.639 -0.4853  0.0375  0.3826
 4210SOL    HW124089   1.959   1.604   0.579 -1.0564  0.6989  0.9336
 4210SOL    HW224090   1.974   1.634   0.713 -0.1246 -1.8631  1.0670
 4211SOL     OW24091   1.928   3.178   3.358  0.1053 -0.3628 -0.2471
 4211SOL    HW124092   1.943   3.203   3.267 -0.3145 -0.7702 -0.4272
 4211SOL    HW224093   2.007   3.211   3.401 -0.9285  2.0144 -0.1741
 4212SOL     OW24094   0.926   3.974   3.172  0.0345  0.1765  0.4666
 4212SOL    HW124095   0.934   3.898   3.229  0.0247  0.3169  0.6557
 4212SOL    HW224096   0.991   4.033   3.209  1.6991 -1.9216  0.8783
 4213SOL     OW24097   2.672   2.851   5.493 -0.2638 -0.0680  0.0093
 4213SOL    HW124098   2.669   2.800   5.412  0.9538  0.5041 -0.4033
 4213SOL    HW224099   2.760   2.889   5.485  0.8857 -2.6826  0.3465
 4214SOL     OW24100   1.390   3.571   1.352  0.4100  0.9877 -0.1326
 4214SOL    HW124101   1.384   3.482   1.386  0.3199  1.1996  0.4050
 4214SOL    HW224102   1.483   3.565   1.330  0.4698 -0.0916  0.4176
 4215SOL     OW24103   2.886   0.310   5.786  0.2174  0.0664  0.0602
 4215SOL    HW124104   2.954   0.259   5.830  1.4515  1.8355  0.1881
 4215SOL    HW224105   2.812   0.320   5.847  0.1071 -1.0947  0.1249
 4216SOL     OW24106   3.960   0.449   2.547  0.2360  0.1362  0.1315
 4216SOL    HW124107   3.995   0.414   2.465 -0.4886  0.3811 -0.2790
 4216SOL    HW224108   3.991   0.539   2.536  0.1324 -0.2370 -3.3103
 4217SOL     OW24109   0.164   1.225   6.774  0.1060  0.0430  0.1200
 4217SOL    HW124110   0.112   1.188   6.845 -0.9800  0.4549 -0.4665
 4217SOL    HW224111   0.102   1.288   6.736  1.5595  1.0442 -0.5985
 4218SOL     OW24112   3.234   3.362  14.664 -0.8958  0.6697 -0.5061
 4218SOL    HW124113   3.286   3.410  14.728  0.8880 -3.5448  1.2022
 4218SOL    HW224114   3.197   3.301  14.728  2.0271 -1.5515 -0.9187
 4219SOL     OW24115   2.709   3.721   9.387 -0.1775  0.3539 -0.1262
 4219SOL    HW124116   2.688   3.722   9.294  1.3715 -2.7559 -0.5155
 4219SOL    HW224117   2.718   3.815   9.404 -0.2288  0.0070  1.8830
 4220SOL     OW24118   2.220   3.222   7.296  0.0234 -0.3461  0.0536
 4220SOL    HW124119   2.161   3.178   7.357 -1.6543 -0.1474 -1.4402
 4220SOL    HW224120   2.219   3.160   7.224  1.7565 -1.0108  0.6077
 4221SOL     OW24121   2.195   1.246   4.412  0.7543  0.0889  0.5814
 4221SOL    HW124122   2.238   1.320   4.455 -1.5900  1.0273  1.3555
 4221SOL    HW224123   2.201   1.275   4.321 -0.3949  0.9347  0.7716
 4222SOL     OW24124   2.589   3.943   6.882  0.4659  0.3313  0.8067
 4222SOL    HW124125   2.507   3.905   6.852  0.8986  0.2392 -0.2434
 4222SOL    HW224126   2.558   3.991   6.959 -0.5543 -0.4550  0.8821
 4223SOL     OW24127   2.602   2.146  17.487  0.3462  0.4267  0.3787
 4223SOL    HW124128   2.510   2.120  17.479  0.4639  0.0321  0.3018
 4223SOL    HW224129   2.644   2.065  17.517 -0.5106  0.7866  2.5259
 4224SOL     OW24130   0.107   0.723   8.320 -0.2712 -0.7189  0.2179
 4224SOL    HW124131   0.142   0.634   8.314  1.4554 -0.2857  3.8081
 4224SOL    HW224132   0.196   0.758   8.324 -0.7419  0.8833 -3.2868
 4225SOL     OW24133   0.020   1.887  17.000  0.2694  0.0744  0.2030
 4225SOL    HW124134   0.046   1.816  16.941 -1.7181 -0.8209  0.3874
 4225SOL    HW224135   4.674   1.929  16.949  0.7724 -2.0941 -2.2506
 4226SOL     OW24136   1.269   0.199   9.832 -0.9277 -0.1951  0.2555
 4226SOL    HW124137   1.216   0.211   9.911 -3.6020 -1.9335 -1.2731
 4226SOL    HW224138   1.211   0.236   9.765 -0.8274 -1.6571 -0.6394
 4227SOL     OW24139   1.493   0.611   8.268  0.4998 -0.2000 -0.2788
 4227SOL    HW124140   1.455   0.650   8.189  0.2579 -0.6159 -0.3737
 4227SOL    HW224141   1.425   0.624   8.334  0.3694 -1.5211 -0.1391
 4228SOL     OW24142   3.535   1.810   8.639 -0.6701 -0.3295 -0.4645
 4228SOL    HW124143   3.531   1.775   8.550  0.1326  3.5138 -2.0422
 4228SOL    HW224144   3.478   1.755   8.692 -0.7313  0.1980  0.0206
 4229SOL     OW24145   1.530   2.849   3.951  0.0941  0.2903 -0.5598
 4229SOL    HW124146   1.491   2.827   4.035 -0.9329  0.5348 -0.9689
 4229SOL    HW224147   1.613   2.802   3.950  0.6245  1.2146 -0.0410
 4230SOL     OW24148   2.556   1.954   9.174  0.2151 -0.2642 -0.2786
 4230SOL    HW124149   2.651   1.954   9.182  0.2240  0.6495 -0.3550
 4230SOL    HW224150   2.537   1.891   9.243  0.2244  0.7535  0.6640
 4231SOL     OW24151   1.123   3.693  13.540 -0.4270 -0.2834  0.2521
 4231SOL    HW124152   1.060   3.622  13.550 -0.9862  0.2367  0.4636
 4231SOL    HW224153   1.075   3.749  13.479 -1.7530 -0.1632  1.4099
 4232SOL     OW24154   1.966   1.963   6.958 -0.5198  0.6098  0.1547
 4232SOL    HW124155   2.049   2.002   6.986 -0.4225  0.6314 -0.1623
 4232SOL    HW224156   1.923   2.039   6.917  1.8209  1.9354  0.1531
 4233SOL     OW24157   3.507   1.600  15.443  0.1782  0.1191 -0.3120
 4233SOL    HW124158   3.420   1.600  15.484  1.3295  1.0999  2.1205
 4233SOL    HW224159   3.558   1.672  15.480 -1.8257  1.1556  0.4530
 4234SOL     OW24160   4.228   2.142  16.613 -0.1488 -0.1030 -0.0184
 4234SOL    HW124161   4.307   2.089  16.605 -0.6930 -0.9381  0.2002
 4234SOL    HW224162   4.250   2.215  16.555 -0.7050  0.0308 -0.0531
 4235SOL     OW24163   1.349   2.706   5.865 -0.7046 -0.2374 -0.7428
 4235SOL    HW124164   1.348   2.610   5.865  0.5543 -0.2563 -1.7454
 4235SOL    HW224165   1.402   2.716   5.944 -0.0118  1.4103 -1.3958
 4236SOL     OW24166   3.834   3.746   8.494 -0.3948 -0.1795 -0.0846
 4236SOL    HW124167   3.865   3.690   8.423 -0.7601 -0.6764  0.1481
 4236SOL    HW224168   3.788   3.685   8.551  1.6569  0.6734  2.4734
 4237SOL     OW24169   0.599   2.933   8.828  0.0123  0.7518  0.1397
 4237SOL    HW124170   0.511   2.955   8.859  0.0017  1.6490 -0.5234
 4237SOL    HW224171   0.648   3.007   8.862 -2.2145  1.3766  2.0325
 4238SOL     OW24172   2.802   3.932   7.927 -0.2865 -0.2909  0.1260
 4238SOL    HW124173   2.861   3.927   7.852 -1.5198 -0.3721 -0.8383
 4238SOL    HW224174   2.722   3.952   7.878 -0.0998 -0.0624 -0.0824
 4239SOL     OW24175   0.809   1.058   3.099 -0.2826 -0.5496  0.2824
 4239SOL    HW124176   0.775   1.146   3.081 -0.4870 -0.8908 -1.0742
 4239SOL    HW224177   0.849   1.076   3.184 -0.2203  2.7249 -0.4195
 4240SOL     OW24178   4.207   0.678   3.920  0.3869  0.1049  0.1763
 4240SOL    HW124179   4.185   0.614   3.989  0.1589  0.0619  0.0664
 4240SOL    HW224180   4.185   0.624   3.844  0.2838  0.8922 -0.3467
 4241SOL     OW24181   0.271   3.594   0.404  0.2529  0.1082 -0.6477
 4241SOL    HW124182   0.365   3.580   0.417  0.0930 -0.3445  0.0128
 4241SOL    HW224183   0.268   3.635   0.317 -1.6132 -1.0816 -1.1515
 4242SOL     OW24184   2.876   0.572  11.859 -0.6092 -0.1768 -0.0285
 4242SOL    HW124185   2.836   0.645  11.812 -2.6265 -1.0824  0.2419
 4242SOL    HW224186   2.899   0.511  11.789 -1.1279 -0.2392 -0.1498
 4243SOL     OW24187   2.260   1.080  14.535 -1.0028 -0.6789 -0.0181
 4243SOL    HW124188   2.337   1.136  14.539  0.3862 -2.7177  1.9737
 4243SOL    HW224189   2.190   1.137  14.568  0.0731  0.5515  0.1102
 4244SOL     OW24190   3.218   3.567   9.195  0.5908  0.5470 -0.2988
 4244SOL    HW124191   3.132   3.574   9.237  1.0457  0.3826  0.6655
 4244SOL    HW224192   3.266   3.558   9.278  1.0778  1.2683 -0.5035
 4245SOL     OW24193   1.677   3.485   6.312 -0.3690  0.8040  0.7690
 4245SOL    HW124194   1.632   3.531   6.241  0.8247  2.6265  1.1916
 4245SOL    HW224195   1.727   3.560   6.343  1.4422 -0.5737  1.1894
 4246SOL     OW24196   0.056   4.578   0.291  0.1852 -0.3485  0.4244
 4246SOL    HW124197   0.006   4.544   0.365  1.4875 -2.3586  0.3569
 4246SOL    HW224198   0.138   4.607   0.331  1.8146 -1.5557 -2.0317
 4247SOL     OW24199   2.749   2.430   7.086  0.2877 -0.5984  0.1305
 4247SOL    HW124200   2.769   2.397   7.173 -2.8773 -0.6584  0.8609
 4247SOL    HW224201   2.792   2.515   7.085 -2.0626  0.5944 -1.4612
 4248SOL     OW24202   4.257   3.376  16.330 -0.0732 -0.0780  0.2785
 4248SOL    HW124203   4.234   3.305  16.270  0.6980 -0.8035  0.8349
 4248SOL    HW224204   4.282   3.322  16.405  4.4367 -1.2393 -2.0952
 4249SOL     OW24205   3.106   3.203   1.585  0.1285 -0.0893  0.5666
 4249SOL    HW124206   3.060   3.175   1.505 -0.5533  2.3469  0.1068
 4249SOL    HW224207   3.196   3.199   1.553 -0.5594 -0.0392 -1.3672
 4250SOL     OW24208   0.031   0.324  10.028  0.0630  0.2775  0.1719
 4250SOL    HW124209   0.049   0.333  10.121 -2.3292 -0.0686  0.6782
 4250SOL    HW224210   0.095   0.377   9.981 -0.9615  0.3676 -1.1385
 4251SOL     OW24211   1.320   3.015   8.690 -0.0423  0.1228  0.1858
 4251SOL    HW124212   1.371   2.934   8.694 -0.8477 -0.4754 -1.6262
 4251SOL    HW224213   1.334   3.039   8.599 -2.3850 -1.3476 -0.5608
 4252SOL     OW24214   4.306   4.298   2.542  0.4459 -0.1474  0.1450
 4252SOL    HW124215   4.337   4.237   2.610  0.2343  0.5390  0.8664
 4252SOL    HW224216   4.300   4.381   2.590  1.7099 -0.9068  1.6318
 4253SOL     OW24217   1.927   3.537   3.657  0.1693 -0.3742 -0.9142
 4253SOL    HW124218   1.878   3.455   3.659  0.5267 -0.5284  1.2114
 4253SOL    HW224219   1.925   3.563   3.565 -0.5681 -0.4198 -0.9078
 4254SOL     OW24220   1.048   1.885   9.591 -0.7469 -0.0292  0.0930
 4254SOL    HW124221   0.955   1.888   9.612 -0.5855 -0.5567  0.8482
 4254SOL    HW224222   1.046   1.917   9.500 -2.2308  0.9918  0.4919
 4255SOL     OW24223   4.118   2.892   3.825  0.3949 -0.2245 -0.4128
 4255SOL    HW124224   4.166   2.914   3.745  1.8424  2.6309  1.2723
 4255SOL    HW224225   4.189   2.835   3.854 -0.2934 -0.9957 -0.2400
 4256SOL     OW24226   2.990   2.301   9.424 -0.2258  0.5022 -0.0753
 4256SOL    HW124227   3.026   2.367   9.365 -0.4533 -0.5588 -1.4079
 4256SOL    HW224228   3.021   2.337   9.507 -0.7382  0.6615  0.0489
 4257SOL     OW24229   4.699   1.836   0.207  0.0978 -0.1668 -0.4310
 4257SOL    HW124230   4.719   1.835   0.113 -0.0942  0.0629 -0.4734
 4257SOL    HW224231   4.666   1.747   0.217  0.2670 -0.0530  1.0998
 4258SOL     OW24232   0.362   2.881  11.216  0.1216 -0.7006 -0.2258
 4258SOL    HW124233   0.437   2.835  11.178  1.0474 -1.1909  2.2251
 4258SOL    HW224234   0.397   2.910  11.300 -1.9376 -1.1855  0.8199
 4259SOL     OW24235   2.457   3.479   5.695  0.3832 -0.0536  0.0093
 4259SOL    HW124236   2.533   3.450   5.745 -0.6403 -1.8016  0.5842
 4259SOL    HW224237   2.450   3.566   5.734  0.2766 -0.5589  1.1085
 4260SOL     OW24238   3.806   3.617   8.743  0.2658  0.0186 -0.4257
 4260SOL    HW124239   3.895   3.651   8.742 -0.2619  1.4568  2.0594
 4260SOL    HW224240   3.773   3.652   8.826  0.6708 -0.9963  0.1544
 4261SOL     OW24241   2.120   3.375   5.170 -0.4032 -0.1786 -0.2695
 4261SOL    HW124242   2.050   3.429   5.132 -1.1230  0.4206  1.9088
 4261SOL    HW224243   2.065   3.328   5.233  2.4682 -0.0785  2.2674
 4262SOL     OW24244   0.001   3.618  16.445 -0.0415 -0.0070 -0.0769
 4262SOL    HW124245   0.068   3.664  16.395 -0.1802  0.7882  0.4564
 4262SOL    HW224246   0.005   3.664  16.529  0.7654 -1.8665  0.9260
 4263SOL     OW24247   3.545   1.648   0.496 -0.4243  0.7378  0.6269
 4263SOL    HW124248   3.546   1.553   0.491  0.6045  0.8191 -0.8842
 4263SOL    HW224249   3.456   1.661   0.529 -0.7357 -2.2671  0.9121
 4264SOL     OW24250   0.229   2.176   6.782  0.3804  0.2491 -0.6509
 4264SOL    HW124251   0.190   2.165   6.695 -0.6792 -0.5207 -0.0826
 4264SOL    HW224252   0.175   2.114   6.832 -0.1295  0.1738 -1.2918
 4265SOL     OW24253   4.035   0.408   0.899  0.5354  0.7730  0.1545
 4265SOL    HW124254   3.980   0.335   0.871 -1.5252  2.1849  0.5412
 4265SOL    HW224255   3.977   0.460   0.954  0.9438  1.3704  0.0252
 4266SOL     OW24256   1.407   2.156   3.822  0.0354 -0.2636  0.6371
 4266SOL    HW124257   1.416   2.237   3.771  0.1810 -0.5383  0.2302
 4266SOL    HW224258   1.474   2.173   3.888  0.4822  0.5941 -0.0378
 4267SOL     OW24259   3.555   4.632   2.960 -0.4984  0.2080  0.3957
 4267SOL    HW124260   3.552   0.004   2.955 -3.0604  0.1880  1.3610
 4267SOL    HW224261   3.648   4.610   2.961 -0.4199  0.3623 -2.3035
 4268SOL     OW24262   3.735   4.702   7.028  0.4769 -0.7102 -0.1327
 4268SOL    HW124263   3.705   0.054   7.076 -1.2312 -0.6744 -1.2365
 4268SOL    HW224264   3.706   4.636   7.091 -1.9606 -0.4505 -0.9977
 4269SOL     OW24265   2.543   3.071   2.582 -0.2737 -0.1916 -0.0445
 4269SOL    HW124266   2.508   3.035   2.663  1.0094  2.6810  1.8003
 4269SOL    HW224267   2.461   3.099   2.542  0.3133  0.8232 -0.5473
 4270SOL     OW24268   0.975   4.601   5.685  0.0527 -0.4969  0.2794
 4270SOL    HW124269   0.947   4.584   5.595 -0.3152  0.3783  0.2273
 4270SOL    HW224270   0.888   4.613   5.724  0.5868 -0.3274  1.4099
 4271SOL     OW24271   1.594   1.068  13.117  0.0929  0.6676 -0.0593
 4271SOL    HW124272   1.529   1.129  13.151  0.5242  0.3676  1.3071
 4271SOL    HW224273   1.573   0.991  13.170  1.2651  0.1626 -0.3116
 4272SOL     OW24274   1.486   0.429   2.621 -0.0036  0.1221 -0.0283
 4272SOL    HW124275   1.503   0.412   2.714 -1.2940 -2.6052 -0.2931
 4272SOL    HW224276   1.471   0.341   2.587  0.1168  0.4763 -1.0051
 4273SOL     OW24277   2.035   0.146  17.499 -0.8531 -0.2789  0.7758
 4273SOL    HW124278   2.089   0.209  17.546  0.6739  0.0136 -1.3497
 4273SOL    HW224279   2.091   0.083  17.453 -1.5759  1.6259 -2.7314
 4274SOL     OW24280   0.455   2.854   7.359  0.8030 -0.0415  0.0510
 4274SOL    HW124281   0.441   2.765   7.326 -4.0406 -0.2750  2.7663
 4274SOL    HW224282   0.546   2.868   7.333  0.0332  2.2764 -1.4230
 4275SOL     OW24283   0.867   1.495   4.969  0.1215  0.3246 -0.1858
 4275SOL    HW124284   0.846   1.587   4.955 -1.5838 -0.3550 -2.1866
 4275SOL    HW224285   0.782   1.454   4.948 -0.2048  1.4806 -1.0981
 4276SOL     OW24286   1.596   1.604  13.875 -0.0713 -0.6911  0.0398
 4276SOL    HW124287   1.516   1.655  13.877  0.1424 -0.2692 -2.4179
 4276SOL    HW224288   1.583   1.536  13.942  0.4173  0.3061  1.1344
 4277SOL     OW24289   4.548   2.443   7.221  0.0097 -0.1057 -0.2102
 4277SOL    HW124290   4.563   2.475   7.310  1.1739 -0.8365 -0.1335
 4277SOL    HW224291   4.603   2.365   7.213 -1.5315 -1.0841 -1.1566
 4278SOL     OW24292   4.482   1.883   5.596 -0.0639  0.5075 -0.2089
 4278SOL    HW124293   4.553   1.824   5.572 -0.6806 -0.0376 -0.7033
 4278SOL    HW224294   4.518   1.921   5.676 -0.7302 -3.1161  1.8100
 4279SOL     OW24295   0.595   0.308   6.883  0.0033 -0.3499  0.0930
 4279SOL    HW124296   0.618   0.221   6.917 -0.6537 -1.2221 -1.7161
 4279SOL    HW224297   0.665   0.365   6.914 -0.4603  0.1481  0.2426
 4280SOL     OW24298   2.787   4.630   2.670 -0.0601 -0.3074  0.1369
 4280SOL    HW124299   2.782   4.637   2.575 -0.4685 -0.6694  0.1307
 4280SOL    HW224300   2.786   4.534   2.671  0.5276 -0.2903  1.8672
 4281SOL     OW24301   3.081   4.128   7.313  0.5550  0.5064 -0.0484
 4281SOL    HW124302   3.071   4.168   7.400  1.5719 -0.1881  0.3766
 4281SOL    HW224303   3.141   4.058   7.339  0.2825  0.2546 -0.0953
 4282SOL     OW24304   2.133   0.105  14.787  0.1012  0.2701 -0.1135
 4282SOL    HW124305   2.106   0.186  14.744  0.4584 -0.1541 -1.1176
 4282SOL    HW224306   2.063   0.050  14.751  0.4652  0.9029 -1.7826
 4283SOL     OW24307   1.846   3.399  14.325 -0.5837  0.3518 -0.4991
 4283SOL    HW124308   1.813   3.478  14.369 -1.0123 -0.7338  1.1082
 4283SOL    HW224309   1.823   3.414  14.233 -1.8197  0.5209 -0.1582
 4284SOL     OW24310   1.243   1.012  10.181 -0.3124 -0.5926  0.0300
 4284SOL    HW124311   1.284   0.985  10.263  1.0291 -1.0202 -0.7737
 4284SOL    HW224312   1.151   1.020  10.206  0.4076 -0.9463  2.7597
 4285SOL     OW24313   4.241   4.536   7.919 -0.2316  0.0222 -0.0401
 4285SOL    HW124314   4.217   4.553   8.010 -2.9071  0.6335 -0.8662
 4285SOL    HW224315   4.320   4.483   7.929  0.2406  0.7863  0.3899
 4286SOL     OW24316   0.910   3.858   2.665  0.0636  0.0416 -0.0933
 4286SOL    HW124317   1.003   3.872   2.646 -0.3620  0.3868 -1.9981
 4286SOL    HW224318   0.882   3.942   2.699  0.6897 -0.0489  0.6408
 4287SOL     OW24319   0.300   2.807  12.780 -0.1919 -0.1083 -0.2469
 4287SOL    HW124320   0.350   2.726  12.791 -2.3921 -1.4727 -0.3221
 4287SOL    HW224321   0.286   2.833  12.871  0.7692  0.8636 -0.3847
 4288SOL     OW24322   4.705   3.966   9.754  0.0614 -0.3224 -0.1277
 4288SOL    HW124323   4.630   3.909   9.770 -0.7206  0.4030 -1.1405
 4288SOL    HW224324   0.057   3.935   9.802 -0.7665 -2.3874 -0.1548
 4289SOL     OW24325   0.691   3.229   5.130 -0.1794 -0.0290  0.2208
 4289SOL    HW124326   0.748   3.160   5.098 -0.3135 -0.4388  0.8566
 4289SOL    HW224327   0.653   3.258   5.047 -1.1101  2.5315  1.5165
 4290SOL     OW24328   0.072   2.567   5.714 -0.0954 -0.5982 -0.1478
 4290SOL    HW124329   0.016   2.620   5.771 -1.8676 -0.2474 -2.2059
 4290SOL    HW224330   0.143   2.630   5.701 -0.4021  0.2339  2.3146
 4291SOL     OW24331   3.766   2.833   0.679  0.0715  0.3332  0.7007
 4291SOL    HW124332   3.706   2.805   0.610  0.6038 -1.8634  1.1408
 4291SOL    HW224333   3.839   2.772   0.666 -1.2202 -0.6643 -1.6999
 4292SOL     OW24334   2.649   2.982   4.710 -0.2458  0.6039  0.4767
 4292SOL    HW124335   2.678   2.916   4.647 -2.9851 -0.6292  0.4794
 4292SOL    HW224336   2.557   2.957   4.720 -0.5217  1.7294  0.7764
 4293SOL     OW24337   3.306   3.500   3.719 -0.4583  0.3324 -0.5942
 4293SOL    HW124338   3.293   3.469   3.808  2.8265  0.4324 -0.0872
 4293SOL    HW224339   3.235   3.463   3.666 -0.8593 -2.2344  1.7351
 4294SOL     OW24340   1.831   3.309   0.652 -0.3379 -0.2009  0.4219
 4294SOL    HW124341   1.792   3.382   0.604  0.1981  0.6039  1.2037
 4294SOL    HW224342   1.779   3.313   0.733 -1.1461  1.6909 -0.1913
 4295SOL     OW24343   1.891   2.405   4.249 -0.3055 -0.2558  0.0299
 4295SOL    HW124344   1.891   2.335   4.184 -1.7638 -0.4928  0.2856
 4295SOL    HW224345   1.939   2.481   4.215 -0.8065  0.6172  1.2720
 4296SOL     OW24346   2.164   1.677   2.237  0.3635 -0.7506  0.3801
 4296SOL    HW124347   2.087   1.675   2.294  0.1271  1.9924  0.1462
 4296SOL    HW224348   2.149   1.607   2.174 -1.4535 -0.8600  0.9217
 4297SOL     OW24349   3.909   2.688   8.187  0.1664  0.2919  0.2500
 4297SOL    HW124350   3.884   2.610   8.138 -0.9656 -0.9734  2.8521
 4297SOL    HW224351   3.978   2.660   8.247 -0.0820  0.0009  0.4016
 4298SOL     OW24352   4.268   1.333   6.428 -0.1405 -0.0670  0.3455
 4298SOL    HW124353   4.210   1.275   6.379 -0.3771  1.3798 -1.0805
 4298SOL    HW224354   4.213   1.411   6.432 -0.2710 -0.2086  1.3204
 4299SOL     OW24355   1.242   0.938   2.187  0.1288  0.2580 -0.0718
 4299SOL    HW124356   1.244   0.986   2.269  0.4389 -2.8673  1.7622
 4299SOL    HW224357   1.185   0.866   2.213  0.8711 -0.6495 -0.9536
 4300SOL     OW24358   0.362   0.032  14.678  0.5751  0.2321 -0.4742
 4300SOL    HW124359   0.360   0.118  14.636  3.1893  1.6697  2.3721
 4300SOL    HW224360   0.272   0.030  14.712  0.3809  0.3228 -0.9722
 4301SOL     OW24361   2.368   0.645   5.194  0.0340  0.1456 -0.5939
 4301SOL    HW124362   2.301   0.692   5.244 -0.6420 -0.1525 -1.2198
 4301SOL    HW224363   2.310   0.574   5.166  0.6752 -1.0925  1.2156
 4302SOL     OW24364   4.560   0.400   2.518 -0.1467  0.1805  0.1168
 4302SOL    HW124365   4.579   0.349   2.596  0.3223 -0.5486 -0.4782
 4302SOL    HW224366   4.488   0.456   2.547 -0.9932 -0.3928 -0.9253
 4303SOL     OW24367   3.298   0.002   7.068  0.3308  0.6132 -0.1905
 4303SOL    HW124368   3.299   4.702   7.161  0.7483 -0.3711 -0.4443
 4303SOL    HW224369   3.207   4.719   7.041 -0.3035  0.4472  1.9763
 4304SOL     OW24370   3.920   3.682   6.205 -0.0879 -0.6541 -0.0677
 4304SOL    HW124371   3.934   3.744   6.133 -0.3096 -0.2953  0.2002
 4304SOL    HW224372   3.834   3.698   6.243 -1.2728 -1.0199 -2.5868
 4305SOL     OW24373   3.098   0.373   8.290 -0.4357  0.0875  0.0865
 4305SOL    HW124374   3.110   0.429   8.367 -2.4406  1.5873 -0.6902
 4305SOL    HW224375   3.175   0.401   8.241 -0.2485  0.9126  0.8421
 4306SOL     OW24376   3.005   3.911  12.188  0.4712  0.0802 -0.0743
 4306SOL    HW124377   2.990   3.979  12.123  1.7436  1.0674  0.6863
 4306SOL    HW224378   2.988   3.970  12.261  1.7290  2.5279 -1.7503
 4307SOL     OW24379   2.909   0.628   5.729  0.3317 -0.0798  0.3837
 4307SOL    HW124380   2.939   0.692   5.664 -0.0800  0.2965  0.5663
 4307SOL    HW224381   2.860   0.565   5.677 -0.4440  0.1112  0.8750
 4308SOL     OW24382   2.406   4.301   8.293 -0.0391 -0.0039  0.0595
 4308SOL    HW124383   2.325   4.311   8.242  0.6674  0.2383 -1.0213
 4308SOL    HW224384   2.370   4.324   8.379 -1.4728  0.1878 -0.5873
 4309SOL     OW24385   0.911   1.373   2.821  0.3438  0.4617  0.1557
 4309SOL    HW124386   0.975   1.377   2.892  1.5520 -1.3468 -0.8583
 4309SOL    HW224387   0.921   1.281   2.799  2.0174  0.8559 -0.6783
 4310SOL     OW24388   3.325   4.025  11.309 -0.2462 -0.2387  0.3227
 4310SOL    HW124389   3.268   3.958  11.346 -1.9525  0.7010 -0.6258
 4310SOL    HW224390   3.388   3.975  11.256  1.0452  3.0508 -1.2480
 4311SOL     OW24391   2.800   2.426   4.991 -0.0221  0.2969  0.1938
 4311SOL    HW124392   2.886   2.447   5.028 -0.7488  0.8596  1.5442
 4311SOL    HW224393   2.812   2.337   4.959  2.0139  0.0538  1.6632
 4312SOL     OW24394   1.483   2.426   2.721 -0.0588 -0.3723  0.3899
 4312SOL    HW124395   1.419   2.475   2.669  0.7730  0.3453  0.0480
 4312SOL    HW224396   1.444   2.448   2.805  0.7320  3.0975 -0.1392
 4313SOL     OW24397   1.737   4.410  15.890 -0.0772 -0.2714  0.8590
 4313SOL    HW124398   1.736   4.495  15.845  2.2992 -0.4384  0.4971
 4313SOL    HW224399   1.644   4.400  15.909 -0.7388 -0.7477 -2.6573
 4314SOL     OW24400   2.428   4.639   7.234  0.3933  0.3576 -0.0966
 4314SOL    HW124401   2.438   4.669   7.324  0.5017 -0.0829  0.0364
 4314SOL    HW224402   2.416   4.721   7.186 -0.0477 -0.3559 -1.2145
 4315SOL     OW24403   0.832   1.051   7.424  0.0701 -0.0152 -0.2924
 4315SOL    HW124404   0.853   1.003   7.504  1.0180 -0.0230 -0.5431
 4315SOL    HW224405   0.793   0.977   7.378 -0.5839  1.8380 -2.7121
 4316SOL     OW24406   3.232   0.974   4.058  0.1264  0.4071 -0.3726
 4316SOL    HW124407   3.325   0.956   4.072 -0.2392  0.7944  2.6534
 4316SOL    HW224408   3.215   1.036   4.129  0.5255  0.1709 -0.0700
 4317SOL     OW24409   1.678   3.629   1.306 -0.1721  0.1488  0.6638
 4317SOL    HW124410   1.741   3.571   1.349 -0.4237 -1.2017 -0.7844
 4317SOL    HW224411   1.739   3.682   1.255 -0.2562 -1.7592 -1.4331
 4318SOL     OW24412   1.096   1.821   8.485  0.6106  0.4385 -0.2716
 4318SOL    HW124413   1.052   1.739   8.509 -1.2045  1.0728 -1.4391
 4318SOL    HW224414   1.033   1.852   8.420 -0.6490 -0.4588  0.5149
 4319SOL     OW24415   2.537   4.513  14.650 -0.7294 -0.3488  0.4466
 4319SOL    HW124416   2.462   4.505  14.592 -1.4645 -1.6954  1.5644
 4319SOL    HW224417   2.597   4.473  14.588  2.4243  3.9479  0.7175
 4320SOL     OW24418   2.246   2.640  13.875  0.1759  0.0063 -0.2820
 4320SOL    HW124419   2.230   2.734  13.888  1.3946  0.4918 -2.3575
 4320SOL    HW224420   2.279   2.630  13.786  0.0173 -1.5743 -0.1650
 4321SOL     OW24421   2.650   4.538   8.723  0.4757  0.1153  0.2140
 4321SOL    HW124422   2.614   4.624   8.700 -1.4884 -1.1013 -1.3078
 4321SOL    HW224423   2.652   4.548   8.818  1.2758  0.1858  0.1935
 4322SOL     OW24424   1.433   4.482   2.868 -0.1626 -0.8078  0.5991
 4322SOL    HW124425   1.464   4.557   2.918  0.0420 -1.0491  0.8327
 4322SOL    HW224426   1.506   4.424   2.892  1.1441  1.1120  1.2809
 4323SOL     OW24427   2.307   3.585   2.671  0.2650 -0.5366  0.0614
 4323SOL    HW124428   2.213   3.602   2.667  0.9444  2.9797 -0.9373
 4323SOL    HW224429   2.315   3.543   2.586 -0.2684  1.5181 -1.0138
 4324SOL     OW24430   1.129   3.695  10.291  0.2979  0.8246 -0.4126
 4324SOL    HW124431   1.184   3.761  10.248 -1.3179  2.1832 -0.3760
 4324SOL    HW224432   1.095   3.647  10.216  3.0285  0.6866 -1.5877
 4325SOL     OW24433   3.156   3.202   8.565 -0.5345  0.5508 -0.0396
 4325SOL    HW124434   3.106   3.209   8.484 -0.0431  3.0898 -0.1277
 4325SOL    HW224435   3.132   3.116   8.600 -1.1958  1.4994  1.7799
 4326SOL     OW24436   0.930   2.101   2.451 -0.2714  0.4266 -0.5638
 4326SOL    HW124437   0.962   2.080   2.539 -1.1722  0.8213 -0.1410
 4326SOL    HW224438   1.003   2.055   2.409  0.3366 -0.6252  1.6388
 4327SOL     OW24439   3.480   1.935  14.186 -0.2793 -0.3727  0.4119
 4327SOL    HW124440   3.537   1.899  14.254  0.2717  1.2210  0.8128
 4327SOL    HW224441   3.393   1.899  14.201  0.1088 -1.6443 -0.4226
 4328SOL     OW24442   2.017   4.251   1.656  0.0918 -0.3570  0.2922
 4328SOL    HW124443   1.934   4.256   1.702  0.9713 -0.7886  1.9165
 4328SOL    HW224444   2.042   4.343   1.662  2.4455 -1.0192  0.7023
 4329SOL     OW24445   2.422   1.639   6.745 -0.0706  0.1442  0.3850
 4329SOL    HW124446   2.345   1.687   6.776 -1.0808 -0.7260 -0.7950
 4329SOL    HW224447   2.402   1.639   6.652 -0.8637  0.2169  0.5541
 4330SOL     OW24448   4.695   4.375  11.459  0.0654 -0.5326 -0.1501
 4330SOL    HW124449   4.690   4.423  11.542  4.0424 -0.0566 -0.1898
 4330SOL    HW224450   4.693   4.446  11.395  3.5395  0.2890  0.6839
 4331SOL     OW24451   0.661   3.020   2.985  0.0902  0.3541 -0.0229
 4331SOL    HW124452   0.738   3.014   2.928  1.0074 -1.5018  1.4082
 4331SOL    HW224453   0.696   3.003   3.072 -0.9484  2.3287  0.7606
 4332SOL     OW24454   1.999   3.838   8.509 -0.4055  0.0504 -0.2195
 4332SOL    HW124455   2.025   3.818   8.599  1.6997  0.6737 -0.6902
 4332SOL    HW224456   1.965   3.927   8.518  0.5138  0.4641 -0.7804
 4333SOL     OW24457   2.062   2.288  15.053  0.0510  0.4843 -0.1963
 4333SOL    HW124458   2.128   2.274  15.121  1.4844 -1.0427 -1.8973
 4333SOL    HW224459   2.116   2.262  14.978  0.7485 -0.7126  0.7164
 4334SOL     OW24460   2.334   1.985   2.998 -0.1335  0.0868 -0.3670
 4334SOL    HW124461   2.372   1.954   2.916  1.9734 -0.0100  0.6531
 4334SOL    HW224462   2.280   1.909   3.018  1.3307 -1.0372 -0.6963
 4335SOL     OW24463   3.617   0.746   4.696 -0.3540  0.2038 -0.1162
 4335SOL    HW124464   3.589   0.713   4.782 -0.7345 -0.4533 -0.4966
 4335SOL    HW224465   3.556   0.704   4.636 -0.1787 -1.0197  0.5636
 4336SOL     OW24466   2.118   4.716   1.436 -0.0648 -0.1431 -0.0298
 4336SOL    HW124467   2.191   4.697   1.377 -1.6668 -2.3621 -1.3028
 4336SOL    HW224468   2.070   0.057   1.385  0.4382 -0.0967 -0.4465
 4337SOL     OW24469   1.474   1.620   9.939 -0.2864 -0.4039 -0.4154
 4337SOL    HW124470   1.458   1.708   9.973  0.0229 -0.9972  1.2712
 4337SOL    HW224471   1.472   1.565  10.018  2.6991  0.6747  0.4050
 4338SOL     OW24472   1.527   2.682  16.056 -0.1826 -0.5826 -0.1223
 4338SOL    HW124473   1.542   2.750  16.122 -0.1956 -1.0348  0.3407
 4338SOL    HW224474   1.437   2.708  16.037 -0.0494  1.3991  1.8808
 4339SOL     OW24475   0.989   1.413   7.193 -0.0752  0.2215  0.0581
 4339SOL    HW124476   0.984   1.416   7.289  0.1117  2.1329 -0.0015
 4339SOL    HW224477   0.995   1.317   7.186 -1.4246  0.0994  0.4501
 4340SOL     OW24478   0.987   4.126   4.097  0.5379  0.3526  0.9421
 4340SOL    HW124479   0.907   4.140   4.147  1.0265  0.6851  1.6479
 4340SOL    HW224480   1.047   4.094   4.165  0.6984 -0.2438  0.5188
 4341SOL     OW24481   2.842   2.389   3.145 -0.8574 -0.5603 -0.0328
 4341SOL    HW124482   2.900   2.321   3.179  0.0309  0.0906 -0.2516
 4341SOL    HW224483   2.797   2.415   3.226 -0.9895  0.2640 -0.3765
 4342SOL     OW24484   3.560   2.332   7.294 -0.4019  1.1450  0.2338
 4342SOL    HW124485   3.638   2.282   7.314 -1.0330 -0.4385 -1.2503
 4342SOL    HW224486   3.594   2.412   7.254 -0.5855  0.4626 -1.2835
 4343SOL     OW24487   1.723   1.246   7.003 -0.7225 -0.1649 -0.7205
 4343SOL    HW124488   1.663   1.302   7.051  0.4240  0.7633 -0.3683
 4343SOL    HW224489   1.690   1.264   6.914 -1.1032 -2.9196 -1.1130
 4344SOL     OW24490   1.826   2.850   8.733 -0.2334  0.3344 -0.5100
 4344SOL    HW124491   1.796   2.900   8.658  1.1038 -0.9003 -1.8690
 4344SOL    HW224492   1.812   2.912   8.805  2.0202  0.7505 -0.4255
 4345SOL     OW24493   0.816   0.799   1.911 -0.0213 -0.3305  0.0388
 4345SOL    HW124494   0.821   0.832   1.821  0.4814  1.2644  0.6576
 4345SOL    HW224495   0.852   0.865   1.970  2.6453 -1.8517  0.0873
 4346SOL     OW24496   2.056   4.627   8.781  0.6850  0.1337 -0.2653
 4346SOL    HW124497   2.120   4.643   8.850  1.8317 -1.3371 -1.0127
 4346SOL    HW224498   2.037   4.720   8.767  0.2946 -0.0029 -0.6733
 4347SOL     OW24499   2.587   1.939   6.440 -0.0768 -0.1193 -0.0324
 4347SOL    HW124500   2.504   1.911   6.480  0.1374  1.2480  1.3492
 4347SOL    HW224501   2.594   1.871   6.372 -0.7991 -1.9299  1.6984
 4348SOL     OW24502   2.966   4.100  13.072 -0.4051  0.3358  0.1582
 4348SOL    HW124503   3.018   4.111  12.992 -3.1781  0.2796 -1.6768
 4348SOL    HW224504   2.926   4.186  13.083  3.0237  1.7480  1.5437
 4349SOL     OW24505   4.637   1.557   5.228  0.3483  0.0796  0.2810
 4349SOL    HW124506   4.676   1.480   5.269  0.6744  0.1490  0.1008
 4349SOL    HW224507   4.644   1.530   5.137 -1.0914 -0.0842  0.2116
 4350SOL     OW24508   2.385   3.292   0.852 -0.2647 -0.5565  1.3627
 4350SOL    HW124509   2.390   3.199   0.871 -2.1977 -1.0682 -0.6226
 4350SOL    HW224510   2.297   3.295   0.814  0.6008  2.8291 -0.3952
 4351SOL     OW24511   0.669   3.938  12.923  0.1549  0.6387  0.1557
 4351SOL    HW124512   0.732   4.003  12.953 -0.4121  1.4699 -0.4496
 4351SOL    HW224513   0.602   3.955  12.989  1.2758 -0.5683  1.6072
 4352SOL     OW24514   2.817   2.273  14.588 -0.4773 -0.4145  0.0033
 4352SOL    HW124515   2.800   2.367  14.598 -1.6964 -0.3809 -2.4328
 4352SOL    HW224516   2.893   2.270  14.531 -0.5516  1.0541 -0.1812
 4353SOL     OW24517   2.610   3.298   9.213 -0.4237  0.3640 -0.4567
 4353SOL    HW124518   2.517   3.321   9.214 -0.4968  0.0867 -0.7432
 4353SOL    HW224519   2.631   3.282   9.121 -1.4417 -0.6284 -0.5180
 4354SOL     OW24520   2.706   4.503   0.005  0.0955  0.2057  0.0844
 4354SOL    HW124521   2.690   4.414   0.037  2.4854 -0.4622 -0.5453
 4354SOL    HW224522   2.799   4.514   0.023  0.4014  1.3626 -2.1711
 4355SOL     OW24523   2.421   2.568   6.258 -0.0433 -0.2833  0.0719
 4355SOL    HW124524   2.470   2.572   6.176  1.3694 -0.0148  0.9259
 4355SOL    HW224525   2.486   2.527   6.316 -0.0712  0.5765  0.6999
 4356SOL     OW24526   0.818   2.955   6.456 -0.6158 -0.4084  0.7402
 4356SOL    HW124527   0.768   3.036   6.465 -1.9000 -1.0490 -0.6104
 4356SOL    HW224528   0.755   2.898   6.411 -0.4835 -0.2814  0.3945
 4357SOL     OW24529   0.510   4.156   7.030  0.2495  1.0938  0.1085
 4357SOL    HW124530   0.444   4.224   7.039 -0.2720  0.5994  0.0419
 4357SOL    HW224531   0.581   4.178   7.089  0.0606 -0.4911  0.9365
 4358SOL     OW24532   1.475   2.143   1.022  0.9449 -0.0243 -0.2891
 4358SOL    HW124533   1.470   2.205   0.949 -0.3392 -0.4331 -0.5494
 4358SOL    HW224534   1.410   2.182   1.080  1.2414  1.1514 -0.7551
 4359SOL     OW24535   0.648   3.712   2.870  0.1213 -0.5464  0.1852
 4359SOL    HW124536   0.578   3.648   2.855 -0.6225  0.1879  0.5558
 4359SOL    HW224537   0.608   3.791   2.835  2.7056  0.4120 -0.6260
 4360SOL     OW24538   1.096   0.438   3.416 -0.2837 -0.3081 -0.0600
 4360SOL    HW124539   1.094   0.458   3.510  1.1243  0.2665 -0.1533
 4360SOL    HW224540   1.051   0.515   3.383  1.6360  0.2854 -1.2816
 4361SOL     OW24541   3.852   0.833  12.143  0.0606  0.2290 -0.2462
 4361SOL    HW124542   3.817   0.858  12.228  0.5255 -1.6814  0.5123
 4361SOL    HW224543   3.885   0.916  12.110  0.5889  0.6619  1.3546
 4362SOL     OW24544   1.255   0.253  14.201  0.2212  0.0884  0.3234
 4362SOL    HW124545   1.209   0.271  14.119 -0.0899  1.4495  0.7949
 4362SOL    HW224546   1.344   0.273  14.171 -0.9746  2.5773 -1.5967
 4363SOL     OW24547   0.855   4.595   3.576  0.6357  0.0532  0.1227
 4363SOL    HW124548   0.818   4.570   3.492  1.8422 -1.7053  0.1213
 4363SOL    HW224549   0.787   4.658   3.600 -0.8012 -0.8995 -1.4662
 4364SOL     OW24550   0.647   4.714  12.201 -0.1796  0.2696  0.2378
 4364SOL    HW124551   0.634   0.027  12.288  0.9462 -2.3092  1.5032
 4364SOL    HW224552   0.596   4.634  12.213 -0.7116  0.5887  0.1406
 4365SOL     OW24553   1.812   1.119  17.295 -0.6875  0.2838 -0.1794
 4365SOL    HW124554   1.784   1.096  17.206 -0.7838 -0.1730 -0.0341
 4365SOL    HW224555   1.812   1.030  17.332  0.6661  0.6560  0.6875
 4366SOL     OW24556   4.183   3.595   0.509  0.3105  0.5883  0.2332
 4366SOL    HW124557   4.121   3.659   0.473 -2.1840 -2.5176 -1.0189
 4366SOL    HW224558   4.178   3.533   0.436  2.4267  1.1645 -0.4075
 4367SOL     OW24559   2.840   0.334   1.793 -0.3406 -0.6340  0.2598
 4367SOL    HW124560   2.752   0.371   1.801 -0.3003 -0.2819 -1.0019
 4367SOL    HW224561   2.870   0.398   1.730  0.4655  0.2723  1.5658
 4368SOL     OW24562   0.865   2.311   2.091  0.7437 -0.2841  0.5771
 4368SOL    HW124563   0.788   2.364   2.110  0.7040 -0.6990  1.5853
 4368SOL    HW224564   0.918   2.335   2.168 -1.5532 -2.7578  2.9550
 4369SOL     OW24565   2.806   1.182   7.555  0.1981  0.1679  0.6965
 4369SOL    HW124566   2.779   1.185   7.463 -0.3161 -1.1061  0.8115
 4369SOL    HW224567   2.901   1.182   7.560  0.2817  1.0395 -0.7203
 4370SOL     OW24568   4.509   0.985   7.154 -0.1952 -0.6113 -0.1463
 4370SOL    HW124569   4.453   0.923   7.107  1.0655 -1.1180 -0.9854
 4370SOL    HW224570   4.454   1.059   7.178 -1.7341 -0.8232 -3.0249
 4371SOL     OW24571   1.637   1.941   5.720  0.0025  0.2704 -0.0206
 4371SOL    HW124572   1.556   1.987   5.740 -1.4494 -1.9105 -0.8708
 4371SOL    HW224573   1.651   1.896   5.803  1.2434  1.9069  0.6508
 4372SOL     OW24574   1.665   1.316   3.027  0.5253 -0.3471 -0.0499
 4372SOL    HW124575   1.727   1.251   2.994  2.8712  1.0629  1.6254
 4372SOL    HW224576   1.709   1.378   3.084  0.0467 -2.0419  2.1683
 4373SOL     OW24577   3.726   0.501   1.709  0.2268  0.2028  0.0886
 4373SOL    HW124578   3.702   0.496   1.802  1.0822  1.1097  0.3462
 4373SOL    HW224579   3.810   0.546   1.706 -0.3070  1.2073  0.2476
 4374SOL     OW24580   2.873   1.762   2.759  0.0344  0.3404  0.5427
 4374SOL    HW124581   2.902   1.677   2.725  0.7495  0.0546  1.8609
 4374SOL    HW224582   2.850   1.731   2.847 -0.8139 -0.1452  0.1518
 4375SOL     OW24583   3.634   3.384  15.975 -0.6656 -0.3097 -0.0471
 4375SOL    HW124584   3.643   3.389  16.070 -0.8400  1.1254 -0.1092
 4375SOL    HW224585   3.706   3.444  15.956 -0.2887 -0.3184  1.3745
 4376SOL     OW24586   3.964   2.154  11.135  0.6069 -0.1054  0.3745
 4376SOL    HW124587   4.051   2.190  11.154  0.9424 -0.5989 -0.2323
 4376SOL    HW224588   3.928   2.210  11.067  2.1481 -1.4560 -1.5480
 4377SOL     OW24589   3.678   4.348   9.761 -0.8473 -0.2804  0.4270
 4377SOL    HW124590   3.719   4.262   9.771 -2.1508 -0.9854 -0.4646
 4377SOL    HW224591   3.589   4.339   9.727 -0.9556  3.9685 -0.4179
 4378SOL     OW24592   4.444   2.517   3.942  0.8702 -0.0050  0.1519
 4378SOL    HW124593   4.417   2.607   3.964 -1.9489 -0.3855 -1.8321
 4378SOL    HW224594   4.426   2.471   4.024  1.7810 -0.1748  0.2580
 4379SOL     OW24595   1.541   3.539   5.383  0.1794  0.1600  0.2084
 4379SOL    HW124596   1.457   3.557   5.425 -0.1964 -0.6032 -0.2140
 4379SOL    HW224597   1.561   3.450   5.413 -0.1523  0.9509  2.7815
 4380SOL     OW24598   2.017   1.517   4.056  0.1192 -0.0053 -0.5084
 4380SOL    HW124599   2.007   1.608   4.086  0.5523  1.0344 -3.5479
 4380SOL    HW224600   2.071   1.537   3.980  0.7583 -2.4962 -0.6995
 4381SOL     OW24601   3.310   1.219   8.791  0.4696  1.0102  0.0589
 4381SOL    HW124602   3.240   1.275   8.824  0.9637  1.9859 -0.5356
 4381SOL    HW224603   3.388   1.273   8.777 -1.1370  3.0742 -0.8997
 4382SOL     OW24604   4.540   4.482   5.745 -0.3925  0.2913 -0.2720
 4382SOL    HW124605   4.628   4.466   5.782 -0.0051 -0.7848 -1.6795
 4382SOL    HW224606   4.536   4.428   5.667  3.4562  0.5712 -0.6858
 4383SOL     OW24607   4.015   3.511  15.757 -0.3280  0.8973 -0.4171
 4383SOL    HW124608   4.081   3.493  15.691  0.1365 -1.1664  0.6134
 4383SOL    HW224609   4.048   3.578  15.818  0.0818  0.6276 -0.3430
 4384SOL     OW24610   3.175   4.590   8.959  0.4747 -0.4948  0.3616
 4384SOL    HW124611   3.245   4.563   8.900 -2.6855 -0.8202 -3.2709
 4384SOL    HW224612   3.132   4.644   8.892 -0.0990 -0.8172  0.4692
 4385SOL     OW24613   1.156   0.509   7.414  0.2569  0.5315 -0.0208
 4385SOL    HW124614   1.149   0.547   7.327 -1.6421 -0.7719 -0.4364
 4385SOL    HW224615   1.107   0.573   7.466 -1.0250 -1.1837  0.8740
 4386SOL     OW24616   3.069   4.677   1.249 -0.8512  0.0718 -0.3019
 4386SOL    HW124617   3.101   4.700   1.336 -0.0669  1.3592 -0.9299
 4386SOL    HW224618   3.036   0.032   1.207 -0.9860  1.4236  2.3578
 4387SOL     OW24619   0.037   1.280   4.615 -0.0801 -0.0731  0.3679
 4387SOL    HW124620   0.067   1.189   4.608  0.4532  0.0286  1.3605
 4387SOL    HW224621   4.678   1.254   4.656  0.4619 -0.1305  1.4212
 4388SOL     OW24622   3.489   0.301  10.044  0.5199 -0.1197 -0.5808
 4388SOL    HW124623   3.544   0.347   9.980 -0.3678 -1.3985 -2.2724
 4388SOL    HW224624   3.473   0.217  10.001 -2.3815  0.1007  0.0627
 4389SOL     OW24625   1.356   2.710   8.327  0.4731 -0.4493 -0.5814
 4389SOL    HW124626   1.445   2.675   8.329  0.7981  0.4624  0.7218
 4389SOL    HW224627   1.322   2.694   8.238  0.0535 -0.6162 -0.3931
 4390SOL     OW24628   1.943   1.937  16.842 -0.0617  0.5164 -0.4020
 4390SOL    HW124629   1.916   2.007  16.783  0.3425  1.0620  0.0523
 4390SOL    HW224630   2.016   1.903  16.790 -0.1187  0.0529 -0.1807
 4391SOL     OW24631   0.404   2.613   7.268  0.1944  0.7204  0.0453
 4391SOL    HW124632   0.319   2.601   7.225  0.8587 -0.1008 -1.0454
 4391SOL    HW224633   0.467   2.574   7.207 -1.2914  0.3518 -1.2628
 4392SOL     OW24634   2.197   3.248   6.422 -0.0767  0.4169  0.5260
 4392SOL    HW124635   2.190   3.246   6.518 -0.3090 -1.2859  0.4761
 4392SOL    HW224636   2.225   3.156   6.421  0.4105  0.5539  1.7476
 4393SOL     OW24637   1.376   3.078   2.103  0.3045  0.0793  0.8533
 4393SOL    HW124638   1.439   3.138   2.063 -0.2386  0.4646  0.5919
 4393SOL    HW224639   1.368   3.011   2.035 -0.0247 -0.4149  1.3743
 4394SOL     OW24640   0.032   0.547   2.416  0.4077 -0.6779 -0.2245
 4394SOL    HW124641   0.058   0.494   2.341  2.1495  0.2457 -0.2669
 4394SOL    HW224642   4.690   0.492   2.458  0.8708 -0.2093  1.1017
 4395SOL     OW24643   4.541   4.675  15.378 -0.4934  0.2445  0.1423
 4395SOL    HW124644   4.618   4.657  15.323 -1.8774 -0.1843 -1.6843
 4395SOL    HW224645   4.575   0.015  15.441  0.8645  0.1276 -0.4590
 4396SOL     OW24646   1.223   2.257   3.524 -0.4412 -0.0629 -0.1541
 4396SOL    HW124647   1.275   2.237   3.446  0.9119  2.5587  0.0688
 4396SOL    HW224648   1.221   2.353   3.522 -0.2922 -0.0688 -0.6071
 4397SOL     OW24649   0.274   1.491   4.379  0.2213 -0.1679  0.1883
 4397SOL    HW124650   0.325   1.509   4.300 -0.1939 -1.9145 -0.4826
 4397SOL    HW224651   0.328   1.530   4.448  0.6098 -1.1512  0.4365
 4398SOL     OW24652   1.478   2.307   2.386  0.2786 -0.0522  0.4604
 4398SOL    HW124653   1.493   2.293   2.292 -0.2631 -1.5013  0.5916
 4398SOL    HW224654   1.463   2.402   2.384 -1.6414 -0.4036 -1.5505
 4399SOL     OW24655   0.248   1.253   3.521  0.0387 -0.3800  0.0834
 4399SOL    HW124656   0.212   1.304   3.448 -0.7733  1.2190  1.6037
 4399SOL    HW224657   0.169   1.245   3.574  0.2343  1.3517  0.6543
 4400SOL     OW24658   3.498   1.849   9.546 -0.2323  0.7759 -0.0735
 4400SOL    HW124659   3.408   1.877   9.536  0.7876  3.5749 -1.3351
 4400SOL    HW224660   3.504   1.823   9.639 -0.1641  1.6879  0.1750
 4401SOL     OW24661   1.178   4.647  17.511 -0.1974  0.2779 -0.1074
 4401SOL    HW124662   1.096   4.597  17.518 -0.5312  0.5309 -2.2390
 4401SOL    HW224663   1.246   4.583  17.534 -0.8398  0.1669  1.4916
 4402SOL     OW24664   2.555   2.779  10.818  0.3332  0.0603  0.1339
 4402SOL    HW124665   2.522   2.852  10.767  0.1739  0.5004  0.8641
 4402SOL    HW224666   2.530   2.825  10.898 -2.5177 -1.5631  0.1642
 4403SOL     OW24667   4.715   0.221   3.914 -0.1352  0.1974 -0.6386
 4403SOL    HW124668   0.071   0.211   3.862 -0.7576  0.1327 -1.5990
 4403SOL    HW224669   4.723   0.309   3.950  0.1504 -0.5780  1.1736
 4404SOL     OW24670   0.871   2.306   1.603 -0.1261 -0.5806 -0.0016
 4404SOL    HW124671   0.832   2.250   1.535 -0.5095  1.2888 -1.3330
 4404SOL    HW224672   0.788   2.345   1.628  0.1954 -0.1232  0.3496
 4405SOL     OW24673   2.636   1.324   2.699  0.5360 -0.4719  0.6618
 4405SOL    HW124674   2.637   1.389   2.628 -3.4520 -1.4673 -0.2964
 4405SOL    HW224675   2.701   1.357   2.760 -0.8491  1.6109  1.0076
 4406SOL     OW24676   4.205   4.394   5.637 -0.2458  0.3346 -0.3042
 4406SOL    HW124677   4.204   4.486   5.664 -0.8051  0.1755  0.1978
 4406SOL    HW224678   4.296   4.366   5.646  0.1542  1.9870  0.7950
 4407SOL     OW24679   1.203   2.032   0.948 -0.1871 -0.2018  0.1159
 4407SOL    HW124680   1.138   1.962   0.958 -0.5591  0.3521  1.6142
 4407SOL    HW224681   1.147   2.108   0.961  1.9333  1.1737  1.1540
 4408SOL     OW24682   2.424   2.127  11.134 -0.1565 -0.0199 -0.4013
 4408SOL    HW124683   2.509   2.119  11.177 -0.9001 -0.5818  0.9375
 4408SOL    HW224684   2.417   2.222  11.122  0.2133  0.2213  1.3030
 4409SOL     OW24685   4.155   1.824   1.641 -0.1686  0.4373 -0.0379
 4409SOL    HW124686   4.181   1.768   1.714 -0.7125 -0.0172 -0.1955
 4409SOL    HW224687   4.082   1.781   1.597  0.5528 -1.9534  1.0909
 4410SOL     OW24688   4.139   0.821  16.265  0.1206 -0.0422  0.1028
 4410SOL    HW124689   4.057   0.772  16.264 -0.3775  0.8010 -0.0768
 4410SOL    HW224690   4.112   0.906  16.230 -3.1542 -2.2481 -2.6977
 4411SOL     OW24691   3.695   4.409  11.114  0.1646 -0.7528 -0.3838
 4411SOL    HW124692   3.781   4.431  11.149 -1.0652 -0.7854  2.6105
 4411SOL    HW224693   3.728   4.344  11.052 -1.7351  0.1508 -2.3696
 4412SOL     OW24694   2.514   3.855   1.284 -0.1297 -0.1879 -0.0702
 4412SOL    HW124695   2.571   3.899   1.220  2.2907  0.1964  2.3281
 4412SOL    HW224696   2.458   3.803   1.227 -0.8943  1.7911 -1.0972
 4413SOL     OW24697   0.316   0.102   1.948 -0.0711  0.5218  0.0515
 4413SOL    HW124698   0.410   0.084   1.938  0.0511  0.6875  0.8971
 4413SOL    HW224699   0.295   0.116   1.856  1.0628 -1.0673 -0.4450
 4414SOL     OW24700   1.190   1.487   9.081 -0.0335  0.1562  0.4149
 4414SOL    HW124701   1.110   1.454   9.124 -0.1330 -1.3140 -0.9029
 4414SOL    HW224702   1.156   1.536   9.007 -1.0620  0.7115  1.2468
 4415SOL     OW24703   2.848   0.633   1.330 -0.3313 -0.1048 -0.2706
 4415SOL    HW124704   2.758   0.620   1.300 -0.3773 -0.9979  0.2374
 4415SOL    HW224705   2.859   0.726   1.312 -0.4802 -0.1062 -0.3656
 4416SOL     OW24706   2.977   1.991   3.090 -0.2660 -0.1561  0.5458
 4416SOL    HW124707   2.952   1.910   3.134 -0.9382 -0.9331 -1.2792
 4416SOL    HW224708   2.903   2.044   3.119 -0.9207 -0.5188 -0.4504
 4417SOL     OW24709   2.212   2.719   9.349 -0.5854  0.0936 -0.3893
 4417SOL    HW124710   2.119   2.708   9.326 -0.7432 -0.8295  0.6725
 4417SOL    HW224711   2.236   2.627   9.335 -0.3273 -0.1031  1.3517
 4418SOL     OW24712   3.740   1.162   7.152 -0.0220 -0.4587  0.0614
 4418SOL    HW124713   3.768   1.243   7.195  0.2050  0.4030 -1.7313
 4418SOL    HW224714   3.645   1.173   7.154 -0.1913 -1.7089 -1.1425
 4419SOL     OW24715   0.332   0.563  15.160  0.0738 -0.0482 -0.2592
 4419SOL    HW124716   0.267   0.582  15.228  0.4379 -2.2151  0.7112
 4419SOL    HW224717   0.332   0.467  15.164  1.9313 -0.0237  0.5701
 4420SOL     OW24718   4.251   2.020   8.388 -0.5950  0.3555  0.7483
 4420SOL    HW124719   4.232   1.927   8.394 -1.3896  0.5631  1.5539
 4420SOL    HW224720   4.167   2.049   8.352 -0.0891  1.0206  0.1008
 4421SOL     OW24721   1.968   4.665   0.780  0.5639 -0.3923 -0.1627
 4421SOL    HW124722   1.954   0.036   0.774  2.7115 -0.0228  0.7091
 4421SOL    HW224723   1.885   4.633   0.817 -0.8990  1.1454 -2.0996
 4422SOL     OW24724   3.727   0.122   8.563  0.5884  0.4073  1.1152
 4422SOL    HW124725   3.779   0.087   8.635  1.3736 -0.0987  0.3079
 4422SOL    HW224726   3.668   0.046   8.553  0.7090  0.4740 -0.1827
 4423SOL     OW24727   3.521   0.108   7.543  0.4034 -0.3476  0.0608
 4423SOL    HW124728   3.583   0.176   7.517 -1.5207  1.4984  0.3229
 4423SOL    HW224729   3.451   0.159   7.583 -0.9157 -0.2690 -2.3426
 4424SOL     OW24730   2.391   0.767   1.769  0.3501 -0.0436 -0.5263
 4424SOL    HW124731   2.321   0.702   1.769 -0.3357  0.7086 -2.2233
 4424SOL    HW224732   2.362   0.809   1.851 -2.4246  0.9688 -2.0058
 4425SOL     OW24733   3.275   2.358  11.461  0.3351  0.4432  0.0186
 4425SOL    HW124734   3.314   2.382  11.376  1.5711  2.5166  1.1571
 4425SOL    HW224735   3.260   2.437  11.513  1.6657 -0.1990  1.3829
 4426SOL     OW24736   2.826   4.468  13.421  0.3587  0.3132  0.3293
 4426SOL    HW124737   2.901   4.517  13.454 -0.0485 -0.0382  1.7951
 4426SOL    HW224738   2.798   4.535  13.358 -1.2821 -0.9486 -0.2907
 4427SOL     OW24739   0.415   2.073   0.494  0.3196  0.4364  0.4833
 4427SOL    HW124740   0.382   2.044   0.409  1.9187 -3.1261  1.0616
 4427SOL    HW224741   0.427   2.166   0.477  1.0996  0.3392  0.4868
 4428SOL     OW24742   3.740   2.464   4.801  0.2742  0.3679  0.0052
 4428SOL    HW124743   3.667   2.457   4.739  0.1671  0.0030  0.1732
 4428SOL    HW224744   3.780   2.379   4.783 -3.0172 -1.0637 -0.6275
 4429SOL     OW24745   3.930   3.538   7.542  0.3540 -0.4225 -0.3914
 4429SOL    HW124746   3.904   3.610   7.483 -1.7307  0.6115  1.8129
 4429SOL    HW224747   3.994   3.586   7.593 -1.1103 -0.3995  1.4221
 4430SOL     OW24748   0.331   2.415   4.153 -0.1793  0.4425 -0.1821
 4430SOL    HW124749   0.263   2.379   4.210 -0.1553 -0.0862 -0.4895
 4430SOL    HW224750   0.408   2.358   4.155 -1.1809 -0.8589  1.4444
 4431SOL     OW24751   3.061   1.378  16.392  0.3097  0.4362  0.0657
 4431SOL    HW124752   3.038   1.296  16.348  0.7063  2.0780 -3.1608
 4431SOL    HW224753   2.980   1.388  16.443  1.3086  1.0357  1.5470
 4432SOL     OW24754   4.149   1.601   4.417  0.1159 -0.1822  0.2834
 4432SOL    HW124755   4.235   1.567   4.441  0.9119  1.1012 -0.8149
 4432SOL    HW224756   4.148   1.679   4.472  1.8620 -0.5032  0.7701
 4433SOL     OW24757   1.541   3.305   5.182  0.0604  0.2435  0.1993
 4433SOL    HW124758   1.552   3.397   5.206 -0.1271  0.1485  0.6544
 4433SOL    HW224759   1.507   3.318   5.094  0.1757  1.6430  0.3597
 4434SOL     OW24760   1.935   3.918   4.808  0.4503 -0.1625  0.0346
 4434SOL    HW124761   2.000   3.971   4.854  1.1412 -1.5050  0.5735
 4434SOL    HW224762   1.937   3.957   4.721 -2.4725  2.7432  1.2535
 4435SOL     OW24763   4.164   4.258   2.293 -0.0848  0.2673  0.7048
 4435SOL    HW124764   4.153   4.349   2.267 -1.1594  0.0062  0.2425
 4435SOL    HW224765   4.197   4.254   2.382 -0.2266  2.6292  0.8475
 4436SOL     OW24766   2.777   1.590   9.482 -0.2035  0.0716 -0.0873
 4436SOL    HW124767   2.785   1.656   9.551  0.9954 -0.5005  0.3285
 4436SOL    HW224768   2.869   1.591   9.454  0.0754  1.2914  0.8602
 4437SOL     OW24769   2.890   3.141   9.299 -0.1453 -0.0085 -0.4380
 4437SOL    HW124770   2.864   3.177   9.214 -1.3420  0.3476  0.0804
 4437SOL    HW224771   2.953   3.072   9.276 -2.1027 -1.7524 -0.6057
 4438SOL     OW24772   4.131   2.060   7.439  0.7052 -0.3443  0.1801
 4438SOL    HW124773   4.076   2.032   7.366  1.1219 -0.2207 -0.1844
 4438SOL    HW224774   4.100   2.006   7.511  1.6983  0.8892  1.5291
 4439SOL     OW24775   3.616   0.221  13.407 -0.0897 -0.0471 -0.5153
 4439SOL    HW124776   3.594   0.149  13.467 -1.7930 -0.1021 -1.2016
 4439SOL    HW224777   3.691   0.179  13.366  0.0873  1.0756 -1.3219
 4440SOL     OW24778   3.253   2.263   3.591  0.2065 -0.2148 -0.0671
 4440SOL    HW124779   3.211   2.303   3.667  1.4344 -0.4365  0.7209
 4440SOL    HW224780   3.204   2.182   3.575  0.4415 -0.4926  0.6331
 4441SOL     OW24781   2.057   1.036  15.517  0.1804 -0.4170  0.1101
 4441SOL    HW124782   2.056   1.031  15.422 -1.3621 -0.1278  0.1164
 4441SOL    HW224783   2.148   1.045  15.545 -0.1058  0.1054  0.8879
 4442SOL     OW24784   3.717   1.237  16.960 -0.5427 -0.2723  0.1191
 4442SOL    HW124785   3.758   1.151  16.968  1.3828  0.7806  1.6208
 4442SOL    HW224786   3.741   1.254  16.869  1.1711 -1.0212  0.4343
 4443SOL     OW24787   3.100   2.196   7.862  0.5902  0.5699 -0.1961
 4443SOL    HW124788   3.133   2.231   7.944  0.7118 -2.6787  1.1414
 4443SOL    HW224789   3.098   2.104   7.887 -1.1607  0.8139  0.5345
 4444SOL     OW24790   2.878   0.513   5.195 -0.3546  0.6585 -0.1147
 4444SOL    HW124791   2.844   0.542   5.110 -0.3924 -2.2161 -1.0944
 4444SOL    HW224792   2.882   0.591   5.251  1.5755  1.1345 -0.9182
 4445SOL     OW24793   1.250   1.092   6.927 -0.2545 -0.2018 -0.2473
 4445SOL    HW124794   1.157   1.084   6.906 -0.5313  2.4519  0.0803
 4445SOL    HW224795   1.304   1.088   6.848  0.8183  0.2001  0.4687
 4446SOL     OW24796   2.192   1.811   1.490 -0.2179 -0.4812 -0.0453
 4446SOL    HW124797   2.128   1.882   1.490  2.1633  1.6430  2.4113
 4446SOL    HW224798   2.151   1.749   1.430 -0.6221  0.7964 -1.0902
 4447SOL     OW24799   2.172   3.232   2.916 -0.5964  0.1794  0.3784
 4447SOL    HW124800   2.185   3.230   2.821 -2.3061 -1.1878  0.1675
 4447SOL    HW224801   2.139   3.142   2.926 -2.0660  0.6381 -0.3673
 4448SOL     OW24802   3.833   1.727   4.134  0.2490  0.5287  0.4006
 4448SOL    HW124803   3.739   1.740   4.125  0.5207  1.8100 -0.4865
 4448SOL    HW224804   3.858   1.780   4.058 -0.9444  0.2256 -0.2023
 4449SOL     OW24805   3.997   3.342   0.235 -0.0846  0.3797 -0.3417
 4449SOL    HW124806   3.992   3.361   0.141 -1.2690 -1.1097 -0.5788
 4449SOL    HW224807   4.004   3.246   0.236 -1.7275  0.2443 -2.7621
 4450SOL     OW24808   0.702   1.046  14.866 -0.1868 -0.1121 -0.6927
 4450SOL    HW124809   0.767   1.007  14.807  0.7823 -0.0828  0.3545
 4450SOL    HW224810   0.697   1.125  14.811 -2.8614 -1.7454 -2.8488
 4451SOL     OW24811   3.349   3.981  17.389 -0.1016 -0.1210 -0.0158
 4451SOL    HW124812   3.293   3.905  17.407 -1.4506  0.6438 -0.9192
 4451SOL    HW224813   3.423   3.941  17.343  0.7558  0.1237  1.1595
 4452SOL     OW24814   4.406   4.561   6.274 -0.7693 -0.0973  0.3365
 4452SOL    HW124815   4.403   4.647   6.316 -1.8583 -0.5201  1.0981
 4452SOL    HW224816   4.315   4.551   6.248 -0.7877 -1.3482  0.9175
 4453SOL     OW24817   1.966   3.519   8.486  0.1632  0.5755 -0.0568
 4453SOL    HW124818   1.973   3.586   8.417 -1.4896  1.0886  0.2759
 4453SOL    HW224819   2.052   3.521   8.527  0.2359 -2.3508 -0.0757
 4454SOL     OW24820   3.956   3.144   3.921 -0.1155  0.3599  0.2119
 4454SOL    HW124821   3.999   3.059   3.913 -0.4177  0.3235 -1.0364
 4454SOL    HW224822   3.946   3.180   3.833 -1.9629  0.5627  0.4893
 4455SOL     OW24823   2.170   2.492   6.281 -0.0043  0.1137  0.0423
 4455SOL    HW124824   2.122   2.570   6.252  1.7812  0.9279 -0.6938
 4455SOL    HW224825   2.259   2.501   6.248 -0.6030 -1.0615 -1.9469
 4456SOL     OW24826   0.769   3.837  14.953 -0.5652 -0.1756 -0.5816
 4456SOL    HW124827   0.792   3.768  15.016 -2.9560  0.2259  0.7185
 4456SOL    HW224828   0.686   3.803  14.919 -0.1313 -0.6489 -1.1775
 4457SOL     OW24829   1.845   0.246   4.813  1.1040  0.2214  0.2833
 4457SOL    HW124830   1.810   0.279   4.730  1.6026 -1.1730 -0.4711
 4457SOL    HW224831   1.789   0.169   4.819 -0.2730  1.0497 -1.7617
 4458SOL     OW24832   3.815   1.114   8.481 -0.2124 -0.1397 -0.4076
 4458SOL    HW124833   3.772   1.047   8.534  1.2549  0.4581  1.5134
 4458SOL    HW224834   3.775   1.193   8.517  0.7304  0.1236  0.0792
 4459SOL     OW24835   0.670   1.789  11.005 -0.3672  0.6143  0.5030
 4459SOL    HW124836   0.676   1.871  11.054  1.9800  0.9997 -0.4065
 4459SOL    HW224837   0.708   1.819  10.922  0.3482 -2.5740 -0.3454
 4460SOL     OW24838   1.613   1.031  10.157  0.2548 -0.0215 -0.3592
 4460SOL    HW124839   1.659   1.016  10.075 -0.0940  0.3939 -0.6281
 4460SOL    HW224840   1.529   1.064  10.125  0.0205 -0.4982 -0.2529
 4461SOL     OW24841   3.882   1.477   4.259 -0.0147  0.2207 -0.3944
 4461SOL    HW124842   3.883   1.483   4.354  0.1164  2.8849 -0.5785
 4461SOL    HW224843   3.914   1.567   4.250  1.9290 -0.1731  2.5114
 4462SOL     OW24844   2.799   0.937   1.356 -0.1752 -0.7217 -0.5640
 4462SOL    HW124845   2.876   0.958   1.304  0.3224 -1.1486  0.0062
 4462SOL    HW224846   2.729   0.995   1.324 -0.7799 -0.2000  1.7469
 4463SOL     OW24847   3.231   4.024   0.450  0.1435 -0.0806 -0.0927
 4463SOL    HW124848   3.199   3.964   0.382  2.0037 -1.3450  0.1418
 4463SOL    HW224849   3.166   4.011   0.519  1.5080 -0.3877  1.1107
 4464SOL     OW24850   1.977   2.672   6.233 -0.2234  0.3962 -0.0122
 4464SOL    HW124851   1.926   2.706   6.306 -0.7724  0.0481 -0.2309
 4464SOL    HW224852   1.964   2.731   6.159 -0.1771  0.3837 -0.0300
 4465SOL     OW24853   3.968   4.020   0.819  0.2055 -0.5220 -0.2458
 4465SOL    HW124854   3.911   4.053   0.749 -2.1343 -1.2627  1.2999
 4465SOL    HW224855   4.049   3.988   0.779  0.6722  1.5948 -1.0379
 4466SOL     OW24856   2.994   1.147   2.850  0.0082 -0.3405 -0.1645
 4466SOL    HW124857   2.954   1.080   2.905  3.3110 -1.0741  1.3731
 4466SOL    HW224858   2.928   1.216   2.852  1.0466  0.6316  0.5751
 4467SOL     OW24859   3.017   1.972  16.732  0.3342 -1.0756  0.2638
 4467SOL    HW124860   3.054   1.959  16.820  2.6178  1.5157 -0.3144
 4467SOL    HW224861   2.936   2.016  16.760  0.8221  0.6892 -1.0934
 4468SOL     OW24862   2.703   3.321   7.326 -1.0797  0.2468  0.3057
 4468SOL    HW124863   2.633   3.386   7.319 -0.7362  0.7086  1.2053
 4468SOL    HW224864   2.672   3.253   7.266  0.6375 -0.0332 -0.2753
 4469SOL     OW24865   1.970   1.498  15.500 -0.1031  0.2712  0.3667
 4469SOL    HW124866   1.941   1.427  15.443  0.7851  0.6441 -0.5549
 4469SOL    HW224867   1.898   1.499  15.562 -0.7460  0.7718 -0.3850
 4470SOL     OW24868   0.715   2.586   5.334 -0.0368 -0.2124 -0.0746
 4470SOL    HW124869   0.692   2.590   5.427 -1.1351 -4.0330 -0.1669
 4470SOL    HW224870   0.626   2.575   5.299  0.9954  1.3463 -3.2470
 4471SOL     OW24871   2.308   0.580   9.683  0.3844 -0.3614  0.2192
 4471SOL    HW124872   2.216   0.599   9.700  0.3689 -0.0311 -0.2419
 4471SOL    HW224873   2.310   0.484   9.687  0.8172 -0.3595  0.0408
 4472SOL     OW24874   1.447   3.891   2.251 -0.0532  0.4627 -0.5452
 4472SOL    HW124875   1.483   3.904   2.339 -0.8536 -0.2351 -0.1227
 4472SOL    HW224876   1.503   3.948   2.198 -0.7409  0.5105 -1.2114
 4473SOL     OW24877   4.119   2.131   5.017  0.1099  0.5833 -0.4557
 4473SOL    HW124878   4.125   2.103   4.926 -0.2802  1.1073 -0.6372
 4473SOL    HW224879   4.126   2.047   5.064  0.6958  2.5320  2.9585
 4474SOL     OW24880   0.843   0.100   4.707  0.1357 -0.2586 -0.3398
 4474SOL    HW124881   0.795   0.144   4.637 -0.0405 -0.3576 -0.2811
 4474SOL    HW224882   0.774   0.107   4.772  1.3652 -1.1377  1.0635
 4475SOL     OW24883   4.500   2.936   9.273 -0.6068  0.4976  0.2537
 4475SOL    HW124884   4.537   3.023   9.280 -0.3136  0.3246  0.8933
 4475SOL    HW224885   4.575   2.886   9.241 -2.0681 -1.2426 -0.4706
 4476SOL     OW24886   1.291   1.609   3.163  0.3800  0.0944 -0.3696
 4476SOL    HW124887   1.281   1.673   3.234  0.6486 -0.6559  0.3503
 4476SOL    HW224888   1.360   1.548   3.191 -0.7343 -0.7565  0.5237
 4477SOL     OW24889   0.315   1.148   6.326  0.3879  0.6753 -0.0816
 4477SOL    HW124890   0.238   1.203   6.319  1.6384  2.1382 -2.3665
 4477SOL    HW224891   0.333   1.136   6.420  1.6082  2.4129 -0.0958
 4478SOL     OW24892   1.168   3.926   6.981  0.2313 -0.4172  0.0247
 4478SOL    HW124893   1.083   3.883   6.988  0.6260 -1.1824  0.0771
 4478SOL    HW224894   1.185   3.903   6.889 -1.7735  1.3788 -0.8256
 4479SOL     OW24895   2.101   3.686   2.406 -0.2104 -0.1164  0.0153
 4479SOL    HW124896   2.049   3.687   2.325  1.8277 -1.9131 -1.3212
 4479SOL    HW224897   2.186   3.708   2.368  0.1422  0.0581  0.9173
 4480SOL     OW24898   2.448   4.686  13.214  0.1402 -0.2966  0.0760
 4480SOL    HW124899   2.466   0.056  13.218 -0.1963 -0.0874 -3.3749
 4480SOL    HW224900   2.373   4.681  13.155  0.2458 -1.0690  0.0047
 4481SOL     OW24901   1.211   2.761   9.046 -0.0568  0.0346  0.3851
 4481SOL    HW124902   1.132   2.732   9.002 -0.2932  3.3750 -1.4175
 4481SOL    HW224903   1.205   2.850   9.011 -1.2193 -0.0254  0.4306
 4482SOL     OW24904   3.154   1.380   2.170  0.0769 -0.0166  0.1155
 4482SOL    HW124905   3.248   1.394   2.159 -0.3102 -0.3941 -3.7340
 4482SOL    HW224906   3.153   1.291   2.203  1.2224 -0.5525 -1.3118
 4483SOL     OW24907   4.379   4.429   1.365  0.0292 -0.2257 -0.5435
 4483SOL    HW124908   4.424   4.414   1.448 -0.3443 -3.0861 -0.8346
 4483SOL    HW224909   4.420   4.365   1.307 -0.7708 -0.0541 -1.3141
 4484SOL     OW24910   2.036   0.328  14.667  0.3334  0.1856  0.3960
 4484SOL    HW124911   2.083   0.391  14.612  2.0536 -1.2318  0.2580
 4484SOL    HW224912   1.981   0.295  14.595  0.1085  1.4846 -0.0300
 4485SOL     OW24913   2.496   2.889   5.938  0.4769 -0.3147  0.2333
 4485SOL    HW124914   2.478   2.975   5.976 -0.9816 -0.2989 -0.4828
 4485SOL    HW224915   2.582   2.869   5.973  0.2495  0.0636  1.0122
 4486SOL     OW24916   1.525   1.575   0.261 -0.5655 -0.5883 -0.0250
 4486SOL    HW124917   1.525   1.487   0.300  0.3718 -0.3479  0.5014
 4486SOL    HW224918   1.588   1.614   0.321 -0.6054  1.5124 -1.3520
 4487SOL     OW24919   0.219   3.001   5.265 -0.0330  0.1095 -0.3046
 4487SOL    HW124920   0.311   2.979   5.250 -0.0237 -1.3264  1.8102
 4487SOL    HW224921   0.200   2.965   5.352 -1.1134  2.8886  0.5948
 4488SOL     OW24922   4.641   3.620  17.317 -0.5761 -0.1819  0.0694
 4488SOL    HW124923   4.637   3.547  17.255  0.5400 -1.4665  1.5480
 4488SOL    HW224924   4.553   3.619  17.355  0.3791 -0.4469  2.2572
 4489SOL     OW24925   1.138   2.556   5.415  0.2025 -0.4010  0.3787
 4489SOL    HW124926   1.059   2.562   5.468  0.8095  2.2044  0.9883
 4489SOL    HW224927   1.133   2.462   5.396  1.2738 -0.3912  0.0061
 4490SOL     OW24928   3.868   0.271   9.523  0.1204  0.1402 -0.5175
 4490SOL    HW124929   3.776   0.257   9.499  0.5598 -2.4529 -0.6785
 4490SOL    HW224930   3.906   0.311   9.445  0.9174  1.1297  0.3688
 4491SOL     OW24931   0.030   2.412   5.192 -0.0731 -0.2208 -0.5513
 4491SOL    HW124932   0.004   2.494   5.233  2.4932  1.1367 -1.6431
 4491SOL    HW224933   4.691   2.390   5.123 -0.5666  1.2182 -0.5517
 4492SOL     OW24934   4.075   2.474   0.065  0.1183 -0.2293  0.6147
 4492SOL    HW124935   4.129   2.426   0.126  1.9506  0.4602 -0.4759
 4492SOL    HW224936   4.010   2.502   0.129  0.7742  1.9438  0.3265
 4493SOL     OW24937   1.544   1.439   5.937 -0.1117  0.4256  0.5360
 4493SOL    HW124938   1.493   1.484   5.870 -0.6909 -0.1797  0.5773
 4493SOL    HW224939   1.633   1.443   5.903 -0.1312  1.6964  0.6132
 4494SOL     OW24940   1.045   0.335   4.571  0.0062  0.6594 -0.2369
 4494SOL    HW124941   1.101   0.338   4.493  1.8060 -0.4046  1.0365
 4494SOL    HW224942   1.042   0.240   4.582 -0.5622  0.3517 -3.0060
 4495SOL     OW24943   1.435   2.590   2.250  0.2281  0.3405  0.1714
 4495SOL    HW124944   1.403   2.539   2.176  0.0825  0.2805  0.2770
 4495SOL    HW224945   1.524   2.609   2.221  0.1140 -1.0820 -1.0818
 4496SOL     OW24946   1.785   3.198   5.849  0.1236 -0.4471 -0.2077
 4496SOL    HW124947   1.810   3.128   5.909 -1.0917  1.7269  2.7795
 4496SOL    HW224948   1.867   3.208   5.800  0.8964  0.1660  1.2184
 4497SOL     OW24949   1.125   3.160   9.462  0.1654  0.7119 -0.4501
 4497SOL    HW124950   1.215   3.146   9.490  0.0662  0.5606 -0.2061
 4497SOL    HW224951   1.074   3.111   9.527 -0.3884  0.6170 -0.9540
 4498SOL     OW24952   0.293   3.065   6.135  0.3321 -0.5103  0.2185
 4498SOL    HW124953   0.342   3.055   6.053  1.1126  0.7919  0.5170
 4498SOL    HW224954   0.357   3.062   6.207 -1.1659 -1.6680  1.5089
 4499SOL     OW24955   0.027   3.495   6.634 -0.7936 -0.1873  0.3271
 4499SOL    HW124956   4.721   3.511   6.544 -1.1830 -0.0357  0.4833
 4499SOL    HW224957   0.094   3.430   6.613 -0.5790  1.1233 -3.1606
 4500SOL     OW24958   2.634   2.433   0.552 -0.2454  0.2683 -0.2288
 4500SOL    HW124959   2.701   2.374   0.586  0.9735  0.9800 -1.4179
 4500SOL    HW224960   2.566   2.365   0.557  0.7965 -0.6629  1.4151
 4501SOL     OW24961   1.803   4.677  14.422 -0.1414 -0.3912  0.3084
 4501SOL    HW124962   1.769   0.040  14.398  1.2345 -0.0413 -0.3323
 4501SOL    HW224963   1.727   4.620  14.405  0.5216 -1.0768 -0.3482
 4502SOL     OW24964   1.569   1.587   6.897 -0.3901  0.3794 -0.2628
 4502SOL    HW124965   1.615   1.511   6.863 -0.4329 -0.2335  1.0867
 4502SOL    HW224966   1.643   1.645   6.914  0.5053 -0.6897 -0.5043
 4503SOL     OW24967   1.136   1.151  12.481  0.4103  0.0775  0.4295
 4503SOL    HW124968   1.062   1.180  12.428 -0.5294 -0.3972  1.4763
 4503SOL    HW224969   1.098   1.154  12.569  0.0840 -2.1029  0.3695
 4504SOL     OW24970   1.338   2.049   9.660 -0.0363  0.0691  0.0979
 4504SOL    HW124971   1.332   2.096   9.577 -0.5971  0.3906  0.3183
 4504SOL    HW224972   1.258   1.997   9.651 -0.5156  0.9987 -1.0382
 4505SOL     OW24973   0.120   0.502   3.849  0.1530  0.5501 -0.3666
 4505SOL    HW124974   0.024   0.504   3.854  0.1207 -0.6095 -0.7282
 4505SOL    HW224975   0.141   0.504   3.942 -0.3297  0.2787 -0.2548
 4506SOL     OW24976   0.235   2.927   4.484 -0.1617 -0.5342  0.5699
 4506SOL    HW124977   0.253   2.847   4.533  1.6464 -0.3020  0.2854
 4506SOL    HW224978   0.160   2.963   4.531 -0.4076  1.4906 -1.3675
 4507SOL     OW24979   3.723   4.525   4.051  0.3892  0.0759  0.3378
 4507SOL    HW124980   3.642   4.537   4.001 -0.0190  1.3749  1.3084
 4507SOL    HW224981   3.685   4.506   4.137  0.0430 -1.8792 -0.2353
 4508SOL     OW24982   0.975   2.254   0.935  0.2878 -0.5987  0.6378
 4508SOL    HW124983   0.989   2.345   0.959 -0.9597  0.2314 -1.7979
 4508SOL    HW224984   0.943   2.268   0.846  0.0739 -0.0255  0.8070
 4509SOL     OW24985   2.882   2.017   3.779  0.0238 -0.0057  0.2502
 4509SOL    HW124986   2.931   1.943   3.814  0.0455 -0.2653 -0.3291
 4509SOL    HW224987   2.821   1.977   3.717 -0.6013  0.2762  0.6856
 4510SOL     OW24988   1.041   1.077   6.282  0.4842 -0.3474 -0.2829
 4510SOL    HW124989   1.057   0.994   6.237  0.9826  0.3282 -1.3314
 4510SOL    HW224990   0.975   1.105   6.219 -0.6313  2.8742  2.3214
 4511SOL     OW24991   4.316   1.428  10.616  0.5955  0.5410 -0.2079
 4511SOL    HW124992   4.324   1.516  10.652  0.6682 -0.3319  1.8662
 4511SOL    HW224993   4.398   1.391  10.649 -0.4750 -2.7417 -1.2070
 4512SOL     OW24994   1.246   4.529   5.962  0.2954 -0.1280 -0.2674
 4512SOL    HW124995   1.178   4.478   6.005 -0.0953  1.5267  1.0768
 4512SOL    HW224996   1.281   4.587   6.029  1.1951  0.2867 -1.1029
 4513SOL     OW24997   4.591   4.232  11.245 -0.6703 -0.1022  0.2157
 4513SOL    HW124998   4.619   4.155  11.196  1.2628  0.4719  0.4342
 4513SOL    HW224999   4.673   4.263  11.285  0.6604 -0.4748 -2.2501
 4514SOL     OW25000   3.320   4.618   5.292  0.0049 -0.6708 -0.7933
 4514SOL    HW125001   3.371   4.560   5.349  0.1531 -1.6105 -1.8611
 4514SOL    HW225002   3.282   4.550   5.236 -1.1003  0.4535 -1.4171
 4515SOL     OW25003   0.123   2.475   6.264  0.2145 -0.4747  1.1330
 4515SOL    HW125004   0.156   2.385   6.256 -1.8385 -1.2945  2.0181
 4515SOL    HW225005   0.167   2.484   6.349 -0.2624  0.4943  1.2768
 4516SOL     OW25006   0.173   4.239   0.614 -0.8516 -0.2004 -0.0972
 4516SOL    HW125007   0.114   4.179   0.659 -0.2536 -0.6709  0.0638
 4516SOL    HW225008   0.106   4.303   0.591 -1.0694 -0.2472  0.4083
 4517SOL     OW25009   0.733   3.227   6.557  0.7519  0.6536 -0.2625
 4517SOL    HW125010   0.640   3.243   6.572 -0.0479 -2.6911 -1.4904
 4517SOL    HW225011   0.777   3.310   6.541  2.0057  0.2475  1.1112
 4518SOL     OW25012   1.574   3.353  11.155  0.0937  0.2730  0.0911
 4518SOL    HW125013   1.550   3.325  11.243 -1.3416 -0.1821 -0.4445
 4518SOL    HW225014   1.622   3.278  11.120 -0.4234 -0.2448  0.4987
 4519SOL     OW25015   2.853   4.395   2.995 -0.7102 -0.5537 -0.1445
 4519SOL    HW125016   2.758   4.381   2.991 -0.7816 -0.6964  1.9932
 4519SOL    HW225017   2.888   4.371   3.081  0.4234 -0.2220 -0.5236
 4520SOL     OW25018   3.910   3.231   9.047  0.2930  0.3364  0.0064
 4520SOL    HW125019   3.846   3.243   9.117 -1.7524  1.7060 -2.1114
 4520SOL    HW225020   3.855   3.215   8.971  0.0912 -0.3378  0.2962
 4521SOL     OW25021   1.634   0.082   4.833  0.2355  1.0118  0.2076
 4521SOL    HW125022   1.544   0.094   4.802  0.4585  1.4123 -0.2837
 4521SOL    HW225023   1.644   4.712   4.816 -2.2374  0.8145 -0.2189
 4522SOL     OW25024   0.118   4.580  17.313  0.5102  0.1783  0.2839
 4522SOL    HW125025   0.042   4.621  17.353  0.6620  0.0616  0.6871
 4522SOL    HW225026   0.146   4.532  17.390  2.1260  1.2599  0.3580
 4523SOL     OW25027   0.926   4.687   8.329  0.2680 -0.3787 -0.5121
 4523SOL    HW125028   0.944   4.629   8.403 -0.5218 -1.0722 -0.8720
 4523SOL    HW225029   0.971   0.041   8.362  0.7844 -1.1823  0.6726
 4524SOL     OW25030   4.195   4.403   7.068 -0.3821  1.1223  0.2281
 4524SOL    HW125031   4.159   4.484   7.032  0.1086  0.9242 -0.7047
 4524SOL    HW225032   4.286   4.406   7.038  0.3687 -1.1252  2.2863
 4525SOL     OW25033   0.463   2.663   3.101  0.2474  1.0489 -0.0138
 4525SOL    HW125034   0.482   2.659   3.008 -3.3721  0.1590 -0.7228
 4525SOL    HW225035   0.382   2.613   3.092  1.0024 -0.3460  0.9492
 4526SOL     OW25036   2.953   3.925   9.047 -0.0644  0.2384 -0.2839
 4526SOL    HW125037   2.906   3.862   9.102 -0.3411 -0.1114 -0.9312
 4526SOL    HW225038   2.930   4.006   9.092  0.5205 -0.0127  0.4838
 4527SOL     OW25039   3.516   4.175   2.043  0.8257 -0.1596  1.0147
 4527SOL    HW125040   3.609   4.169   2.021  1.0236  0.6933  1.6147
 4527SOL    HW225041   3.489   4.084   2.052  2.0580 -0.6983 -0.7814
 4528SOL     OW25042   3.375   3.042   8.811 -0.3064 -0.1072  0.5047
 4528SOL    HW125043   3.292   3.073   8.775 -1.3101  0.2990  3.1563
 4528SOL    HW225044   3.345   3.018   8.899 -2.6961  0.7319 -0.0987
 4529SOL     OW25045   0.697   4.529  16.486 -0.6278  0.6152 -0.2410
 4529SOL    HW125046   0.627   4.594  16.491 -1.6202 -0.4361 -0.3045
 4529SOL    HW225047   0.719   4.521  16.578  1.3551 -0.8092 -0.8380
 4530SOL     OW25048   1.308   0.300  17.229  0.1693 -0.1781 -0.0243
 4530SOL    HW125049   1.358   0.255  17.161 -0.1479  0.9397 -1.0010
 4530SOL    HW225050   1.333   0.390  17.210 -0.8441  0.9149  3.7986
 4531SOL     OW25051   4.580   3.014   4.207 -0.7252 -0.0769 -0.3240
 4531SOL    HW125052   4.651   3.045   4.150 -0.8289  0.5125 -0.1399
 4531SOL    HW225053   4.589   3.064   4.289 -0.7936  1.8420 -1.4923
 4532SOL     OW25054   0.253   0.613  14.022 -0.1491 -0.2453 -0.4614
 4532SOL    HW125055   0.291   0.644  13.940  1.5648 -1.9967 -0.3413
 4532SOL    HW225056   0.273   0.686  14.081  0.1618 -0.1112 -0.7330
 4533SOL     OW25057   2.505   3.420   4.502 -0.2578  0.1486  0.1138
 4533SOL    HW125058   2.582   3.370   4.526 -0.1607  0.7258  1.0113
 4533SOL    HW225059   2.499   3.487   4.571  2.0304 -0.8897  1.3020
 4534SOL     OW25060   1.923   0.101   0.385  0.5989  0.0911 -0.2114
 4534SOL    HW125061   1.863   0.029   0.367 -0.8332  1.2562 -0.1079
 4534SOL    HW225062   1.912   0.106   0.480 -0.2590 -1.9981 -0.2108
 4535SOL     OW25063   2.323   1.436  15.888  0.3899  0.5395 -0.3760
 4535SOL    HW125064   2.375   1.501  15.839  2.5752  2.6070  4.7045
 4535SOL    HW225065   2.271   1.395  15.819  0.2774  0.8808 -0.4947
 4536SOL     OW25066   2.764   1.357   4.634  0.2812 -0.4205  0.3200
 4536SOL    HW125067   2.803   1.386   4.717 -1.8064  0.0061  1.1518
 4536SOL    HW225068   2.791   1.426   4.573  2.6872  1.9201  4.0154
 4537SOL     OW25069   1.176   0.341  11.461  0.2159  0.1078 -0.2426
 4537SOL    HW125070   1.163   0.359  11.554  0.2764  0.7949 -0.3671
 4537SOL    HW225071   1.133   0.257  11.446  0.8782 -0.5786  1.6264
 4538SOL     OW25072   1.342   2.763   6.289 -0.0546  0.1058 -0.6237
 4538SOL    HW125073   1.269   2.819   6.314  0.9587 -0.1611  2.8748
 4538SOL    HW225074   1.341   2.767   6.193  0.3982 -0.0808 -0.6396
 4539SOL     OW25075   4.070   0.275   1.256 -0.3941  0.0671 -0.3570
 4539SOL    HW125076   4.102   0.185   1.261 -1.3520 -0.3339 -1.3601
 4539SOL    HW225077   4.154   0.321   1.252 -0.3249 -0.0744 -0.5368
 4540SOL     OW25078   3.850   4.664   9.967  0.4689 -0.2233 -0.1567
 4540SOL    HW125079   3.828   4.693  10.055  2.6375 -3.4139  1.4471
 4540SOL    HW225080   3.795   0.004   9.921  0.4858  0.2693  0.4978
 4541SOL     OW25081   0.642   2.009   8.858  0.4016 -0.0959  0.4813
 4541SOL    HW125082   0.556   2.043   8.882  0.6437  1.0782 -0.2777
 4541SOL    HW225083   0.694   2.089   8.849 -1.8428  1.3362  0.1003
 4542SOL     OW25084   1.739   4.559   8.098 -0.4226  0.2803  0.0457
 4542SOL    HW125085   1.794   4.562   8.176 -0.5484  0.2824  0.1338
 4542SOL    HW225086   1.668   4.622   8.111 -0.0871  0.8576 -0.8792
 4543SOL     OW25087   1.040   3.508  14.807  0.0891  0.0449  0.5750
 4543SOL    HW125088   1.040   3.421  14.767 -0.7982 -0.4371  1.6434
 4543SOL    HW225089   1.099   3.500  14.882  0.9282 -0.1831 -0.1017
 4544SOL     OW25090   3.951   4.573  14.240  0.1465 -0.0565  0.1171
 4544SOL    HW125091   3.889   4.624  14.188  0.0603 -1.0345 -0.7322
 4544SOL    HW225092   3.980   4.647  14.293  1.8789  0.1390 -1.1282
 4545SOL     OW25093   1.731   3.294  16.170  0.0040 -0.4023 -0.3943
 4545SOL    HW125094   1.690   3.224  16.119 -2.2962  0.5189  0.2171
 4545SOL    HW225095   1.678   3.369  16.146  2.9741  1.9457  0.4178
 4546SOL     OW25096   4.093   0.188   2.676  0.6636  0.0299  0.3693
 4546SOL    HW125097   4.173   0.192   2.728  0.2123 -1.4742  1.1790
 4546SOL    HW225098   4.103   0.251   2.605  1.8477  1.9582  2.2491
 4547SOL     OW25099   3.580   0.114   0.570  0.8105  0.2279  0.0497
 4547SOL    HW125100   3.527   0.056   0.625 -2.4492  1.0895 -2.1901
 4547SOL    HW225101   3.570   0.071   0.485 -1.6700 -1.1238  0.9940
 4548SOL     OW25102   3.645   3.939   3.402  0.2970 -0.2864  0.2824
 4548SOL    HW125103   3.709   3.868   3.397 -0.7396 -1.1994  0.0554
 4548SOL    HW225104   3.587   3.906   3.333 -1.4082  1.7408  0.7422
 4549SOL     OW25105   2.069   1.184   2.022  0.8924  0.1121 -0.3232
 4549SOL    HW125106   2.135   1.156   2.086  0.5057  0.9056  0.4262
 4549SOL    HW225107   2.059   1.100   1.977 -0.7351 -0.9031  1.9181
 4550SOL     OW25108   2.588   3.895   9.178 -0.6831 -0.4948  0.2623
 4550SOL    HW125109   2.581   3.977   9.129  0.4324 -1.5720 -1.7016
 4550SOL    HW225110   2.506   3.860   9.143 -0.9725  1.6769 -1.2518
 4551SOL     OW25111   3.597   2.912   8.815  0.2007  0.1011 -0.5478
 4551SOL    HW125112   3.515   2.959   8.801  0.6048  0.8424 -0.4541
 4551SOL    HW225113   3.601   2.913   8.911  0.5178  0.7827 -0.5696
 4552SOL     OW25114   2.046   2.153   2.037 -0.2185 -0.6562 -0.0766
 4552SOL    HW125115   1.980   2.094   2.073 -1.0293  0.1367 -0.2781
 4552SOL    HW225116   2.035   2.226   2.098  1.8030 -1.2464  1.0079
 4553SOL     OW25117   1.517   4.479   7.569 -0.5766 -0.6139  0.2420
 4553SOL    HW125118   1.470   4.556   7.537  0.3761  0.1396  0.6670
 4553SOL    HW225119   1.442   4.427   7.599  0.2941 -2.2612 -0.4306
 4554SOL     OW25120   2.450   3.904   1.537 -0.0981 -0.4355 -0.2765
 4554SOL    HW125121   2.374   3.962   1.531  0.4387  0.3533  0.6220
 4554SOL    HW225122   2.481   3.903   1.446 -0.0219 -2.0231 -0.2313
 4555SOL     OW25123   2.365   1.629  14.217 -0.0780 -0.4670  0.0692
 4555SOL    HW125124   2.332   1.593  14.134 -0.0455  0.8657 -0.5274
 4555SOL    HW225125   2.289   1.618  14.274  0.9982 -2.4422  1.1107
 4556SOL     OW25126   0.937   0.971   7.672 -0.1538  0.5006 -0.1620
 4556SOL    HW125127   1.020   1.008   7.700 -0.1539 -0.8537  1.6366
 4556SOL    HW225128   0.885   0.987   7.751  0.7646  0.7733  0.3790
 4557SOL     OW25129   0.395   1.864  13.401  0.0474 -0.0251 -0.2059
 4557SOL    HW125130   0.322   1.829  13.452 -0.0202  1.9065  0.9903
 4557SOL    HW225131   0.374   1.842  13.310 -0.9664  0.8797 -0.1833
 4558SOL     OW25132   4.651   0.973   5.891 -0.1717 -0.1555  0.7046
 4558SOL    HW125133   0.010   0.984   5.845 -0.5459 -0.7505 -0.1195
 4558SOL    HW225134   4.685   0.955   5.979 -0.3962 -2.4545  0.3312
 4559SOL     OW25135   4.109   1.769   5.581 -0.2529 -0.0197  0.0580
 4559SOL    HW125136   4.074   1.689   5.542  0.7868 -0.1214 -0.6471
 4559SOL    HW225137   4.167   1.732   5.648  2.5183  2.1803 -1.1336
 4560SOL     OW25138   0.066   2.773   8.907  0.0546 -0.0492  0.2377
 4560SOL    HW125139   0.151   2.729   8.905 -0.3180 -0.6995 -0.9874
 4560SOL    HW225140   0.069   2.800   8.816  1.1923  0.8715  0.5519
 4561SOL     OW25141   2.059   1.670  16.788  0.5240  0.1964 -0.2032
 4561SOL    HW125142   2.123   1.599  16.784 -0.7554 -1.0223  0.7442
 4561SOL    HW225143   2.100   1.741  16.739 -1.4916  2.4007  1.2980
 4562SOL     OW25144   2.753   3.407   9.460  0.7059 -0.0986  0.4165
 4562SOL    HW125145   2.729   3.488   9.506  0.0784 -0.2261  0.3108
 4562SOL    HW225146   2.726   3.425   9.370  1.5710 -2.1517 -0.2524
 4563SOL     OW25147   1.005   1.518   5.963 -0.0863 -0.0077 -0.3131
 4563SOL    HW125148   0.946   1.554   6.029  0.9273 -0.5358  0.8842
 4563SOL    HW225149   1.063   1.594   5.956 -0.7665  0.6199  0.9430
 4564SOL     OW25150   3.340   2.231   8.418 -0.0181 -0.0475 -0.2133
 4564SOL    HW125151   3.424   2.187   8.408 -0.3776 -1.1498  1.6469
 4564SOL    HW225152   3.356   2.307   8.361  0.7326 -0.7111 -0.8811
 4565SOL     OW25153   4.419   2.176   3.442 -0.1564 -0.0129 -0.3625
 4565SOL    HW125154   4.494   2.235   3.440 -0.3709  0.3507  2.2015
 4565SOL    HW225155   4.346   2.238   3.440  2.8632  3.4759 -4.0965
 4566SOL     OW25156   2.595   0.686   5.967  0.3764  0.1095 -0.7537
 4566SOL    HW125157   2.559   0.631   5.898  0.8665 -0.1191 -0.8310
 4566SOL    HW225158   2.674   0.638   5.993  0.7011  1.5526  0.9290
 4567SOL     OW25159   0.964   2.703   6.996 -0.1073 -0.1401  0.1227
 4567SOL    HW125160   0.911   2.686   7.074 -0.0618  1.5319  0.5222
 4567SOL    HW225161   0.943   2.791   6.964  1.7953 -0.0535 -0.9265
 4568SOL     OW25162   3.535   2.471   2.843  0.2322  0.4674 -0.4384
 4568SOL    HW125163   3.476   2.398   2.859  2.6823 -1.7112 -1.2745
 4568SOL    HW225164   3.616   2.426   2.868 -0.5004  1.2783  3.4056
 4569SOL     OW25165   1.426   2.380  14.645 -1.2817 -0.4674  0.1729
 4569SOL    HW125166   1.505   2.374  14.699 -0.9376 -2.8623 -0.5542
 4569SOL    HW225167   1.427   2.289  14.615 -2.4900  0.3845 -2.4025
 4570SOL     OW25168   2.740   4.605  13.198 -0.2297  0.1177  0.4283
 4570SOL    HW125169   2.655   4.650  13.194  0.2629  0.9740 -0.7361
 4570SOL    HW225170   2.770   4.652  13.119 -0.6460  0.4624  0.4721
 4571SOL     OW25171   0.114   3.031   4.060 -0.0563 -0.6621  0.1892
 4571SOL    HW125172   0.108   2.959   4.123 -0.5549 -0.0921  0.7862
 4571SOL    HW225173   0.143   3.101   4.118 -4.2236  1.6342 -0.4968
 4572SOL     OW25174   1.948   0.690   8.249 -0.1103  0.5036  0.5883
 4572SOL    HW125175   2.008   0.632   8.203  1.8273  3.1337 -0.1612
 4572SOL    HW225176   1.903   0.737   8.179  0.6823  2.1428  1.1762
 4573SOL     OW25177   4.099   3.200   4.962  0.4873  0.3391 -0.3126
 4573SOL    HW125178   4.101   3.295   4.954 -0.4744  0.2128 -2.0011
 4573SOL    HW225179   4.031   3.178   5.025 -1.0494 -0.4283 -2.2477
 4574SOL     OW25180   2.024   4.525  16.576  0.5147  0.5476 -0.3117
 4574SOL    HW125181   1.959   4.592  16.596 -0.5910 -0.3943 -0.7378
 4574SOL    HW225182   2.033   4.494  16.666 -0.6710  1.3609  0.0812
 4575SOL     OW25183   4.587   4.338  12.392  0.3865 -0.3492  0.3874
 4575SOL    HW125184   4.635   4.330  12.474  1.0427 -1.3746 -0.1015
 4575SOL    HW225185   4.662   4.361  12.338 -0.5573  2.7623  0.3870
 4576SOL     OW25186   3.167   3.130  16.268  0.4121 -0.0677 -0.4312
 4576SOL    HW125187   3.084   3.121  16.314  0.7196 -1.2488 -0.0969
 4576SOL    HW225188   3.134   3.124  16.179 -0.6848  2.4230 -0.2008
 4577SOL     OW25189   4.137   1.118  12.400 -0.1835 -0.0037 -0.5533
 4577SOL    HW125190   4.178   1.117  12.314  2.0943 -3.8411  0.5617
 4577SOL    HW225191   4.143   1.212  12.414  1.9746  0.2207 -3.0256
 4578SOL     OW25192   0.728   2.550  15.784  0.5707 -0.6318 -0.9035
 4578SOL    HW125193   0.724   2.458  15.812 -0.3707 -0.2791  0.1386
 4578SOL    HW225194   0.742   2.604  15.862  0.5642  0.7985 -1.8971
 4579SOL     OW25195   3.359   3.251   7.478  0.1396 -0.3099  0.1029
 4579SOL    HW125196   3.427   3.188   7.454 -0.4891 -1.0103  0.1433
 4579SOL    HW225197   3.409   3.302   7.541  1.3016 -2.1739  0.6676
 4580SOL     OW25198   3.470   4.001   0.751 -0.1949  0.1488  0.2713
 4580SOL    HW125199   3.465   3.999   0.655  0.8408 -4.6902  0.2895
 4580SOL    HW225200   3.386   4.042   0.769  1.0461  2.1396  1.4732
 4581SOL     OW25201   4.423   1.560   4.777  0.7500 -0.1840 -0.4533
 4581SOL    HW125202   4.442   1.650   4.802  0.4471 -0.6405  1.4505
 4581SOL    HW225203   4.504   1.517   4.806  0.6021 -1.4618 -1.9442
 4582SOL     OW25204   4.667   0.472   5.929  0.5548 -0.4397 -0.2159
 4582SOL    HW125205   4.580   0.479   5.969  1.4638 -0.0181  1.6943
 4582SOL    HW225206   4.671   0.377   5.915  0.0724 -0.6786  1.2039
 4583SOL     OW25207   1.548   1.214   3.407 -0.0872 -0.0179 -0.4190
 4583SOL    HW125208   1.575   1.147   3.344 -1.8998 -0.3889 -0.8021
 4583SOL    HW225209   1.501   1.162   3.472 -0.9122 -0.0930 -1.0708
 4584SOL     OW25210   1.846   0.356   5.574 -0.3204 -0.4364  0.0856
 4584SOL    HW125211   1.793   0.296   5.521  1.9602 -2.3749 -0.0029
 4584SOL    HW225212   1.891   0.295   5.632 -1.3092 -0.6442  0.6374
 4585SOL     OW25213   2.274   3.838   4.330 -0.4910  0.1270  0.2519
 4585SOL    HW125214   2.333   3.763   4.338 -1.8179 -0.7841  1.6494
 4585SOL    HW225215   2.187   3.799   4.320 -0.4943 -0.0746  1.0517
 4586SOL     OW25216   2.902   0.885   4.038 -0.1411 -0.1050 -0.5074
 4586SOL    HW125217   2.880   0.950   3.971 -0.0411  0.8523  0.3824
 4586SOL    HW225218   2.816   0.854   4.067 -0.0039  0.9361  1.0513
 4587SOL     OW25219   0.640   4.572   8.289 -0.0024 -0.0994 -0.5474
 4587SOL    HW125220   0.577   4.544   8.222 -0.9729  2.5080 -0.7254
 4587SOL    HW225221   0.719   4.592   8.238  0.1373  0.1258 -0.2409
 4588SOL     OW25222   3.762   0.269  12.501  0.1056  0.5291  0.2292
 4588SOL    HW125223   3.852   0.279  12.471 -0.5966  2.7119 -1.1664
 4588SOL    HW225224   3.728   0.316  12.425  1.4651 -0.8036 -1.2055
 4589SOL     OW25225   3.434   0.296   2.249  0.6963 -0.6031  0.0206
 4589SOL    HW125226   3.464   0.318   2.161 -0.7395 -0.7271 -0.5073
 4589SOL    HW225227   3.402   0.383   2.274  1.1528 -0.1567 -0.9354
 4590SOL     OW25228   1.282   4.184   8.703  0.1098 -0.0616 -0.7040
 4590SOL    HW125229   1.331   4.206   8.783 -0.6771 -0.0619 -0.2251
 4590SOL    HW225230   1.329   4.110   8.666 -2.2348 -1.9673  0.1609
 4591SOL     OW25231   4.195   1.927   7.912  0.5626  0.5921 -0.1278
 4591SOL    HW125232   4.224   2.008   7.956 -1.0394  1.7575 -1.2245
 4591SOL    HW225233   4.281   1.885   7.910 -0.8801 -2.3251  0.3769
 4592SOL     OW25234   4.418   1.744   3.594 -0.1275  0.5143  0.1750
 4592SOL    HW125235   4.471   1.761   3.672  1.5141 -0.9082 -0.6106
 4592SOL    HW225236   4.397   1.653   3.617 -1.3826  1.2032  1.7402
 4593SOL     OW25237   4.358   3.595  17.330 -0.5446 -0.0047 -0.0003
 4593SOL    HW125238   4.334   3.510  17.293  0.6453 -0.7260  0.9150
 4593SOL    HW225239   4.310   3.577  17.411  0.5219 -1.9785  0.1966
 4594SOL     OW25240   0.023   4.199   8.520  0.3257  0.6690 -0.0709
 4594SOL    HW125241   0.111   4.205   8.559  0.4293  2.0657 -0.5257
 4594SOL    HW225242   4.710   4.122   8.561  0.5688  1.4790  1.6568
 4595SOL     OW25243   1.848   2.017   8.084 -0.4565  0.2667  0.0324
 4595SOL    HW125244   1.836   1.948   8.019 -2.4407  0.3786  0.2844
 4595SOL    HW225245   1.814   2.094   8.038 -1.5161 -0.3499 -0.2136
 4596SOL     OW25246   2.895   1.045   0.937  0.6351 -0.1297 -0.6095
 4596SOL    HW125247   2.923   1.105   0.868 -0.5690  2.2632  1.0024
 4596SOL    HW225248   2.958   1.052   1.009  2.7476  0.9568 -2.5426
 4597SOL     OW25249   3.083   2.347   5.275  0.0934  0.3785  0.9015
 4597SOL    HW125250   2.992   2.318   5.275  0.5216 -0.9468  1.5533
 4597SOL    HW225251   3.072   2.428   5.225 -2.9745 -1.5515 -1.5653
 4598SOL     OW25252   0.144   0.988   9.344  0.6069  0.2876  0.2072
 4598SOL    HW125253   0.173   1.022   9.428  1.3358  0.0572  0.0539
 4598SOL    HW225254   0.072   1.046   9.321  2.2357  0.9900 -3.1044
 4599SOL     OW25255   4.621   0.156  15.584  0.3023 -0.4481 -0.1223
 4599SOL    HW125256   4.679   0.231  15.594  0.9605 -0.9664 -0.0198
 4599SOL    HW225257   4.671   0.104  15.648  1.6335 -1.7018 -2.1818
 4600SOL     OW25258   3.748   1.536  13.037  0.2736  0.0165  0.0664
 4600SOL    HW125259   3.686   1.563  13.105  0.1831 -1.0774  0.4270
 4600SOL    HW225260   3.782   1.621  13.009 -1.3087  0.4826 -0.4468
 4601SOL     OW25261   1.276   1.266   0.570  0.0872  0.4345 -0.0387
 4601SOL    HW125262   1.343   1.271   0.638  0.4530  1.9773 -0.5108
 4601SOL    HW225263   1.313   1.334   0.513  2.5892 -2.0516 -1.3781
 4602SOL     OW25264   4.626   0.001   5.636  0.4103 -0.9559 -0.1340
 4602SOL    HW125265   4.596   4.667   5.707  2.8569 -0.6873  1.0911
 4602SOL    HW225266   4.684   4.665   5.589 -0.4233 -1.6958 -0.2442
 4603SOL     OW25267   4.157   0.574  13.973 -0.0443 -0.3632 -0.4601
 4603SOL    HW125268   4.175   0.598  14.064  2.9135 -1.4120 -0.7939
 4603SOL    HW225269   4.063   0.594  13.966  0.6265  2.1156 -2.1513
 4604SOL     OW25270   3.028   2.181   2.604  0.1459  0.1978 -0.3195
 4604SOL    HW125271   2.965   2.114   2.577  1.4580 -0.3944 -1.8741
 4604SOL    HW225272   3.057   2.143   2.688 -0.5040  1.6779  0.5692
 4605SOL     OW25273   3.013   3.058   2.912  0.3016  0.0805  0.3120
 4605SOL    HW125274   2.923   3.035   2.933  0.0091 -0.2523 -1.3642
 4605SOL    HW225275   3.049   2.971   2.895 -2.0950 -0.9425  0.5744
 4606SOL     OW25276   1.373   1.683   9.340  0.3581  0.4247 -0.0743
 4606SOL    HW125277   1.460   1.707   9.372  0.2633 -2.2693  2.1210
 4606SOL    HW225278   1.348   1.633   9.418 -1.4257 -1.0615 -1.5856
 4607SOL     OW25279   0.055   3.641  17.540  0.1725  0.3604 -0.1713
 4607SOL    HW125280   4.716   3.646  17.468 -0.4586  0.7518  0.4062
 4607SOL    HW225281   0.131   3.608  17.492  0.3586 -1.4981  1.3863
 4608SOL     OW25282   1.456   2.782   8.722 -0.5706 -0.1929  0.2655
 4608SOL    HW125283   1.549   2.764   8.705 -0.2536  1.8802 -0.1565
 4608SOL    HW225284   1.429   2.696   8.688 -2.1740  0.0967  0.8454
 4609SOL     OW25285   0.017   1.797   5.548 -0.0082  0.0379 -0.5290
 4609SOL    HW125286   0.074   1.755   5.612 -1.1540  0.4478  0.7742
 4609SOL    HW225287   0.071   1.800   5.469  0.5565  0.2902 -0.1307
 4610SOL     OW25288   3.089   0.102   2.126 -0.5216 -0.4988 -0.4114
 4610SOL    HW125289   3.052   0.177   2.078  0.2132 -0.5932 -1.1225
 4610SOL    HW225290   3.182   0.100   2.103 -0.2814  1.7666  0.3123
 4611SOL     OW25291   1.376   4.188   5.224 -0.1376 -0.2452 -0.4228
 4611SOL    HW125292   1.295   4.171   5.176 -1.0444  1.3709  0.5402
 4611SOL    HW225293   1.363   4.278   5.256  0.0265 -0.0928 -0.7836
 4612SOL     OW25294   1.878   0.062   1.036 -0.0651  0.8833  0.0485
 4612SOL    HW125295   1.902   0.120   0.964 -0.9114 -0.8820 -1.6473
 4612SOL    HW225296   1.820   0.007   0.984  1.5768 -0.9597  0.1555
 4613SOL     OW25297   3.735   0.695   9.397 -0.0352  0.3703 -0.1631
 4613SOL    HW125298   3.742   0.764   9.463  1.2248  1.9984 -2.0290
 4613SOL    HW225299   3.809   0.636   9.417 -0.1065 -0.1838 -1.5380
 4614SOL     OW25300   3.396   3.105  13.710  0.1250  0.1347  0.2582
 4614SOL    HW125301   3.424   3.136  13.796 -0.0729  1.5610 -0.1977
 4614SOL    HW225302   3.409   3.011  13.719  4.4783  0.4758 -2.8375
 4615SOL     OW25303   3.970   4.438   4.215 -0.0870  0.2657 -0.0809
 4615SOL    HW125304   3.887   4.471   4.184 -0.3310  0.9989  1.3330
 4615SOL    HW225305   4.021   4.423   4.135 -0.5916 -1.2799 -0.1172
 4616SOL     OW25306   1.473   1.504   6.548 -0.0844  0.3974 -0.1622
 4616SOL    HW125307   1.422   1.552   6.483 -0.8949 -0.5793 -0.2544
 4616SOL    HW225308   1.433   1.546   6.624  0.2027 -0.3506  0.4036
 4617SOL     OW25309   1.055   4.399   7.148 -0.1859  0.1716  0.0793
 4617SOL    HW125310   1.108   4.357   7.080 -0.0586 -1.2630  1.0634
 4617SOL    HW225311   1.076   4.334   7.215  1.7609  0.4385 -0.2702
 4618SOL     OW25312   2.377   3.357   3.079  0.4377  0.1305 -0.1595
 4618SOL    HW125313   2.303   3.330   3.024  0.3598  0.4340 -0.2051
 4618SOL    HW225314   2.406   3.441   3.045 -0.5124  0.8621  0.8305
 4619SOL     OW25315   2.290   4.455  11.383 -0.7100 -0.2959  0.6360
 4619SOL    HW125316   2.360   4.492  11.329 -1.3838  0.3315  0.1739
 4619SOL    HW225317   2.211   4.489  11.342 -0.1468 -0.1338 -0.3112
 4620SOL     OW25318   3.167   2.018   3.497  0.1629 -0.0526  0.0596
 4620SOL    HW125319   3.076   1.990   3.506  0.6517 -1.1870  1.4360
 4620SOL    HW225320   3.192   1.933   3.460 -1.5520 -1.4506  2.1760
 4621SOL     OW25321   2.188   2.876   5.634 -0.3547  0.3950 -0.2722
 4621SOL    HW125322   2.182   2.970   5.615 -0.4958 -0.0044 -2.1067
 4621SOL    HW225323   2.271   2.851   5.593 -0.3372 -1.1896  0.7077
 4622SOL     OW25324   2.742   3.252   2.648  0.1144  0.3990  0.1635
 4622SOL    HW125325   2.666   3.196   2.637  0.7774 -0.5370  0.3782
 4622SOL    HW225326   2.752   3.293   2.561 -0.2481 -2.0019 -1.0000
 4623SOL     OW25327   2.370   2.549  16.750 -0.6094  0.1299 -0.4393
 4623SOL    HW125328   2.401   2.463  16.721 -1.6615  0.2379 -1.9021
 4623SOL    HW225329   2.303   2.527  16.814  0.2313 -0.7498  0.1268
 4624SOL     OW25330   3.725   2.588   7.573  0.0033 -0.4626  0.8287
 4624SOL    HW125331   3.743   2.677   7.602 -1.0006  0.6530 -1.9826
 4624SOL    HW225332   3.650   2.566   7.628 -1.1131 -2.0099 -1.2997
 4625SOL     OW25333   1.284   1.473   8.643  0.2355  0.2449 -0.0062
 4625SOL    HW125334   1.351   1.534   8.673  0.9129 -0.6490  0.2829
 4625SOL    HW225335   1.287   1.412   8.716 -0.7026  0.3202  0.1051
 4626SOL     OW25336   4.301   3.235   7.361  0.1884 -0.0553  0.4184
 4626SOL    HW125337   4.347   3.168   7.410  0.3257  0.6232  1.2139
 4626SOL    HW225338   4.263   3.174   7.298 -0.0528 -0.0868  0.5922
 4627SOL     OW25339   4.695   0.943   8.486  0.1765 -0.4365  0.5431
 4627SOL    HW125340   4.662   0.861   8.523 -0.5358  0.2919  1.5092
 4627SOL    HW225341   0.024   0.896   8.421  0.2337 -0.2938  0.4866
 4628SOL     OW25342   1.851   1.737   5.519  0.1461  0.2476 -0.2876
 4628SOL    HW125343   1.893   1.657   5.489 -0.6889 -1.1221  2.2052
 4628SOL    HW225344   1.782   1.695   5.570 -0.6569  1.9251  0.0216
 4629SOL     OW25345   2.477   4.414   3.508 -0.1442 -0.0545  0.2406
 4629SOL    HW125346   2.549   4.411   3.571 -0.4312  2.0037  0.6715
 4629SOL    HW225347   2.401   4.421   3.567  0.7159 -1.4887  1.5123
 4630SOL     OW25348   4.378   0.314   1.203  0.1604 -0.2351  0.0310
 4630SOL    HW125349   4.345   0.364   1.128 -1.1098  2.6601  2.4666
 4630SOL    HW225350   4.431   0.386   1.237 -0.4230  0.4689 -0.5219
 4631SOL     OW25351   2.442   0.054   7.479 -0.6654  0.8713 -0.1776
 4631SOL    HW125352   2.401   0.139   7.472  1.4302  1.9290  0.2152
 4631SOL    HW225353   2.533   0.073   7.504 -0.3537  1.1245 -1.5246
 4632SOL     OW25354   3.611   1.479   4.763  0.8722  0.2112  0.2385
 4632SOL    HW125355   3.543   1.524   4.813  0.3887 -1.9925  1.5543
 4632SOL    HW225356   3.689   1.486   4.817  0.1928 -0.3436  1.2936
 4633SOL     OW25357   3.448   3.031   3.207  0.2257 -0.3731 -0.3840
 4633SOL    HW125358   3.458   3.004   3.116  0.4370 -1.4723 -0.0294
 4633SOL    HW225359   3.431   2.945   3.246 -0.2228 -0.6359 -1.1786
 4634SOL     OW25360   2.402   1.681  11.356  0.1702  0.0744  0.3277
 4634SOL    HW125361   2.448   1.606  11.393  1.4295  1.8761  2.3728
 4634SOL    HW225362   2.447   1.761  11.382  1.3905 -0.4317 -0.2495
 4635SOL     OW25363   3.209   0.339   4.225 -0.3741 -0.4067 -0.3928
 4635SOL    HW125364   3.165   0.417   4.260 -0.9873 -0.0613 -1.9380
 4635SOL    HW225365   3.183   0.271   4.287 -1.1052 -0.7010 -1.0133
 4636SOL     OW25366   1.149   1.991   4.353  0.3361 -0.0393 -0.4034
 4636SOL    HW125367   1.162   2.044   4.274  1.2265  1.2518  0.6080
 4636SOL    HW225368   1.222   2.030   4.400  0.4569  1.6254 -1.9778
 4637SOL     OW25369   2.539   1.559   4.879 -0.2172 -0.5519  0.2556
 4637SOL    HW125370   2.535   1.634   4.939 -1.3417 -1.9868  1.9795
 4637SOL    HW225371   2.624   1.525   4.908 -1.0230 -0.9592  2.1387
 4638SOL     OW25372   2.777   2.344   5.629  0.4552 -0.2353  0.1132
 4638SOL    HW125373   2.755   2.348   5.536  0.3552  0.0105  0.1466
 4638SOL    HW225374   2.870   2.366   5.619  0.2637  0.7674  0.5392
 4639SOL     OW25375   0.107   1.307   0.294 -0.2833 -0.2124 -0.0032
 4639SOL    HW125376   0.040   1.257   0.247 -0.1010 -0.1317 -0.3440
 4639SOL    HW225377   0.186   1.269   0.257  0.4331  1.8561 -0.5626
 4640SOL     OW25378   2.518   2.400   6.465 -0.4765  0.5478  0.4778
 4640SOL    HW125379   2.609   2.380   6.488 -0.7207 -0.6454  0.4360
 4640SOL    HW225380   2.482   2.447   6.540 -1.6519  0.2112  0.1302
 4641SOL     OW25381   0.693   3.119  10.004  0.4637  0.8278  0.4163
 4641SOL    HW125382   0.632   3.122   9.930  0.1409 -0.9480  0.6148
 4641SOL    HW225383   0.652   3.048  10.054 -1.5091  1.0515 -0.8579
 4642SOL     OW25384   3.259   3.178  15.994 -0.5948  0.1767 -0.2070
 4642SOL    HW125385   3.300   3.108  15.944 -0.3107  0.2942 -0.1378
 4642SOL    HW225386   3.172   3.156  15.960 -0.6722  1.0348 -0.5706
 4643SOL     OW25387   1.152   4.007   1.091 -0.4032  0.1580  0.7878
 4643SOL    HW125388   1.145   4.099   1.064  1.5142 -0.1263 -0.6792
 4643SOL    HW225389   1.059   3.986   1.094 -0.5515  0.7219  0.2490
 4644SOL     OW25390   2.149   4.289  15.100  0.1889  0.6938 -0.0960
 4644SOL    HW125391   2.163   4.384  15.099 -1.5899  0.9626  1.2398
 4644SOL    HW225392   2.202   4.248  15.169 -0.1042 -1.3574 -1.0923
 4645SOL     OW25393   0.328   2.263   7.101 -0.1244 -0.3704 -0.2378
 4645SOL    HW125394   0.267   2.194   7.074  0.6166 -0.9144 -0.4960
 4645SOL    HW225395   0.368   2.221   7.177 -0.1944 -1.9528 -1.0750
 4646SOL     OW25396   1.470   0.303  16.024 -0.6949 -0.3699 -0.9291
 4646SOL    HW125397   1.375   0.286  16.028 -0.6720 -0.8475 -2.6366
 4646SOL    HW225398   1.471   0.364  15.951 -0.5571  0.5104 -0.1971
 4647SOL     OW25399   3.932   3.958   8.612 -0.2009  0.2496 -0.6714
 4647SOL    HW125400   3.986   3.918   8.680 -1.4119 -0.5194 -0.1696
 4647SOL    HW225401   3.911   3.881   8.559 -1.2223  0.2741 -0.2907
 4648SOL     OW25402   4.473   3.780   0.231 -0.0126  0.0166  0.1143
 4648SOL    HW125403   4.558   3.776   0.188 -0.0187 -0.8261  0.1760
 4648SOL    HW225404   4.484   3.737   0.316 -0.9411 -1.6444 -0.6015
 4649SOL     OW25405   1.020   3.975   4.354  0.2190 -0.0382 -0.3818
 4649SOL    HW125406   1.100   3.929   4.379 -0.3133 -0.7603 -0.0037
 4649SOL    HW225407   1.033   4.052   4.408  1.4846 -0.4328 -0.1165
 4650SOL     OW25408   1.682   0.210   5.423 -0.2961 -0.6035  0.3439
 4650SOL    HW125409   1.696   0.131   5.370 -0.9984 -0.4880 -0.0057
 4650SOL    HW225410   1.598   0.189   5.462 -1.3482  1.2448 -0.9482
 4651SOL     OW25411   0.026   3.479   0.435  0.1079 -0.1482  0.2628
 4651SOL    HW125412   0.115   3.515   0.436  0.5305 -1.1239 -2.1839
 4651SOL    HW225413   0.024   3.464   0.529 -2.8179 -0.0138  0.2345
 4652SOL     OW25414   0.412   4.072   8.371  0.1045  0.5774  0.0673
 4652SOL    HW125415   0.332   4.060   8.320  0.8169  2.0292 -1.3982
 4652SOL    HW225416   0.474   4.027   8.314  1.1285  1.4556  0.4833
 4653SOL     OW25417   2.204   1.167   6.036  0.1826  0.1218  0.1455
 4653SOL    HW125418   2.211   1.181   6.131  2.1438 -1.2393  0.2105
 4653SOL    HW225419   2.135   1.101   6.027 -1.8742  2.1943  0.8944
 4654SOL     OW25420   4.187   0.790   4.906  0.2741  0.5564  0.1757
 4654SOL    HW125421   4.142   0.711   4.936  0.7356  0.0791 -0.3817
 4654SOL    HW225422   4.122   0.857   4.924 -0.8082 -0.4709  0.1214
 4655SOL     OW25423   1.429   0.302  11.342 -0.7495  0.6292  0.2738
 4655SOL    HW125424   1.477   0.331  11.419  0.7066 -1.2127  0.0703
 4655SOL    HW225425   1.343   0.295  11.385 -0.4337 -0.5975  0.7129
 4656SOL     OW25426   0.626   0.246   4.570  0.1785 -0.0125  0.2390
 4656SOL    HW125427   0.553   0.220   4.514  0.3353 -2.4963  1.1853
 4656SOL    HW225428   0.577   0.279   4.645 -0.7564  1.1792 -0.8979
 4657SOL     OW25429   3.000   3.782   9.808  0.0995  0.7485  0.1012
 4657SOL    HW125430   3.014   3.725   9.732  0.5795  0.9236  0.0573
 4657SOL    HW225431   2.952   3.852   9.764 -2.4464 -0.7477  0.5248
 4658SOL     OW25432   2.074   0.124   4.185 -0.3464 -0.2455 -0.2182
 4658SOL    HW125433   1.984   0.100   4.207 -0.5244  2.2229  1.6834
 4658SOL    HW225434   2.111   0.164   4.263  0.1074  0.8843 -1.0020
 4659SOL     OW25435   1.432   1.106   6.718  0.1671  0.1824  0.0448
 4659SOL    HW125436   1.505   1.056   6.680  0.6521 -1.2982  2.9656
 4659SOL    HW225437   1.404   1.152   6.639 -1.2741 -0.8170 -0.0267
 4660SOL     OW25438   3.378   2.818  11.432 -0.2957  0.2698  0.8774
 4660SOL    HW125439   3.317   2.746  11.447 -1.4748  1.2263  0.6229
 4660SOL    HW225440   3.319   2.892  11.417 -0.6679  0.3730  2.8712
 4661SOL     OW25441   4.452   2.491   4.580  0.1923  0.1183 -0.3128
 4661SOL    HW125442   4.481   2.478   4.490  0.3518  1.5812 -0.4751
 4661SOL    HW225443   4.525   2.451   4.627 -0.6196  3.1516  3.5378
 4662SOL     OW25444   4.009   0.817   0.800  0.0438  0.2165  0.2010
 4662SOL    HW125445   3.973   0.828   0.888 -1.0883  3.0896 -0.6273
 4662SOL    HW225446   4.097   0.847   0.822 -0.4279  2.8334 -1.4467
 4663SOL     OW25447   3.027   2.000   5.531  0.3032  0.0111  0.0192
 4663SOL    HW125448   3.117   2.031   5.520 -0.4034  2.8961  2.5782
 4663SOL    HW225449   3.013   2.035   5.618  0.7593 -1.6929  0.7770
 4664SOL     OW25450   4.475   3.880   4.100  0.0910 -0.1841  0.2512
 4664SOL    HW125451   4.391   3.835   4.107  0.2667 -0.2168  2.0722
 4664SOL    HW225452   4.483   3.863   4.006 -0.9830 -0.0316  0.1305
 4665SOL     OW25453   3.362   0.103   5.483  0.1643 -0.5029  0.2470
 4665SOL    HW125454   3.453   0.133   5.479 -0.3271  0.8444 -1.1182
 4665SOL    HW225455   3.371   0.033   5.418  0.4001 -0.8648  0.6727
 4666SOL     OW25456   0.528   4.089   7.912 -0.1705 -0.6611  0.0845
 4666SOL    HW125457   0.498   4.049   7.830 -1.0768 -0.5848  0.3790
 4666SOL    HW225458   0.606   4.137   7.883 -1.5739  0.4460 -1.9111
 4667SOL     OW25459   0.230   1.023   2.347  0.0548  0.1078 -0.2592
 4667SOL    HW125460   0.256   0.985   2.431  0.0933  0.8104  0.0470
 4667SOL    HW225461   0.150   1.064   2.380  0.3011  1.1355 -0.9417
 4668SOL     OW25462   4.480   3.647   5.934 -0.3971 -0.6254 -0.2122
 4668SOL    HW125463   4.530   3.688   5.863 -0.0997 -0.1174  0.2803
 4668SOL    HW225464   4.434   3.581   5.883  0.9557 -1.3718 -0.4679
 4669SOL     OW25465   2.333   4.615   6.496  0.2362  0.1970 -0.2204
 4669SOL    HW125466   2.409   4.612   6.555  2.5449 -2.2187 -3.3422
 4669SOL    HW225467   2.304   4.524   6.492 -0.6355  0.4518  0.2397
 4670SOL     OW25468   3.238   2.164  16.283 -0.0034 -0.1623  0.0826
 4670SOL    HW125469   3.167   2.128  16.336  1.2165 -1.7368  0.6658
 4670SOL    HW225470   3.199   2.214  16.211 -0.1312 -1.6632 -0.9069
 4671SOL     OW25471   4.724   1.508   2.830  0.4455 -0.4003  0.3019
 4671SOL    HW125472   0.038   1.569   2.894 -1.8769  1.6970 -0.3134
 4671SOL    HW225473   4.673   1.451   2.888  0.3130  1.0839  1.6428
 4672SOL     OW25474   0.328   2.347  15.659 -0.5824 -0.3481  0.1495
 4672SOL    HW125475   0.250   2.393  15.627  1.6941  2.1728 -1.6882
 4672SOL    HW225476   0.278   2.277  15.702 -1.4340 -0.5358 -1.1509
 4673SOL     OW25477   0.603   2.036   5.385  0.4533 -0.2592 -0.3844
 4673SOL    HW125478   0.671   2.097   5.410 -0.6626  0.3054  1.2734
 4673SOL    HW225479   0.643   1.990   5.311  0.7274 -1.6015  0.5799
 4674SOL     OW25480   2.018   3.788   8.771 -0.3336 -0.2974 -0.0038
 4674SOL    HW125481   2.018   3.702   8.814 -4.0895  0.0135  0.6336
 4674SOL    HW225482   1.977   3.841   8.840  3.2054  0.0192  1.8344
 4675SOL     OW25483   4.042   2.028   6.275 -0.0204 -0.5403 -0.5819
 4675SOL    HW125484   3.986   2.022   6.353 -1.3016  1.2770 -1.3619
 4675SOL    HW225485   3.981   2.049   6.204 -2.0828  0.4564  1.4739
 4676SOL     OW25486   3.222   0.328  10.872 -0.0416 -0.6103 -0.0122
 4676SOL    HW125487   3.230   0.246  10.822 -0.2815 -0.7616  0.1967
 4676SOL    HW225488   3.222   0.290  10.960  1.8061 -0.8969 -0.1268
 4677SOL     OW25489   0.688   1.974   2.506 -0.2050  0.0501 -0.1905
 4677SOL    HW125490   0.719   1.898   2.556 -2.9681 -0.3724  0.8975
 4677SOL    HW225491   0.769   2.020   2.484 -0.2577  0.6769  0.9257
 4678SOL     OW25492   3.832   3.805   6.457 -0.3598 -0.4818 -0.0310
 4678SOL    HW125493   3.921   3.839   6.446  0.0910 -2.6466 -3.0165
 4678SOL    HW225494   3.794   3.873   6.512  2.1005  2.1512 -1.6151
 4679SOL     OW25495   3.809   3.940   4.811 -0.2008  0.6566 -0.0784
 4679SOL    HW125496   3.721   3.977   4.817 -1.3861 -2.3098  0.9399
 4679SOL    HW225497   3.857   3.989   4.878 -2.6273  0.3262  1.9233
 4680SOL     OW25498   0.636   0.070   2.631 -0.0934  0.3156 -0.1329
 4680SOL    HW125499   0.692   0.115   2.568  0.1595  0.5712  0.2760
 4680SOL    HW225500   0.567   0.040   2.572  1.0248 -2.2830 -0.1036
 4681SOL     OW25501   3.448   4.296   9.638 -0.5414 -0.0766 -0.5002
 4681SOL    HW125502   3.396   4.350   9.579  2.4551  1.4308 -1.7450
 4681SOL    HW225503   3.420   4.207   9.617 -0.9805 -0.7247  2.8085
 4682SOL     OW25504   4.516   1.659   4.162 -0.1859  0.7067  0.1920
 4682SOL    HW125505   4.501   1.676   4.255  1.5407  0.9388  0.4234
 4682SOL    HW225506   4.606   1.626   4.164 -0.0410  1.0487 -0.5625
 4683SOL     OW25507   3.334   3.086   3.946  0.0629 -0.1510  0.3947
 4683SOL    HW125508   3.345   3.057   3.855 -0.6051  1.2631 -0.1297
 4683SOL    HW225509   3.338   2.998   3.984  0.9336 -0.9279 -1.4602
 4684SOL     OW25510   0.126   2.854   0.930  0.0061 -0.2003 -0.2820
 4684SOL    HW125511   0.198   2.887   0.984  0.6746 -0.9352 -0.7260
 4684SOL    HW225512   0.174   2.858   0.847  0.7505 -0.7124  0.1199
 4685SOL     OW25513   0.409   1.302   8.126  0.5967  0.6090 -0.2882
 4685SOL    HW125514   0.504   1.293   8.131  0.7211  0.5427 -2.4859
 4685SOL    HW225515   0.393   1.299   8.031 -2.3575 -1.7149  0.2577
 4686SOL     OW25516   4.388   0.979   1.992 -0.5138  0.5837 -0.6031
 4686SOL    HW125517   4.354   0.988   1.902 -1.9281  2.4650  0.1233
 4686SOL    HW225518   4.452   1.049   1.995 -0.3467  0.3533  0.8798
 4687SOL     OW25519   1.288   0.982   5.073 -0.3686  0.1754  0.1275
 4687SOL    HW125520   1.280   0.947   5.161  0.2643  0.3417  0.2519
 4687SOL    HW225521   1.341   0.914   5.031 -1.5705 -0.1179 -0.9305
 4688SOL     OW25522   1.178   1.473  16.552  0.3738 -0.4419 -0.0743
 4688SOL    HW125523   1.093   1.441  16.582  0.3114 -2.1631 -2.0628
 4688SOL    HW225524   1.231   1.399  16.579 -1.4539 -2.2139 -1.3306
 4689SOL     OW25525   2.908   2.561   9.231 -0.3246  0.4259  0.4361
 4689SOL    HW125526   2.878   2.537   9.143 -1.9414  3.1581  0.2372
 4689SOL    HW225527   2.833   2.524   9.278  1.1633 -1.4444  1.3449
 4690SOL     OW25528   2.905   2.583   8.806 -0.2768  0.1229  0.1679
 4690SOL    HW125529   2.987   2.629   8.788 -0.9615  0.3789 -2.3710
 4690SOL    HW225530   2.880   2.567   8.715  1.1856 -1.3779  0.0116
 4691SOL     OW25531   2.580   0.677   7.077 -0.5130 -0.2154  0.0455
 4691SOL    HW125532   2.625   0.727   7.145  2.1537 -1.5001 -0.7705
 4691SOL    HW225533   2.501   0.656   7.126 -0.5750 -1.9261 -0.7733
 4692SOL     OW25534   2.311   0.314   7.296  0.1577 -0.0361 -0.1883
 4692SOL    HW125535   2.258   0.246   7.338 -2.0705  2.9470  1.8455
 4692SOL    HW225536   2.340   0.257   7.225 -0.2260  0.0050 -0.3761
 4693SOL     OW25537   3.227   3.856   0.235  0.2010  0.1703  0.0651
 4693SOL    HW125538   3.169   3.802   0.181 -1.4333 -0.3262  2.3281
 4693SOL    HW225539   3.251   3.922   0.169 -1.9054  1.1001  0.1976
 4694SOL     OW25540   4.498   3.966   8.036  0.0980 -0.3810 -0.0515
 4694SOL    HW125541   4.432   4.028   8.005 -0.3908 -0.9945 -0.2313
 4694SOL    HW225542   4.568   3.985   7.974  0.3868  0.3876  0.5037
 4695SOL     OW25543   4.229   4.595   0.730 -0.4108 -0.0271 -0.4036
 4695SOL    HW125544   4.276   4.534   0.788 -2.7165 -0.2034  1.2819
 4695SOL    HW225545   4.202   4.664   0.790  0.2890  0.4108 -0.5994
 4696SOL     OW25546   0.495   3.916   6.915 -0.5044 -0.3296 -0.7759
 4696SOL    HW125547   0.508   4.002   6.956  0.1446 -0.8800  0.1717
 4696SOL    HW225548   0.488   3.936   6.822 -3.8646 -2.8105 -1.0641
 4697SOL     OW25549   3.122   2.821   2.859 -1.1958  0.1687 -0.4256
 4697SOL    HW125550   3.037   2.779   2.872 -0.9366  0.1441  1.2949
 4697SOL    HW225551   3.185   2.756   2.892  0.8157  1.7700 -1.1290
 4698SOL     OW25552   2.091   4.658   3.687 -0.3193  0.0752 -0.3215
 4698SOL    HW125553   2.120   4.676   3.776 -0.4968  0.1847 -0.2870
 4698SOL    HW225554   2.016   4.717   3.691 -0.7643 -0.3108 -2.8306
 4699SOL     OW25555   3.534   1.407  11.542  0.1036 -0.5184 -0.6436
 4699SOL    HW125556   3.624   1.440  11.544 -0.5319  1.0467  1.0681
 4699SOL    HW225557   3.493   1.449  11.617 -1.9870 -1.0331 -1.4997
 4700SOL     OW25558   3.041   0.065   9.222  0.1446 -0.2229 -0.1594
 4700SOL    HW125559   3.034   4.693   9.225  2.2781 -0.3771  0.3093
 4700SOL    HW225560   2.952   0.084   9.251 -0.0524  0.2560 -1.1106
 4701SOL     OW25561   4.479   3.082   8.165  0.0598  0.2186  0.1613
 4701SOL    HW125562   4.447   3.172   8.169  1.3604  0.6657  0.4297
 4701SOL    HW225563   4.417   3.023   8.208  0.2625  1.4117  2.0868
 4702SOL     OW25564   4.686   4.597  11.281  0.9523  0.0109  0.2692
 4702SOL    HW125565   0.022   4.606  11.207 -3.4216 -0.5449 -3.2981
 4702SOL    HW225566   4.605   4.588  11.232  0.2135  1.3510  1.2438
 4703SOL     OW25567   0.599   3.381  10.707 -0.3049 -0.7755  0.0576
 4703SOL    HW125568   0.660   3.323  10.753 -0.8235 -1.4311 -0.0760
 4703SOL    HW225569   0.636   3.371  10.620 -0.2970  1.0685 -0.1443
 4704SOL     OW25570   4.522   1.838   7.641 -0.0173 -0.2705 -0.0938
 4704SOL    HW125571   4.583   1.910   7.625 -1.5443  0.8427 -0.9089
 4704SOL    HW225572   4.551   1.811   7.728  2.5279 -0.5043 -1.0215
 4705SOL     OW25573   1.772   2.415   5.203 -0.7870  0.8202 -0.2851
 4705SOL    HW125574   1.731   2.329   5.211  1.9746 -0.5735 -1.6633
 4705SOL    HW225575   1.812   2.408   5.117  0.0517 -0.6739  0.2338
 4706SOL     OW25576   1.318   2.749  10.502  0.0784 -0.1731 -0.4994
 4706SOL    HW125577   1.403   2.705  10.502 -0.4869 -1.2817  1.8481
 4706SOL    HW225578   1.351   2.839  10.501 -0.0044 -0.1553 -1.7809
 4707SOL     OW25579   2.074   4.527  17.671  0.5668 -0.4113  0.1399
 4707SOL    HW125580   2.127   4.569   0.041  0.3163 -1.4646  1.0047
 4707SOL    HW225581   2.058   4.440   0.011 -0.9895 -1.4800 -3.0606
 4708SOL     OW25582   2.699   1.959  14.552 -0.3943 -0.1225 -0.4329
 4708SOL    HW125583   2.703   2.024  14.622  0.3758  2.4441 -2.8536
 4708SOL    HW225584   2.781   1.914  14.573 -0.6922 -0.6794 -0.4675
 4709SOL     OW25585   4.049   0.146   3.839  0.4148  0.0439  0.6414
 4709SOL    HW125586   3.990   0.208   3.797 -1.5914 -3.1015 -1.1935
 4709SOL    HW225587   4.001   0.121   3.918  0.6778 -0.0486  0.7715
 4710SOL     OW25588   3.281   4.479   2.697  0.0863  0.5221  0.0525
 4710SOL    HW125589   3.227   4.458   2.773  0.1803  0.5286  0.1219
 4710SOL    HW225590   3.232   4.429   2.632  0.7424  0.8164 -0.6772
 4711SOL     OW25591   3.332   3.424   2.282 -0.0226 -0.5256 -0.4803
 4711SOL    HW125592   3.276   3.395   2.209 -1.8463 -2.5971  1.7623
 4711SOL    HW225593   3.280   3.395   2.357 -1.2904 -1.3429 -1.6724
 4712SOL     OW25594   1.550   1.251   9.055 -0.4941  0.2721  0.0780
 4712SOL    HW125595   1.501   1.190   9.110  0.2500  0.9110  1.4423
 4712SOL    HW225596   1.526   1.339   9.081  1.3433  1.2397 -1.5097
 4713SOL     OW25597   2.343   4.583   1.324  0.2598  0.5196 -0.0147
 4713SOL    HW125598   2.378   4.620   1.243  0.5845 -0.2861 -0.2356
 4713SOL    HW225599   2.407   4.615   1.388 -0.7503  1.5883  0.4748
 4714SOL     OW25600   3.216   1.077   0.911 -0.1269 -0.1193  0.3617
 4714SOL    HW125601   3.162   1.155   0.924  0.3177  0.6416 -2.3272
 4714SOL    HW225602   3.265   1.112   0.836  0.1006  0.2870  0.6948
 4715SOL     OW25603   2.038   0.594  13.321  0.0694 -0.0769  0.3231
 4715SOL    HW125604   2.030   0.606  13.416 -0.9771 -0.7465  0.3206
 4715SOL    HW225605   1.988   0.669  13.289 -0.2110 -0.1153  0.6576
 4716SOL     OW25606   0.798   3.483   6.815  0.5183 -0.1181 -0.1079
 4716SOL    HW125607   0.882   3.438   6.810  0.0554 -1.2604  1.8815
 4716SOL    HW225608   0.741   3.419   6.859 -0.8915  1.6252  0.6031
 4717SOL     OW25609   2.667   4.524  14.008 -1.0004 -0.1580  0.3365
 4717SOL    HW125610   2.588   4.559  14.051 -1.0935  0.2319 -0.1493
 4717SOL    HW225611   2.729   4.524  14.081 -1.5261 -1.3287  0.7784
 4718SOL     OW25612   0.249   3.999   8.899  0.9883 -0.2712 -0.8996
 4718SOL    HW125613   0.298   4.024   8.821 -0.0809  1.0972 -1.1493
 4718SOL    HW225614   0.194   4.077   8.910 -0.3798 -1.1980 -1.1605
 4719SOL     OW25615   1.882   2.494   5.846  0.3603 -0.1349 -0.2100
 4719SOL    HW125616   1.902   2.588   5.847  0.0975 -0.0796 -0.1126
 4719SOL    HW225617   1.951   2.466   5.786 -0.1408 -1.2488 -0.2569
 4720SOL     OW25618   0.581   3.867   0.358  0.1405  0.3893  0.3030
 4720SOL    HW125619   0.674   3.844   0.349  0.1601  0.5928 -0.0346
 4720SOL    HW225620   0.555   3.886   0.268  1.1990 -3.9195 -0.9445
 4721SOL     OW25621   3.513   0.365  11.037  0.2904  0.0161 -0.1559
 4721SOL    HW125622   3.521   0.325  11.123  0.0818  2.9000  1.2144
 4721SOL    HW225623   3.426   0.404  11.049  0.4646 -0.1213  1.5965
 4722SOL     OW25624   3.763   4.122  13.303 -0.4442  0.3881 -0.1137
 4722SOL    HW125625   3.770   4.117  13.208 -2.1793  1.7428 -0.3229
 4722SOL    HW225626   3.673   4.090  13.309 -0.5698  0.4299 -1.8679
 4723SOL     OW25627   2.908   4.689   4.924 -0.5994 -0.1489 -0.0469
 4723SOL    HW125628   2.995   4.658   4.899  0.1284  0.1972  2.0673
 4723SOL    HW225629   2.930   0.006   5.007  0.0534 -2.5512  0.9516
 4724SOL     OW25630   4.703   4.057  14.489  0.2565 -0.0850  0.0114
 4724SOL    HW125631   4.648   4.108  14.548 -0.4107 -0.8405  0.0360
 4724SOL    HW225632   0.040   4.123  14.455  0.1856  0.2836  0.5927
 4725SOL     OW25633   0.242   2.239   3.213 -0.3184  0.1411  0.0403
 4725SOL    HW125634   0.149   2.249   3.233 -0.3537 -1.4965  0.7232
 4725SOL    HW225635   0.250   2.144   3.204  3.3019  0.6794 -2.2646
 4726SOL     OW25636   0.594   3.852   5.172 -0.3386 -0.0192  0.0959
 4726SOL    HW125637   0.603   3.916   5.243 -1.8498 -1.3598  1.4923
 4726SOL    HW225638   0.500   3.857   5.154 -0.3442  0.9765  0.3751
 4727SOL     OW25639   1.204   4.385   0.412  0.3088 -0.0132 -0.1717
 4727SOL    HW125640   1.225   4.414   0.323  1.0869  2.3270  0.7570
 4727SOL    HW225641   1.120   4.341   0.401 -1.1401  2.8359 -0.7092
 4728SOL     OW25642   2.076   2.378   3.662  0.3906  0.6093 -0.1928
 4728SOL    HW125643   2.008   2.439   3.631 -0.7321 -2.0480 -2.9137
 4728SOL    HW225644   2.027   2.325   3.724  1.1718 -0.0236 -0.1268
 4729SOL     OW25645   4.313   2.698   4.279  0.3401  0.1764 -0.2401
 4729SOL    HW125646   4.254   2.762   4.240 -0.1021 -0.4912 -0.6535
 4729SOL    HW225647   4.389   2.727   4.228  0.8171 -0.1497  0.2875
 4730SOL     OW25648   4.631   4.427   0.999  0.2506 -0.5220  0.0909
 4730SOL    HW125649   4.650   4.363   0.930  0.4983  0.6055 -0.8959
 4730SOL    HW225650   4.580   4.373   1.059  1.1476 -2.1010 -0.5647
 4731SOL     OW25651   4.005   1.181   6.353  0.0445 -0.1694 -0.0432
 4731SOL    HW125652   4.086   1.179   6.302  0.4929  0.7551  0.6153
 4731SOL    HW225653   3.976   1.090   6.354  1.2741 -0.5948 -3.2657
 4732SOL     OW25654   2.793   0.079   9.315 -0.2649  0.1549  0.1908
 4732SOL    HW125655   2.704   0.087   9.349 -0.1632 -1.4243  0.8046
 4732SOL    HW225656   2.809   4.713   9.342  1.5066  0.3351 -0.2496
 4733SOL     OW25657   2.068   4.104  10.863  0.2575  0.1546 -0.0872
 4733SOL    HW125658   2.151   4.061  10.883  0.5306  0.3055 -0.9103
 4733SOL    HW225659   2.090   4.191  10.828  0.3331 -0.1543 -0.8033
 4734SOL     OW25660   3.284   3.163   4.993 -0.1699  0.3491  0.0525
 4734SOL    HW125661   3.288   3.241   5.048 -3.2549  0.3248  0.3192
 4734SOL    HW225662   3.195   3.165   4.960  0.9430 -1.0601 -3.0175
 4735SOL     OW25663   3.499   4.410   6.406 -0.3055 -0.1073  0.8065
 4735SOL    HW125664   3.479   4.480   6.468 -0.8702  0.6047 -0.1963
 4735SOL    HW225665   3.580   4.453   6.380 -0.4751 -0.6783 -0.6444
 4736SOL     OW25666   2.953   0.154   7.722  0.1227  0.2168 -0.0850
 4736SOL    HW125667   3.037   0.110   7.736  1.2325  2.5773  0.7215
 4736SOL    HW225668   2.894   0.082   7.747  0.2206 -0.1148 -0.8149
 4737SOL     OW25669   1.117   1.457  11.164 -0.6666  0.0850 -0.4524
 4737SOL    HW125670   1.182   1.526  11.156  0.0961 -0.7809 -1.8271
 4737SOL    HW225671   1.041   1.495  11.120 -0.2726  0.2380 -1.0006
 4738SOL     OW25672   3.596   2.229   2.310  0.3854  0.2614 -0.1882
 4738SOL    HW125673   3.521   2.273   2.351 -0.8617 -0.9009 -1.1787
 4738SOL    HW225674   3.643   2.203   2.389 -0.5530 -0.0290  0.2810
 4739SOL     OW25675   2.564   4.225   7.634 -0.3939 -0.3508 -0.2934
 4739SOL    HW125676   2.609   4.217   7.718  0.7507 -1.0689 -0.9743
 4739SOL    HW225677   2.478   4.195   7.663 -1.5034  1.8326 -1.3219
 4740SOL     OW25678   0.997   1.926  12.989 -0.3668  0.2931 -0.7121
 4740SOL    HW125679   0.931   1.945  12.922 -0.4693  0.1382 -0.6546
 4740SOL    HW225680   1.071   1.903  12.931 -0.6760  1.5610 -1.5943
 4741SOL     OW25681   1.634   3.166   2.758 -0.4828  0.7097  0.2837
 4741SOL    HW125682   1.674   3.088   2.718  0.2836  1.0988  0.2803
 4741SOL    HW225683   1.605   3.211   2.679 -1.8461  0.8751  0.8913
 4742SOL     OW25684   0.692   4.141  15.086  0.3697 -0.4300 -0.2042
 4742SOL    HW125685   0.611   4.154  15.135 -0.2709 -3.3017 -0.4601
 4742SOL    HW225686   0.755   4.156  15.157  0.0146 -2.0063  0.4498
 4743SOL     OW25687   0.172   3.152   9.760 -0.0393  0.4377  0.2689
 4743SOL    HW125688   0.149   3.130   9.850  1.8773 -0.9129  0.4265
 4743SOL    HW225689   0.188   3.067   9.719 -0.1266  0.6760 -0.2563
 4744SOL     OW25690   3.778   2.189   1.888 -0.0580 -0.2377  0.1092
 4744SOL    HW125691   3.735   2.260   1.841  1.1738 -0.6221 -1.6228
 4744SOL    HW225692   3.804   2.240   1.965 -1.8818 -1.1128  1.3118
 4745SOL     OW25693   3.948   0.721   4.145 -0.9719 -0.1951 -0.0723
 4745SOL    HW125694   3.858   0.691   4.135 -1.5835  2.1871 -1.7087
 4745SOL    HW225695   3.958   0.775   4.066 -0.2937  0.0615  0.1843
 4746SOL     OW25696   1.500   4.296   6.353  0.2795 -0.1847 -0.1829
 4746SOL    HW125697   1.459   4.209   6.345 -0.4855  0.1193  0.4228
 4746SOL    HW225698   1.561   4.300   6.279  2.5079 -0.2149  1.6524
 4747SOL     OW25699   1.416   2.725   2.648  0.0220 -0.1625  0.2245
 4747SOL    HW125700   1.341   2.784   2.652  0.0862 -0.2348  2.7775
 4747SOL    HW225701   1.438   2.710   2.740  0.7681 -0.1653  0.0419
 4748SOL     OW25702   4.550   4.037  13.036  0.2383 -0.6536  0.6235
 4748SOL    HW125703   4.534   4.058  12.944 -0.4712  0.1626  0.9357
 4748SOL    HW225704   4.496   4.105  13.075  1.6428 -0.2634  1.8689
 4749SOL     OW25705   2.883   3.207  13.836 -0.1210 -0.2974 -0.2148
 4749SOL    HW125706   2.962   3.183  13.788  0.4874  0.6701  0.3025
 4749SOL    HW225707   2.820   3.224  13.766  1.0910 -0.8752 -1.4400
 4750SOL     OW25708   0.835   4.189   6.808 -0.0752 -0.4497 -0.3282
 4750SOL    HW125709   0.812   4.280   6.826  0.2686 -0.5718  0.7664
 4750SOL    HW225710   0.843   4.188   6.713 -2.3537  1.5001 -0.5513
 4751SOL     OW25711   0.654   2.043   7.773 -0.1167 -0.2434 -0.4753
 4751SOL    HW125712   0.707   1.991   7.713  0.4079 -1.4307  1.0267
 4751SOL    HW225713   0.694   2.019   7.857  2.1515  0.1261 -1.4363
 4752SOL     OW25714   0.978   4.106   8.916  0.0128  0.3206  0.8107
 4752SOL    HW125715   0.970   4.024   8.965  1.5404 -0.5584 -0.4172
 4752SOL    HW225716   0.885   4.122   8.899  0.2307  0.0276 -0.6790
 4753SOL     OW25717   3.861   3.476   1.777 -0.0564 -0.5507 -0.3380
 4753SOL    HW125718   3.842   3.556   1.827 -0.5644 -1.0132  0.2101
 4753SOL    HW225719   3.955   3.495   1.769 -0.4750  0.2755 -3.0831
 4754SOL     OW25720   2.387   1.650   7.945 -0.4359 -0.1684  0.0865
 4754SOL    HW125721   2.443   1.645   8.022 -0.2055  2.3177  0.0690
 4754SOL    HW225722   2.410   1.569   7.898  0.0773 -0.7399  1.3256
 4755SOL     OW25723   0.753   0.411  10.870 -0.0679  0.7830  0.2358
 4755SOL    HW125724   0.730   0.494  10.911  1.3606  2.1002 -1.6085
 4755SOL    HW225725   0.782   0.351  10.939 -1.5049 -0.2068 -0.0238
 4756SOL     OW25726   4.710   0.029   4.312  0.7649  0.8705 -0.5671
 4756SOL    HW125727   0.046   0.103   4.299  1.0825  1.2152  2.9828
 4756SOL    HW225728   4.714   4.708   4.396 -0.6487  1.2117 -0.3170
 4757SOL     OW25729   3.601   2.739  16.556  0.4761  0.3289 -0.6041
 4757SOL    HW125730   3.512   2.719  16.529 -0.1417  0.1396  1.5824
 4757SOL    HW225731   3.637   2.656  16.588  2.1722  1.5805  0.7635
 4758SOL     OW25732   2.941   2.999   2.048 -0.3400 -0.2726 -0.0830
 4758SOL    HW125733   2.977   3.027   1.963 -0.4222  1.4442  0.4380
 4758SOL    HW225734   2.898   3.081   2.071 -1.7180 -0.5031 -1.8098
 4759SOL     OW25735   2.134   0.015   7.913  0.1563  0.0815  0.2503
 4759SOL    HW125736   2.171   4.652   7.900  2.9275  1.1687  0.7637
 4759SOL    HW225737   2.120   0.008   8.007  2.7918 -2.3551  0.4628
 4760SOL     OW25738   4.714   2.503   2.076 -0.3102 -0.6074  0.0850
 4760SOL    HW125739   4.689   2.578   2.130  0.0587  1.8039 -3.0983
 4760SOL    HW225740   4.656   2.436   2.112  1.3561 -1.3454  1.4049
 4761SOL     OW25741   2.180   2.821   2.506  0.0184  0.1305  0.2684
 4761SOL    HW125742   2.100   2.804   2.557  0.4295 -2.1988  0.1238
 4761SOL    HW225743   2.191   2.731   2.475  0.5347  1.2431 -2.7568
 4762SOL     OW25744   2.447   0.470   8.205 -0.2894  0.0488  0.2646
 4762SOL    HW125745   2.397   0.472   8.286  0.5657  0.4243  0.7839
 4762SOL    HW225746   2.445   0.376   8.190  1.1303 -0.2927  2.2622
 4763SOL     OW25747   2.172   3.960   5.552  0.0175 -0.2251 -0.0189
 4763SOL    HW125748   2.200   3.950   5.643  0.0180  3.0939  0.3468
 4763SOL    HW225749   2.183   3.875   5.510  0.5990 -0.8065  1.3200
 4764SOL     OW25750   0.195   1.343  13.499 -0.6640 -0.3030 -0.7312
 4764SOL    HW125751   0.107   1.342  13.537  0.1138 -1.6630  1.0576
 4764SOL    HW225752   0.244   1.293  13.564 -0.9904 -0.8529 -0.9103
 4765SOL     OW25753   3.841   2.288   5.898 -0.2734 -0.5703  0.2397
 4765SOL    HW125754   3.913   2.237   5.861  0.9128 -0.1880  2.0540
 4765SOL    HW225755   3.881   2.375   5.897  0.0009 -0.7163 -1.6753
 4766SOL     OW25756   3.126   3.169   9.043  0.1065 -0.9736  0.1199
 4766SOL    HW125757   3.166   3.149   9.127 -0.6057  0.7179  0.8570
 4766SOL    HW225758   3.035   3.144   9.058 -1.0301  2.6017 -0.8129
 4767SOL     OW25759   4.639   2.704   2.536 -0.1114 -0.3416 -0.6669
 4767SOL    HW125760   4.673   2.616   2.548 -1.5463 -0.7531  0.3616
 4767SOL    HW225761   4.548   2.692   2.563 -0.0514 -2.3579 -1.3797
 4768SOL     OW25762   3.854   0.542   6.178  0.0090 -0.1446 -0.4193
 4768SOL    HW125763   3.781   0.497   6.136  0.0932  1.1871 -1.9981
 4768SOL    HW225764   3.831   0.629   6.145 -1.2740 -0.0294  0.7722
 4769SOL     OW25765   4.440   1.040  15.333 -0.4894  0.3377 -0.2434
 4769SOL    HW125766   4.470   1.003  15.416 -1.2456 -0.5942 -0.3870
 4769SOL    HW225767   4.511   1.105  15.326  0.7293 -0.8953  0.6807
 4770SOL     OW25768   0.012   2.118   5.500  0.2276 -0.3760 -0.4372
 4770SOL    HW125769   0.009   2.023   5.511 -1.0285 -0.3692 -0.7929
 4770SOL    HW225770   4.681   2.127   5.422  2.0249 -0.8533 -1.7512
 4771SOL     OW25771   2.203   0.343   2.134 -0.4600  0.4047 -0.0544
 4771SOL    HW125772   2.167   0.385   2.212 -0.6097 -2.5576  1.4710
 4771SOL    HW225773   2.202   0.416   2.072 -2.7962  0.8665  0.5431
 4772SOL     OW25774   1.647   3.952  10.930  0.6403 -0.1530  0.3549
 4772SOL    HW125775   1.593   3.881  10.963 -2.8942  2.1587 -0.4324
 4772SOL    HW225776   1.647   4.025  10.993  1.7946 -1.1077  1.4735
 4773SOL     OW25777   3.007   3.140   6.516 -0.3237  0.3226  0.6179
 4773SOL    HW125778   3.031   3.215   6.570  2.1597  2.4266 -3.3789
 4773SOL    HW225779   3.028   3.067   6.574 -2.7666 -0.6589  0.2970
 4774SOL     OW25780   2.022   2.745  14.832  0.0453  0.5703 -0.0134
 4774SOL    HW125781   1.992   2.836  14.835  0.7472  0.8435 -1.1652
 4774SOL    HW225782   2.117   2.752  14.834  0.1292 -0.3834 -0.5317
 4775SOL     OW25783   0.629   1.816  13.531  0.2971  0.1915 -0.2657
 4775SOL    HW125784   0.657   1.893  13.581  0.7776  2.0598 -3.3971
 4775SOL    HW225785   0.556   1.856  13.484  0.9367  0.5481 -0.9543
 4776SOL     OW25786   4.532   3.410   3.476 -0.0073 -0.5082 -0.4616
 4776SOL    HW125787   4.535   3.426   3.570  1.5457  1.1956 -0.8119
 4776SOL    HW225788   4.462   3.345   3.472  1.1294 -1.7225 -0.5687
 4777SOL     OW25789   2.382   3.331   5.468  0.0412 -0.2582 -0.2719
 4777SOL    HW125790   2.366   3.398   5.535  2.5567  0.1068 -0.0423
 4777SOL    HW225791   2.460   3.283   5.494 -0.2083 -0.5007  0.0291
 4778SOL     OW25792   0.645   3.730   3.419 -0.0196  0.6712  0.1761
 4778SOL    HW125793   0.662   3.823   3.403  2.4609  0.2813  0.4909
 4778SOL    HW225794   0.718   3.712   3.479 -2.4904 -1.0894  2.6373
 4779SOL     OW25795   4.538   3.476   2.600  0.2799  0.3895 -0.1398
 4779SOL    HW125796   4.492   3.460   2.518  1.2395 -0.1695 -0.5600
 4779SOL    HW225797   4.495   3.409   2.653 -1.6082  2.7878  1.3639
 4780SOL     OW25798   2.448   3.564   2.898 -0.0659  0.3125  0.1459
 4780SOL    HW125799   2.493   3.648   2.902 -0.7085  0.6635 -0.0038
 4780SOL    HW225800   2.397   3.583   2.819 -0.0641  1.6143  0.4611
 4781SOL     OW25801   2.459   3.068   6.188 -0.3576 -0.2242  0.1111
 4781SOL    HW125802   2.408   2.987   6.187 -2.5040  1.1183  1.1775
 4781SOL    HW225803   2.552   3.049   6.203 -0.0055 -0.6581 -2.6217
 4782SOL     OW25804   2.928   2.933  15.781  0.0803  0.1597  0.1491
 4782SOL    HW125805   2.833   2.923  15.786  0.2549 -1.7456 -0.0943
 4782SOL    HW225806   2.943   2.913  15.688  0.3116 -0.8406  0.3997
 4783SOL     OW25807   2.487   2.098   5.525 -0.6594 -0.1279 -0.2232
 4783SOL    HW125808   2.495   2.092   5.430 -0.6116  4.2218 -0.4832
 4783SOL    HW225809   2.555   2.050   5.571  0.0897  1.0381 -0.1272
 4784SOL     OW25810   2.177   1.727  10.505 -0.2474 -0.1212  0.4174
 4784SOL    HW125811   2.136   1.701  10.423 -1.7958 -2.0090  1.7956
 4784SOL    HW225812   2.266   1.761  10.494 -0.5526  0.1470 -1.2107
 4785SOL     OW25813   2.416   3.930   8.181  0.0402  0.9141 -0.2038
 4785SOL    HW125814   2.432   3.836   8.169 -1.6359  0.7269 -1.0168
 4785SOL    HW225815   2.345   3.940   8.244 -1.6216 -2.4219 -1.5268
 4786SOL     OW25816   1.708   2.588   7.029 -0.4381  0.2195 -0.7603
 4786SOL    HW125817   1.621   2.549   7.022 -0.6244  0.1490  2.2584
 4786SOL    HW225818   1.722   2.611   6.937 -2.1773  0.7222 -0.8985
 4787SOL     OW25819   1.086   1.919   7.833  0.3893  0.4331 -0.2093
 4787SOL    HW125820   1.075   1.824   7.836  1.5348  0.3299  0.4037
 4787SOL    HW225821   1.039   1.951   7.911  1.0413 -0.5752  0.5935
 4788SOL     OW25822   0.811   1.529   9.487 -0.2167 -0.2751  0.0233
 4788SOL    HW125823   0.876   1.556   9.423  2.1193 -0.8953  2.1110
 4788SOL    HW225824   0.765   1.471   9.426 -0.4994 -0.9086  0.8202
 4789SOL     OW25825   1.849   2.959  12.998  0.2523 -0.1731  0.1158
 4789SOL    HW125826   1.888   2.936  12.913 -0.0225 -0.1217 -0.0237
 4789SOL    HW225827   1.783   2.894  13.023 -0.0888  0.3918  0.6546
 4790SOL     OW25828   4.174   0.770   4.554 -0.4170 -0.2583  0.2503
 4790SOL    HW125829   4.083   0.752   4.532 -0.3919 -1.7830  1.3483
 4790SOL    HW225830   4.192   0.707   4.625 -1.5807  0.0614  0.8239
 4791SOL     OW25831   3.425   3.198   6.551 -0.0857  0.2316  0.2408
 4791SOL    HW125832   3.495   3.139   6.579  0.8991  0.7718 -1.0293
 4791SOL    HW225833   3.477   3.279   6.555 -0.8205  0.5897  2.0849
 4792SOL     OW25834   3.725   3.667   9.820 -0.9370 -0.2910  0.0266
 4792SOL    HW125835   3.739   3.737   9.756 -0.0408  0.7083  1.3218
 4792SOL    HW225836   3.709   3.717   9.900 -0.0364 -0.5854  0.3905
 4793SOL     OW25837   2.241   2.968   6.421  0.4724  0.7680 -0.0585
 4793SOL    HW125838   2.272   2.903   6.484 -1.5344  1.0410  1.1817
 4793SOL    HW225839   2.262   2.925   6.337  1.1082  0.8225  0.0696
 4794SOL     OW25840   3.783   4.142   9.061 -0.3398 -0.2857 -0.4200
 4794SOL    HW125841   3.718   4.207   9.035 -1.8765 -1.4305  0.5985
 4794SOL    HW225842   3.839   4.153   8.984  1.0344 -0.1603  0.5962
 4795SOL     OW25843   0.918   4.551  12.775  0.1428 -0.1127 -0.7391
 4795SOL    HW125844   0.916   4.629  12.831 -0.7981 -0.8775  0.2755
 4795SOL    HW225845   0.932   4.476  12.831  0.8976  0.9099  0.4458
 4796SOL     OW25846   1.710   2.277  17.519 -0.0015  0.8900  0.1808
 4796SOL    HW125847   1.787   2.231  17.486 -0.7477  0.3390 -0.8207
 4796SOL    HW225848   1.648   2.203  17.522  0.4119  0.5603  0.5975
 4797SOL     OW25849   4.230   2.137  17.312 -0.1837 -0.3525 -0.2425
 4797SOL    HW125850   4.222   2.046  17.340  0.2812 -0.4479 -0.4289
 4797SOL    HW225851   4.321   2.143  17.284 -0.7408 -1.0086 -2.2341
 4798SOL     OW25852   2.829   4.629  10.548  0.2389 -0.1039  0.2771
 4798SOL    HW125853   2.855   4.612  10.457 -0.6289 -1.0475  0.2011
 4798SOL    HW225854   2.886   4.566  10.592  1.4988 -2.1469 -4.2296
 4799SOL     OW25855   3.105   0.582  10.642 -0.0468 -0.0206  0.3500
 4799SOL    HW125856   3.067   0.669  10.651 -2.1997 -0.9421  0.0159
 4799SOL    HW225857   3.058   0.549  10.565 -1.4481  0.3749  1.0368
 4800SOL     OW25858   2.633   4.383   1.299 -0.6875 -0.2055 -0.4342
 4800SOL    HW125859   2.679   4.459   1.335 -1.8982 -0.3127  1.3473
 4800SOL    HW225860   2.540   4.401   1.312 -0.4858  1.7035 -1.5841
 4801SOL     OW25861   4.402   0.848  16.272  0.3523 -0.0993  0.4899
 4801SOL    HW125862   4.418   0.908  16.200 -0.9086  0.5173  0.7230
 4801SOL    HW225863   4.307   0.850  16.287  0.3695  3.1617  0.1385
 4802SOL     OW25864   1.285   3.218   3.462  0.2683 -0.4229 -0.0848
 4802SOL    HW125865   1.335   3.193   3.384  2.0421 -0.3136  1.0421
 4802SOL    HW225866   1.204   3.248   3.421  1.2420 -1.1526 -2.5750
 4803SOL     OW25867   2.835   2.515   7.657 -0.1399 -0.0549  0.4927
 4803SOL    HW125868   2.844   2.512   7.752  0.0522 -0.9763  0.4508
 4803SOL    HW225869   2.888   2.442   7.624 -0.5159  0.0910 -0.4346
 4804SOL     OW25870   3.831   2.714   4.699  0.0394  0.1757  0.0691
 4804SOL    HW125871   3.762   2.765   4.656  1.1547  1.6841  0.0538
 4804SOL    HW225872   3.797   2.627   4.720  1.0283  0.3044  2.2290
 4805SOL     OW25873   2.808   2.302   5.344 -0.5243 -0.0383 -0.1399
 4805SOL    HW125874   2.813   2.397   5.328 -2.5100 -0.1841 -1.6121
 4805SOL    HW225875   2.729   2.274   5.299 -0.7678  0.6329 -0.1411
 4806SOL     OW25876   1.490   0.352   5.717  0.2010  0.0041  0.2143
 4806SOL    HW125877   1.411   0.405   5.706 -0.5102 -1.2088 -0.4499
 4806SOL    HW225878   1.508   0.357   5.811 -2.3605 -1.4743  0.7702
 4807SOL     OW25879   2.758   0.720   2.010  0.3725 -0.1084  0.0694
 4807SOL    HW125880   2.846   0.757   2.019 -0.2747  1.4452  0.1169
 4807SOL    HW225881   2.717   0.805   2.024  1.2324  0.4002 -0.4623
 4808SOL     OW25882   3.044   2.730   6.271 -1.0946 -0.3703  0.0646
 4808SOL    HW125883   3.130   2.689   6.261 -0.3199  1.1315  0.4497
 4808SOL    HW225884   3.063   2.821   6.248  1.4715 -1.8563 -3.5578
 4809SOL     OW25885   2.925   4.222   3.626  0.5846 -0.5322 -0.3298
 4809SOL    HW125886   2.999   4.282   3.616  1.8280 -1.8464  1.0892
 4809SOL    HW225887   2.851   4.276   3.653 -0.1159 -1.4892 -0.3509
 4810SOL     OW25888   0.761   3.934   8.913 -0.1907  0.6369  0.2656
 4810SOL    HW125889   0.724   3.868   8.854 -1.7177  2.0551 -0.3389
 4810SOL    HW225890   0.775   3.877   8.989  0.4752 -1.7584 -1.6328
 4811SOL     OW25891   1.778   2.710   3.897 -0.4550 -0.1667 -0.7957
 4811SOL    HW125892   1.808   2.625   3.929 -0.5697  0.1673  0.1761
 4811SOL    HW225893   1.763   2.707   3.802  0.5431 -1.0415 -0.9267
 4812SOL     OW25894   0.982   1.995   7.573 -1.0904  0.2956 -0.6832
 4812SOL    HW125895   0.985   1.900   7.587  0.5846  0.5603  0.7401
 4812SOL    HW225896   1.045   2.024   7.639 -1.1000 -1.1734 -0.0208
 4813SOL     OW25897   2.417   1.986   6.204  0.5344 -0.0626 -0.0272
 4813SOL    HW125898   2.457   2.060   6.249 -0.4870  1.1092 -1.0496
 4813SOL    HW225899   2.365   2.035   6.140 -2.6009 -2.4114  0.6883
 4814SOL     OW25900   3.812   1.949   7.693  0.6712  0.1889  0.3152
 4814SOL    HW125901   3.796   2.037   7.727  1.2502 -0.0587  1.2161
 4814SOL    HW225902   3.770   1.970   7.610  2.0718  0.4408 -0.3159
 4815SOL     OW25903   1.798   1.822  13.852  0.4325 -0.0546 -0.1244
 4815SOL    HW125904   1.749   1.742  13.870 -1.2019  1.0338  0.3140
 4815SOL    HW225905   1.871   1.795  13.795 -1.0796 -1.0516 -1.5857
 4816SOL     OW25906   0.724   4.610   7.956 -0.2729  0.3145  0.5188
 4816SOL    HW125907   0.667   4.686   7.969 -1.0929 -0.5092  1.7493
 4816SOL    HW225908   0.663   4.543   7.924 -0.0012 -0.7615  2.1927
 4817SOL     OW25909   0.384   4.369   4.814  0.3529  0.2387  0.7838
 4817SOL    HW125910   0.290   4.352   4.824  0.3962  0.3528  1.4067
 4817SOL    HW225911   0.415   4.290   4.769  2.1864  0.3489  1.8491
 4818SOL     OW25912   1.426   1.870   6.542  0.1387 -0.2485  0.3723
 4818SOL    HW125913   1.458   1.941   6.486 -0.1755  1.7331  2.7547
 4818SOL    HW225914   1.378   1.915   6.611  1.0927  0.5365  0.5343
 4819SOL     OW25915   2.950   3.379   3.711 -0.1947  0.3336 -0.9529
 4819SOL    HW125916   2.954   3.435   3.788 -0.3305 -0.5190 -0.3323
 4819SOL    HW225917   2.899   3.436   3.653 -1.0018  0.1230 -0.4540
 4820SOL     OW25918   0.942   0.420   3.138 -0.5400 -0.2292 -0.2451
 4820SOL    HW125919   0.864   0.475   3.145  0.0420  0.5627 -0.0344
 4820SOL    HW225920   0.956   0.417   3.043 -1.6674  1.0930 -0.4511
 4821SOL     OW25921   4.707   0.252   2.712 -0.3368 -0.1569 -0.4239
 4821SOL    HW125922   0.069   0.230   2.676  0.0204 -0.7222  0.7889
 4821SOL    HW225923   4.719   0.254   2.807 -1.4705  1.6140 -0.3044
 4822SOL     OW25924   1.492   2.549   3.445 -0.0535  0.2658 -0.6967
 4822SOL    HW125925   1.485   2.589   3.358  1.1902 -1.1816 -1.4621
 4822SOL    HW225926   1.419   2.591   3.491  0.6389 -0.1299  0.7732
 4823SOL     OW25927   2.474   0.501   6.702 -0.0547 -0.4339 -0.1412
 4823SOL    HW125928   2.386   0.538   6.707  1.1946  2.6636 -1.2106
 4823SOL    HW225929   2.492   0.506   6.608 -1.2066  0.7088 -0.3035
 4824SOL     OW25930   1.757   3.576   2.770  0.0277 -0.0755 -0.3179
 4824SOL    HW125931   1.665   3.548   2.770  0.1493 -0.5129  1.1102
 4824SOL    HW225932   1.767   3.639   2.841  1.0613 -0.1084 -0.4425
 4825SOL     OW25933   1.587   3.010   3.580 -0.1712 -0.4154  0.6388
 4825SOL    HW125934   1.533   3.046   3.650  0.4276 -1.6634  1.7560
 4825SOL    HW225935   1.555   3.060   3.505 -0.9846 -1.4558  0.2859
 4826SOL     OW25936   4.407   2.192   6.642  0.2250  0.2093 -0.3381
 4826SOL    HW125937   4.398   2.101   6.671 -1.3520 -0.2508 -2.2496
 4826SOL    HW225938   4.446   2.178   6.556 -0.9218 -1.5502 -0.5610
 4827SOL     OW25939   3.840   0.361   1.390 -0.3954  0.1256  0.1280
 4827SOL    HW125940   3.929   0.368   1.355 -0.2964 -0.2119  0.3195
 4827SOL    HW225941   3.841   0.267   1.407  0.2905 -0.1320 -1.2719
 4828SOL     OW25942   1.125   1.423   4.868 -0.1431  0.2133  0.0321
 4828SOL    HW125943   1.038   1.436   4.905  0.1551 -1.0230  1.1630
 4828SOL    HW225944   1.107   1.422   4.774  1.7689  2.1743 -0.3549
 4829SOL     OW25945   2.843   0.397   2.249 -0.1068  0.4611  0.2536
 4829SOL    HW125946   2.795   0.406   2.167  1.7504  1.6408 -0.6748
 4829SOL    HW225947   2.923   0.356   2.217 -0.3327 -0.1587  0.4729
 4830SOL     OW25948   2.004   0.904   6.113  0.2203  0.4812 -0.6157
 4830SOL    HW125949   2.067   0.832   6.120  0.6111  0.5176 -3.5122
 4830SOL    HW225950   1.944   0.866   6.048  1.3511 -1.4999 -0.5122
 4831SOL     OW25951   2.138   0.768   4.987  0.3816 -0.1762 -0.2386
 4831SOL    HW125952   2.086   0.768   5.067  0.2565  0.4213 -0.3141
 4831SOL    HW225953   2.078   0.749   4.915  0.1759 -1.2632  0.2239
 4832SOL     OW25954   1.589   4.455   8.721 -0.7038  0.2057  0.3810
 4832SOL    HW125955   1.683   4.472   8.724 -0.6298 -0.3817  1.5226
 4832SOL    HW225956   1.590   4.359   8.720 -1.1022  0.1913  2.2487
 4833SOL     OW25957   1.434   1.737   7.454  0.6766  0.2315 -0.4215
 4833SOL    HW125958   1.357   1.687   7.485  1.8025  0.1285  2.2016
 4833SOL    HW225959   1.435   1.798   7.527 -2.6684 -1.7791  1.3387
 4834SOL     OW25960   4.347   2.131   1.840 -0.5590 -0.3986 -0.0229
 4834SOL    HW125961   4.342   2.158   1.932 -0.2880 -2.8960  0.7193
 4834SOL    HW225962   4.434   2.090   1.844 -0.7324 -0.6391  1.2014
 4835SOL     OW25963   2.398   2.242   9.731  0.7516 -0.4748 -0.2820
 4835SOL    HW125964   2.399   2.230   9.826 -2.2032 -0.6046 -0.2712
 4835SOL    HW225965   2.491   2.239   9.710  0.6646  0.4032 -0.7946
 4836SOL     OW25966   1.189   3.741   6.408 -0.6665  0.6734  0.0327
 4836SOL    HW125967   1.110   3.766   6.456 -0.3914  0.4555  0.6029
 4836SOL    HW225968   1.188   3.646   6.422 -0.3493  0.7695  0.6866
 4837SOL     OW25969   4.493   3.605   0.435 -0.2970  0.0249  0.1988
 4837SOL    HW125970   4.437   3.528   0.426 -0.4992  0.4232 -1.7954
 4837SOL    HW225971   4.579   3.566   0.451 -0.0846  0.4846  0.1872
 4838SOL     OW25972   1.106   1.396   1.016 -0.6827  0.5418 -0.0851
 4838SOL    HW125973   1.114   1.475   0.962  0.8363  1.0676  0.9289
 4838SOL    HW225974   1.030   1.362   0.969 -1.6069  0.7821  1.2474
 4839SOL     OW25975   3.722   2.711   1.732  0.4399  0.2040  0.1080
 4839SOL    HW125976   3.799   2.747   1.688 -0.5849  2.1754 -0.0979
 4839SOL    HW225977   3.754   2.623   1.750 -0.0900  0.2861  1.3989
 4840SOL     OW25978   3.644   3.581   2.395 -0.4053 -0.0283 -0.5087
 4840SOL    HW125979   3.599   3.644   2.337 -1.2983  1.4214  1.7776
 4840SOL    HW225980   3.724   3.627   2.419  0.2618 -2.2255  1.4119
 4841SOL     OW25981   4.662   3.774   7.548 -0.0272  0.0454 -0.1957
 4841SOL    HW125982   0.031   3.769   7.568  0.0254 -0.7256 -0.6442
 4841SOL    HW225983   4.642   3.680   7.545 -0.1271  0.0291  0.9630
 4842SOL     OW25984   2.568   0.984   9.801  0.3696 -0.3249  0.1900
 4842SOL    HW125985   2.516   0.945   9.871  1.0907 -0.7993  0.4574
 4842SOL    HW225986   2.532   0.928   9.732 -0.6794 -1.4415  1.6423
 4843SOL     OW25987   0.136   2.928   2.578  0.7347  0.5054 -0.0458
 4843SOL    HW125988   0.117   2.834   2.571 -1.3077  0.9889 -1.0820
 4843SOL    HW225989   0.083   2.965   2.507  2.1112  0.3990 -1.1351
 4844SOL     OW25990   0.147   0.313  16.488 -0.1002  0.4653  0.8128
 4844SOL    HW125991   0.147   0.236  16.544  1.3864  0.8437  1.3540
 4844SOL    HW225992   0.137   0.390  16.544 -0.6745  0.5316  0.6136
 4845SOL     OW25993   0.151   1.211   5.021 -0.2698  0.6365 -1.3693
 4845SOL    HW125994   0.225   1.151   5.030 -0.3202  0.3500 -2.8758
 4845SOL    HW225995   0.096   1.162   4.960 -3.3071  0.9879  1.0512
 4846SOL     OW25996   0.719   0.142  10.400 -0.3911 -0.2844 -0.4289
 4846SOL    HW125997   0.780   0.080  10.439 -0.9651  0.5984  1.8257
 4846SOL    HW225998   0.743   0.215  10.457 -2.9960  0.1064  0.1745
 4847SOL     OW25999   0.848   0.030   3.907 -0.1211 -0.2134  0.2598
 4847SOL    HW126000   0.834   4.665   3.939 -0.2301 -0.0200  0.7514
 4847SOL    HW226001   0.918   0.007   3.847 -0.6639 -1.7604  0.2325
 4848SOL     OW26002   3.324   3.619   0.885 -0.4491  0.6906 -0.5464
 4848SOL    HW126003   3.300   3.685   0.950  0.6864 -1.4964  2.1066
 4848SOL    HW226004   3.261   3.644   0.819 -1.5420  0.3163  0.3556
 4849SOL     OW26005   3.985   3.081   0.254  0.3485  0.3500 -0.4466
 4849SOL    HW126006   3.899   3.117   0.275  1.4483  0.7548  3.3453
 4849SOL    HW226007   3.992   3.007   0.314 -0.3094 -0.3525 -1.2480
 4850SOL     OW26008   0.529   4.467   3.162 -0.1184  0.0094  0.2050
 4850SOL    HW126009   0.491   4.380   3.147  0.4155 -0.4821  1.6463
 4850SOL    HW226010   0.461   4.515   3.208 -0.8691  0.5564 -1.4642
 4851SOL     OW26011   2.946   3.095   3.971  0.5590  0.2513  0.3419
 4851SOL    HW126012   2.939   3.094   4.066 -2.1053  3.8089  0.1689
 4851SOL    HW226013   2.924   3.186   3.953  0.5745  0.0126 -0.9299
 4852SOL     OW26014   3.614   4.357  12.979 -0.0439  0.3190  0.5557
 4852SOL    HW126015   3.617   4.445  13.016 -0.8847  0.4073  0.4318
 4852SOL    HW226016   3.553   4.316  13.040  0.3027  3.2551  2.8989
 4853SOL     OW26017   2.317   2.509   9.230 -0.4955 -0.0581 -0.4379
 4853SOL    HW126018   2.354   2.430   9.269 -1.9158  0.2884  1.6044
 4853SOL    HW226019   2.359   2.507   9.144  1.2372 -0.1040  0.4046
 4854SOL     OW26020   1.934   0.461   3.120  0.5658  0.2856  0.6933
 4854SOL    HW126021   1.847   0.444   3.157 -0.3303  3.5830  0.0996
 4854SOL    HW226022   1.940   0.407   3.042 -0.3197 -0.1154  0.9010
 4855SOL     OW26023   3.511   3.625   6.006  0.6325 -0.6494  0.4130
 4855SOL    HW126024   3.426   3.662   6.031  0.1925 -1.3228 -0.0888
 4855SOL    HW226025   3.518   3.554   6.069  0.1406 -1.2704 -0.2296
 4856SOL     OW26026   3.857   3.447   3.400 -0.0936 -0.6297  0.1041
 4856SOL    HW126027   3.936   3.432   3.452  0.7130 -0.7868 -1.1717
 4856SOL    HW226028   3.840   3.362   3.359  0.0935 -1.3153  1.4125
 4857SOL     OW26029   0.825   2.306  15.906 -0.0639  0.3566 -0.4119
 4857SOL    HW126030   0.842   2.218  15.871 -1.2357 -1.0827  2.6488
 4857SOL    HW226031   0.914   2.339  15.919  0.0612  0.0285 -0.4325
 4858SOL     OW26032   3.927   1.312  12.523  0.4510 -0.1289  0.2772
 4858SOL    HW126033   3.867   1.364  12.470 -0.8186 -2.1292 -0.2454
 4858SOL    HW226034   4.014   1.353  12.518 -0.6432  2.0449 -0.6934
 4859SOL     OW26035   0.007   3.346   2.262  0.2597  0.2786  0.0936
 4859SOL    HW126036   4.709   3.415   2.199 -1.8164 -1.0436 -0.6203
 4859SOL    HW226037   0.058   3.289   2.204  2.4662 -1.1933  3.5110
 4860SOL     OW26038   1.688   3.684   7.091 -0.4132  0.9021  0.9343
 4860SOL    HW126039   1.598   3.717   7.082 -0.4823 -0.0824 -2.2851
 4860SOL    HW226040   1.739   3.747   7.039 -1.0081  0.7350  0.1431
 4861SOL     OW26041   4.328   2.576  10.887 -0.7243 -0.1770  0.4914
 4861SOL    HW126042   4.349   2.666  10.862 -3.6142  0.4652  0.4527
 4861SOL    HW226043   4.353   2.522  10.811 -1.6983  0.1496 -0.0568
 4862SOL     OW26044   1.989   2.197   5.840  0.8837  0.2706  0.6604
 4862SOL    HW126045   1.993   2.254   5.763 -0.1548 -1.3637 -0.5818
 4862SOL    HW226046   1.979   2.112   5.798  0.7748 -0.1921  1.6224
 4863SOL     OW26047   4.536   4.301   7.700  0.0184 -0.2483 -0.0564
 4863SOL    HW126048   4.611   4.246   7.677 -1.4402 -2.0346 -0.5775
 4863SOL    HW226049   4.461   4.255   7.737 -0.9553 -0.0413 -1.7651
 4864SOL     OW26050   1.523   2.923   8.370 -0.4241 -0.1911  0.9834
 4864SOL    HW126051   1.467   2.854   8.333 -0.0294 -0.4873  0.9349
 4864SOL    HW226052   1.467   2.983   8.419 -3.1832 -1.1295 -1.0162
 4865SOL     OW26053   0.761   0.632   6.814 -0.1778 -0.4704 -0.3718
 4865SOL    HW126054   0.670   0.633   6.785 -0.2620  1.7281 -0.0800
 4865SOL    HW226055   0.777   0.719   6.776 -3.2388 -0.7107 -2.2133
 4866SOL     OW26056   0.329   3.293   5.379 -0.4793  0.4028  0.8239
 4866SOL    HW126057   0.287   3.278   5.294 -1.7326  1.0955  1.3161
 4866SOL    HW226058   0.412   3.246   5.377 -1.3336 -1.1760  1.7820
 4867SOL     OW26059   0.523   0.873   7.634  0.1432 -0.2433 -0.9810
 4867SOL    HW126060   0.474   0.936   7.581  1.1264  0.9629 -0.4839
 4867SOL    HW226061   0.584   0.930   7.682 -0.2032 -2.4870  2.0736
 4868SOL     OW26062   2.481   2.550   6.696 -0.1632  0.0391  0.2069
 4868SOL    HW126063   2.573   2.571   6.684  0.0436 -0.9164  0.1695
 4868SOL    HW226064   2.498   2.492   6.770 -1.6361  0.3024  0.7652
 4869SOL     OW26065   4.665   2.910   0.502 -0.1629  0.3024 -0.3773
 4869SOL    HW126066   0.009   2.918   0.569  2.8542 -0.7277 -3.2788
 4869SOL    HW226067   4.722   2.951   0.437  0.2692 -1.2645 -0.9666
 4870SOL     OW26068   3.101   0.847  11.299  0.0689  0.3510 -0.1743
 4870SOL    HW126069   3.012   0.874  11.274  0.2706  1.8290  0.6946
 4870SOL    HW226070   3.089   0.820  11.390  2.5362 -0.6915 -0.1609
 4871SOL     OW26071   0.534   4.093  11.651  0.0894 -0.0548 -0.0002
 4871SOL    HW126072   0.552   4.027  11.718  0.3503 -0.9857 -0.9845
 4871SOL    HW226073   0.451   4.130  11.680 -1.0939 -4.0199  1.7250
 4872SOL     OW26074   2.946   1.874  15.973  0.1773  0.4660  0.1380
 4872SOL    HW126075   3.005   1.937  15.931  1.0387 -0.3068  0.1755
 4872SOL    HW226076   2.933   1.812  15.901 -2.5206  1.7708 -0.4922
 4873SOL     OW26077   1.088   2.534   1.526 -0.3313 -0.4634 -0.0877
 4873SOL    HW126078   1.049   2.452   1.556 -1.5462 -0.0109 -0.4267
 4873SOL    HW226079   1.123   2.552   1.613 -1.0950 -3.5208  0.8722
 4874SOL     OW26080   0.217   3.013   4.799  0.1150  0.2170 -0.0968
 4874SOL    HW126081   0.256   2.965   4.873 -1.6561 -2.2494 -0.7729
 4874SOL    HW226082   0.133   2.968   4.788  0.5290 -0.5383 -0.1757
 4875SOL     OW26083   1.243   3.560   3.221  0.3208  0.1755  0.0899
 4875SOL    HW126084   1.217   3.527   3.307 -0.7612  1.1413  0.1306
 4875SOL    HW226085   1.162   3.576   3.175  0.7543  1.2602 -0.2897
 4876SOL     OW26086   2.152   3.538   5.791  0.1927 -0.1154  0.2772
 4876SOL    HW126087   2.224   3.483   5.759 -0.5046 -1.8626  1.7280
 4876SOL    HW226088   2.072   3.487   5.782 -0.0682  0.3319  0.0357
 4877SOL     OW26089   0.223   0.705   2.063  0.5977 -0.4320 -0.5134
 4877SOL    HW126090   0.150   0.739   2.011  0.8486  1.2951  0.2701
 4877SOL    HW226091   0.179   0.630   2.103 -0.2726  0.5428  0.3519
 4878SOL     OW26092   4.514   1.189   2.287 -0.2709 -0.5224 -0.3593
 4878SOL    HW126093   4.564   1.261   2.325 -1.6119  0.9940 -1.5012
 4878SOL    HW226094   4.432   1.204   2.334  1.4184  0.2510  2.3511
 4879SOL     OW26095   0.296   1.547   7.873  0.4174  0.6209  0.6376
 4879SOL    HW126096   0.389   1.529   7.878  0.5881  1.2738 -0.1052
 4879SOL    HW226097   0.266   1.551   7.964 -0.1591 -0.9023  0.5087
 4880SOL     OW26098   1.912   2.388   6.122  0.4300  0.1256  0.1762
 4880SOL    HW126099   1.917   2.366   6.029  0.0560  1.4420 -0.1652
 4880SOL    HW226100   1.870   2.474   6.122  1.3872  0.5924  3.6258
 4881SOL     OW26101   1.325   4.648  14.825  0.3570  0.4701  0.0291
 4881SOL    HW126102   1.286   4.710  14.764  0.2390 -0.5343 -0.9234
 4881SOL    HW226103   1.259   4.643  14.895  0.4305 -1.9392 -0.0563
 4882SOL     OW26104   4.639   4.515   9.876 -0.1508 -0.3195  0.0722
 4882SOL    HW126105   4.671   4.541   9.963  1.6546 -0.9369 -0.4141
 4882SOL    HW226106   4.689   4.582   9.831  1.3698 -1.2966  0.3112
 4883SOL     OW26107   2.710   2.656   6.124 -0.2644 -0.9576 -0.0497
 4883SOL    HW126108   2.705   2.728   6.060 -0.7494 -1.4363 -0.5484
 4883SOL    HW226109   2.671   2.582   6.078  0.4969 -0.8502 -0.8739
 4884SOL     OW26110   4.079   1.416  16.893 -0.1367 -0.0446 -0.3417
 4884SOL    HW126111   4.070   1.363  16.814  4.0674 -0.1654 -0.7431
 4884SOL    HW226112   4.143   1.478  16.858 -0.5457  0.2271 -0.6052
 4885SOL     OW26113   1.974   2.008   1.510 -0.1082  0.1299 -0.0108
 4885SOL    HW126114   1.972   2.090   1.461 -0.8860 -0.1667 -0.4771
 4885SOL    HW226115   1.952   2.050   1.594 -0.5235 -1.5785  0.7339
 4886SOL     OW26116   4.120   3.230  11.982  0.0941 -0.0062 -0.0485
 4886SOL    HW126117   4.190   3.197  11.925 -1.0771 -0.3070 -1.2948
 4886SOL    HW226118   4.156   3.316  12.001  0.1673 -0.2588  0.9782
 4887SOL     OW26119   3.133   1.393   7.788 -0.1097  0.0890  0.3273
 4887SOL    HW126120   3.131   1.447   7.709 -2.5117 -1.5159 -0.7045
 4887SOL    HW226121   3.226   1.403   7.808 -0.4067  1.2946  1.1504
 4888SOL     OW26122   3.792   2.464   6.467 -0.2806 -0.3091 -0.1858
 4888SOL    HW126123   3.796   2.370   6.484  2.3632  0.0534  1.1588
 4888SOL    HW226124   3.863   2.478   6.405 -0.6367 -1.9861 -0.9644
 4889SOL     OW26125   3.730   2.599   5.064  0.3182 -0.1760  0.2320
 4889SOL    HW126126   3.658   2.657   5.037 -1.9207 -2.2371  1.7483
 4889SOL    HW226127   3.701   2.524   5.012 -0.0004  0.2749 -0.2553
 4890SOL     OW26128   1.119   2.074   9.985  0.2092 -1.1044  0.2165
 4890SOL    HW126129   1.162   1.989   9.990  1.3680 -0.5722 -0.5539
 4890SOL    HW226130   1.040   2.064  10.037 -1.1118  1.2403 -1.2861
 4891SOL     OW26131   4.278   2.934   3.597  0.1597 -0.2863 -0.5571
 4891SOL    HW126132   4.373   2.930   3.593  0.3099  1.9290  0.6556
 4891SOL    HW226133   4.264   2.880   3.519  0.7625  1.4739 -1.8591
 4892SOL     OW26134   1.444   3.766   5.239 -0.3030 -0.0549 -0.1893
 4892SOL    HW126135   1.500   3.838   5.270  0.7994 -0.5147 -1.1037
 4892SOL    HW226136   1.484   3.695   5.288  0.3611  0.9794  0.7839
 4893SOL     OW26137   3.190   3.757   4.476  0.2152  0.5075  0.5215
 4893SOL    HW126138   3.260   3.732   4.536 -0.0948 -2.0598 -0.1842
 4893SOL    HW226139   3.140   3.676   4.483 -0.4782  0.7651 -1.4891
 4894SOL     OW26140   3.939   4.550  10.913 -0.0788  0.3830  0.2909
 4894SOL    HW126141   3.974   4.543  11.001  0.5674  1.4174  0.1205
 4894SOL    HW226142   4.007   4.519  10.853 -0.2784  0.7320 -0.1231
 4895SOL     OW26143   3.049   2.961   5.597  0.4820  0.8365  0.2671
 4895SOL    HW126144   3.000   2.967   5.515  0.5736  3.4763  0.3967
 4895SOL    HW226145   3.102   3.040   5.583 -0.7611  1.3879 -1.3267
 4896SOL     OW26146   1.292   3.384  12.840  0.2712  0.5389 -0.5312
 4896SOL    HW126147   1.291   3.467  12.887 -2.4156  0.7122 -0.9086
 4896SOL    HW226148   1.199   3.383  12.818 -0.3741 -0.9933  2.2304
 4897SOL     OW26149   2.435   3.374   6.323 -0.0953 -0.0538  0.8225
 4897SOL    HW126150   2.348   3.337   6.339 -0.9567  1.8582  0.5023
 4897SOL    HW226151   2.434   3.371   6.227 -0.0493 -1.7292  0.8608
 4898SOL     OW26152   3.610   3.943   0.445  0.6848  0.0650 -0.0066
 4898SOL    HW126153   3.620   3.848   0.446 -0.6668 -0.0903 -0.7613
 4898SOL    HW226154   3.691   3.970   0.488  0.6392  1.3076 -0.7026
 4899SOL     OW26155   2.753   0.998   1.980  0.6589  0.8064  0.0165
 4899SOL    HW126156   2.705   1.026   1.901  1.9615  0.1019 -1.0284
 4899SOL    HW226157   2.840   1.035   1.963  1.0257  0.3723  0.9740
 4900SOL     OW26158   3.722   1.527   8.912  0.3864 -0.1697 -0.5880
 4900SOL    HW126159   3.668   1.599   8.943 -1.3206 -1.2091 -1.1532
 4900SOL    HW226160   3.807   1.565   8.891 -0.0591  2.1046  1.6954
 4901SOL     OW26161   1.464   1.900   4.212  0.2017  0.0290 -0.6434
 4901SOL    HW126162   1.412   1.870   4.286  0.8945  1.5207  0.4648
 4901SOL    HW226163   1.417   1.894   4.129  0.2476 -0.7960 -0.6025
 4902SOL     OW26164   2.791   3.943   2.722  1.0149  0.1980 -0.1842
 4902SOL    HW126165   2.801   3.869   2.782  0.5472 -1.7122 -2.4859
 4902SOL    HW226166   2.869   3.940   2.668 -0.4203 -1.0070 -2.1768
 4903SOL     OW26167   3.252   3.783   5.751  0.5446  0.4630  0.4446
 4903SOL    HW126168   3.305   3.704   5.761  0.3387  0.3508  0.6543
 4903SOL    HW226169   3.256   3.830   5.834  0.5972 -1.2093  1.3867
 4904SOL     OW26170   0.742   0.193   7.639  0.2424  0.8105  0.2524
 4904SOL    HW126171   0.653   0.184   7.606  0.6061  0.0127 -0.5091
 4904SOL    HW226172   0.790   0.180   7.557 -0.8929 -3.0584  0.1748
 4905SOL     OW26173   4.173   0.732   6.623 -0.1662 -0.2121  0.4571
 4905SOL    HW126174   4.190   0.698   6.536  0.4370  1.2557 -0.0094
 4905SOL    HW226175   4.232   0.807   6.630  0.4003 -0.6741  0.6219
 4906SOL     OW26176   1.042   1.734   2.463  0.7607 -0.3817  0.5586
 4906SOL    HW126177   0.951   1.711   2.479  0.8588  0.0812  1.8039
 4906SOL    HW226178   1.026   1.818   2.420  1.7962  0.2131  1.3189
 4907SOL     OW26179   3.809   3.158   6.879  0.4079  0.1516 -0.3978
 4907SOL    HW126180   3.715   3.144   6.872  0.1164  1.5365  0.6893
 4907SOL    HW226181   3.818   3.253   6.865 -1.2854  0.4444  0.4334
 4908SOL     OW26182   2.544   0.633   0.079 -0.3702  0.0022 -0.0800
 4908SOL    HW126183   2.549   0.679   0.162  3.1947 -2.1400  0.8478
 4908SOL    HW226184   2.543   0.711   0.024  1.7274  0.7676  0.9848
 4909SOL     OW26185   2.034   2.644  11.758  0.7019  0.1149  0.0404
 4909SOL    HW126186   2.123   2.658  11.727  1.0398 -0.5984  0.6806
 4909SOL    HW226187   2.013   2.568  11.704  0.2052  1.0696 -1.1000
 4910SOL     OW26188   3.774   4.055  13.046 -0.3077  0.2999 -0.0401
 4910SOL    HW126189   3.700   4.090  12.997 -0.4189  1.8029  1.1885
 4910SOL    HW226190   3.766   3.964  13.018 -1.6943  0.4370 -0.0905
 4911SOL     OW26191   1.276   2.771   3.034 -0.5644 -0.2913  0.1993
 4911SOL    HW126192   1.204   2.720   2.997  0.7012  1.3622 -4.4657
 4911SOL    HW226193   1.245   2.862   3.031 -1.1504 -0.4700  0.8314
 4912SOL     OW26194   1.222   1.033  13.679 -0.3261  0.3111  0.0428
 4912SOL    HW126195   1.172   0.955  13.702  1.2324 -0.6120  0.3125
 4912SOL    HW226196   1.222   1.079  13.762  1.1555  0.4189 -0.0271
 4913SOL     OW26197   0.367   3.945  14.699  0.2319  0.0894  0.3946
 4913SOL    HW126198   0.308   3.897  14.757  1.0207 -1.4629 -0.0783
 4913SOL    HW226199   0.344   3.912  14.612  0.9996 -0.4758  0.3973
 4914SOL     OW26200   4.151   2.807   3.107  0.2047  0.6301  0.0082
 4914SOL    HW126201   4.176   2.886   3.154  0.1940  0.1561  0.8049
 4914SOL    HW226202   4.167   2.832   3.016  2.2732 -0.8070 -0.0390
 4915SOL     OW26203   0.618   2.066  13.682 -0.1616 -0.7195 -0.5307
 4915SOL    HW126204   0.636   2.108  13.765  0.5271 -1.3726 -0.3504
 4915SOL    HW226205   0.676   2.107  13.617 -1.2374 -1.5637 -2.0285
 4916SOL     OW26206   1.976   4.309   5.906 -0.3409 -0.0590 -0.4387
 4916SOL    HW126207   1.883   4.330   5.901  0.3317  2.8817 -0.6818
 4916SOL    HW226208   1.997   4.362   5.983  0.8016 -0.8269 -0.2161
 4917SOL     OW26209   4.507   3.112   4.811  0.0203 -0.0419  0.4816
 4917SOL    HW126210   4.507   3.101   4.716  0.5571  0.0222  0.4749
 4917SOL    HW226211   4.478   3.202   4.818 -1.4137 -0.5218  0.6466
 4918SOL     OW26212   3.890   0.722  12.588 -0.3065  0.2839 -0.0586
 4918SOL    HW126213   3.921   0.665  12.518 -0.0291 -0.4823  0.6974
 4918SOL    HW226214   3.938   0.684  12.661  1.1276 -0.6934 -1.5220
 4919SOL     OW26215   1.616   3.068   0.595 -0.3836 -0.1553 -0.7072
 4919SOL    HW126216   1.706   3.036   0.586  0.2584  0.5483  3.2965
 4919SOL    HW226217   1.632   3.146   0.648 -0.3586 -1.2984  0.9759
 4920SOL     OW26218   3.514   0.352   9.184 -0.4056 -0.4137  1.0062
 4920SOL    HW126219   3.498   0.258   9.180 -1.2689 -0.2620  0.8874
 4920SOL    HW226220   3.423   0.374   9.168 -0.6126 -1.3059  0.9733
 4921SOL     OW26221   4.047   4.163   7.608 -0.6178  0.3683 -0.3176
 4921SOL    HW126222   3.981   4.227   7.632  0.0402 -0.5547  3.9481
 4921SOL    HW226223   4.106   4.213   7.551 -1.4064 -0.1323 -1.5667
 4922SOL     OW26224   0.180   2.116  15.757  1.1588  0.2772  1.2263
 4922SOL    HW126225   0.237   2.042  15.736  0.2253  0.4327 -1.8766
 4922SOL    HW226226   0.180   2.116  15.853 -1.4726  1.5576  1.2135
 4923SOL     OW26227   2.203   0.080  16.172  0.2009 -0.0278 -0.0261
 4923SOL    HW126228   2.207   0.013  16.241  1.2269 -0.5320 -0.5689
 4923SOL    HW226229   2.118   0.053  16.139 -0.4856 -0.0363  1.7695
 4924SOL     OW26230   1.904   2.348   7.288  0.1011 -0.0480 -0.1097
 4924SOL    HW126231   1.952   2.352   7.205 -0.2518  0.4875 -0.2881
 4924SOL    HW226232   1.908   2.434   7.328 -1.2255 -0.1011  0.1385
 4925SOL     OW26233   1.154   3.947   3.832 -0.7373 -0.2121 -0.6491
 4925SOL    HW126234   1.241   3.922   3.862 -0.8022 -0.6541 -0.8372
 4925SOL    HW226235   1.103   3.934   3.911  0.2546 -1.8747 -0.2865
 4926SOL     OW26236   3.139   1.095   8.075  0.6327  0.3236 -0.1269
 4926SOL    HW126237   3.047   1.082   8.054 -0.2110  2.2102  2.3843
 4926SOL    HW226238   3.160   1.004   8.094  3.3998  0.6030 -1.8060
 4927SOL     OW26239   4.664   3.691  11.436  0.1971  0.0543 -0.3609
 4927SOL    HW126240   0.017   3.635  11.421 -0.6005 -0.7924 -1.2934
 4927SOL    HW226241   4.670   3.702  11.531 -0.3469  3.5162 -0.7417
 4928SOL     OW26242   4.016   0.670  11.647 -0.5225  0.0940  0.8380
 4928SOL    HW126243   4.022   0.576  11.627 -0.8400 -0.0747  1.5515
 4928SOL    HW226244   3.999   0.694  11.556  1.0533 -1.1870  0.2026
 4929SOL     OW26245   2.393   2.845   4.676  0.8649 -0.3914  0.5274
 4929SOL    HW126246   2.396   2.927   4.627 -0.2206  0.2181  1.4652
 4929SOL    HW226247   2.299   2.828   4.689  0.5957 -0.0464 -1.0073
 4930SOL     OW26248   0.058   3.427   3.110  0.3781 -0.0081  0.5043
 4930SOL    HW126249   0.074   3.405   3.201 -1.6927 -0.8099  0.6705
 4930SOL    HW226250   0.093   3.351   3.064  0.0953  1.4439 -2.1760
 4931SOL     OW26251   3.464   3.518  11.736 -0.0215 -0.3237  0.2665
 4931SOL    HW126252   3.490   3.427  11.724  1.8572  0.3833 -1.0165
 4931SOL    HW226253   3.372   3.524  11.708  0.5535  0.1081 -1.5615
 4932SOL     OW26254   3.556   1.029   6.759 -0.7119 -0.0112  0.6987
 4932SOL    HW126255   3.464   1.005   6.768 -0.4090 -1.4870 -0.0319
 4932SOL    HW226256   3.545   1.108   6.706  1.5794 -0.7252 -0.8559
 4933SOL     OW26257   0.802   3.544   4.115  0.2060  0.5194  1.4964
 4933SOL    HW126258   0.804   3.488   4.193 -1.5627 -2.1361 -0.3896
 4933SOL    HW226259   0.860   3.617   4.137 -3.0605  2.8852  2.1616
 4934SOL     OW26260   3.000   3.495   2.491 -0.5069  0.0753 -0.0421
 4934SOL    HW126261   2.977   3.452   2.409 -0.0006 -2.6202  1.2302
 4934SOL    HW226262   3.084   3.454   2.512 -0.7212  0.2554  1.1888
 4935SOL     OW26263   3.165   3.830   7.273  0.3899 -0.8321 -0.1808
 4935SOL    HW126264   3.130   3.756   7.222 -0.5239 -0.9383  0.5899
 4935SOL    HW226265   3.145   3.801   7.362  1.3585  2.3611  1.0752
 4936SOL     OW26266   1.905   4.587   2.248  0.4613  0.5051 -0.0149
 4936SOL    HW126267   1.919   4.653   2.316  0.4895  0.4456  0.0372
 4936SOL    HW226268   1.946   4.636   2.176  0.1071 -2.1852 -2.0307
 4937SOL     OW26269   0.910   2.606   8.310  0.1427  0.3826 -0.1819
 4937SOL    HW126270   1.004   2.623   8.302  0.6302 -2.5999 -0.8939
 4937SOL    HW226271   0.875   2.629   8.224 -3.5345 -0.7125  0.9878
 4938SOL     OW26272   0.098   4.098  12.126 -0.7985 -0.3126  0.0482
 4938SOL    HW126273   0.057   4.091  12.041 -0.5754 -2.1736  0.1054
 4938SOL    HW226274   0.139   4.013  12.142 -0.0790 -0.5546 -3.1619
 4939SOL     OW26275   0.909   3.649   2.852  0.1590  0.0933 -0.2607
 4939SOL    HW126276   0.831   3.694   2.885  1.9267  3.0652 -0.1241
 4939SOL    HW226277   0.927   3.701   2.773  1.9059  0.5420  0.4377
 4940SOL     OW26278   0.282   4.550   4.243 -0.0701  0.1811  0.5431
 4940SOL    HW126279   0.240   4.504   4.171  0.7962  0.0347  0.1278
 4940SOL    HW226280   0.229   4.510   4.312  1.2341 -0.4230  1.2046
 4941SOL     OW26281   4.426   4.123   9.458 -0.1674  0.4038 -0.0758
 4941SOL    HW126282   4.411   4.040   9.502 -2.1656  0.8207  0.0002
 4941SOL    HW226283   4.502   4.105   9.402 -0.7926 -1.0683 -0.4577
 4942SOL     OW26284   3.873   3.982   2.819 -0.9064 -0.1535 -0.1378
 4942SOL    HW126285   3.940   3.920   2.791  0.5016  0.9459  0.7306
 4942SOL    HW226286   3.858   4.032   2.739  2.0573  0.1976 -0.4760
 4943SOL     OW26287   2.997   4.662   4.557  0.2287 -0.2488  0.6074
 4943SOL    HW126288   3.078   4.674   4.508 -0.8163 -0.0282 -1.0754
 4943SOL    HW226289   2.971   0.024   4.592  3.0910  1.3067 -1.1269
 4944SOL     OW26290   1.787   1.313  15.631 -0.0035 -0.1742  0.3998
 4944SOL    HW126291   1.837   1.233  15.615 -1.9655 -1.6259  1.5277
 4944SOL    HW226292   1.708   1.294  15.580  0.0923  0.1762  0.1245
 4945SOL     OW26293   1.546   1.523  16.768  0.0606  0.3572  0.1506
 4945SOL    HW126294   1.594   1.475  16.836 -1.3013 -0.1808  0.7291
 4945SOL    HW226295   1.608   1.581  16.724  0.1680  0.3924  0.3450
 4946SOL     OW26296   3.583   0.544   7.320 -0.3478 -0.3258  0.1642
 4946SOL    HW126297   3.504   0.491   7.304 -0.8686  0.7101 -0.7120
 4946SOL    HW226298   3.548   0.632   7.305  0.8241  0.1805  0.3971
 4947SOL     OW26299   1.276   0.802  12.050 -0.6698  0.2002 -0.2461
 4947SOL    HW126300   1.182   0.815  12.045 -0.7850 -0.9475 -0.9615
 4947SOL    HW226301   1.310   0.881  12.007  1.3080 -0.9170 -0.7629
 4948SOL     OW26302   3.514   0.242   1.848 -0.2018  0.2197 -0.0472
 4948SOL    HW126303   3.476   0.302   1.912  1.5992  1.9902 -0.6490
 4948SOL    HW226304   3.582   0.205   1.904 -0.7557  2.0227  1.7923
 4949SOL     OW26305   2.930   3.039   3.442 -0.6546 -0.2741 -0.2133
 4949SOL    HW126306   2.924   2.983   3.365  1.5227 -1.8296  0.7389
 4949SOL    HW226307   2.900   3.114   3.391 -0.1264 -0.5862 -0.9886
 4950SOL     OW26308   3.314   4.460  14.555  0.3180 -0.1936  0.0686
 4950SOL    HW126309   3.370   4.448  14.478  1.9191  1.9287  0.8807
 4950SOL    HW226310   3.283   4.372  14.578  0.5468 -0.2434  0.1862
 4951SOL     OW26311   1.230   1.631   0.528 -0.3240  0.6942 -0.3102
 4951SOL    HW126312   1.163   1.571   0.561 -1.4966  1.7469 -0.8056
 4951SOL    HW226313   1.305   1.586   0.567 -2.4885  0.3560  3.4615
 4952SOL     OW26314   1.993   2.480   8.660  0.6336  0.0386 -0.0772
 4952SOL    HW126315   2.013   2.529   8.740  0.3784  0.8050 -0.4796
 4952SOL    HW226316   2.035   2.396   8.678  1.0915  0.2570 -0.1089
 4953SOL     OW26317   0.962   4.293  17.215  0.0271  0.0607  0.3030
 4953SOL    HW126318   0.932   4.207  17.244  0.6289  0.6186  2.5540
 4953SOL    HW226319   0.913   4.354  17.269  0.3680  2.9266 -2.6559
 4954SOL     OW26320   1.243   3.733  12.793 -0.4474  0.1146 -0.3154
 4954SOL    HW126321   1.240   3.653  12.846  2.4171 -1.0303 -1.8735
 4954SOL    HW226322   1.171   3.705  12.736  1.4328 -1.3242 -2.0043
 4955SOL     OW26323   2.470   4.646   4.029  0.1092  0.5529  0.1214
 4955SOL    HW126324   2.477   4.658   4.124 -2.6048 -1.1449  0.5531
 4955SOL    HW226325   2.457   0.011   3.994 -0.8585  0.3778  0.0242
 4956SOL     OW26326   0.838   3.558  17.242 -0.0223  0.2296  0.1416
 4956SOL    HW126327   0.790   3.493  17.293  0.0276 -0.3208 -0.5204
 4956SOL    HW226328   0.829   3.530  17.151 -0.3245  0.9235 -0.0445
 4957SOL     OW26329   1.798   4.286  17.628 -0.0329 -0.2325  0.1424
 4957SOL    HW126330   1.823   4.209  17.576  1.5335 -0.5142  1.3002
 4957SOL    HW226331   1.881   4.288  17.677  0.4144  0.3926 -0.6369
 4958SOL     OW26332   3.614   1.540   5.086  0.7010  0.0626  0.5151
 4958SOL    HW126333   3.693   1.554   5.034  0.1685  0.6734 -0.1248
 4958SOL    HW226334   3.607   1.613   5.148  0.3142  0.6099 -0.1742
 4959SOL     OW26335   4.310   4.681   3.417  0.4086 -0.3362  0.2877
 4959SOL    HW126336   4.399   4.688   3.452 -0.7736  1.6007  2.9344
 4959SOL    HW226337   4.262   4.718   3.491  0.9265  0.4478  0.2338
 4960SOL     OW26338   2.223   3.657   6.359  0.2446  0.5748  0.3177
 4960SOL    HW126339   2.147   3.676   6.304 -0.9149 -0.4078  1.5948
 4960SOL    HW226340   2.255   3.586   6.303  0.2594  0.6145  0.2755
 4961SOL     OW26341   2.311   0.361   3.106 -0.3305  0.0808 -0.5970
 4961SOL    HW126342   2.341   0.448   3.133  0.1891 -0.1666 -0.3778
 4961SOL    HW226343   2.390   0.329   3.062  0.1393  0.6320 -0.1590
 4962SOL     OW26344   0.367   3.587   4.740 -0.4030  0.2926 -0.2699
 4962SOL    HW126345   0.385   3.636   4.660  1.2917 -0.8313 -0.5782
 4962SOL    HW226346   0.414   3.504   4.729  3.0265  2.0375  1.2834
 4963SOL     OW26347   1.719   4.646   6.094 -0.2835  0.2305  0.1804
 4963SOL    HW126348   1.662   4.716   6.128  0.5524  1.2750 -0.5810
 4963SOL    HW226349   1.724   4.651   5.999 -0.8999  1.8074  0.2321
 4964SOL     OW26350   3.975   2.694   4.247  0.1759 -0.3468 -0.3852
 4964SOL    HW126351   4.010   2.783   4.254  1.9180 -1.4014  4.3179
 4964SOL    HW226352   3.997   2.663   4.335  2.1482  1.6266 -0.1724
 4965SOL     OW26353   4.709   4.362  11.857 -0.1654  0.0110 -0.6070
 4965SOL    HW126354   4.693   4.268  11.855  0.0949 -0.0899  1.4141
 4965SOL    HW226355   4.626   4.390  11.818 -0.1222  0.7096 -0.1887
 4966SOL     OW26356   0.904   2.076  11.199 -0.1019  0.8614  0.3269
 4966SOL    HW126357   0.850   2.041  11.270 -0.7676 -0.8059 -1.0154
 4966SOL    HW226358   0.994   2.068  11.232 -0.7736  2.0371  2.4783
 4967SOL     OW26359   0.165   3.355   9.099 -0.2981 -0.1272  0.0614
 4967SOL    HW126360   0.231   3.291   9.126  1.2432  1.0240 -0.9364
 4967SOL    HW226361   0.125   3.372   9.184 -0.2358  0.8903 -0.1077
 4968SOL     OW26362   1.795   1.398   1.471  0.0844  0.0256  0.1994
 4968SOL    HW126363   1.792   1.321   1.414 -0.8052 -0.4663  0.9166
 4968SOL    HW226364   1.721   1.453   1.447  1.3733  3.4107  4.0492
 4969SOL     OW26365   0.290   2.553   0.851  0.6638 -0.5753 -0.0974
 4969SOL    HW126366   0.378   2.591   0.858 -0.7818  2.1935  3.0622
 4969SOL    HW226367   0.256   2.596   0.930 -1.8920 -3.7358  0.5311
 4970SOL     OW26368   3.438   1.247   3.442 -0.0193  0.2530 -0.3330
 4970SOL    HW126369   3.385   1.175   3.476  0.0906  0.7221  0.8060
 4970SOL    HW226370   3.392   1.256   3.358 -3.1289  2.0727  1.6087
 4971SOL     OW26371   1.256   0.649   6.390 -0.9102  0.1593 -1.0156
 4971SOL    HW126372   1.169   0.648   6.429 -0.5145  0.6751 -0.1093
 4971SOL    HW226373   1.233   0.657   6.298  0.3829 -0.1727 -1.3709
 4972SOL     OW26374   1.288   0.248   4.900  0.0356 -0.4858 -0.9159
 4972SOL    HW126375   1.358   0.299   4.940 -0.4674  0.8562 -1.7787
 4972SOL    HW226376   1.231   0.316   4.865 -2.4951 -2.2768 -0.3259
 4973SOL     OW26377   1.691   1.810   4.998  0.8624  0.2698  0.2467
 4973SOL    HW126378   1.775   1.772   5.026  0.8065 -0.8495 -1.0910
 4973SOL    HW226379   1.668   1.870   5.069  3.9450 -1.2239  2.5392
 4974SOL     OW26380   1.929   1.127   3.716 -0.4713  0.4235 -0.4227
 4974SOL    HW126381   1.891   1.176   3.789  0.0716  1.3531 -0.7736
 4974SOL    HW226382   1.876   1.047   3.720  2.3489 -1.4525 -0.0062
 4975SOL     OW26383   1.086   1.748  12.591  0.1792 -0.3165  0.2495
 4975SOL    HW126384   1.075   1.658  12.620 -2.4961 -0.3729 -0.9569
 4975SOL    HW226385   1.068   1.737  12.497  2.7631  1.0746 -0.4040
 4976SOL     OW26386   4.417   1.829   2.163  0.1730 -0.0304  0.3241
 4976SOL    HW126387   4.497   1.876   2.141  0.1398 -0.9635 -1.8105
 4976SOL    HW226388   4.410   1.762   2.095  1.7675  1.9640 -1.7695
 4977SOL     OW26389   2.135   0.591   2.909  0.1830  1.0288  0.0990
 4977SOL    HW126390   2.112   0.498   2.912  0.4529  0.9338 -0.7955
 4977SOL    HW226391   2.180   0.600   2.825  0.1570 -2.8986 -0.3233
 4978SOL     OW26392   3.534   2.596   7.177  0.0324  0.0621  0.3081
 4978SOL    HW126393   3.456   2.616   7.126 -0.4451  0.1631  1.0800
 4978SOL    HW226394   3.589   2.669   7.148 -2.1295  1.6977  0.3391
 4979SOL     OW26395   4.490   4.689   3.015 -0.0277 -0.6454  0.2115
 4979SOL    HW126396   4.468   4.669   3.106  0.4376  0.7142  0.6166
 4979SOL    HW226397   4.507   4.602   2.979  0.9079 -1.0971  1.7219
 4980SOL     OW26398   2.579   2.094   1.425  0.3152 -0.0423  0.1379
 4980SOL    HW126399   2.518   2.046   1.370 -0.3850  1.6720 -0.5769
 4980SOL    HW226400   2.572   2.037   1.502 -0.2168  0.1765  0.2465
 4981SOL     OW26401   0.445   2.876   9.499  0.3148  0.1598  0.1860
 4981SOL    HW126402   0.432   2.823   9.420 -1.6220 -0.8374  1.1743
 4981SOL    HW226403   0.522   2.930   9.484 -0.2690  0.7641 -0.6921
 4982SOL     OW26404   0.515   4.034  13.126  1.0762  0.4328 -0.0568
 4982SOL    HW126405   0.571   4.049  13.202 -0.3978  0.4038  1.0364
 4982SOL    HW226406   0.452   4.107  13.132 -0.8441 -1.2697  0.6620
 4983SOL     OW26407   2.427   1.415   2.131  0.3795  0.3159  0.1535
 4983SOL    HW126408   2.513   1.400   2.091  0.0212 -2.3840  0.4217
 4983SOL    HW226409   2.419   1.340   2.189  0.3138  0.7006  0.6384
 4984SOL     OW26410   3.150   2.468   8.665  0.3412 -0.0112 -0.1089
 4984SOL    HW126411   3.135   2.389   8.717 -4.3164  2.2331  1.9126
 4984SOL    HW226412   3.181   2.515   8.743  2.3304  0.1012 -0.9601
 4985SOL     OW26413   0.867   4.424   4.307 -0.1343  0.0338 -0.4147
 4985SOL    HW126414   0.771   4.419   4.309 -0.1186 -0.7461 -1.5497
 4985SOL    HW226415   0.894   4.366   4.235  0.4532 -0.0769 -0.1081
 4986SOL     OW26416   3.880   1.982   6.490 -0.4513  0.0472  0.5893
 4986SOL    HW126417   3.879   1.991   6.586 -1.0768  1.2086  0.4711
 4986SOL    HW226418   3.839   1.896   6.483  1.1905 -0.9028  2.4115
 4987SOL     OW26419   4.194   2.134   0.676 -0.5626 -0.5773 -0.3383
 4987SOL    HW126420   4.240   2.057   0.642  2.7805  0.9240  0.8390
 4987SOL    HW226421   4.196   2.116   0.770  0.1430 -2.0596 -0.6325
 4988SOL     OW26422   2.193   1.182   8.183 -0.5993 -0.2241  0.2949
 4988SOL    HW126423   2.119   1.215   8.233  0.1785 -0.3766  1.5364
 4988SOL    HW226424   2.241   1.130   8.248  0.3427 -0.7255 -0.7881
 4989SOL     OW26425   4.269   1.651   5.093 -0.4420 -0.5810  0.4464
 4989SOL    HW126426   4.254   1.557   5.104 -1.5023 -0.6681 -1.6323
 4989SOL    HW226427   4.362   1.655   5.070 -1.1961  5.2163 -1.4520
 4990SOL     OW26428   3.512   3.856   9.083 -0.0240  1.0047  0.0714
 4990SOL    HW126429   3.517   3.797   9.158  1.4616 -0.0205 -0.8553
 4990SOL    HW226430   3.418   3.877   9.083 -0.2362 -0.0394  3.1533
 4991SOL     OW26431   1.918   2.398   8.178  0.5561 -0.1641 -0.0713
 4991SOL    HW126432   1.906   2.482   8.133  1.9722  0.0189 -0.0977
 4991SOL    HW226433   1.995   2.417   8.233 -1.5131 -0.5850  2.9813
 4992SOL     OW26434   2.743   4.022   6.188  0.0600 -0.5779  0.6402
 4992SOL    HW126435   2.658   3.979   6.187  0.1943 -0.8667  1.2825
 4992SOL    HW226436   2.807   3.951   6.191  0.6788 -0.0281  0.4017
 4993SOL     OW26437   4.055   4.220   8.627 -0.9588  0.0300 -0.1769
 4993SOL    HW126438   4.131   4.163   8.618 -1.2073 -0.7662  2.7554
 4993SOL    HW226439   3.981   4.159   8.636 -1.5410  0.6139 -1.0559
 4994SOL     OW26440   3.693   0.212   4.265 -0.3105 -0.0476  0.5231
 4994SOL    HW126441   3.632   0.277   4.229 -3.0469 -0.6191  4.1343
 4994SOL    HW226442   3.645   0.130   4.259  0.5512 -0.3289 -2.1958
 4995SOL     OW26443   1.812   4.262   0.255  0.4693 -0.7577  0.2285
 4995SOL    HW126444   1.762   4.289   0.332  1.1033  0.4295  0.2230
 4995SOL    HW226445   1.745   4.238   0.191 -0.1375  0.8969  0.2371
 4996SOL     OW26446   0.328   3.241   9.509  0.2678 -0.8786  0.1710
 4996SOL    HW126447   0.377   3.303   9.564  1.3389  0.4765 -2.3095
 4996SOL    HW226448   0.283   3.199   9.582  0.1157  2.4255  1.9959
 4997SOL     OW26449   0.369   2.384  10.375  0.5967  0.5365 -0.1008
 4997SOL    HW126450   0.339   2.320  10.438  1.0911  2.0974  1.7366
 4997SOL    HW226451   0.428   2.338  10.316 -0.7229 -2.1027  0.6806
 4998SOL     OW26452   1.598   2.923  17.474 -0.5274 -0.3474  0.1566
 4998SOL    HW126453   1.628   3.004  17.433 -1.9554 -0.5315 -1.2654
 4998SOL    HW226454   1.632   2.853  17.419  0.2621 -1.7484  2.4353
 4999SOL     OW26455   4.459   3.139  14.854  0.0091  0.2488 -0.3719
 4999SOL    HW126456   4.481   3.198  14.782  0.2368  1.1018  0.4063
 4999SOL    HW226457   4.493   3.187  14.929 -0.0459  1.2823 -1.0088
 5000SOL     OW26458   0.386   3.086   9.152  0.2390 -0.4587 -0.1622
 5000SOL    HW126459   0.366   3.059   9.062 -0.6265 -0.6063  0.0758
 5000SOL    HW226460   0.477   3.054   9.154  0.5243  0.2559 -1.5456
 5001SOL     OW26461   1.098   3.303   5.057 -0.3099 -0.0143 -0.0264
 5001SOL    HW126462   1.103   3.224   5.110  0.5623 -0.9832 -1.5723
 5001SOL    HW226463   1.187   3.311   5.024 -0.4738  0.7647 -0.2878
 5002SOL     OW26464   0.895   2.624  15.570 -0.1300 -0.0829  0.2671
 5002SOL    HW126465   0.967   2.578  15.613 -1.1308  0.2061  2.2694
 5002SOL    HW226466   0.825   2.607  15.633 -0.3323  2.6734  0.7831
 5003SOL     OW26467   3.359   3.407   1.899 -0.1433  0.3664  0.1572
 5003SOL    HW126468   3.448   3.391   1.929  0.6478  1.3264 -1.6298
 5003SOL    HW226469   3.368   3.430   1.806 -0.0583  1.2434  0.3750
 5004SOL     OW26470   1.055   1.660   7.845 -0.6032  0.2720 -0.3669
 5004SOL    HW126471   0.962   1.664   7.824 -0.3364  0.0675 -1.6347
 5004SOL    HW226472   1.079   1.568   7.838 -2.1771  0.0274 -2.6673
 5005SOL     OW26473   0.588   4.232   2.032  0.3063  0.6475  0.0735
 5005SOL    HW126474   0.619   4.263   1.947  2.8667 -0.4764  0.5865
 5005SOL    HW226475   0.638   4.150   2.039 -0.0666  0.4314  0.2050
 5006SOL     OW26476   2.207   0.136   6.526 -0.6477 -0.1120 -0.4490
 5006SOL    HW126477   2.209   0.199   6.599 -0.6591  0.5478 -1.0198
 5006SOL    HW226478   2.222   0.045   6.550 -0.7659  0.4336  1.7191
 5007SOL     OW26479   2.998   3.587  17.138  0.1270 -0.2416  0.1660
 5007SOL    HW126480   3.043   3.538  17.069 -1.8790  0.1937 -1.4835
 5007SOL    HW226481   2.905   3.572  17.118 -0.2324 -0.2147  1.8676
 5008SOL     OW26482   1.708   1.732   7.650 -0.0181 -0.6442  0.4625
 5008SOL    HW126483   1.776   1.766   7.592  1.2923 -1.8637  1.2794
 5008SOL    HW226484   1.742   1.651   7.687 -0.0155 -0.8035  0.1104
 5009SOL     OW26485   2.904   3.500  14.540  0.4679  0.1789  1.0705
 5009SOL    HW126486   2.893   3.416  14.584  1.9833 -1.5777 -1.8554
 5009SOL    HW226487   2.820   3.513  14.497  0.7557 -1.2301  0.0503
 5010SOL     OW26488   0.431   1.409  11.647 -0.3731  0.1281  0.4126
 5010SOL    HW126489   0.472   1.496  11.641 -2.5996  1.2092  0.7531
 5010SOL    HW226490   0.495   1.370  11.707  2.0650 -0.3358 -2.4979
 5011SOL     OW26491   3.298   2.904   6.474  0.4234  0.0572 -0.0563
 5011SOL    HW126492   3.299   2.815   6.439  0.3694 -0.1381  0.4352
 5011SOL    HW226493   3.391   2.917   6.491  0.8176 -0.8514 -1.4931
 5012SOL     OW26494   1.492   1.271   8.182 -0.0522  0.0679 -0.4348
 5012SOL    HW126495   1.529   1.357   8.162  0.4598  0.2729  1.3668
 5012SOL    HW226496   1.456   1.287   8.270 -1.5766  0.7210 -1.1818
 5013SOL     OW26497   2.843   2.832   9.385  0.1638 -0.1690  0.0126
 5013SOL    HW126498   2.849   2.890   9.461 -1.6256 -1.4413  1.1324
 5013SOL    HW226499   2.922   2.855   9.337 -0.7217  2.6324 -0.1280
 5014SOL     OW26500   4.623   0.681   5.239 -0.5745  0.1078  0.6042
 5014SOL    HW126501   4.659   0.594   5.254 -1.4351 -0.5083 -0.9090
 5014SOL    HW226502   4.672   0.715   5.164  0.5701  0.3788  1.4746
 5015SOL     OW26503   1.482   0.858   6.940  0.1251  0.1044 -0.6040
 5015SOL    HW126504   1.432   0.927   6.897 -2.4982 -0.4008  1.6913
 5015SOL    HW226505   1.513   0.904   7.018  0.8558  0.7185 -1.2596
 5016SOL     OW26506   3.511   0.821   3.379  0.3551  0.2029  0.0138
 5016SOL    HW126507   3.580   0.791   3.439  1.4346  0.1964 -1.2353
 5016SOL    HW226508   3.454   0.878   3.431  0.5998  1.4138 -1.0485
 5017SOL     OW26509   4.673   4.011   0.624 -0.5164 -0.0338 -0.2986
 5017SOL    HW126510   4.593   3.960   0.638  0.0967 -0.7039  0.7524
 5017SOL    HW226511   4.686   3.991   0.531  0.9137 -0.1394 -0.0665
 5018SOL     OW26512   3.576   4.534   3.771  0.1631  0.3311  0.3397
 5018SOL    HW126513   3.573   4.451   3.724 -0.9525  1.1621 -1.0531
 5018SOL    HW226514   3.483   4.529   3.794  0.6302 -3.0842  1.4985
 5019SOL     OW26515   3.812   4.072   8.027  0.1554 -0.0698 -0.1535
 5019SOL    HW126516   3.759   4.024   7.964 -0.5024  0.0205  0.3218
 5019SOL    HW226517   3.759   4.056   8.106  1.3721 -0.9235  0.4962
 5020SOL     OW26518   2.427   2.557   7.277 -0.1092 -0.3759  0.0842
 5020SOL    HW126519   2.391   2.578   7.190  2.2498  0.0853 -0.7684
 5020SOL    HW226520   2.483   2.634   7.290  0.2781  0.0018 -3.8366
 5021SOL     OW26521   3.078   4.384   2.853  0.3869 -0.2141 -0.0462
 5021SOL    HW126522   3.052   4.298   2.886  2.2158 -0.6069  0.3710
 5021SOL    HW226523   2.998   4.435   2.864  0.5655  0.2137 -0.6887
 5022SOL     OW26524   1.207   4.633   8.835 -0.2868  0.1661  0.0149
 5022SOL    HW126525   1.273   4.564   8.830  1.0327  1.5234 -1.4570
 5022SOL    HW226526   1.175   4.614   8.923  2.1940 -0.5938  0.7410
 5023SOL     OW26527   4.480   4.185   0.449 -0.7279  0.2060  0.1353
 5023SOL    HW126528   4.476   4.138   0.532 -1.1688  0.0533  0.0272
 5023SOL    HW226529   4.513   4.271   0.474  2.3133 -1.4390  1.8362
 5024SOL     OW26530   2.484   3.079  13.195 -0.2234 -0.9647  0.2601
 5024SOL    HW126531   2.411   3.038  13.149 -1.1167 -0.9441  1.6651
 5024SOL    HW226532   2.545   3.081  13.121  1.3975 -0.2283  1.6165
 5025SOL     OW26533   4.154   2.091   2.099 -0.2613 -0.0700  0.4996
 5025SOL    HW126534   4.062   2.091   2.123 -0.5134  0.7614 -0.4656
 5025SOL    HW226535   4.173   1.998   2.086  1.0766  0.0507  1.5166
 5026SOL     OW26536   1.098   3.741   7.255  0.2065 -0.7084 -0.1209
 5026SOL    HW126537   1.055   3.656   7.263 -1.7733  0.4942  2.0001
 5026SOL    HW226538   1.190   3.718   7.248  0.1653 -1.5913  2.4540
 5027SOL     OW26539   3.873   1.536   8.448  0.4902  1.1702  0.1969
 5027SOL    HW126540   3.805   1.566   8.387 -0.8507  1.2140  1.7354
 5027SOL    HW226541   3.833   1.472   8.506  0.1947  0.3730 -0.8816
 5028SOL     OW26542   0.596   1.778   5.874 -0.4152 -0.6623  0.6158
 5028SOL    HW126543   0.630   1.794   5.786  0.6116 -0.6318  1.0153
 5028SOL    HW226544   0.659   1.834   5.920 -0.2472  0.3101 -0.7904
 5029SOL     OW26545   0.933   2.644   2.468 -0.1735 -0.1613 -0.3546
 5029SOL    HW126546   0.886   2.561   2.462  0.8257 -0.6668 -1.2403
 5029SOL    HW226547   0.901   2.704   2.400  0.7904  2.0618  1.1477
 5030SOL     OW26548   3.587   3.917   2.379 -0.0748 -0.1116  0.0059
 5030SOL    HW126549   3.595   3.991   2.439  2.4366 -3.1094  3.2858
 5030SOL    HW226550   3.495   3.890   2.386  0.7203 -2.7372  0.0057
 5031SOL     OW26551   2.690   0.953   6.423 -0.1268  0.0796 -0.1715
 5031SOL    HW126552   2.765   0.893   6.414 -0.8361 -0.9935  1.1067
 5031SOL    HW226553   2.634   0.928   6.349  1.7226 -0.9420 -1.2368
 5032SOL     OW26554   1.740   3.531   4.020  0.1150  0.7498 -0.2155
 5032SOL    HW126555   1.807   3.466   3.999 -0.9839 -1.4288  3.1267
 5032SOL    HW226556   1.804   3.600   4.035  1.9399 -1.1044  0.5082
 5033SOL     OW26557   1.851   2.425   4.927 -0.3064 -0.6750 -0.1137
 5033SOL    HW126558   1.877   2.513   4.953  1.7355 -1.0235 -0.9783
 5033SOL    HW226559   1.882   2.425   4.837  0.3665 -0.1566  0.1196
 5034SOL     OW26560   1.458   0.918   8.323  0.0678  0.1718  0.1440
 5034SOL    HW126561   1.421   0.838   8.360  0.4954  0.6677  1.6200
 5034SOL    HW226562   1.421   0.918   8.234  3.5791  0.6377 -1.3306
 5035SOL     OW26563   2.834   4.173   4.243 -0.2534  0.2574 -0.0701
 5035SOL    HW126564   2.773   4.234   4.284 -1.4589 -0.5820 -0.6136
 5035SOL    HW226565   2.813   4.084   4.273  0.0299  0.9028  2.0258
 5036SOL     OW26566   1.899   0.248  16.290 -0.2314 -0.0130 -0.3545
 5036SOL    HW126567   1.880   0.171  16.235 -2.2639  0.6764 -0.5873
 5036SOL    HW226568   1.811   0.283  16.304 -0.2984  0.4764 -2.0791
 5037SOL     OW26569   3.556   3.869   6.236  0.4692  0.3117  0.5546
 5037SOL    HW126570   3.603   3.903   6.161  0.1910 -0.7117 -0.0783
 5037SOL    HW226571   3.549   3.947   6.291  0.6624  1.2804 -0.8023
 5038SOL     OW26572   4.717   4.003   3.916 -0.3742  0.7510  0.3245
 5038SOL    HW126573   0.049   3.926   3.922 -3.3494 -1.3431  0.9190
 5038SOL    HW226574   4.628   3.969   3.905  0.5451 -0.9316 -1.8767
 5039SOL     OW26575   0.876   0.930   8.210 -0.2075  1.1206  0.3083
 5039SOL    HW126576   0.879   1.011   8.261  1.3751  1.0006  0.4071
 5039SOL    HW226577   0.838   0.868   8.272  1.3891  2.8556  3.0432
 5040SOL     OW26578   0.804   1.349   4.456  0.1195  0.1656 -0.2413
 5040SOL    HW126579   0.877   1.400   4.423  2.2196 -3.7660 -1.6555
 5040SOL    HW226580   0.794   1.276   4.395  4.9744 -1.7226  1.2715
 5041SOL     OW26581   1.013   1.386   7.822  0.2512  0.0995 -0.1463
 5041SOL    HW126582   0.938   1.371   7.764 -0.1204  0.1920  0.3139
 5041SOL    HW226583   1.062   1.308   7.796 -2.0781 -1.4634  0.1262
 5042SOL     OW26584   0.143   2.324   8.492  0.1218  0.5917 -0.1688
 5042SOL    HW126585   0.055   2.324   8.532  0.5909  1.6126  0.8855
 5042SOL    HW226586   0.141   2.253   8.429  0.2887  1.4331 -1.1185
 5043SOL     OW26587   0.717   0.724   7.505 -0.3813  0.1915 -0.7210
 5043SOL    HW126588   0.658   0.758   7.573  1.0408 -1.0062  1.1002
 5043SOL    HW226589   0.751   0.643   7.543 -2.6829 -0.6727 -0.5202
 5044SOL     OW26590   0.858   1.911   3.875  0.2867 -0.2760  0.0552
 5044SOL    HW126591   0.834   1.910   3.783  0.8332  0.0328 -0.0868
 5044SOL    HW226592   0.946   1.948   3.880  1.5103 -3.0892 -0.2022
 5045SOL     OW26593   1.125   0.758   3.009 -0.1542 -0.1111 -0.5125
 5045SOL    HW126594   1.136   0.844   2.968 -2.6778  0.1149 -0.6932
 5045SOL    HW226595   1.205   0.752   3.063  0.2618  0.6363 -1.0457
 5046SOL     OW26596   3.471   3.605   5.728  0.0818 -0.4434 -0.2802
 5046SOL    HW126597   3.457   3.516   5.698  1.5282 -1.3862  1.8425
 5046SOL    HW226598   3.501   3.591   5.818  1.3103  0.3159 -0.5668
 5047SOL     OW26599   0.598   0.640   3.740  0.3763  0.1352 -0.3646
 5047SOL    HW126600   0.688   0.611   3.720  0.0886 -2.6511  2.4624
 5047SOL    HW226601   0.545   0.572   3.697  2.0612 -0.8694 -0.8778
 5048SOL     OW26602   1.953   0.803   8.801 -0.0409 -0.2922  0.5010
 5048SOL    HW126603   1.941   0.716   8.764  0.5876  0.6975 -2.0034
 5048SOL    HW226604   1.923   0.854   8.726 -3.0049 -1.0527  1.1869
 5049SOL     OW26605   3.465   4.195   6.038  0.2109  0.1182  0.0485
 5049SOL    HW126606   3.469   4.243   5.956 -0.4424  0.2715  0.1010
 5049SOL    HW226607   3.388   4.234   6.080  1.8484  0.8960  2.3246
 5050SOL     OW26608   0.164   2.376   9.046  0.0959 -0.0226  0.2029
 5050SOL    HW126609   0.139   2.465   9.072 -0.8294 -0.4009  0.6022
 5050SOL    HW226610   0.240   2.367   9.104  0.5755  0.0638 -0.3983
 5051SOL     OW26611   2.040   4.473   5.468 -0.1768 -0.3098 -0.5425
 5051SOL    HW126612   2.081   4.410   5.409  0.9143 -1.0592  0.9922
 5051SOL    HW226613   2.088   4.493   5.549 -0.2432  0.3022 -0.6485
 5052SOL     OW26614   1.993   3.938  12.196 -0.6716 -0.1149  0.0210
 5052SOL    HW126615   1.952   4.024  12.206  0.6369  0.4354  0.7928
 5052SOL    HW226616   1.957   3.915  12.110  0.4871 -3.6351  0.5186
 5053SOL     OW26617   1.114   0.723   5.810 -0.0607  0.1486 -0.5561
 5053SOL    HW126618   1.179   0.793   5.825 -1.1242  0.5128  2.4317
 5053SOL    HW226619   1.036   0.758   5.853  0.6480  2.6157 -1.2347
 5054SOL     OW26620   2.419   1.316   2.887 -0.3975 -0.3184  0.2740
 5054SOL    HW126621   2.384   1.275   2.808  0.0691 -1.7188  0.8012
 5054SOL    HW226622   2.491   1.356   2.839 -0.5065 -0.0888  0.3019
 5055SOL     OW26623   2.680   3.801   4.603 -0.0800 -0.0620 -0.4536
 5055SOL    HW126624   2.773   3.813   4.620  0.0004 -1.1495 -0.1065
 5055SOL    HW226625   2.666   3.720   4.652 -3.3840 -0.4205 -1.9960
 5056SOL     OW26626   0.651   1.054  16.023  0.4608 -0.2859 -0.2438
 5056SOL    HW126627   0.704   1.079  15.947  0.0032  1.6259  0.0606
 5056SOL    HW226628   0.590   1.128  16.020 -1.7631 -2.1078 -0.3617
 5057SOL     OW26629   2.784   1.081   9.970  0.4332 -0.2295 -0.1039
 5057SOL    HW126630   2.730   1.159   9.984  1.8491  0.4305  1.7782
 5057SOL    HW226631   2.732   1.048   9.897  1.7384 -0.7819 -0.7807
 5058SOL     OW26632   4.092   3.387   4.272  0.7070  0.4124  0.4295
 5058SOL    HW126633   4.095   3.368   4.366  0.2397 -0.4754  0.2677
 5058SOL    HW226634   4.011   3.346   4.242  1.5671 -0.0831 -1.2022
 5059SOL     OW26635   0.994   2.370   6.225  0.9791 -0.6726  0.1627
 5059SOL    HW126636   1.059   2.426   6.268  1.0370 -1.3215  0.9163
 5059SOL    HW226637   1.042   2.288   6.231 -0.1518 -1.3172  0.4480
 5060SOL     OW26638   2.900   3.522   7.545 -0.3739 -0.0591 -0.2695
 5060SOL    HW126639   2.881   3.429   7.537  0.4208 -0.4176  1.9419
 5060SOL    HW226640   2.852   3.550   7.623 -0.7186  1.1818 -0.9361
 5061SOL     OW26641   2.262   3.808  11.814 -0.4549  0.0716  0.3191
 5061SOL    HW126642   2.228   3.828  11.727 -2.0430 -2.3652  0.3880
 5061SOL    HW226643   2.340   3.864  11.818  0.2543 -1.0082  1.5325
 5062SOL     OW26644   3.937   1.824  16.067 -0.5542 -0.1508 -0.0478
 5062SOL    HW126645   3.997   1.893  16.095  0.3678 -1.2917  0.7574
 5062SOL    HW226646   3.889   1.861  15.992  0.1137  2.8138  0.9721
 5063SOL     OW26647   2.986   2.008   1.894 -0.3162  0.1402  0.0761
 5063SOL    HW126648   2.960   2.071   1.827 -0.7243  0.4007  0.4827
 5063SOL    HW226649   3.045   1.949   1.847 -0.3918 -0.6364  0.9606
 5064SOL     OW26650   3.970   4.316   4.853  0.0730  0.2686 -0.0143
 5064SOL    HW126651   3.882   4.348   4.871 -0.2230 -0.7528  0.3832
 5064SOL    HW226652   4.022   4.385   4.896 -0.1676 -0.1908  1.0303
 5065SOL     OW26653   4.407   1.427   8.908 -1.3680 -0.1835  0.2799
 5065SOL    HW126654   4.344   1.485   8.866  0.0161  1.0881 -0.0667
 5065SOL    HW226655   4.443   1.379   8.833 -0.3085  2.0599 -0.6549
 5066SOL     OW26656   0.274   0.218   3.349 -0.3034 -0.6249 -0.1527
 5066SOL    HW126657   0.248   0.293   3.296 -2.2704 -0.4596  1.0549
 5066SOL    HW226658   0.361   0.245   3.381  0.2319  0.4121 -2.4921
 5067SOL     OW26659   0.317   2.854  13.045 -0.1902 -0.2293 -0.2006
 5067SOL    HW126660   0.373   2.857  13.123  0.1822 -1.3304 -0.4325
 5067SOL    HW226661   0.295   2.947  13.044  1.0735  0.0615 -0.8752
 5068SOL     OW26662   1.742   2.316  10.917 -0.2171  0.1620  0.4869
 5068SOL    HW126663   1.818   2.294  10.971 -0.4793  0.9358  1.1653
 5068SOL    HW226664   1.784   2.325  10.831  1.9273 -0.4337  1.4690
 5069SOL     OW26665   0.687   0.494   0.697 -0.3071 -0.0243  0.0471
 5069SOL    HW126666   0.645   0.414   0.728  0.7752 -0.6839 -0.1733
 5069SOL    HW226667   0.763   0.447   0.662 -0.5444  1.3075 -2.2805
 5070SOL     OW26668   1.683   1.218   4.593  0.0578  0.5454 -0.4055
 5070SOL    HW126669   1.728   1.257   4.518  1.0906  0.8712  0.3816
 5070SOL    HW226670   1.757   1.200   4.650 -0.7156 -1.5592 -0.0592
 5071SOL     OW26671   0.602   0.059   3.547  0.1811 -0.2015  0.1800
 5071SOL    HW126672   0.652   0.131   3.509  1.5871 -1.2262  0.0904
 5071SOL    HW226673   0.539   0.033   3.479 -0.0660 -0.0977  0.3715
 5072SOL     OW26674   0.131   0.039  16.587  0.3390 -0.0784 -0.7319
 5072SOL    HW126675   0.126   0.059  16.681  0.7842  3.2328 -1.4156
 5072SOL    HW226676   0.106   4.670  16.583 -0.1690  0.0928 -1.4112
 5073SOL     OW26677   4.388   0.681   1.081 -0.0151 -0.3951  0.3344
 5073SOL    HW126678   4.453   0.733   1.129 -0.5099  1.0214 -0.5263
 5073SOL    HW226679   4.322   0.749   1.071  1.9594  1.0762 -2.8163
 5074SOL     OW26680   2.522   1.151  14.945 -0.0942  0.1081 -1.0280
 5074SOL    HW126681   2.607   1.135  14.986 -1.0397  1.5480  1.5120
 5074SOL    HW226682   2.558   1.146  14.857 -0.3683  0.7857 -1.1754
 5075SOL     OW26683   2.232   0.050   8.927  0.5169 -0.0043  0.1752
 5075SOL    HW126684   2.269   4.690   8.955 -1.0672 -0.0951  2.0316
 5075SOL    HW226685   2.314   0.098   8.913  1.3790 -1.2189  1.1841
 5076SOL     OW26686   2.969   2.452   6.149 -0.4146  0.1525 -0.3353
 5076SOL    HW126687   2.957   2.544   6.127  1.6225  0.2400 -1.1531
 5076SOL    HW226688   2.944   2.406   6.069  1.3170  0.9753 -1.3544
 5077SOL     OW26689   2.492   2.860   6.968  0.0991  0.1424  0.1248
 5077SOL    HW126690   2.492   2.859   6.872 -0.5514 -1.6626  0.1494
 5077SOL    HW226691   2.434   2.786   6.987  0.3789  0.3439  1.7463
 5078SOL     OW26692   0.346   4.363   2.823  0.4920  0.4618  0.2394
 5078SOL    HW126693   0.337   4.340   2.730  0.1590 -1.3546  0.7212
 5078SOL    HW226694   0.413   4.301   2.850  0.3243  0.1331 -0.0962
 5079SOL     OW26695   3.767   3.540   1.546  1.0145 -0.1964  0.1076
 5079SOL    HW126696   3.810   3.523   1.629  0.5080 -0.6734  0.2715
 5079SOL    HW226697   3.728   3.454   1.531 -2.0018  1.1163  0.4112
 5080SOL     OW26698   4.178   3.203  13.072 -0.1113 -0.3084 -0.1717
 5080SOL    HW126699   4.146   3.161  13.151  0.3688  0.1673  0.2756
 5080SOL    HW226700   4.135   3.138  13.016 -1.8939  1.0982 -0.4649
 5081SOL     OW26701   0.191   1.362  10.584 -0.2744 -0.6735 -0.1168
 5081SOL    HW126702   0.202   1.448  10.543  1.1379 -0.2211  1.2400
 5081SOL    HW226703   0.250   1.362  10.659 -0.0146 -0.7195 -0.3211
 5082SOL     OW26704   1.371   1.800   8.453  0.0967  0.0891 -0.3390
 5082SOL    HW126705   1.372   1.834   8.363  0.5151  1.0152  0.0231
 5082SOL    HW226706   1.281   1.817   8.481 -0.5214 -2.2301 -0.8930
 5083SOL     OW26707   4.248   2.358   9.171 -0.2439  1.0876 -0.5888
 5083SOL    HW126708   4.269   2.391   9.083  0.0572  2.4362 -0.0178
 5083SOL    HW226709   4.339   2.336   9.190 -0.2193  1.0466 -0.7487
 5084SOL     OW26710   1.014   3.597   4.381 -0.5354  0.3715  0.1856
 5084SOL    HW126711   1.029   3.670   4.321  1.1613 -0.6868 -0.6564
 5084SOL    HW226712   0.931   3.625   4.420 -0.9262  0.2953 -0.6008
 5085SOL     OW26713   1.302   4.207  10.283 -0.1181  0.4102 -0.5564
 5085SOL    HW126714   1.284   4.294  10.319 -0.2452  0.8143 -1.5999
 5085SOL    HW226715   1.397   4.198  10.290 -0.7416 -3.9627  2.3627
 5086SOL     OW26716   0.503   4.365   4.260 -0.3195 -0.2997 -0.3063
 5086SOL    HW126717   0.488   4.366   4.165 -0.3492  0.1903 -0.2947
 5086SOL    HW226718   0.451   4.437   4.295 -0.5651 -0.9721  0.6891
 5087SOL     OW26719   1.739   2.779  16.523  0.1537 -0.7346  0.3439
 5087SOL    HW126720   1.653   2.767  16.561 -0.0669 -1.0364 -0.2532
 5087SOL    HW226721   1.791   2.811  16.598 -0.9221  1.7245  0.0266
 5088SOL     OW26722   1.811   0.934  12.221 -0.5977 -0.2160 -0.4746
 5088SOL    HW126723   1.790   0.965  12.133  0.9846 -2.3316 -1.5793
 5088SOL    HW226724   1.734   0.881  12.240  0.5588 -1.8049 -0.2673
 5089SOL     OW26725   4.636   1.348   6.681  0.1981  0.0687 -0.1884
 5089SOL    HW126726   4.692   1.423   6.661  1.8301 -1.2315 -0.4411
 5089SOL    HW226727   4.552   1.393   6.690  0.8355  0.8096  1.9944
 5090SOL     OW26728   1.385   1.846  16.850  0.4228  0.5420  0.0373
 5090SOL    HW126729   1.354   1.931  16.881 -1.5527 -0.4475  0.7572
 5090SOL    HW226730   1.462   1.840  16.907 -0.0142  1.4248  0.7175
 5091SOL     OW26731   4.164   2.303  10.834 -0.1218  0.2324 -0.4525
 5091SOL    HW126732   4.206   2.262  10.759  0.6947 -0.5752  0.4390
 5091SOL    HW226733   4.074   2.272  10.829 -0.7504  2.1395 -0.8476
 5092SOL     OW26734   2.180   3.624   0.848  0.1740 -0.1472  0.0389
 5092SOL    HW126735   2.240   3.698   0.850 -0.9063  0.7196  0.0508
 5092SOL    HW226736   2.218   3.566   0.782 -0.3107 -1.0192  0.5228
 5093SOL     OW26737   2.488   1.192   7.961  0.3957 -0.7043  0.0241
 5093SOL    HW126738   2.438   1.115   7.989 -0.1551 -0.3889 -0.0958
 5093SOL    HW226739   2.562   1.155   7.913  0.4170 -1.7882  0.9065
 5094SOL     OW26740   3.808   0.294  13.972  0.6580 -0.7638 -0.0221
 5094SOL    HW126741   3.796   0.389  13.968 -1.5287 -1.1589 -2.5294
 5094SOL    HW226742   3.891   0.286  13.924  1.3311 -1.0079  1.1913
 5095SOL     OW26743   3.032   1.510   4.976  0.1031 -0.5824 -0.1526
 5095SOL    HW126744   3.042   1.517   5.071  0.0102 -0.5708 -0.1436
 5095SOL    HW226745   3.093   1.438   4.961  2.5173  1.3724  0.2844
 5096SOL     OW26746   4.598   2.295   6.413  0.1912  0.0815  0.3943
 5096SOL    HW126747   4.646   2.377   6.416  1.9894 -0.8666 -2.3313
 5096SOL    HW226748   4.520   2.323   6.365  0.1523 -0.0383  0.3872
 5097SOL     OW26749   4.141   4.553  13.234  0.4521 -0.5848  0.1701
 5097SOL    HW126750   4.092   4.474  13.209 -0.0500  0.3546 -1.8157
 5097SOL    HW226751   4.168   4.598  13.153  1.9215 -1.1891  0.3215
 5098SOL     OW26752   2.618   3.410  11.547 -0.0108 -0.5018 -0.2406
 5098SOL    HW126753   2.555   3.482  11.542  2.6737  1.9048  0.0900
 5098SOL    HW226754   2.640   3.414  11.454  1.0299  2.9090  0.1423
 5099SOL     OW26755   2.208   0.358  13.444 -0.1828 -0.3049  0.3355
 5099SOL    HW126756   2.293   0.363  13.487  0.7491  1.9740 -1.8024
 5099SOL    HW226757   2.172   0.430  13.496  0.6773  1.7687 -1.9343
 5100SOL     OW26758   2.488   2.737   3.467  0.7693 -0.2116 -0.2417
 5100SOL    HW126759   2.439   2.818   3.452  1.4960 -0.3898 -3.6138
 5100SOL    HW226760   2.422   2.669   3.451  0.6874 -0.9627  3.3315
 5101SOL     OW26761   3.795   3.073  17.028  0.0559 -0.0337 -0.1833
 5101SOL    HW126762   3.884   3.038  17.026  1.2917  3.0971  1.4122
 5101SOL    HW226763   3.748   3.006  16.977  0.9933  1.1632 -2.6512
 5102SOL     OW26764   3.801   1.382  11.547 -0.7843  0.1087 -0.0943
 5102SOL    HW126765   3.798   1.288  11.563 -3.1324  0.1268 -0.4660
 5102SOL    HW226766   3.853   1.398  11.625 -1.4002  1.7670 -0.0297
 5103SOL     OW26767   2.504   4.433   0.993 -0.4605 -0.1194  0.1136
 5103SOL    HW126768   2.442   4.369   0.958  0.1102 -0.3332 -0.4942
 5103SOL    HW226769   2.454   4.515   0.996  2.0314  1.3209  2.8073
 5104SOL     OW26770   1.545   2.696   6.493 -0.0148  0.2282  0.3934
 5104SOL    HW126771   1.545   2.607   6.458  1.5135  0.7814 -1.0434
 5104SOL    HW226772   1.469   2.730   6.447  3.2166  3.3653 -2.6282
 5105SOL     OW26773   4.158   3.729   8.411 -0.1396 -0.3007  0.0072
 5105SOL    HW126774   4.202   3.761   8.490 -2.6257  2.8937  0.0865
 5105SOL    HW226775   4.147   3.809   8.360 -2.1028  0.2960  1.3582
 5106SOL     OW26776   4.600   2.139  15.524 -0.0519 -0.4645  0.0070
 5106SOL    HW126777   4.599   2.146  15.429  0.5959 -2.0294 -0.1250
 5106SOL    HW226778   4.508   2.157  15.542  0.3767  1.1110  0.6313
 5107SOL     OW26779   2.542   2.096   3.146  0.4477  0.6039 -0.4800
 5107SOL    HW126780   2.599   2.055   3.081 -0.6148  1.4165 -1.9158
 5107SOL    HW226781   2.454   2.091   3.110 -0.5069 -1.8275  2.2079
 5108SOL     OW26782   0.449   3.512   7.759  0.0878 -1.1782  0.7061
 5108SOL    HW126783   0.433   3.554   7.843 -3.7606  3.2168 -2.2207
 5108SOL    HW226784   0.545   3.510   7.755  0.2472  1.4499  3.3212
 5109SOL     OW26785   1.894   4.535   6.435 -0.2582 -0.0154  0.3348
 5109SOL    HW126786   1.954   4.522   6.509 -2.2229 -0.7737  1.8107
 5109SOL    HW226787   1.811   4.551   6.480  0.3129  0.4775  1.2109
 5110SOL     OW26788   3.313   3.812   5.239 -0.9002 -0.0049  0.1213
 5110SOL    HW126789   3.373   3.798   5.312 -0.6007  0.3973 -0.0495
 5110SOL    HW226790   3.235   3.770   5.277  0.5502 -1.5568  1.3724
 5111SOL     OW26791   1.152   1.971   8.872  0.2806 -0.0515  0.4210
 5111SOL    HW126792   1.112   1.907   8.930  0.0405  1.5576  2.0239
 5111SOL    HW226793   1.105   2.044   8.913  0.4104 -0.5389  1.4210
 5112SOL     OW26794   3.338   2.622   6.462 -0.0217  0.4659  0.1436
 5112SOL    HW126795   3.414   2.591   6.512  0.3702  0.5128 -0.4310
 5112SOL    HW226796   3.286   2.542   6.467 -1.4658  1.4374  0.5662
 5113SOL     OW26797   0.893   3.748  10.804  0.2758 -0.1164 -0.1474
 5113SOL    HW126798   0.881   3.713  10.892 -1.2961  1.1249  0.1282
 5113SOL    HW226799   0.927   3.835  10.826 -2.9958  1.1406 -0.0386
 5114SOL     OW26800   1.162   1.628  13.131  0.2469 -0.7103 -0.1959
 5114SOL    HW126801   1.081   1.679  13.135  0.6917  0.0001 -0.1567
 5114SOL    HW226802   1.155   1.564  13.202 -2.3275 -0.8621 -0.5802
 5115SOL     OW26803   0.383   2.945  13.302  0.0266  0.4709  0.2697
 5115SOL    HW126804   0.315   2.885  13.334  0.7001  0.2890  1.3449
 5115SOL    HW226805   0.340   3.030  13.311 -0.1761  0.1875  2.0940
 5116SOL     OW26806   3.697   2.951   3.937 -0.2188 -0.2937 -0.4945
 5116SOL    HW126807   3.681   2.862   3.968 -0.5983  0.0934  0.4503
 5116SOL    HW226808   3.742   2.927   3.857  0.0914  2.0949 -1.0454
 5117SOL     OW26809   2.805   2.817  15.126  0.2415 -0.0061  0.0681
 5117SOL    HW126810   2.885   2.776  15.160 -0.2807  0.4363  1.8115
 5117SOL    HW226811   2.773   2.738  15.082  1.9361 -0.8523  0.3397
 5118SOL     OW26812   2.560   2.208   6.242 -0.2119 -0.1967 -0.0931
 5118SOL    HW126813   2.542   2.274   6.309  0.7197 -1.0297  0.9694
 5118SOL    HW226814   2.654   2.198   6.231 -0.2715 -2.4881  1.4028
 5119SOL     OW26815   2.680   4.245  14.763 -0.0330 -0.4024  0.3964
 5119SOL    HW126816   2.719   4.310  14.704  1.4634  0.6165  2.4857
 5119SOL    HW226817   2.754   4.185  14.761  1.7664  1.8308  0.6917
 5120SOL     OW26818   4.179   0.872  15.503  0.6317 -0.0822  0.2163
 5120SOL    HW126819   4.223   0.957  15.508 -0.2788  0.4282 -0.3985
 5120SOL    HW226820   4.251   0.811  15.516 -0.1774 -0.6960  1.7210
 5121SOL     OW26821   2.931   0.904   5.895  0.1382  0.1837 -0.1153
 5121SOL    HW126822   2.888   0.825   5.928 -2.0832  1.8784  1.0480
 5121SOL    HW226823   3.019   0.867   5.895 -0.9557 -2.4228  0.2333
 5122SOL     OW26824   4.168   0.612   7.764  0.2155 -0.6049  0.2390
 5122SOL    HW126825   4.152   0.645   7.676 -1.0891  0.9294  1.0380
 5122SOL    HW226826   4.232   0.673   7.800 -1.3586  0.2790  1.5655
 5123SOL     OW26827   2.324   0.305   9.664  0.4737 -0.2733  0.2151
 5123SOL    HW126828   2.269   0.227   9.659 -0.3687  0.4045 -1.0054
 5123SOL    HW226829   2.408   0.268   9.635  0.2609 -0.8541  0.3397
 5124SOL     OW26830   2.562   1.609   4.611  0.2478  0.1146  0.1566
 5124SOL    HW126831   2.568   1.582   4.703 -1.6672 -1.3727 -0.1400
 5124SOL    HW226832   2.469   1.591   4.598  0.4502 -0.1900 -0.9074
 5125SOL     OW26833   4.348   0.572   6.212 -0.1210 -0.0516 -0.1626
 5125SOL    HW126834   4.372   0.480   6.217  2.5997  0.5532 -2.0078
 5125SOL    HW226835   4.274   0.572   6.272 -0.6734  0.6466 -0.8420
 5126SOL     OW26836   4.274   2.147   6.056  0.4674  0.3731 -0.0403
 5126SOL    HW126837   4.213   2.111   5.992  0.8980 -0.1740 -0.1403
 5126SOL    HW226838   4.353   2.101   6.028  0.8913  1.8336 -1.2108
 5127SOL     OW26839   2.405   1.637   7.642 -0.0439 -0.2337  0.2572
 5127SOL    HW126840   2.439   1.551   7.667  1.4003  0.2950  0.1164
 5127SOL    HW226841   2.479   1.674   7.593 -0.8462 -3.6677 -3.5823
 5128SOL     OW26842   3.530   0.526   7.690  0.2423  0.1058 -0.5937
 5128SOL    HW126843   3.611   0.516   7.640  1.7979  0.8236  1.8221
 5128SOL    HW226844   3.557   0.588   7.757  1.0894  0.5694 -1.3549
 5129SOL     OW26845   0.154   1.830   8.030 -0.1356  0.0767 -0.1336
 5129SOL    HW126846   0.102   1.810   8.108 -0.5755 -0.7497 -0.6276
 5129SOL    HW226847   0.242   1.804   8.055 -0.3610 -0.0072  0.5831
 5130SOL     OW26848   0.122   3.424   3.649 -0.4881  0.0280 -0.0230
 5130SOL    HW126849   0.125   3.378   3.732  1.2629  2.7368  1.4178
 5130SOL    HW226850   0.216   3.435   3.636 -0.4700  0.7482  0.7659
 5131SOL     OW26851   0.205   0.071  11.344  0.0588 -0.1076 -0.4172
 5131SOL    HW126852   0.233   0.117  11.265  0.1359  0.2585 -0.1740
 5131SOL    HW226853   0.242   4.710  11.319 -1.8409 -1.4508  1.3410
 5132SOL     OW26854   2.769   3.851   3.209  0.5198  0.7779 -0.3266
 5132SOL    HW126855   2.784   3.769   3.162 -0.8890  0.1950  0.2267
 5132SOL    HW226856   2.696   3.833   3.269  0.8748  1.6474  0.3480
 5133SOL     OW26857   2.179   1.948   3.396  0.1191 -0.3946 -0.3151
 5133SOL    HW126858   2.187   2.022   3.457 -2.4493 -1.3941  1.2052
 5133SOL    HW226859   2.087   1.953   3.370 -0.2415  1.0334  1.2467
 5134SOL     OW26860   4.665   4.274   1.872 -0.0709 -0.3991  0.4744
 5134SOL    HW126861   4.571   4.287   1.889 -0.2077 -0.4806 -0.2093
 5134SOL    HW226862   4.701   4.270   1.960 -3.5493  1.2345  1.9857
 5135SOL     OW26863   1.975   1.251   9.618  0.6410  0.2545 -0.4063
 5135SOL    HW126864   1.929   1.323   9.575 -0.9138  1.2244  2.9163
 5135SOL    HW226865   1.918   1.174   9.615  0.9546 -0.0647  1.4421
 5136SOL     OW26866   0.129   0.482   5.539 -0.5401 -0.6455  0.0768
 5136SOL    HW126867   0.054   0.529   5.575 -0.7724 -0.9996  0.0496
 5136SOL    HW226868   0.097   0.473   5.449  1.7532  0.5628 -0.8709
 5137SOL     OW26869   4.121   1.622  13.722 -0.4623  0.1130  0.2526
 5137SOL    HW126870   4.160   1.580  13.798  0.3846 -3.1148 -1.9688
 5137SOL    HW226871   4.034   1.644  13.756 -1.4113 -2.4778 -0.5245
 5138SOL     OW26872   1.112   1.500   4.580  0.1315 -0.2814  0.1798
 5138SOL    HW126873   1.077   1.488   4.492  2.0972  0.1015 -0.6462
 5138SOL    HW226874   1.025   1.499   4.620 -1.4033  1.0271 -3.1694
 5139SOL     OW26875   3.474   1.659  15.141 -0.0476  0.4192  0.0959
 5139SOL    HW126876   3.561   1.645  15.105  0.5891  0.5116  1.5881
 5139SOL    HW226877   3.469   1.598  15.215  0.2979 -2.6765 -2.4131
 5140SOL     OW26878   3.374   2.886  10.183  0.4357 -0.1655  0.5971
 5140SOL    HW126879   3.353   2.951  10.249  0.6855  0.0336  0.4813
 5140SOL    HW226880   3.407   2.814  10.238 -2.1670 -0.1707  2.1583
 5141SOL     OW26881   1.731   1.980  17.365 -0.3849  0.6417  0.3772
 5141SOL    HW126882   1.672   1.929  17.310  0.7268  1.7425 -1.8422
 5141SOL    HW226883   1.741   1.928  17.445  1.6490 -0.2363 -0.4276
 5142SOL     OW26884   0.142   0.120  13.936 -0.4652  0.0953  0.2226
 5142SOL    HW126885   0.168   0.113  13.844 -2.8171  1.8095 -0.5825
 5142SOL    HW226886   0.110   0.031  13.951 -0.6003 -0.0064 -0.6587
 5143SOL     OW26887   4.528   3.878   4.487  0.0412  0.2855  0.3289
 5143SOL    HW126888   4.433   3.879   4.500  0.0182  2.6412 -0.0954
 5143SOL    HW226889   4.548   3.836   4.571  2.2249 -0.2486 -0.4799
 5144SOL     OW26890   3.655   4.595   2.637 -0.0665 -0.0640 -0.2419
 5144SOL    HW126891   3.714   4.658   2.678 -0.3876 -0.4069  0.7469
 5144SOL    HW226892   3.673   4.508   2.673 -0.9514  0.0860  0.5651
 5145SOL     OW26893   2.827   0.233   4.445 -0.3745 -0.0695 -0.5741
 5145SOL    HW126894   2.829   0.244   4.350 -1.2421  1.7129 -0.3928
 5145SOL    HW226895   2.788   0.315   4.476 -2.5701 -0.2475 -2.8293
 5146SOL     OW26896   0.534   4.312  16.374 -0.2345 -0.2251  0.3258
 5146SOL    HW126897   0.591   4.388  16.386 -0.8396  0.0681  1.3321
 5146SOL    HW226898   0.513   4.284  16.463 -0.3074 -1.7059 -0.1550
 5147SOL     OW26899   1.899   2.036  12.763 -0.1384  0.5469 -0.9111
 5147SOL    HW126900   1.967   2.101  12.780 -1.4158  1.1944  1.7143
 5147SOL    HW226901   1.946   1.960  12.797 -0.7211  0.8120  0.4800
 5148SOL     OW26902   4.410   1.505   8.357 -0.2368 -1.0224 -0.5754
 5148SOL    HW126903   4.412   1.503   8.452 -1.8004 -1.2780 -0.5423
 5148SOL    HW226904   4.412   1.417   8.320  1.6992 -1.3251  0.2891
 5149SOL     OW26905   0.638   4.371   7.617 -0.3817  0.6503  0.2421
 5149SOL    HW126906   0.590   4.291   7.637  0.9136  0.0650  0.9647
 5149SOL    HW226907   0.617   4.389   7.525 -2.7609 -1.7190  0.3089
 5150SOL     OW26908   0.446   4.627   7.327 -0.1900  0.2059  0.1624
 5150SOL    HW126909   0.371   4.568   7.324 -1.1528  1.4944 -1.0231
 5150SOL    HW226910   0.520   4.571   7.352 -0.9565 -1.7175 -1.8291
 5151SOL     OW26911   4.338   3.647  16.720 -0.8660 -0.3341 -0.3141
 5151SOL    HW126912   4.363   3.656  16.628 -2.2300  1.8067 -0.4714
 5151SOL    HW226913   4.340   3.736  16.756  0.9159 -0.7393  0.5947
 5152SOL     OW26914   3.485   1.662   3.046 -0.2133 -0.2014 -0.0827
 5152SOL    HW126915   3.527   1.692   3.127  1.4455  0.8556 -1.3251
 5152SOL    HW226916   3.500   1.569   3.059  2.7983 -0.1033 -2.5815
 5153SOL     OW26917   3.623   2.967   8.444 -0.1601  0.5572  0.0360
 5153SOL    HW126918   3.684   3.040   8.457 -0.9080  0.9422  1.4366
 5153SOL    HW226919   3.544   2.987   8.494  0.0099  0.6597  0.2649
 5154SOL     OW26920   3.295   1.108  13.801 -0.2071  0.5402  0.5278
 5154SOL    HW126921   3.323   1.196  13.828  0.7567  0.8322 -1.4600
 5154SOL    HW226922   3.203   1.125  13.780  0.1740 -0.6341 -2.0550
 5155SOL     OW26923   2.694   4.258   1.069  0.2341  0.3125 -0.1640
 5155SOL    HW126924   2.631   4.306   1.015 -2.3576 -0.5117  2.1126
 5155SOL    HW226925   2.673   4.301   1.152 -2.7539 -0.3054 -0.5833
 5156SOL     OW26926   0.237   0.493  14.617 -0.0521 -0.1318  0.2615
 5156SOL    HW126927   0.210   0.463  14.704 -0.9264 -0.1878 -0.0255
 5156SOL    HW226928   0.319   0.538  14.634  0.5196 -1.9050  2.2400
 5157SOL     OW26929   1.734   3.750   6.649 -0.4570 -0.6372  1.1258
 5157SOL    HW126930   1.770   3.836   6.670  0.2867 -0.0506 -2.6547
 5157SOL    HW226931   1.645   3.775   6.671  0.1011  2.4307 -0.0400
 5158SOL     OW26932   3.496   1.147  12.079 -1.0675 -0.1211 -0.0770
 5158SOL    HW126933   3.534   1.190  12.002  0.0767 -0.4283  0.3216
 5158SOL    HW226934   3.440   1.087  12.029  0.5990 -1.0850 -0.7974
 5159SOL     OW26935   0.361   1.498   3.726 -0.0072  0.2844 -0.2623
 5159SOL    HW126936   0.315   1.416   3.707  0.8368 -0.3456  0.4350
 5159SOL    HW226937   0.386   1.516   3.635  1.9502 -0.9236  0.0497
 5160SOL     OW26938   2.810   1.569   7.140  0.7047  0.3829  0.0608
 5160SOL    HW126939   2.726   1.527   7.161  0.7488 -0.7676 -1.9802
 5160SOL    HW226940   2.804   1.577   7.044 -2.3722  0.5112  0.2719
 5161SOL     OW26941   2.622   1.669  12.747  0.2896 -0.4590 -0.6221
 5161SOL    HW126942   2.693   1.614  12.714 -0.1520 -1.7875  0.6425
 5161SOL    HW226943   2.645   1.743  12.691  0.7785  0.0606  0.2459
 5162SOL     OW26944   3.841   2.673   9.784 -0.1055 -0.3253  0.5188
 5162SOL    HW126945   3.799   2.757   9.764 -2.8787 -1.3627  1.8644
 5162SOL    HW226946   3.764   2.633   9.825 -1.1411  2.5084  1.4062
 5163SOL     OW26947   2.013   4.141   3.293 -0.7067  0.0869 -0.0743
 5163SOL    HW126948   2.018   4.174   3.383 -1.6381  0.6300 -0.2192
 5163SOL    HW226949   2.101   4.104   3.286  0.5384  3.4972 -2.5897
 5164SOL     OW26950   2.420   4.682   1.091  0.0574  0.0481 -0.0133
 5164SOL    HW126951   2.501   0.010   1.096 -0.0309  0.4689 -2.8102
 5164SOL    HW226952   2.371   0.003   1.022  2.6744  1.1906 -1.1610
 5165SOL     OW26953   2.417   0.639  13.660  0.2470 -0.0204  0.4573
 5165SOL    HW126954   2.513   0.637  13.662  0.1653  0.0303  4.0698
 5165SOL    HW226955   2.402   0.718  13.711 -0.1352 -0.5554  1.1709
 5166SOL     OW26956   2.072   3.717   2.913  0.4452 -0.8893  0.3841
 5166SOL    HW126957   2.034   3.766   2.841 -0.6893 -1.5973  0.4893
 5166SOL    HW226958   2.117   3.648   2.864 -0.5434 -0.8001 -0.6433
 5167SOL     OW26959   3.026   3.726  12.496 -0.2016 -0.0861  0.5037
 5167SOL    HW126960   3.065   3.707  12.411 -2.5937 -2.5463 -0.0524
 5167SOL    HW226961   2.970   3.799  12.470  0.5492  0.5065  0.5615
 5168SOL     OW26962   3.840   3.671   2.003  0.4752 -0.7181 -0.2899
 5168SOL    HW126963   3.828   3.584   2.040 -2.9058 -0.5599 -0.9606
 5168SOL    HW226964   3.780   3.718   2.061  0.7467  0.7892 -1.2203
 5169SOL     OW26965   1.678   1.781   2.163  0.4015 -0.2319  0.0551
 5169SOL    HW126966   1.742   1.729   2.114 -0.7299 -0.5093 -1.1412
 5169SOL    HW226967   1.611   1.716   2.187 -0.7660  1.3068  0.9699
 5170SOL     OW26968   1.465   2.662  12.334 -0.4155  0.2116 -0.0847
 5170SOL    HW126969   1.461   2.612  12.416  1.3876 -0.3733 -0.3371
 5170SOL    HW226970   1.561   2.660  12.324 -0.3883 -0.8332  0.3377
 5171SOL     OW26971   1.010   2.941   3.377 -0.7030  0.3396  0.6958
 5171SOL    HW126972   0.985   2.931   3.469 -0.6846 -2.2970  0.4131
 5171SOL    HW226973   1.080   2.877   3.363 -0.6389  0.7281 -0.7570
 5172SOL     OW26974   3.511   4.052  10.162 -0.7637  0.0718 -0.5676
 5172SOL    HW126975   3.578   4.000  10.118 -0.2473 -0.2117  0.5473
 5172SOL    HW226976   3.456   4.078  10.088 -0.4897 -0.0664 -0.8186
 5173SOL     OW26977   3.124   3.107   0.969  0.1778 -0.3340  0.0628
 5173SOL    HW126978   3.086   3.195   0.973  0.0341 -0.5979  4.1723
 5173SOL    HW226979   3.056   3.055   1.011  0.8186 -0.7680  0.5708
 5174SOL     OW26980   3.439   1.947   7.150  0.2245 -0.4855  0.5762
 5174SOL    HW126981   3.428   2.020   7.089 -0.2071  1.1740  2.6481
 5174SOL    HW226982   3.354   1.903   7.143 -0.7624  1.4621  0.3430
 5175SOL     OW26983   3.046   3.532   6.323 -0.1663 -0.1625 -0.6528
 5175SOL    HW126984   3.073   3.613   6.366  1.0511 -0.2421 -1.2839
 5175SOL    HW226985   2.972   3.515   6.382  0.3188  2.6729  0.7683
 5176SOL     OW26986   4.595   1.515   3.125  0.2784  0.0046  0.1473
 5176SOL    HW126987   4.618   1.541   3.214  2.7823 -1.3767 -0.1078
 5176SOL    HW226988   4.656   1.572   3.077  1.5905 -1.0225  0.6018
 5177SOL     OW26989   2.960   3.954  11.821 -0.4124 -0.3418  0.0623
 5177SOL    HW126990   2.875   3.932  11.859  0.5796 -2.5494  0.9832
 5177SOL    HW226991   3.012   3.875  11.837  0.6771  0.2854 -0.3686
 5178SOL     OW26992   4.109   1.238   5.510  0.4245 -0.3784  0.2233
 5178SOL    HW126993   4.036   1.198   5.557  0.0609  0.9368  0.7726
 5178SOL    HW226994   4.111   1.209   5.418  4.0343 -0.8505  0.4528
 5179SOL     OW26995   0.842   1.499   6.578 -0.2380 -0.1407 -0.0686
 5179SOL    HW126996   0.930   1.492   6.539 -0.4769 -2.2440 -0.2587
 5179SOL    HW226997   0.811   1.578   6.536 -0.1583  0.3275  0.7548
 5180SOL     OW26998   2.763   4.613   3.188  0.1407 -0.3884  0.0802
 5180SOL    HW126999   2.741   4.686   3.246 -0.4657 -0.7099  0.2469
 5180SOL    HW227000   2.682   4.563   3.191  1.8947 -3.1097  1.3691
 5181SOL     OW27001   3.946   4.311   5.283  0.0408  0.1689  0.4863
 5181SOL    HW127002   3.968   4.283   5.372  2.5112  2.6401  0.6348
 5181SOL    HW227003   4.018   4.369   5.260 -0.7834  0.7191 -0.6841
 5182SOL     OW27004   0.694   0.393   6.641  0.4626 -0.2813 -0.3566
 5182SOL    HW127005   0.621   0.397   6.703  1.1707  1.9294  0.3610
 5182SOL    HW227006   0.751   0.462   6.676 -0.6809 -0.7272  2.3935
 5183SOL     OW27007   2.313   1.194  15.548  0.4668 -0.2234  0.2254
 5183SOL    HW127008   2.363   1.122  15.587  0.9502  0.5718  1.0771
 5183SOL    HW227009   2.338   1.195  15.456  1.2736 -2.2760  0.4364
 5184SOL     OW27010   4.251   1.718  12.555 -0.4176 -0.2224  0.5079
 5184SOL    HW127011   4.298   1.801  12.547 -2.4735  0.9494  0.6384
 5184SOL    HW227012   4.285   1.676  12.634 -0.1201 -0.7157  0.1160
 5185SOL     OW27013   1.318   1.221   3.891 -0.0188 -0.1615  0.4008
 5185SOL    HW127014   1.405   1.235   3.928 -0.6106  0.2743  1.6551
 5185SOL    HW227015   1.308   1.287   3.822  0.2660 -1.2226 -0.6514
 5186SOL     OW27016   0.243   1.240   4.017  0.6881  0.4360  0.5967
 5186SOL    HW127017   0.187   1.261   4.092  0.8486 -0.2994  0.9213
 5186SOL    HW227018   0.205   1.304   3.956 -0.2517 -0.7749 -0.0977
 5187SOL     OW27019   0.012   0.827   4.003 -0.2507  0.2447 -0.1317
 5187SOL    HW127020   4.698   0.817   3.915  1.1242 -2.5404 -0.3906
 5187SOL    HW227021   4.698   0.911   4.028  0.7116 -0.2736  2.9435
 5188SOL     OW27022   3.738   4.079   9.757  0.1103 -0.1620  0.1256
 5188SOL    HW127023   3.737   3.991   9.720 -1.4211  0.1227 -0.4978
 5188SOL    HW227024   3.663   4.063   9.814  0.2118 -3.3850 -0.6673
 5189SOL     OW27025   0.805   3.575   6.307 -0.1273  0.0168 -0.7837
 5189SOL    HW127026   0.726   3.601   6.354 -0.0094 -2.2461  0.6626
 5189SOL    HW227027   0.852   3.532   6.379  1.1985  1.6128 -0.7011
 5190SOL     OW27028   0.942   2.192   3.758  0.7881  0.0017 -0.3710
 5190SOL    HW127029   0.936   2.222   3.668  1.9641  1.5366  0.0739
 5190SOL    HW227030   1.026   2.147   3.749  0.4613 -0.6712 -0.0921
 5191SOL     OW27031   2.628   2.778   3.919 -0.3691  0.2853  0.7344
 5191SOL    HW127032   2.660   2.743   4.002  1.1748  0.3727  0.1725
 5191SOL    HW227033   2.536   2.799   3.938 -1.1845 -1.3072 -1.3745
 5192SOL     OW27034   1.688   2.718   3.642  0.1325  0.6343  0.1195
 5192SOL    HW127035   1.645   2.803   3.652 -0.7046  0.3430 -1.0580
 5192SOL    HW227036   1.642   2.683   3.566 -0.2709  0.4431  0.4491
 5193SOL     OW27037   2.152   3.743   6.852 -0.4853  0.7377  0.0844
 5193SOL    HW127038   2.240   3.713   6.874 -1.2935 -0.5156  1.6693
 5193SOL    HW227039   2.145   3.821   6.907  1.0072  0.5008  0.5990
 5194SOL     OW27040   4.456   4.239  17.147  0.2643  0.5005 -0.2235
 5194SOL    HW127041   4.494   4.311  17.097  1.2266 -0.7161 -1.2189
 5194SOL    HW227042   4.480   4.256  17.238  0.1532  1.6598 -0.4072
 5195SOL     OW27043   4.402   0.137   7.426  0.0283 -0.2392 -0.1279
 5195SOL    HW127044   4.332   0.200   7.411  1.2813  1.1817  0.0375
 5195SOL    HW227045   4.422   0.154   7.518  3.3203 -0.5385 -0.7937
 5196SOL     OW27046   4.107   4.112   0.408 -0.0873 -0.0070  0.1244
 5196SOL    HW127047   4.117   4.038   0.347 -0.7232 -0.1006  0.1338
 5196SOL    HW227048   4.064   4.076   0.485 -1.3882 -0.7094 -0.9248
 5197SOL     OW27049   2.896   0.414   5.549  0.4007  0.1582 -0.5224
 5197SOL    HW127050   2.884   0.370   5.633 -0.3778  2.1705  0.4160
 5197SOL    HW227051   2.805   0.429   5.525  0.3236 -0.5448 -0.6563
 5198SOL     OW27052   0.682   1.281   7.018  0.3748 -0.0200 -0.5640
 5198SOL    HW127053   0.602   1.271   6.966  1.8838  0.3516 -2.9701
 5198SOL    HW227054   0.745   1.273   6.947  0.8881  2.8005 -0.4246
 5199SOL     OW27055   2.357   1.836   4.918 -0.1131  0.2960 -0.0197
 5199SOL    HW127056   2.443   1.861   4.952 -0.3668  1.7056 -0.4178
 5199SOL    HW227057   2.384   1.760   4.867  1.2586  1.1881 -0.6062
 5200SOL     OW27058   3.769   3.958   5.276 -0.5355  0.4759 -0.4596
 5200SOL    HW127059   3.719   4.014   5.336  1.8702  1.5939  0.4939
 5200SOL    HW227060   3.693   3.925   5.228 -0.6305 -0.1693  0.1230
 5201SOL     OW27061   2.544   0.324   5.300 -0.5102  0.1388  0.1778
 5201SOL    HW127062   2.544   0.363   5.212  0.8238  0.6162  0.3951
 5201SOL    HW227063   2.560   0.234   5.273 -1.3576  0.3957 -1.1668
 5202SOL     OW27064   4.432   1.136   4.784 -0.6837  0.3374 -0.0906
 5202SOL    HW127065   4.440   1.055   4.836  0.3476  0.3011 -0.3089
 5202SOL    HW227066   4.436   1.102   4.695  1.0643 -0.9895  0.4852
 5203SOL     OW27067   0.539   1.520   0.136 -0.1258  0.0045  0.0761
 5203SOL    HW127068   0.507   1.608   0.114 -0.2429 -0.2897 -0.8909
 5203SOL    HW227069   0.563   1.486   0.050 -0.4439  0.0379 -0.0228
 5204SOL     OW27070   1.614   1.018  10.425  0.1253 -0.0760 -0.0002
 5204SOL    HW127071   1.673   1.088  10.451 -0.3377  0.9055 -1.6447
 5204SOL    HW227072   1.613   1.029  10.330  2.2365 -1.7504 -0.2038
 5205SOL     OW27073   4.376   3.052   7.016 -0.2517 -0.7028  0.5929
 5205SOL    HW127074   4.466   3.084   7.007 -1.4867  2.3981 -0.6918
 5205SOL    HW227075   4.398   2.960   7.001  1.8117 -0.2370  0.7072
 5206SOL     OW27076   1.859   3.560  12.950 -0.3246  0.1685 -0.7164
 5206SOL    HW127077   1.946   3.558  12.909 -1.7924  3.8326 -3.9659
 5206SOL    HW227078   1.832   3.651  12.943  1.1086  0.5596 -1.0453
 5207SOL     OW27079   1.751   0.791   5.992  0.2315 -0.3683  0.0033
 5207SOL    HW127080   1.689   0.830   6.053 -0.8369 -0.6650 -0.8854
 5207SOL    HW227081   1.703   0.815   5.912 -0.7019  0.0991  0.7043
 5208SOL     OW27082   1.497   3.806   8.483  0.3853  0.0792 -0.4303
 5208SOL    HW127083   1.561   3.765   8.541 -1.3659 -1.1366  0.6791
 5208SOL    HW227084   1.419   3.798   8.538  1.0979  1.2952  0.7516
 5209SOL     OW27085   3.395   1.332   5.106  0.2015  0.3228  0.0585
 5209SOL    HW127086   3.304   1.328   5.136  1.1576 -0.7990  2.8694
 5209SOL    HW227087   3.429   1.378   5.182  1.2443  1.0579 -0.8731
 5210SOL     OW27088   0.889   3.742   3.819  0.1128  0.1689 -0.4542
 5210SOL    HW127089   0.930   3.689   3.888 -1.7575  0.3307  0.7815
 5210SOL    HW227090   0.857   3.818   3.868 -1.1129  0.4547 -1.7066
 5211SOL     OW27091   4.370   3.534   9.078  0.2678 -0.4562 -0.0908
 5211SOL    HW127092   4.305   3.464   9.077  0.9863 -1.1762  1.9763
 5211SOL    HW227093   4.316   3.613   9.077  1.1288  0.1371 -0.4408
 5212SOL     OW27094   2.757   3.046  16.170 -0.0741  0.0686 -0.0328
 5212SOL    HW127095   2.823   3.067  16.236 -0.5769 -3.0604  1.4465
 5212SOL    HW227096   2.676   3.072  16.213  1.3344  0.4213  2.4114
 5213SOL     OW27097   3.337   2.040   7.991 -0.2184  0.3849  0.2960
 5213SOL    HW127098   3.283   1.970   8.028  0.8341  0.0178  1.1511
 5213SOL    HW227099   3.413   1.994   7.956 -0.0486  0.8685  0.0292
 5214SOL     OW27100   1.903   0.567   8.683 -0.0627 -0.0025 -0.6581
 5214SOL    HW127101   1.925   0.523   8.600  0.1789  1.7489 -1.5286
 5214SOL    HW227102   1.879   0.489   8.733 -0.3450 -0.7109 -1.8765
 5215SOL     OW27103   4.129   3.122  15.636 -0.0045  0.0815  0.0809
 5215SOL    HW127104   4.171   3.203  15.665 -0.8505  0.3280  0.6375
 5215SOL    HW227105   4.186   3.109  15.560 -0.4762  0.2721 -0.3021
 5216SOL     OW27106   0.096   2.078   7.890  0.0712 -0.5214 -0.1845
 5216SOL    HW127107   0.101   1.999   7.943 -2.3888 -0.5695 -0.0253
 5216SOL    HW227108   0.037   2.056   7.818  0.1044  1.0639 -0.7122
 5217SOL     OW27109   4.201   4.378   6.386  0.2262  0.1719  0.3166
 5217SOL    HW127110   4.296   4.394   6.384  0.3017 -0.4308 -1.0595
 5217SOL    HW227111   4.181   4.353   6.476  0.3505  0.5696  0.4581
 5218SOL     OW27112   0.076   0.831   3.625 -0.1888  0.1312 -0.1365
 5218SOL    HW127113   0.090   0.816   3.532 -0.1363  1.4681 -0.3437
 5218SOL    HW227114   0.007   0.768   3.645  1.0049 -1.0338  0.2324
 5219SOL     OW27115   3.270   3.684   3.419 -0.2579 -0.1751 -0.4507
 5219SOL    HW127116   3.273   3.653   3.329 -1.6698  0.5084 -0.7253
 5219SOL    HW227117   3.337   3.628   3.458  1.4106  1.3404 -1.1297
 5220SOL     OW27118   4.203   4.398   4.470 -0.4849 -0.3002 -0.0636
 5220SOL    HW127119   4.275   4.383   4.408  0.1413 -0.6028  0.7343
 5220SOL    HW227120   4.164   4.477   4.434 -0.2553 -1.2461 -2.3955
 5221SOL     OW27121   2.036   2.756   4.428  0.0357 -0.3350  0.6557
 5221SOL    HW127122   2.093   2.825   4.396  0.5301 -1.7553 -1.5668
 5221SOL    HW227123   2.023   2.708   4.345  0.6761  1.0259 -0.2292
 5222SOL     OW27124   0.308   3.575  14.863 -0.0369  0.9712 -0.4472
 5222SOL    HW127125   0.324   3.484  14.840  0.2336  0.0901  3.1904
 5222SOL    HW227126   0.215   3.593  14.845 -0.7597 -2.9070 -0.5820
 5223SOL     OW27127   0.063   2.845  15.570 -0.3996 -0.1553  0.7628
 5223SOL    HW127128   0.091   2.886  15.488 -2.1270 -2.0523 -0.7732
 5223SOL    HW227129   4.720   2.906  15.601 -2.0862 -1.3424 -0.5178
 5224SOL     OW27130   0.566   3.137   3.480  0.2036 -0.2274  0.4589
 5224SOL    HW127131   0.586   3.043   3.471 -0.6484 -0.4858  1.3682
 5224SOL    HW227132   0.472   3.138   3.498  0.2002 -1.5404  0.5509
 5225SOL     OW27133   0.739   3.150   6.815  0.0991 -0.3289 -0.0791
 5225SOL    HW127134   0.694   3.069   6.789 -0.8533  0.0946  0.2494
 5225SOL    HW227135   0.759   3.181   6.727  1.6081 -1.1816 -0.0478
 5226SOL     OW27136   2.205   1.901   3.892  0.3647 -0.2621  0.0364
 5226SOL    HW127137   2.277   1.869   3.838  0.7758  2.0018 -0.7478
 5226SOL    HW227138   2.144   1.939   3.829  1.1972  2.2312  0.7279
 5227SOL     OW27139   4.088   2.821  14.957 -0.1449  0.5695 -0.6146
 5227SOL    HW127140   4.039   2.840  14.877 -0.2125 -1.7001 -1.1207
 5227SOL    HW227141   4.067   2.729  14.970  1.4278  0.2119 -0.5894
 5228SOL     OW27142   2.996   2.203   3.278  0.0506  0.0985 -0.4270
 5228SOL    HW127143   3.022   2.280   3.329  1.9272 -1.1873  0.5848
 5228SOL    HW227144   3.074   2.165   3.235 -0.3886 -0.7118 -0.5029
 5229SOL     OW27145   1.767   3.440   4.449  0.0021 -1.1584 -0.5120
 5229SOL    HW127146   1.838   3.433   4.386 -2.6055  0.3392 -3.5898
 5229SOL    HW227147   1.773   3.532   4.476  2.7409 -1.6182  0.4375
 5230SOL     OW27148   2.835   1.507  12.712 -0.2073 -0.0976 -0.2303
 5230SOL    HW127149   2.798   1.426  12.747  1.8287 -0.9577 -0.1223
 5230SOL    HW227150   2.915   1.488  12.664 -1.4868 -1.3505 -1.8864
 5231SOL     OW27151   1.750   1.859   2.928 -0.5741 -0.5347  0.0176
 5231SOL    HW127152   1.716   1.816   2.849 -0.0610 -0.0614 -0.4567
 5231SOL    HW227153   1.737   1.951   2.905 -0.2684 -0.5061 -0.0422
 5232SOL     OW27154   2.083   0.153   1.768  0.3008 -0.1314 -0.5298
 5232SOL    HW127155   2.125   0.216   1.709  0.8880  0.9162  1.0077
 5232SOL    HW227156   2.150   0.152   1.837 -2.0826  1.0452  1.7795
 5233SOL     OW27157   4.619   3.063  12.387  0.1284  0.5681  0.1234
 5233SOL    HW127158   4.591   3.102  12.470 -0.0736 -1.9021  1.1962
 5233SOL    HW227159   4.576   3.125  12.328 -3.0820 -1.2873  0.5306
 5234SOL     OW27160   2.123   1.852   7.821  0.0674 -0.0925  0.1202
 5234SOL    HW127161   2.088   1.938   7.796 -1.5135  0.0478  2.8869
 5234SOL    HW227162   2.067   1.790   7.773 -0.1559 -1.5688  2.3048
 5235SOL     OW27163   3.383   3.919   7.126  0.3888 -0.4121  0.0394
 5235SOL    HW127164   3.325   3.855   7.168  1.0205 -0.6900  0.4878
 5235SOL    HW227165   3.435   3.949   7.201  1.1096 -0.0234 -0.6119
 5236SOL     OW27166   3.489   3.981   3.882  0.1099 -0.5016  0.2032
 5236SOL    HW127167   3.474   3.988   3.788  0.5369 -1.1192  0.0925
 5236SOL    HW227168   3.400   4.008   3.903 -0.1765 -0.7387 -0.7180
 5237SOL     OW27169   1.805   0.859  11.817 -0.2383  0.5485  0.0997
 5237SOL    HW127170   1.816   0.829  11.727  1.5461  2.3856 -0.3016
 5237SOL    HW227171   1.869   0.803  11.861 -0.0105  0.5275 -0.2588
 5238SOL     OW27172   2.395   2.473   4.000  0.2438 -0.2632 -0.5726
 5238SOL    HW127173   2.366   2.437   4.084  0.8676 -0.8314 -0.6016
 5238SOL    HW227174   2.431   2.556   4.029 -0.5790  0.4714 -1.6244
 5239SOL     OW27175   2.944   0.237   5.320 -0.1117  0.0876 -0.0876
 5239SOL    HW127176   2.884   0.307   5.295 -0.1442 -0.0845 -0.4929
 5239SOL    HW227177   2.949   0.257   5.414 -1.4906 -0.2021  0.0504
 5240SOL     OW27178   4.294   4.098   5.282 -0.4573  0.1725  0.4174
 5240SOL    HW127179   4.299   4.192   5.262 -1.9734 -0.0694 -1.0794
 5240SOL    HW227180   4.203   4.087   5.257  0.4086 -0.2050 -2.5031
 5241SOL     OW27181   0.622   0.726   3.984  0.4501  0.0922 -0.4057
 5241SOL    HW127182   0.617   0.683   3.899  1.8261  1.2218 -1.0518
 5241SOL    HW227183   0.527   0.736   3.989  0.7315  1.0900  3.0304
 5242SOL     OW27184   4.020   0.426   5.953  0.1575  0.3089 -0.7385
 5242SOL    HW127185   3.978   0.429   6.039 -0.9817 -3.2809 -1.1792
 5242SOL    HW227186   3.959   0.476   5.898 -1.3095 -1.4473 -0.7052
 5243SOL     OW27187   1.162   3.134   1.844 -0.1963  0.4060  0.3253
 5243SOL    HW127188   1.126   3.048   1.865  0.3115 -0.7626 -3.6421
 5243SOL    HW227189   1.138   3.138   1.752  0.1924 -3.1422  0.0527
 5244SOL     OW27190   2.978   3.310   7.986 -0.5227  0.0840 -0.9961
 5244SOL    HW127191   3.038   3.251   7.939 -1.6735  0.3772 -2.8271
 5244SOL    HW227192   3.022   3.341   8.065  0.3188 -1.6895 -0.7729
 5245SOL     OW27193   4.180   3.020   7.222 -0.3240 -0.5778 -0.5699
 5245SOL    HW127194   4.093   3.017   7.182 -0.5865 -0.2809 -0.0194
 5245SOL    HW227195   4.244   3.006   7.151  0.6555  1.3570 -0.0786
 5246SOL     OW27196   0.631   2.091   5.711 -0.3540  0.0638 -0.2431
 5246SOL    HW127197   0.691   2.155   5.671 -1.1278 -0.3353 -2.0533
 5246SOL    HW227198   0.661   2.091   5.802  3.0938  2.0992 -1.3472
 5247SOL     OW27199   3.705   1.653  17.189  0.4211 -0.3327 -0.1144
 5247SOL    HW127200   3.700   1.691  17.277  3.2021  0.3583 -0.2388
 5247SOL    HW227201   3.617   1.615  17.194 -0.7040  2.3083 -0.1230
 5248SOL     OW27202   1.028   1.474   0.594  0.2723 -0.0629 -0.0591
 5248SOL    HW127203   1.029   1.395   0.648  0.2534  1.2383  1.8443
 5248SOL    HW227204   1.012   1.432   0.509  1.3061  0.3723 -0.4671
 5249SOL     OW27205   0.688   4.326   8.984 -0.0673  0.3889  0.3963
 5249SOL    HW127206   0.751   4.303   9.052 -0.0141 -1.0190 -0.1457
 5249SOL    HW227207   0.654   4.414   9.004  0.9334  0.6039  1.1230
 5250SOL     OW27208   2.374   1.968   7.615  0.7726  0.2263  0.1793
 5250SOL    HW127209   2.370   2.059   7.645 -1.6959 -0.2122  1.1538
 5250SOL    HW227210   2.428   1.973   7.536 -1.0213  1.6101 -0.9511
 5251SOL     OW27211   3.260   2.326   8.891  0.2554  0.1389 -0.2125
 5251SOL    HW127212   3.301   2.413   8.896 -1.2809  0.7638  1.3087
 5251SOL    HW227213   3.268   2.305   8.984  0.3913 -0.8019 -0.4442
 5252SOL     OW27214   1.690   3.844  17.033  0.1355 -0.0268  0.6653
 5252SOL    HW127215   1.713   3.888  16.952  3.8366 -1.2605  1.0126
 5252SOL    HW227216   1.642   3.769  16.999  0.4081  0.3013 -0.4234
 5253SOL     OW27217   3.143   4.653  10.554 -0.1214  0.6692 -0.4271
 5253SOL    HW127218   3.094   4.590  10.607  0.3521  3.2098  3.0165
 5253SOL    HW227219   3.087   4.647  10.477 -1.1777  0.6472  0.3474
 5254SOL     OW27220   0.444   3.266   7.649 -0.1510  0.1724 -0.1086
 5254SOL    HW127221   0.438   3.354   7.686  0.0558  0.7894 -1.5455
 5254SOL    HW227222   0.393   3.216   7.712 -2.7893 -0.3086 -2.6325
 5255SOL     OW27223   1.151   0.241   6.336 -0.0313 -0.6252 -0.0466
 5255SOL    HW127224   1.216   0.275   6.397 -1.1302 -0.3449  0.9646
 5255SOL    HW227225   1.215   0.239   6.265 -0.4416 -0.1737 -0.4278
 5256SOL     OW27226   4.212   1.565   8.764 -0.3065  0.0720  0.0613
 5256SOL    HW127227   4.172   1.622   8.698 -0.4308 -1.8160 -1.5020
 5256SOL    HW227228   4.176   1.482   8.732 -0.2409 -0.0899  0.4025
 5257SOL     OW27229   2.236   3.929   3.033 -0.0642  0.2152 -0.2684
 5257SOL    HW127230   2.217   3.859   2.969 -1.9235 -0.8760  1.4431
 5257SOL    HW227231   2.314   3.972   3.000 -0.6980  2.7819  1.5686
 5258SOL     OW27232   2.982   3.811  13.090  0.2178  0.2264 -0.1379
 5258SOL    HW127233   3.019   3.804  13.177 -0.5326 -2.0426 -0.0061
 5258SOL    HW227234   2.964   3.906  13.087 -0.1772  0.0724 -3.3683
 5259SOL     OW27235   3.877   3.589   3.093 -0.9500 -0.3161 -0.1378
 5259SOL    HW127236   3.813   3.656   3.070  1.8619  3.1137  2.0052
 5259SOL    HW227237   3.884   3.601   3.188 -0.4674  1.3379 -0.3863
 5260SOL     OW27238   0.694   4.529  13.153 -0.3540 -0.5943  0.0073
 5260SOL    HW127239   0.639   4.573  13.217  0.0749 -0.5164  0.3252
 5260SOL    HW227240   0.701   4.590  13.079  1.4701  0.5193  1.0876
 5261SOL     OW27241   2.764   2.492   7.936 -0.0392  0.3556 -0.4250
 5261SOL    HW127242   2.771   2.557   8.006 -1.6381  0.8861 -0.7523
 5261SOL    HW227243   2.719   2.419   7.977 -3.2925  1.8269 -1.3196
 5262SOL     OW27244   2.848   0.135   3.733  0.0879  0.3469  0.0021
 5262SOL    HW127245   2.914   0.173   3.792 -0.5255  2.0129 -0.3742
 5262SOL    HW227246   2.892   0.151   3.650  0.6329 -1.8631 -0.1413
 5263SOL     OW27247   1.934   1.520   8.437 -0.3198 -0.0723 -0.3808
 5263SOL    HW127248   2.012   1.465   8.444 -0.6113 -0.7409 -2.4895
 5263SOL    HW227249   1.974   1.601   8.406  0.7189 -0.9265 -1.2441
 5264SOL     OW27250   2.302   0.493  10.867 -0.3824  0.2169 -0.4615
 5264SOL    HW127251   2.317   0.419  10.808 -1.6382 -0.9311  0.6658
 5264SOL    HW227252   2.391   0.528  10.863 -0.4464  0.5042  0.4840
 5265SOL     OW27253   2.984   3.959   3.709  0.1677 -0.1447 -0.4632
 5265SOL    HW127254   2.966   4.050   3.688 -0.9554 -0.1270  0.5523
 5265SOL    HW227255   3.052   3.933   3.646 -1.3565 -1.8324 -1.4311
 5266SOL     OW27256   0.628   1.838   8.332  0.1377  0.1103 -0.1505
 5266SOL    HW127257   0.621   1.743   8.339 -0.9429  0.3508  1.9768
 5266SOL    HW227258   0.547   1.860   8.378  1.0554  3.0724  0.1041
 5267SOL     OW27259   1.311   1.437   5.111  0.2093  0.3713  0.0186
 5267SOL    HW127260   1.367   1.468   5.039  0.4765  0.9229  0.4612
 5267SOL    HW227261   1.239   1.400   5.061 -0.1553  1.2300 -0.0856
 5268SOL     OW27262   4.476   3.421   3.879  0.0754 -0.0783  0.3105
 5268SOL    HW127263   4.393   3.384   3.846 -0.0914  0.4850  0.1037
 5268SOL    HW227264   4.512   3.486   3.819  1.5683 -0.2181  1.0615
 5269SOL     OW27265   4.260   3.008  12.635  0.4884 -0.3316 -0.5224
 5269SOL    HW127266   4.176   2.966  12.621  1.2467 -2.4747  1.4626
 5269SOL    HW227267   4.315   2.956  12.576  0.1492  0.1561 -1.2784
 5270SOL     OW27268   0.766   3.806   7.029  0.5086 -0.0381 -0.3866
 5270SOL    HW127269   0.737   3.742   7.093 -0.7004  0.6038 -0.2835
 5270SOL    HW227270   0.685   3.856   7.014 -0.2928 -0.7741  1.5634
 5271SOL     OW27271   1.552   4.488   5.043 -0.3076 -0.2631 -0.5929
 5271SOL    HW127272   1.604   4.416   5.077  2.0295  1.0794 -1.2879
 5271SOL    HW227273   1.471   4.480   5.094  1.3908  0.8854  2.3250
 5272SOL     OW27274   2.299   2.918  17.469 -0.3258  0.2996  0.3189
 5272SOL    HW127275   2.280   2.971  17.546 -2.9759  0.4603 -0.4527
 5272SOL    HW227276   2.302   2.830  17.506  0.6410  0.6681  1.1274
 5273SOL     OW27277   1.109   4.381  13.229  0.5745  0.5854 -0.0500
 5273SOL    HW127278   1.205   4.383  13.238  0.7150 -0.0661 -1.3397
 5273SOL    HW227279   1.104   4.352  13.138 -1.1614 -0.4537  0.3883
 5274SOL     OW27280   1.368   3.881   3.340  0.1703 -0.7778  0.4498
 5274SOL    HW127281   1.276   3.865   3.360 -0.0868  0.5684  0.2971
 5274SOL    HW227282   1.373   3.977   3.342  0.6399 -0.8135  1.1897
 5275SOL     OW27283   3.234   2.104   8.624 -0.4422  0.1485  0.5330
 5275SOL    HW127284   3.245   2.169   8.554  2.2117 -1.9694 -1.0478
 5275SOL    HW227285   3.292   2.129   8.696 -0.0902  1.6527 -0.2609
 5276SOL     OW27286   4.087   4.077  13.698  0.0989 -0.0680 -0.1905
 5276SOL    HW127287   4.075   3.983  13.707 -0.6483 -0.0598 -1.2029
 5276SOL    HW227288   4.161   4.077  13.637 -1.2160  2.0885 -1.7724
 5277SOL     OW27289   3.486   1.825   9.273  0.3428 -0.3262  0.1741
 5277SOL    HW127290   3.524   1.855   9.356 -2.3171  0.6319  1.0582
 5277SOL    HW227291   3.471   1.736   9.304  0.7223 -0.1444  0.8829
 5278SOL     OW27292   0.483   3.517   9.029 -0.3343  0.0594 -0.4242
 5278SOL    HW127293   0.432   3.597   9.017  0.6872  0.4424 -2.2086
 5278SOL    HW227294   0.444   3.490   9.112 -0.1511 -2.9941 -1.3071
 5279SOL     OW27295   0.467   2.915   5.257 -0.2940 -0.4783 -0.0900
 5279SOL    HW127296   0.497   2.940   5.345 -0.7984  1.9356 -0.6265
 5279SOL    HW227297   0.555   2.908   5.219 -0.5358  1.5099 -1.0129
 5280SOL     OW27298   1.975   4.255   8.104  0.1798  0.7690 -0.0665
 5280SOL    HW127299   2.041   4.323   8.111  0.3336  0.7702 -1.6680
 5280SOL    HW227300   1.934   4.256   8.191  0.8980 -0.2767  0.2811
 5281SOL     OW27301   0.486   2.525   5.209 -0.2902  0.6761 -0.5410
 5281SOL    HW127302   0.467   2.577   5.131  0.8083  2.3905  0.3262
 5281SOL    HW227303   0.454   2.438   5.187  0.4325  0.5393 -1.0587
 5282SOL     OW27304   1.828   0.768   7.760 -0.1611  0.5263 -0.1302
 5282SOL    HW127305   1.890   0.722   7.704  0.0249 -0.1884  0.6572
 5282SOL    HW227306   1.813   0.848   7.710 -2.2024  1.5724  2.1147
 5283SOL     OW27307   2.877   0.617  14.440 -0.3874  0.2815  0.4475
 5283SOL    HW127308   2.840   0.572  14.516 -2.0732  0.2968 -0.3876
 5283SOL    HW227309   2.970   0.596  14.452 -0.6828 -0.2274  1.8628
 5284SOL     OW27310   2.734   0.247  10.281  0.2051 -0.6964  0.1453
 5284SOL    HW127311   2.703   0.181  10.344 -2.9877  1.3949  0.7285
 5284SOL    HW227312   2.825   0.219  10.269  0.9177  1.7944 -0.0973
 5285SOL     OW27313   3.328   0.342  10.468 -0.0313 -0.5025  0.1961
 5285SOL    HW127314   3.236   0.321  10.481 -0.3616  0.7801 -0.0481
 5285SOL    HW227315   3.322   0.386  10.383 -0.6772  0.6131  0.8082
 5286SOL     OW27316   1.223   0.921   5.333 -0.5815  0.1426 -0.2295
 5286SOL    HW127317   1.301   0.963   5.368 -0.8709 -1.3748  2.1992
 5286SOL    HW227318   1.143   0.971   5.349  0.3386  1.3346  0.5249
 5287SOL     OW27319   2.808   0.822   9.686  0.4606  0.7401 -0.1200
 5287SOL    HW127320   2.735   0.807   9.627 -0.1225  3.1927 -0.0114
 5287SOL    HW227321   2.797   0.765   9.762  1.0376 -0.7255 -1.1331
 5288SOL     OW27322   2.077   2.727   7.852 -0.5439 -0.3439 -0.5261
 5288SOL    HW127323   2.088   2.744   7.946  0.1233 -0.8578 -0.5128
 5288SOL    HW227324   2.162   2.752   7.814  0.2766  1.2213  2.3066
 5289SOL     OW27325   3.550   1.508  12.516  0.5290 -0.0190  0.1262
 5289SOL    HW127326   3.491   1.440  12.484  1.9837  0.2698 -3.1496
 5289SOL    HW227327   3.629   1.475  12.474  0.3473  1.5468 -1.4689
 5290SOL     OW27328   2.103   0.447   2.373 -0.0922  0.4814 -0.7121
 5290SOL    HW127329   2.142   0.534   2.364  0.0768  0.3923 -0.8255
 5290SOL    HW227330   2.058   0.459   2.457 -2.2864 -0.9284 -1.6917
 5291SOL     OW27331   1.037   3.436  13.634 -0.0520  0.0204 -0.4697
 5291SOL    HW127332   1.129   3.411  13.628  0.8273  3.4590 -1.7318
 5291SOL    HW227333   1.007   3.403  13.719 -0.3573 -0.5236 -0.7931
 5292SOL     OW27334   4.344   3.130   6.359 -0.3883  0.1858 -0.2251
 5292SOL    HW127335   4.294   3.147   6.439  0.0347  1.8443 -0.3152
 5292SOL    HW227336   4.356   3.221   6.330  2.2292 -0.2753 -0.6521
 5293SOL     OW27337   3.407   3.491   6.392 -0.4353  0.0206 -0.1176
 5293SOL    HW127338   3.349   3.420   6.362  0.5077 -2.0229  2.9945
 5293SOL    HW227339   3.378   3.504   6.482 -0.3758 -2.0844  0.1895
 5294SOL     OW27340   2.606   0.301   3.794  0.0520 -0.6787  0.3360
 5294SOL    HW127341   2.600   0.333   3.704 -0.6841  0.1701  0.6871
 5294SOL    HW227342   2.692   0.260   3.798  1.1744  1.4361 -2.0029
 5295SOL     OW27343   3.445   0.204   1.429  0.5648  0.3253 -0.1736
 5295SOL    HW127344   3.533   0.187   1.394 -0.2027 -2.2097 -0.8419
 5295SOL    HW227345   3.458   0.283   1.481  0.2626 -0.9962  1.8765
 5296SOL     OW27346   1.037   2.716   0.519 -0.3182  0.0896 -0.0540
 5296SOL    HW127347   1.071   2.788   0.467  0.9599 -2.0294 -2.1299
 5296SOL    HW227348   1.088   2.643   0.484 -0.3549 -1.9683  4.1430
 5297SOL     OW27349   0.759   2.969   3.235  0.0708 -0.1014  0.1169
 5297SOL    HW127350   0.761   2.917   3.315  0.1244 -0.2659  0.0095
 5297SOL    HW227351   0.851   2.967   3.209  0.3410  0.5419  1.0208
 5298SOL     OW27352   0.074   2.812  12.405  0.0845 -0.6376  0.1821
 5298SOL    HW127353   4.709   2.776  12.402 -0.6902  1.3636 -1.1071
 5298SOL    HW227354   0.052   2.905  12.411 -0.0042 -0.6997  0.7627
 5299SOL     OW27355   0.149   3.216   6.508  0.1638 -0.6996 -0.1030
 5299SOL    HW127356   0.157   3.204   6.602 -0.9665  0.9546  0.2002
 5299SOL    HW227357   0.086   3.150   6.480 -0.7992  0.9798 -1.8936
 5300SOL     OW27358   3.004   2.676   5.538  0.6500  0.2612  0.0235
 5300SOL    HW127359   3.096   2.693   5.517  0.1282  0.2709 -2.1947
 5300SOL    HW227360   2.980   2.764   5.568 -1.1076  0.0390 -0.7552
 5301SOL     OW27361   1.529   1.589   8.749  0.4998 -0.0801  0.0551
 5301SOL    HW127362   1.553   1.586   8.842  0.4975  1.3858  0.1041
 5301SOL    HW227363   1.559   1.674   8.715  1.6448 -0.6160 -0.2822
 5302SOL     OW27364   0.296   3.138   3.531 -0.6272  0.0360 -0.3570
 5302SOL    HW127365   0.216   3.175   3.492  0.3165 -0.2613 -2.5771
 5302SOL    HW227366   0.308   3.197   3.605 -0.0939 -0.1562 -0.2932
 5303SOL     OW27367   2.675   3.777   1.607  0.0373  0.1634 -0.6524
 5303SOL    HW127368   2.589   3.816   1.591  0.8387  2.4721  0.6780
 5303SOL    HW227369   2.725   3.855   1.632 -0.0327 -0.3119  0.9595
 5304SOL     OW27370   4.609   3.909   8.770 -0.4589  0.2816  0.0289
 5304SOL    HW127371   4.671   3.846   8.809 -1.4129 -0.3220  0.5703
 5304SOL    HW227372   4.593   3.959   8.850 -0.8969  0.8674 -0.4259
 5305SOL     OW27373   2.882   3.190  10.377  0.1165  0.3397  0.3821
 5305SOL    HW127374   2.798   3.153  10.349 -0.0371  0.8251  0.2162
 5305SOL    HW227375   2.936   3.186  10.299  0.4068  2.4150  0.4818
 5306SOL     OW27376   3.276   2.320  17.388 -0.5402  0.2991  0.0139
 5306SOL    HW127377   3.217   2.335  17.462 -1.6962  0.5907 -0.9666
 5306SOL    HW227378   3.254   2.402  17.344 -2.1273 -0.6542 -1.0048
 5307SOL     OW27379   2.265   2.753   5.848  0.2153  0.0960 -0.2320
 5307SOL    HW127380   2.327   2.820   5.875  0.0961  0.1301 -0.0448
 5307SOL    HW227381   2.243   2.789   5.762  2.5459 -0.6798 -1.1621
 5308SOL     OW27382   3.717   4.625  15.759 -0.3483  0.1588  0.3381
 5308SOL    HW127383   3.756   4.539  15.746  1.9292  0.9327  2.0143
 5308SOL    HW227384   3.653   4.614  15.689  1.3349  2.1627 -1.5284
 5309SOL     OW27385   3.200   2.410   4.078  0.2162 -0.2720 -0.1857
 5309SOL    HW127386   3.170   2.453   4.157  2.0181  1.5710 -0.5014
 5309SOL    HW227387   3.282   2.368   4.104  3.2049  4.5889 -1.7638
 5310SOL     OW27388   1.292   1.934   1.235 -0.4373 -0.3899  0.3525
 5310SOL    HW127389   1.280   1.925   1.141 -1.0286  0.7088  0.3234
 5310SOL    HW227390   1.227   1.870   1.266 -0.0147 -1.0309 -0.0952
 5311SOL     OW27391   4.478   0.275  10.509 -0.2305 -0.5433 -0.2619
 5311SOL    HW127392   4.541   0.337  10.546 -0.2237  1.1680 -3.0754
 5311SOL    HW227393   4.477   0.206  10.575  2.7862 -0.4336 -0.1051
 5312SOL     OW27394   4.072   2.563   6.839  0.0159 -0.2732 -0.3831
 5312SOL    HW127395   3.984   2.539   6.868 -0.0928 -1.7316 -1.8752
 5312SOL    HW227396   4.132   2.497   6.875 -0.4225 -0.0259  0.7766
 5313SOL     OW27397   3.620   2.973   9.098 -0.3811 -0.0963  0.0143
 5313SOL    HW127398   3.712   2.965   9.122 -0.5123  0.9993  0.8904
 5313SOL    HW227399   3.602   3.065   9.117  0.1432 -0.3037  1.5235
 5314SOL     OW27400   4.169   2.199  17.589  0.0712  0.8251 -0.2996
 5314SOL    HW127401   4.079   2.168  17.595  0.1745  1.0398  2.2790
 5314SOL    HW227402   4.188   2.216  17.497 -1.6440  0.6055 -0.6883
 5315SOL     OW27403   4.020   0.859   7.306 -0.1029  0.0303 -0.3224
 5315SOL    HW127404   4.021   0.898   7.219 -0.9843 -0.3476 -0.4994
 5315SOL    HW227405   3.979   0.930   7.356  0.1616  0.6301 -0.9563
 5316SOL     OW27406   2.937   2.065  14.380  0.5184  0.0525  0.2631
 5316SOL    HW127407   2.853   2.085  14.423 -0.1565 -1.0698 -0.5375
 5316SOL    HW227408   2.988   2.135  14.421 -1.2282  0.8012  1.1880
 5317SOL     OW27409   1.074   4.495   6.713 -0.2450 -0.1978 -0.2503
 5317SOL    HW127410   1.034   4.545   6.784  2.3446 -0.3440  1.2975
 5317SOL    HW227411   1.119   4.563   6.663  2.0768 -0.9573  0.8646
 5318SOL     OW27412   2.607   3.183   3.117 -0.3749  0.1067 -0.1314
 5318SOL    HW127413   2.651   3.241   3.055  1.0674 -0.1895  0.6092
 5318SOL    HW227414   2.516   3.214   3.111  0.3023  2.2163  0.5341
 5319SOL     OW27415   2.163   3.456   7.448  0.3707  0.1878  0.1728
 5319SOL    HW127416   2.177   3.520   7.378 -0.6172  0.5477  0.2997
 5319SOL    HW227417   2.189   3.378   7.399 -0.0180  0.9915 -1.3043
 5320SOL     OW27418   2.926   2.193   6.965  0.5940 -0.0797  0.3251
 5320SOL    HW127419   2.886   2.198   6.878  1.4028  2.2702  0.0918
 5320SOL    HW227420   2.907   2.282   6.993 -0.9538 -0.0984 -0.6779
 5321SOL     OW27421   4.617   2.713  14.837 -0.2643  0.4101  0.3234
 5321SOL    HW127422   4.671   2.671  14.770 -1.7037 -1.8671  0.5804
 5321SOL    HW227423   4.549   2.645  14.843 -1.6784  1.7180 -1.0986
 5322SOL     OW27424   3.081   1.491  15.778  0.0413  0.5656  0.0026
 5322SOL    HW127425   3.159   1.546  15.790  0.3724  0.3655 -1.2236
 5322SOL    HW227426   3.102   1.422  15.841 -0.4934 -1.2062 -1.7460
 5323SOL     OW27427   2.293   4.717  17.459  0.3684 -0.0447 -0.4971
 5323SOL    HW127428   2.324   0.021  17.546  0.0307 -2.1403  0.3066
 5323SOL    HW227429   2.334   4.633  17.439  0.2520 -0.2496  0.1143
 5324SOL     OW27430   3.009   4.050   5.439 -0.2711  0.2397  0.2923
 5324SOL    HW127431   2.982   3.999   5.363 -1.5305  2.1305 -0.5138
 5324SOL    HW227432   3.090   4.011   5.473 -0.6099 -1.0900 -0.4681
 5325SOL     OW27433   0.129   0.764   4.327  0.0961 -0.5549  0.1691
 5325SOL    HW127434   0.139   0.771   4.232 -1.2152  1.1884  0.1438
 5325SOL    HW227435   0.119   0.670   4.338  1.1306 -0.6455  0.3199
 5326SOL     OW27436   0.423   2.257   5.196  0.2130 -0.2644  0.3666
 5326SOL    HW127437   0.479   2.213   5.260 -0.8053 -3.2800 -0.8470
 5326SOL    HW227438   0.345   2.202   5.191 -0.5446  0.7648  0.6789
 5327SOL     OW27439   2.946   4.166   1.065  0.0082 -0.8630 -0.7147
 5327SOL    HW127440   2.974   4.223   1.136 -0.0338  0.0979 -1.4789
 5327SOL    HW227441   2.864   4.207   1.037  2.4358  2.4311 -3.0110
 5328SOL     OW27442   2.051   4.529   7.578  0.0840  0.8774 -0.3563
 5328SOL    HW127443   1.957   4.516   7.587  0.2111  0.6407  0.6652
 5328SOL    HW227444   2.043   4.623   7.594  0.6932  0.8372  0.2300
 5329SOL     OW27445   4.145   1.556  13.984 -0.3262 -0.5893  0.4913
 5329SOL    HW127446   4.213   1.622  13.971 -4.4522  3.8942  1.9436
 5329SOL    HW227447   4.092   1.597  14.052 -2.0790  0.3152 -1.4334
 5330SOL     OW27448   3.178   2.459   1.006  0.2438  0.3549  0.3233
 5330SOL    HW127449   3.168   2.440   0.913  1.6832  2.4635 -0.2710
 5330SOL    HW227450   3.238   2.387   1.028 -0.5495  0.8572  4.1337
 5331SOL     OW27451   3.104   2.672  16.122  0.0861  0.2890 -0.1941
 5331SOL    HW127452   3.035   2.662  16.056 -2.6051  0.4088  2.5781
 5331SOL    HW227453   3.074   2.602  16.180 -2.8096 -0.0704 -2.1043
 5332SOL     OW27454   2.073   1.598   9.933 -0.1420 -0.2338 -0.9694
 5332SOL    HW127455   2.103   1.526   9.878  4.7130  1.8219 -1.0517
 5332SOL    HW227456   2.050   1.661   9.864  0.2667  0.7762 -0.1814
 5333SOL     OW27457   2.423   0.878   9.126 -0.1175 -0.1272  0.1448
 5333SOL    HW127458   2.401   0.946   9.062  1.3011  0.5113  0.3430
 5333SOL    HW227459   2.450   0.932   9.201 -0.5649 -0.9588  0.9113
 5334SOL     OW27460   1.920   1.007   9.736  0.0300  0.5278 -0.5506
 5334SOL    HW127461   1.950   0.939   9.676 -0.8796 -1.4508  1.2237
 5334SOL    HW227462   2.005   1.043   9.764  0.0217  0.5767 -0.5895
 5335SOL     OW27463   2.139   3.066   7.067  0.0822 -0.1941 -0.4730
 5335SOL    HW127464   2.052   3.033   7.045  0.7834 -0.2950 -3.0835
 5335SOL    HW227465   2.186   2.999   7.017 -1.8294 -1.7721 -0.1395
 5336SOL     OW27466   0.489   2.246   6.434 -0.9376  0.4562  1.1482
 5336SOL    HW127467   0.553   2.189   6.475  0.6017  2.4085  1.4686
 5336SOL    HW227468   0.491   2.325   6.488  1.7379  1.5826 -0.6099
 5337SOL     OW27469   3.909   0.109   4.743  0.1339  0.0525 -0.0618
 5337SOL    HW127470   3.824   0.109   4.787  2.0336 -0.0167  3.6077
 5337SOL    HW227471   3.961   0.149   4.813  0.0916  1.5571 -0.8709
 5338SOL     OW27472   2.733   4.446   8.144 -0.3040 -0.2135 -0.4713
 5338SOL    HW127473   2.763   4.378   8.205 -2.2972 -0.8910 -0.2526
 5338SOL    HW227474   2.795   4.511   8.178 -0.4329  0.6035 -1.8137
 5339SOL     OW27475   3.977   1.334   6.699 -0.0501  0.0067  0.2695
 5339SOL    HW127476   3.919   1.318   6.624  0.4662  0.2106 -0.1779
 5339SOL    HW227477   3.917   1.368   6.765  0.3181  1.3520 -0.0770
 5340SOL     OW27478   1.262   2.851   7.906 -0.4814 -0.4399  0.5982
 5340SOL    HW127479   1.278   2.942   7.932  0.2825  0.4471 -2.9193
 5340SOL    HW227480   1.209   2.875   7.830  2.6294  4.1838 -0.1734
 5341SOL     OW27481   4.113   4.043   6.742 -0.7528  0.1297  0.1517
 5341SOL    HW127482   4.160   3.961   6.725 -0.6933 -0.3536  2.6498
 5341SOL    HW227483   4.033   4.014   6.787 -1.7939  0.4526 -1.4925
 5342SOL     OW27484   0.882   2.354  15.486  0.0974 -0.2453 -0.3573
 5342SOL    HW127485   0.926   2.358  15.571  0.0944  1.1954 -0.4130
 5342SOL    HW227486   0.851   2.444  15.473  1.3410  0.2873  0.3744
 5343SOL     OW27487   3.678   0.606  10.222 -0.3457  0.5857 -0.2983
 5343SOL    HW127488   3.771   0.620  10.242  0.4424 -1.2963 -2.6794
 5343SOL    HW227489   3.697   0.544  10.151 -2.7843 -0.4166 -0.0750
 5344SOL     OW27490   1.459   1.448  11.288 -0.4128  0.2731 -0.3599
 5344SOL    HW127491   1.389   1.458  11.223  0.9025 -0.5621 -1.8918
 5344SOL    HW227492   1.455   1.353  11.301  0.6722  0.0179 -1.9903
 5345SOL     OW27493   3.877   1.768   4.688 -0.0069 -0.2400 -0.5049
 5345SOL    HW127494   3.861   1.683   4.648  1.1110 -0.9686  0.5925
 5345SOL    HW227495   3.837   1.828   4.625  2.3874  2.1406  0.2357
 5346SOL     OW27496   0.881   1.079   3.399  0.0107 -0.1486  0.0761
 5346SOL    HW127497   0.920   1.149   3.347  2.1918 -0.5571  1.1633
 5346SOL    HW227498   0.858   1.125   3.479  2.8369  1.3871  0.0151
 5347SOL     OW27499   2.130   1.597   1.325 -0.3319 -0.0577  0.0960
 5347SOL    HW127500   2.095   1.526   1.379 -1.1588 -0.0739 -0.4602
 5347SOL    HW227501   2.055   1.607   1.266 -0.9939 -0.2774  0.8899
 5348SOL     OW27502   4.182   3.929   0.665  0.0740 -0.0513  0.3405
 5348SOL    HW127503   4.269   3.891   0.667  0.3884  0.6163 -1.5143
 5348SOL    HW227504   4.134   3.867   0.610  0.3116  1.3738 -1.4311
 5349SOL     OW27505   4.625   3.606   3.739 -0.1596  0.1127  0.3582
 5349SOL    HW127506   4.696   3.547   3.713  0.5652  1.3237 -0.3986
 5349SOL    HW227507   4.643   3.676   3.677 -1.3752  2.0576  2.2352
 5350SOL     OW27508   3.192   0.026   7.713  0.1773  0.5255  0.0098
 5350SOL    HW127509   3.264   4.691   7.735 -2.2358 -0.9265  4.0848
 5350SOL    HW227510   3.158   4.687   7.649 -0.2187 -1.7214  2.4551
 5351SOL     OW27511   3.917   4.341  13.300 -0.0943  0.2637  0.1923
 5351SOL    HW127512   3.910   4.374  13.390 -1.2583  1.6774 -0.4200
 5351SOL    HW227513   3.859   4.264  13.303  0.1670  0.0941  0.7803
 5352SOL     OW27514   1.943   0.866   6.998  0.2219 -0.1545 -0.2374
 5352SOL    HW127515   1.953   0.958   6.972 -1.4382 -0.4095 -1.7604
 5352SOL    HW227516   2.027   0.851   7.042 -0.5342 -1.2163  0.8584
 5353SOL     OW27517   4.708   2.190   2.392 -0.0199 -0.2006 -0.2408
 5353SOL    HW127518   4.669   2.160   2.310  0.6692 -1.1999 -0.2032
 5353SOL    HW227519   4.674   2.131   2.460 -1.3836 -0.3404 -1.0407
 5354SOL     OW27520   2.057   1.212   5.018 -0.3642 -0.1385 -0.0882
 5354SOL    HW127521   2.121   1.269   5.060 -1.0001  0.2159  0.3926
 5354SOL    HW227522   2.083   1.204   4.926  2.2759 -1.7031  0.7925
 5355SOL     OW27523   2.247   3.488   8.237 -0.6409 -0.3508  0.4862
 5355SOL    HW127524   2.245   3.575   8.197 -0.7972 -1.4189 -1.8713
 5355SOL    HW227525   2.249   3.436   8.156 -2.2304  0.5992 -0.1746
 5356SOL     OW27526   0.924   3.410   3.559 -0.1400 -0.0996  0.0527
 5356SOL    HW127527   0.848   3.390   3.504 -1.2078  1.4860  0.9209
 5356SOL    HW227528   0.917   3.342   3.626  0.0313 -0.8321 -0.6747
 5357SOL     OW27529   3.187   2.408   6.341 -0.1040 -0.1372 -0.0353
 5357SOL    HW127530   3.107   2.438   6.299  0.6985 -2.4675 -3.2343
 5357SOL    HW227531   3.209   2.341   6.277 -1.3485  0.8433 -1.4819
 5358SOL     OW27532   1.584   3.297   6.145  0.1073 -0.2976  0.3441
 5358SOL    HW127533   1.560   3.372   6.091  0.1966 -1.7791 -1.7309
 5358SOL    HW227534   1.662   3.322   6.196  0.3903 -0.5746  0.0519
 5359SOL     OW27535   1.980   2.989  12.732  0.4549 -0.1001 -0.0478
 5359SOL    HW127536   1.977   3.073  12.777  2.3403  0.9417 -1.8494
 5359SOL    HW227537   2.072   2.983  12.705  0.4812  0.4866 -0.0900
 5360SOL     OW27538   1.899   1.087   1.569  0.6713 -0.4941 -0.0856
 5360SOL    HW127539   1.894   1.028   1.645  0.2602 -1.2669 -0.7119
 5360SOL    HW227540   1.961   1.041   1.511 -0.0545 -1.8363  0.1871
 5361SOL     OW27541   3.973   4.249   5.557  0.3738 -0.0045  0.4658
 5361SOL    HW127542   3.984   4.163   5.597 -2.4794  0.2052  1.7461
 5361SOL    HW227543   4.043   4.297   5.601  1.5344  0.9594 -2.4300
 5362SOL     OW27544   3.537   4.042  10.613  0.1569  0.8466  0.0930
 5362SOL    HW127545   3.531   4.117  10.672  1.4387  1.5311 -0.6411
 5362SOL    HW227546   3.589   3.985  10.669 -3.3592 -1.5207  0.9212
 5363SOL     OW27547   1.478   3.574   8.340 -0.1135  0.5364 -0.0553
 5363SOL    HW127548   1.571   3.571   8.362 -0.5654 -1.9627  1.5465
 5363SOL    HW227549   1.457   3.667   8.347  0.3628  0.5943  0.6210
 5364SOL     OW27550   4.355   4.525  14.926 -0.1432 -0.4010  0.3649
 5364SOL    HW127551   4.366   4.453  14.988 -1.8344 -2.6931 -2.0134
 5364SOL    HW227552   4.263   4.540  14.948 -0.5153 -2.4507  0.2064
 5365SOL     OW27553   0.898   1.940   8.363  0.0603  0.4272 -0.6049
 5365SOL    HW127554   0.825   1.881   8.349 -2.1764  2.7495  1.2629
 5365SOL    HW227555   0.854   2.025   8.356 -0.7606  0.1609  1.4603
 5366SOL     OW27556   2.685   0.922   3.197  0.1566  0.7781  0.0130
 5366SOL    HW127557   2.631   0.996   3.168  0.0000  0.9086  0.6404
 5366SOL    HW227558   2.655   0.847   3.146  0.6305  0.2481  0.5173
 5367SOL     OW27559   4.520   3.935   1.987  0.3074  0.5594  0.3830
 5367SOL    HW127560   4.453   3.993   2.024  2.1879  3.3798 -0.6040
 5367SOL    HW227561   4.518   3.967   1.897 -1.6946 -0.5275  0.0335
 5368SOL     OW27562   2.406   4.443  14.151  0.0903  0.4510  0.0572
 5368SOL    HW127563   2.396   4.388  14.074 -1.4050 -1.2752  1.4876
 5368SOL    HW227564   2.407   4.380  14.222 -3.2498  0.2610 -0.0619
 5369SOL     OW27565   2.974   3.655   1.962 -0.4532 -0.0121 -0.3445
 5369SOL    HW127566   3.027   3.637   1.885 -0.9067  3.1064 -1.3933
 5369SOL    HW227567   2.929   3.737   1.941 -1.6023 -1.0428 -1.8403
 5370SOL     OW27568   3.226   4.207  17.491 -0.3735 -0.1964  0.1065
 5370SOL    HW127569   3.173   4.199  17.412  0.3310  0.4118 -0.4340
 5370SOL    HW227570   3.301   4.157  17.459  2.3779  2.2287  2.6598
 5371SOL     OW27571   0.702   3.641   8.914  0.3983 -0.4205 -0.2162
 5371SOL    HW127572   0.745   3.670   8.994 -1.0569  1.0784  0.0212
 5371SOL    HW227573   0.638   3.588   8.961  0.3355  0.0864  0.2680
 5372SOL     OW27574   4.463   3.918   9.036 -0.4039 -0.0424  0.5181
 5372SOL    HW127575   4.415   3.854   8.983  0.8507  1.8588 -2.8918
 5372SOL    HW227576   4.506   3.857   9.097 -0.8115 -1.4052 -0.5583
 5373SOL     OW27577   0.045   0.419  15.519 -0.2397 -0.6863  0.2241
 5373SOL    HW127578   4.722   0.447  15.598  0.3406  2.0220 -0.4116
 5373SOL    HW227579   0.136   0.405  15.544 -0.0295 -0.7247 -0.5658
 5374SOL     OW27580   2.954   0.574   3.867  0.0310 -0.5411 -0.1045
 5374SOL    HW127581   3.047   0.552   3.866 -0.1112 -1.1268 -0.4834
 5374SOL    HW227582   2.953   0.661   3.907 -0.4233  0.1387 -1.5480
 5375SOL     OW27583   4.357   0.934   6.466  0.1223  0.0960  0.0750
 5375SOL    HW127584   4.401   1.012   6.433 -0.2616  0.9863  1.6356
 5375SOL    HW227585   4.365   0.890   6.381  0.3149 -0.6633  0.4853
 5376SOL     OW27586   3.400   3.566   8.494  0.3354 -0.5545 -0.2274
 5376SOL    HW127587   3.379   3.647   8.540 -1.0911 -1.0024 -0.1098
 5376SOL    HW227588   3.357   3.498   8.545 -1.8392  1.7478  0.9914
 5377SOL     OW27589   2.398   3.775   9.058 -0.2594  0.7099  0.5794
 5377SOL    HW127590   2.312   3.818   9.058 -0.9612 -0.6923 -1.2399
 5377SOL    HW227591   2.374   3.685   9.036  0.5509 -0.0738  2.8290
 5378SOL     OW27592   2.913   4.354   5.514  0.2791 -0.2567 -0.1470
 5378SOL    HW127593   2.939   4.262   5.511 -0.3970 -0.5250  2.4036
 5378SOL    HW227594   2.882   4.362   5.604  3.4083  0.3039  0.8754
 5379SOL     OW27595   2.875   4.537   4.227 -0.4858 -0.3610 -0.3237
 5379SOL    HW127596   2.871   4.608   4.164  0.5325  0.4797  0.5727
 5379SOL    HW227597   2.937   4.470   4.200  0.2939  0.7927 -1.3620
 5380SOL     OW27598   0.818   1.151   1.926 -0.1363  0.6070 -0.3650
 5380SOL    HW127599   0.905   1.148   1.886 -0.1063 -0.3215 -0.2267
 5380SOL    HW227600   0.763   1.194   1.861  0.3662 -1.4048 -2.0919
 5381SOL     OW27601   3.577   1.465   4.491  0.0562 -0.0506  0.0831
 5381SOL    HW127602   3.570   1.471   4.586  2.4246  0.1145  0.2493
 5381SOL    HW227603   3.627   1.383   4.485 -0.0368 -0.1007 -0.0185
 5382SOL     OW27604   2.634   3.423  11.257  0.1939 -0.4087  0.7195
 5382SOL    HW127605   2.619   3.511  11.222 -1.6823 -1.5172 -1.2258
 5382SOL    HW227606   2.585   3.363  11.201  0.6575 -1.0729  1.0265
 5383SOL     OW27607   4.705   2.249  14.855  0.1233 -0.2416  0.6062
 5383SOL    HW127608   4.648   2.195  14.800 -1.4584  1.6061  0.4408
 5383SOL    HW227609   4.703   2.335  14.815 -2.2513 -1.1912 -1.3099
 5384SOL     OW27610   0.797   2.424   4.917 -0.2095 -0.4957 -0.1559
 5384SOL    HW127611   0.799   2.437   4.822  0.9117 -1.7723 -0.3159
 5384SOL    HW227612   0.715   2.383   4.943  0.3440 -1.2804  0.3625
 5385SOL     OW27613   0.544   3.425  15.413 -0.7052 -0.1177  0.4415
 5385SOL    HW127614   0.489   3.441  15.490 -0.3081  0.3953  0.6241
 5385SOL    HW227615   0.531   3.330  15.410  0.0506 -0.1314 -2.3961
 5386SOL     OW27616   0.411   2.419   9.179 -0.0690 -0.0219 -0.0005
 5386SOL    HW127617   0.503   2.443   9.167  0.5859 -1.7153  1.5281
 5386SOL    HW227618   0.392   2.476   9.254 -0.6988 -0.9116  0.5174
 5387SOL     OW27619   4.069   2.897  11.963  0.1157  0.1596 -0.0478
 5387SOL    HW127620   4.118   2.929  11.887  2.4582  1.6006  2.0505
 5387SOL    HW227621   3.982   2.872  11.932  0.5247 -0.5575 -0.6410
 5388SOL     OW27622   3.499   0.903   2.910 -0.0050  0.8356 -0.0242
 5388SOL    HW127623   3.574   0.875   2.962 -1.4906  1.0601  2.1952
 5388SOL    HW227624   3.435   0.871   2.973 -1.3163 -2.0535 -2.8178
 5389SOL     OW27625   2.158   1.004   5.546 -0.0710 -0.0621  0.1676
 5389SOL    HW127626   2.154   1.050   5.462  2.1574  0.2395  0.2295
 5389SOL    HW227627   2.075   0.958   5.532 -0.9372  2.3196 -2.5968
 5390SOL     OW27628   2.714   1.422   8.582  0.1778  0.2097  0.3677
 5390SOL    HW127629   2.785   1.475   8.618  0.6743 -0.1790 -0.0420
 5390SOL    HW227630   2.682   1.476   8.510  1.8603  0.5949 -0.0802
 5391SOL     OW27631   3.023   4.585   0.106 -0.0097  0.2770  0.0967
 5391SOL    HW127632   3.041   4.662   0.160 -0.8319 -0.4438  1.4046
 5391SOL    HW227633   3.081   4.514   0.135  0.0787  0.5812  0.6558
 5392SOL     OW27634   4.470   4.429  10.665  0.0055 -0.4241 -0.5115
 5392SOL    HW127635   4.561   4.456  10.678 -0.0380 -0.3816 -0.2858
 5392SOL    HW227636   4.467   4.344  10.621 -2.8968 -0.7274  0.2842
 5393SOL     OW27637   0.768   1.552   3.114  0.1579 -0.5715  0.4565
 5393SOL    HW127638   0.753   1.551   3.209 -2.4275 -1.4610  0.0340
 5393SOL    HW227639   0.794   1.644   3.107 -0.3015 -0.4221  0.7167
 5394SOL     OW27640   4.343   2.175   8.857 -0.6292 -0.0087  0.1000
 5394SOL    HW127641   4.349   2.139   8.769  0.3430  1.2325 -0.3451
 5394SOL    HW227642   4.324   2.104   8.919 -0.7378 -0.3321 -0.3066
 5395SOL     OW27643   3.860   4.638   7.963 -0.4528  0.2213 -0.0862
 5395SOL    HW127644   3.946   4.666   7.995  0.2188 -1.0143 -0.8112
 5395SOL    HW227645   3.836   4.714   7.911 -1.5165 -0.3406 -0.4293
 5396SOL     OW27646   2.447   0.042   0.007  0.2795  0.2800  0.0710
 5396SOL    HW127647   2.532   0.079  17.681  0.1014  0.1590 -0.8253
 5396SOL    HW227648   2.464   4.719   0.088 -2.9989  1.4728  1.4565
 5397SOL     OW27649   3.843   4.721   5.574  0.0943  0.2910  0.8528
 5397SOL    HW127650   3.760   0.012   5.618  0.0616 -0.5989  1.0749
 5397SOL    HW227651   3.878   4.659   5.638  0.4425  0.4143  0.7859
 5398SOL     OW27652   2.142   2.013   7.290  0.2245 -0.1972 -0.2363
 5398SOL    HW127653   2.073   2.053   7.343 -0.4467 -0.8443 -0.6141
 5398SOL    HW227654   2.141   1.927   7.332 -0.4238 -0.9026 -1.6815
 5399SOL     OW27655   1.818   2.180   7.738 -0.2190 -0.1144 -0.2988
 5399SOL    HW127656   1.912   2.191   7.747 -0.4644 -0.9539  3.2770
 5399SOL    HW227657   1.802   2.272   7.718  1.3438  0.1453 -0.3347
 5400SOL     OW27658   4.204   4.160   5.871  0.3523 -0.8324 -0.0441
 5400SOL    HW127659   4.184   4.092   5.935  0.7038  0.2373  1.2003
 5400SOL    HW227660   4.299   4.159   5.883  0.0815 -0.0906  2.1407
 5401SOL     OW27661   1.452   3.938   2.536 -0.6300  0.6518  0.5290
 5401SOL    HW127662   1.475   4.009   2.596 -1.0384 -0.8810  2.4620
 5401SOL    HW227663   1.521   3.879   2.567 -0.6833  0.2351 -0.1355
 5402SOL     OW27664   0.332   2.386   8.800  0.1656  0.2433  0.4196
 5402SOL    HW127665   0.350   2.331   8.876  1.0224 -2.7606 -1.9707
 5402SOL    HW227666   0.406   2.355   8.748 -0.1691  0.2615 -0.0748
 5403SOL     OW27667   3.821   2.162   6.169  0.1008 -0.2381  0.2744
 5403SOL    HW127668   3.753   2.096   6.160 -2.5337  2.5830 -0.4391
 5403SOL    HW227669   3.819   2.218   6.091  0.6058 -0.3051  0.2132
 5404SOL     OW27670   3.036   4.240   2.104  0.5404  0.1178 -0.1478
 5404SOL    HW127671   2.987   4.317   2.132  0.2681 -0.4704  1.0132
 5404SOL    HW227672   3.124   4.251   2.140  1.3302 -1.5844 -1.5364
 5405SOL     OW27673   3.632   2.230   5.063  0.1292  0.4801  0.3821
 5405SOL    HW127674   3.639   2.318   5.099  2.3466  0.5392 -0.2413
 5405SOL    HW227675   3.541   2.225   5.033  0.9215 -1.1061 -1.7652
 5406SOL     OW27676   4.517   4.261   8.693  0.1925  0.4282  0.1951
 5406SOL    HW127677   4.576   4.294   8.761  1.3125 -1.0874 -0.0378
 5406SOL    HW227678   4.469   4.335   8.656  0.7002 -0.3727 -2.0123
 5407SOL     OW27679   3.334   0.214  12.258 -0.0709  0.6453 -0.7439
 5407SOL    HW127680   3.395   0.165  12.203 -1.2869  0.6439 -2.0868
 5407SOL    HW227681   3.310   0.281  12.195 -1.6177 -0.0067 -0.8597
 5408SOL     OW27682   4.231   1.837  17.089 -0.2066  0.8177  0.6471
 5408SOL    HW127683   4.214   1.926  17.060  1.2137  0.7971 -0.2338
 5408SOL    HW227684   4.249   1.848  17.182  2.1814 -1.2664  0.4169
 5409SOL     OW27685   1.265   1.702   2.617 -0.2023  0.4384  0.3129
 5409SOL    HW127686   1.249   1.669   2.705 -1.9527 -0.1417 -0.2115
 5409SOL    HW227687   1.181   1.709   2.570 -0.8786  1.5912  1.6961
 5410SOL     OW27688   3.337   3.533  12.870  0.2797  0.2223 -0.1734
 5410SOL    HW127689   3.404   3.499  12.811  2.0708  0.1282  1.9069
 5410SOL    HW227690   3.372   3.517  12.958  0.2591 -0.4214 -0.2859
 5411SOL     OW27691   0.733   4.541   2.998 -0.2568  0.0492 -0.0791
 5411SOL    HW127692   0.777   4.585   3.071 -0.0110 -1.2629  0.5684
 5411SOL    HW227693   0.649   4.535   3.043 -0.3354 -1.2420 -0.4034
 5412SOL     OW27694   1.354   3.343  11.697 -0.4976 -0.0609  0.0622
 5412SOL    HW127695   1.431   3.364  11.645 -0.4245 -0.3092  0.0701
 5412SOL    HW227696   1.387   3.352  11.786  1.1838 -1.0086 -0.4756
 5413SOL     OW27697   2.670   3.491   2.115 -0.1147 -0.1233 -0.0461
 5413SOL    HW127698   2.595   3.441   2.084 -0.5936 -0.7843  2.1817
 5413SOL    HW227699   2.703   3.502   2.026 -0.7549  1.1152 -0.1341
 5414SOL     OW27700   0.019   1.982   2.936 -0.3131  0.0627  0.0856
 5414SOL    HW127701   4.701   1.950   3.017 -2.2654  0.7971 -0.6315
 5414SOL    HW227702   4.713   2.073   2.935 -0.3779  0.0428  0.1336
 5415SOL     OW27703   0.759   3.952  16.295  0.3068 -0.2069 -0.0361
 5415SOL    HW127704   0.707   3.944  16.375  0.3304  0.1824  0.0217
 5415SOL    HW227705   0.717   3.886  16.242 -2.4249  0.2991  1.5174
 5416SOL     OW27706   4.128   0.515   4.123  0.1824 -0.1473  0.0170
 5416SOL    HW127707   4.065   0.583   4.144  1.3278  0.4662  1.4202
 5416SOL    HW227708   4.076   0.435   4.121 -0.8701  0.5356  0.6993
 5417SOL     OW27709   1.577   1.848   6.097 -0.0485  0.1307 -0.0390
 5417SOL    HW127710   1.490   1.874   6.128 -0.2376  0.5352 -0.9086
 5417SOL    HW227711   1.643   1.897   6.147  0.8812  0.4561 -1.5888
 5418SOL     OW27712   0.838   1.119   4.322  0.6138 -1.1514 -0.5792
 5418SOL    HW127713   0.778   1.067   4.269  0.3785 -1.9472  0.4872
 5418SOL    HW227714   0.890   1.050   4.363 -1.6591 -0.7743  2.9238
 5419SOL     OW27715   1.476   4.328  10.702  0.2510 -0.3507 -0.0310
 5419SOL    HW127716   1.548   4.269  10.723 -0.3989 -1.3866 -0.7536
 5419SOL    HW227717   1.528   4.393  10.655  1.3752 -0.7175  0.7026
 5420SOL     OW27718   3.823   0.351   1.971 -0.1310  0.0652  0.2371
 5420SOL    HW127719   3.918   0.349   1.967 -0.2096  0.8154 -1.7802
 5420SOL    HW227720   3.826   0.366   2.066  0.1578  1.2648  0.0400
 5421SOL     OW27721   2.871   1.166   9.397 -0.0597 -0.1122 -0.3321
 5421SOL    HW127722   2.939   1.105   9.367  1.0686 -0.2416  2.4799
 5421SOL    HW227723   2.921   1.239   9.432  2.8938 -1.3721 -1.9086
 5422SOL     OW27724   3.936   0.097   1.476  0.1428  0.5221 -0.0784
 5422SOL    HW127725   4.027   0.069   1.467 -0.4509 -2.6243  3.2746
 5422SOL    HW227726   3.920   0.130   1.564 -0.2481 -1.5606  0.6411
 5423SOL     OW27727   1.015   2.734   2.962  0.4566 -0.0830  0.1903
 5423SOL    HW127728   0.983   2.824   2.954  2.7389  0.7590  0.2766
 5423SOL    HW227729   0.964   2.699   2.889  0.9316  0.6823 -0.5137
 5424SOL     OW27730   1.823   4.694  16.674 -0.7932  0.1809 -0.1390
 5424SOL    HW127731   1.874   0.049  16.655 -0.1542  0.0010  0.7639
 5424SOL    HW227732   1.740   4.704  16.628 -0.0893 -0.3150 -1.5052
 5425SOL     OW27733   4.163   3.673   9.345 -0.1659 -0.2104 -0.1342
 5425SOL    HW127734   4.179   3.726   9.423 -1.0403 -0.6299  0.3241
 5425SOL    HW227735   4.165   3.585   9.382  0.0231  1.3050  3.4968
 5426SOL     OW27736   2.917   2.904  15.502  0.4848  0.1087  0.5016
 5426SOL    HW127737   2.960   2.861  15.429  1.6416 -0.2996  1.4138
 5426SOL    HW227738   2.866   2.973  15.459 -0.1848 -0.5209  0.2818
 5427SOL     OW27739   3.323   3.703   6.188 -0.9263  0.2130 -0.3454
 5427SOL    HW127740   3.404   3.754   6.196  0.1359 -1.6126  0.6820
 5427SOL    HW227741   3.302   3.689   6.280 -2.4927  0.7488 -0.6296
 5428SOL     OW27742   2.514   1.982   1.666  0.3908 -0.0360  0.2145
 5428SOL    HW127743   2.475   2.036   1.735 -1.3564  0.3462 -1.0774
 5428SOL    HW227744   2.484   1.898   1.700  0.3486 -0.4048 -0.7551
 5429SOL     OW27745   3.640   0.407  15.968 -0.3038 -0.1230  0.0025
 5429SOL    HW127746   3.708   0.341  15.958 -1.1146 -0.7038 -1.5557
 5429SOL    HW227747   3.558   0.359  15.956 -0.0013  0.2027 -3.3054
 5430SOL     OW27748   3.534   2.414   6.613  0.1567 -0.3370 -0.4277
 5430SOL    HW127749   3.625   2.412   6.642  0.7161  1.9883 -1.9816
 5430SOL    HW227750   3.542   2.365   6.532 -0.1486  0.4747 -0.9569
 5431SOL     OW27751   1.468   1.505   9.128 -0.2282  0.1962 -0.3452
 5431SOL    HW127752   1.467   1.571   9.198 -1.1618  1.9228 -1.9853
 5431SOL    HW227753   1.373   1.488   9.124 -0.3171  0.4766  0.6275
 5432SOL     OW27754   0.528   0.581  17.423 -0.2511 -0.0111 -0.2271
 5432SOL    HW127755   0.618   0.578  17.392 -0.5077  2.2922 -1.2098
 5432SOL    HW227756   0.511   0.652  17.360 -1.3934 -0.7465 -0.7410
 5433SOL     OW27757   1.247   0.670  13.059 -0.2070  0.4122 -0.3078
 5433SOL    HW127758   1.320   0.640  13.114  0.1637  1.2550 -0.3418
 5433SOL    HW227759   1.188   0.696  13.130 -0.2660  0.1233 -0.2515
 5434SOL     OW27760   1.676   3.422  12.509  0.2770  0.4219  0.0396
 5434SOL    HW127761   1.686   3.517  12.516  1.0228  0.4795 -1.7540
 5434SOL    HW227762   1.596   3.396  12.555  0.2369 -1.1386 -0.9052
 5435SOL     OW27763   0.570   0.850  11.773  0.9179 -0.2165 -0.2872
 5435SOL    HW127764   0.486   0.894  11.758 -0.4320 -2.3326  1.0898
 5435SOL    HW227765   0.610   0.888  11.695 -0.3213 -0.0037 -0.8195
 5436SOL     OW27766   2.159   2.535   8.886  0.4181  0.1483 -0.3272
 5436SOL    HW127767   2.250   2.508   8.899 -0.5964 -3.5958 -0.9141
 5436SOL    HW227768   2.118   2.460   8.929 -0.4672  1.0843  0.4767
 5437SOL     OW27769   4.529   0.321   0.061 -0.4636  0.6669 -0.7412
 5437SOL    HW127770   4.516   0.410   0.093  3.1124 -0.0566  2.7514
 5437SOL    HW227771   4.455   0.272   0.095 -0.2182 -0.7150 -2.2184
 5438SOL     OW27772   2.075   1.916  12.977  0.0873  0.1381 -0.3260
 5438SOL    HW127773   2.144   1.866  13.021  0.3406  0.8957  0.1479
 5438SOL    HW227774   2.075   1.894  12.884 -0.0394  0.7266 -0.4643
 5439SOL     OW27775   2.524   3.197  16.243  0.0574  0.1398 -0.7496
 5439SOL    HW127776   2.430   3.181  16.250 -0.2586  2.8522  1.3399
 5439SOL    HW227777   2.527   3.292  16.255 -1.0621 -0.1859  2.2315
 5440SOL     OW27778   1.240   0.180   3.999 -0.0732  0.1437  0.0038
 5440SOL    HW127779   1.214   0.258   4.048 -0.3768 -0.0551  0.1598
 5440SOL    HW227780   1.182   0.195   3.924  1.8860  2.2032 -1.0603
 5441SOL     OW27781   0.410   4.337   8.367  0.3183 -0.0384 -0.3922
 5441SOL    HW127782   0.422   4.335   8.272  3.3332 -1.2969  0.0286
 5441SOL    HW227783   0.427   4.244   8.375 -0.9401 -0.2732 -0.4166
 5442SOL     OW27784   2.000   0.508   6.814  0.3616 -0.2768 -0.1908
 5442SOL    HW127785   1.953   0.501   6.897 -1.3383 -0.6280 -1.1643
 5442SOL    HW227786   1.941   0.571   6.773  2.9591  0.7769 -2.2690
 5443SOL     OW27787   2.667   0.535   5.479 -0.0418 -0.5484  0.4886
 5443SOL    HW127788   2.690   0.608   5.423  1.7910 -2.1539 -0.8593
 5443SOL    HW227789   2.607   0.485   5.423 -4.9744  1.9817  3.4579
 5444SOL     OW27790   3.953   4.315   8.099 -0.8370  0.0419 -0.4920
 5444SOL    HW127791   3.895   4.249   8.061 -0.0244 -0.2547 -1.2282
 5444SOL    HW227792   3.996   4.356   8.024  0.0896 -2.4813 -1.3588
 5445SOL     OW27793   2.127   0.246   0.612  0.0742  0.0334 -0.0975
 5445SOL    HW127794   2.081   0.306   0.553 -1.0041  0.0291  0.7469
 5445SOL    HW227795   2.073   0.250   0.690 -1.1327  2.2528 -1.0306
 5446SOL     OW27796   1.344   3.942   8.314 -0.6619  0.3114  0.0488
 5446SOL    HW127797   1.378   3.933   8.225 -2.9359  0.2845 -0.8163
 5446SOL    HW227798   1.396   3.898   8.381 -0.7622 -0.0664 -0.1223
 5447SOL     OW27799   0.477   1.543   5.492  0.3595  0.0261  0.5609
 5447SOL    HW127800   0.520   1.626   5.470 -1.1019  0.0597 -2.1322
 5447SOL    HW227801   0.383   1.558   5.485  0.3064 -0.8010 -0.3595
 5448SOL     OW27802   2.429   1.170   9.217 -0.2377  0.1823  0.2684
 5448SOL    HW127803   2.369   1.160   9.142 -0.2007 -0.5271  0.3361
 5448SOL    HW227804   2.498   1.219   9.172 -1.1800  0.7093 -0.6320
 5449SOL     OW27805   2.282   1.240   2.673  0.8031  0.2137 -0.5797
 5449SOL    HW127806   2.249   1.311   2.617  0.6502 -0.1945 -1.0056
 5449SOL    HW227807   2.289   1.171   2.607 -0.0195  0.3195 -0.7751
 5450SOL     OW27808   0.800   3.609   8.656 -0.1407 -0.5841  0.4064
 5450SOL    HW127809   0.764   3.521   8.647  0.2018 -0.7279  0.4309
 5450SOL    HW227810   0.748   3.633   8.733  0.2710 -0.5153  0.6634
 5451SOL     OW27811   1.893   0.724   1.522  0.3198 -0.4458 -0.2073
 5451SOL    HW127812   1.809   0.748   1.482  1.9950  2.4460 -1.9622
 5451SOL    HW227813   1.868   0.748   1.611  1.6377 -1.4073  0.4114
 5452SOL     OW27814   4.510   2.836   1.273  0.2010  0.3363  0.6983
 5452SOL    HW127815   4.495   2.912   1.216  0.5890  0.3600  0.6251
 5452SOL    HW227816   4.534   2.762   1.217 -0.1850  0.2229  0.6838
 5453SOL     OW27817   3.746   3.761   8.986 -0.0440  0.0261  0.4545
 5453SOL    HW127818   3.679   3.830   8.983  1.2117  1.1943 -0.4824
 5453SOL    HW227819   3.792   3.779   9.068 -0.2571 -2.0905  1.0271
 5454SOL     OW27820   3.525   1.620  13.201  0.2199 -0.1352 -0.5544
 5454SOL    HW127821   3.550   1.673  13.277 -2.1996 -0.0573  0.1778
 5454SOL    HW227822   3.464   1.676  13.154 -0.6377  1.6473  2.6922
 5455SOL     OW27823   2.860   1.225   4.184  0.5998  0.1874  0.2264
 5455SOL    HW127824   2.820   1.182   4.108  0.8031 -0.8406  0.7007
 5455SOL    HW227825   2.829   1.159   4.247 -0.1420 -0.9534 -1.3297
 5456SOL     OW27826   0.635   3.401   8.558 -0.3446 -0.2117 -0.6614
 5456SOL    HW127827   0.601   3.427   8.473  0.7959  1.3578 -0.6421
 5456SOL    HW227828   0.692   3.328   8.535  0.7712  1.3311 -2.8202
 5457SOL     OW27829   1.192   4.405   4.092  0.3938 -0.5092  0.2987
 5457SOL    HW127830   1.268   4.363   4.051  1.0032  1.9030 -1.0244
 5457SOL    HW227831   1.189   4.490   4.048  2.0041 -0.2295  0.7426
 5458SOL     OW27832   0.148   3.187   6.846 -0.7079  0.4744 -0.5266
 5458SOL    HW127833   0.060   3.194   6.808 -1.1486  0.2097  0.4455
 5458SOL    HW227834   0.145   3.093   6.867  0.4907  0.7113  0.7181
 5459SOL     OW27835   3.943   1.106   3.519 -0.7334 -0.0852  0.4320
 5459SOL    HW127836   3.859   1.151   3.521  0.3477  1.8195  2.8302
 5459SOL    HW227837   3.951   1.071   3.430 -0.5030  2.3549 -0.5083
 5460SOL     OW27838   3.124   4.346   5.956  0.1708  0.1360  0.3368
 5460SOL    HW127839   3.041   4.335   5.910  0.2594 -0.5947  0.3528
 5460SOL    HW227840   3.178   4.288   5.903 -1.0092 -2.1456  1.6230
 5461SOL     OW27841   1.430   3.273   9.806 -0.4515 -0.3843 -0.3345
 5461SOL    HW127842   1.495   3.203   9.811  1.5997  1.7525  2.8637
 5461SOL    HW227843   1.376   3.249   9.882 -1.4240 -2.2751 -1.6040
 5462SOL     OW27844   2.070   2.687   3.317  0.4837  0.2343  0.1063
 5462SOL    HW127845   2.118   2.642   3.248 -0.3162  0.0371 -0.3186
 5462SOL    HW227846   2.088   2.777   3.290  1.7170  1.0124  3.4232
 5463SOL     OW27847   2.527   4.033   0.789 -0.2303 -0.5772 -0.5621
 5463SOL    HW127848   2.443   3.988   0.796  0.7052 -2.1734  0.3894
 5463SOL    HW227849   2.504   4.126   0.795  2.3343  0.0181  0.0318
 5464SOL     OW27850   2.033   2.331   5.601  0.3581  0.0045 -0.3246
 5464SOL    HW127851   2.084   2.298   5.527  2.3468 -0.9960  1.4615
 5464SOL    HW227852   2.091   2.403   5.628  3.5479 -1.2322 -3.9822
 5465SOL     OW27853   4.590   2.239   4.169 -0.7826  0.0939  0.2972
 5465SOL    HW127854   4.582   2.144   4.174 -2.2565  0.1745 -0.7249
 5465SOL    HW227855   4.521   2.259   4.232 -1.9835 -0.4383 -0.8473
 5466SOL     OW27856   1.518   1.552   4.913  0.5581 -0.0492 -0.1159
 5466SOL    HW127857   1.594   1.500   4.888  0.4617 -0.1802 -0.1397
 5466SOL    HW227858   1.554   1.634   4.946  1.3036 -0.1200 -0.7585
 5467SOL     OW27859   4.273   4.164   1.502  0.4108 -0.1114  0.1472
 5467SOL    HW127860   4.209   4.233   1.516 -0.6335 -0.8808 -0.9023
 5467SOL    HW227861   4.356   4.206   1.526  0.4354  0.0138 -0.1698
 5468SOL     OW27862   0.142   3.833  17.091  0.4499 -0.1950 -0.2377
 5468SOL    HW127863   0.167   3.889  17.017  1.7894  0.2393  0.5474
 5468SOL    HW227864   0.063   3.880  17.120  1.3944  0.4501  1.2551
 5469SOL     OW27865   2.036   3.541   2.688  0.1554 -0.0321 -0.7136
 5469SOL    HW127866   1.943   3.552   2.707 -0.1124 -1.0411 -1.4031
 5469SOL    HW227867   2.027   3.474   2.620  1.4414 -0.6435 -0.3019
 5470SOL     OW27868   3.888   2.987   4.214 -0.4713 -0.0859 -0.2458
 5470SOL    HW127869   3.840   3.002   4.295 -1.9797  1.6710 -1.4516
 5470SOL    HW227870   3.825   3.010   4.146  1.9127 -0.6777 -2.6566
 5471SOL     OW27871   2.439   3.738   5.796  0.7465 -0.0737  0.2490
 5471SOL    HW127872   2.508   3.780   5.744  0.5507  1.2534  1.0565
 5471SOL    HW227873   2.381   3.813   5.811 -0.1734 -0.5398 -1.0304
 5472SOL     OW27874   2.956   0.955  12.055  0.3333  0.1341  0.6882
 5472SOL    HW127875   3.037   1.007  12.054  0.3651  0.1170  2.0755
 5472SOL    HW227876   2.956   0.914  12.142 -0.3079  1.7076  1.4262
 5473SOL     OW27877   2.031   3.074   4.624  0.1238 -0.1157  0.0733
 5473SOL    HW127878   2.078   3.156   4.609 -0.4844  0.2561  0.2020
 5473SOL    HW227879   1.939   3.102   4.623  0.1995  0.1424  0.6892
 5474SOL     OW27880   4.711   3.008  17.588 -0.3314 -0.2799  0.1784
 5474SOL    HW127881   4.720   2.992  17.494  0.8841 -1.5022  0.4977
 5474SOL    HW227882   0.067   2.984  17.636 -0.8344  0.6990  1.4805
 5475SOL     OW27883   1.929   0.915  11.178  0.5205 -0.0900  0.2492
 5475SOL    HW127884   1.882   0.998  11.184  1.3525  0.3041  1.4543
 5475SOL    HW227885   2.016   0.949  11.156 -0.1744  1.7217  0.2671
 5476SOL     OW27886   4.478   4.407  10.062 -0.1795 -0.9175 -0.4401
 5476SOL    HW127887   4.515   4.415   9.974  0.8531 -0.9561 -0.0064
 5476SOL    HW227888   4.464   4.312  10.065  0.2967 -0.9624  0.2793
 5477SOL     OW27889   2.208   4.439   2.611  0.1953  1.0047 -0.2295
 5477SOL    HW127890   2.269   4.400   2.674 -1.0969 -0.7510 -0.0680
 5477SOL    HW227891   2.271   4.486   2.557  1.0685 -0.4759 -0.5080
 5478SOL     OW27892   1.896   3.646   4.839 -0.6902  0.1425  0.5466
 5478SOL    HW127893   1.802   3.656   4.829 -0.6869  0.0383  0.4144
 5478SOL    HW227894   1.913   3.740   4.840 -0.0614  0.0129  2.4773
 5479SOL     OW27895   1.085   2.288   2.753 -0.4408  0.1347 -0.6514
 5479SOL    HW127896   1.151   2.220   2.766  0.5426  1.1865 -0.0911
 5479SOL    HW227897   1.127   2.367   2.719  2.3581 -0.4817  1.3037
 5480SOL     OW27898   3.126   0.888   5.205  0.0603  0.2472 -0.2803
 5480SOL    HW127899   3.061   0.952   5.175  0.6866  0.3521 -1.4298
 5480SOL    HW227900   3.108   0.897   5.298  0.1445  0.3895 -0.2769
 5481SOL     OW27901   3.396   1.432   7.935 -0.1269  0.4019  0.0567
 5481SOL    HW127902   3.335   1.413   8.006  1.7594 -4.1707  0.4906
 5481SOL    HW227903   3.459   1.496   7.969  1.9885 -0.5054 -2.1635
 5482SOL     OW27904   3.555   3.200   4.945 -0.3089 -0.1690 -0.7183
 5482SOL    HW127905   3.460   3.187   4.940 -0.3706  0.4062 -1.0182
 5482SOL    HW227906   3.577   3.156   5.027 -2.3327 -0.3181 -0.2522
 5483SOL     OW27907   1.197   2.192   5.642 -0.0508 -0.1318  0.5072
 5483SOL    HW127908   1.124   2.138   5.672 -0.0944 -0.4732 -0.2257
 5483SOL    HW227909   1.166   2.234   5.562  0.3496 -1.3866 -0.3190
 5484SOL     OW27910   0.550   0.111  11.966 -0.4028  0.3301  0.6234
 5484SOL    HW127911   0.566   0.077  12.054 -1.2764  2.6264  1.6502
 5484SOL    HW227912   0.491   0.044  11.930 -1.6847  2.5023 -1.3107
 5485SOL     OW27913   4.438   0.218   4.062 -0.1455 -0.1612  0.5099
 5485SOL    HW127914   4.380   0.265   4.003  0.5862 -1.0705 -0.9316
 5485SOL    HW227915   4.520   0.214   4.013  0.0168 -1.0755  0.8515
 5486SOL     OW27916   1.687   0.294   5.031  0.8072 -0.0735 -0.2519
 5486SOL    HW127917   1.754   0.286   4.963 -1.7452  0.6516 -2.8775
 5486SOL    HW227918   1.741   0.327   5.102  2.3168  1.0661 -1.9452
 5487SOL     OW27919   3.501   3.079   0.386 -0.1171  0.0166  0.0161
 5487SOL    HW127920   3.495   3.001   0.441  3.0183  0.2166  0.6099
 5487SOL    HW227921   3.431   3.133   0.424 -2.0886 -2.1561 -0.4902
 5488SOL     OW27922   2.638   0.220   7.617 -0.0856 -0.1515 -0.2204
 5488SOL    HW127923   2.577   0.285   7.582  0.5148 -0.0099 -0.9880
 5488SOL    HW227924   2.712   0.276   7.640  0.4856 -1.3761  0.9687
 5489SOL     OW27925   3.410   3.303   6.993  0.1102 -0.6730 -0.1026
 5489SOL    HW127926   3.337   3.285   7.053 -0.0955  0.5285  0.0180
 5489SOL    HW227927   3.469   3.366   7.034 -0.7753  0.6586 -0.8510
 5490SOL     OW27928   3.505   1.570  11.210  0.0607  0.8298 -0.2776
 5490SOL    HW127929   3.435   1.634  11.224 -0.5649  0.0549  0.1738
 5490SOL    HW227930   3.577   1.628  11.185  0.0890  1.3150  0.9226
 5491SOL     OW27931   0.341   0.525   5.704 -0.1578  0.4312  0.4758
 5491SOL    HW127932   0.255   0.517   5.665 -0.5794  2.0023  1.0827
 5491SOL    HW227933   0.375   0.602   5.659 -0.0376  0.3879  0.4902
 5492SOL     OW27934   3.623   2.939   1.841  0.3626  0.3905  0.0312
 5492SOL    HW127935   3.545   2.886   1.857  1.0323 -1.3236 -2.3892
 5492SOL    HW227936   3.694   2.875   1.831  0.9300  1.1490 -0.8051
 5493SOL     OW27937   1.768   0.013   5.240 -0.1076 -0.1763  0.1432
 5493SOL    HW127938   1.797   4.681   5.168 -1.8406  0.4212 -1.0212
 5493SOL    HW227939   1.683   0.042   5.207  1.1533  2.4840 -0.8276
 5494SOL     OW27940   4.483   3.808   3.854 -0.4102  0.3587  0.3245
 5494SOL    HW127941   4.393   3.793   3.824 -0.4370 -1.0907  1.1442
 5494SOL    HW227942   4.527   3.731   3.817 -0.0412  0.1110  1.2797
 5495SOL     OW27943   3.517   3.191   2.833  0.1924 -0.8093  0.2630
 5495SOL    HW127944   3.435   3.186   2.784 -0.7585 -1.1950  1.9026
 5495SOL    HW227945   3.526   3.102   2.866 -0.4638 -1.6110 -1.7140
 5496SOL     OW27946   3.023   4.301  13.364 -0.0377 -0.4789  0.3493
 5496SOL    HW127947   3.032   4.264  13.452  0.3426  0.0952  0.5498
 5496SOL    HW227948   2.950   4.361  13.380 -0.6481 -1.1144 -0.0490
 5497SOL     OW27949   1.839   2.898  13.559 -0.0337  0.3443  0.2894
 5497SOL    HW127950   1.908   2.915  13.623  0.8854  1.7125 -1.0714
 5497SOL    HW227951   1.762   2.918  13.613  0.5480  0.8557  0.9289
 5498SOL     OW27952   3.525   1.928  13.192 -0.1301 -0.2051  0.1949
 5498SOL    HW127953   3.510   1.917  13.099  0.5615  0.5990 -0.0091
 5498SOL    HW227954   3.613   1.965  13.193 -0.0958 -0.2975  1.7902
 5499SOL     OW27955   0.604   3.617   5.630  0.2939  0.0991 -0.0482
 5499SOL    HW127956   0.597   3.522   5.638 -0.8864  0.1629 -0.2596
 5499SOL    HW227957   0.699   3.629   5.622  0.2744  0.6582  0.5811
 5500SOL     OW27958   3.014   2.479   8.234 -0.1670 -0.1086 -0.6167
 5500SOL    HW127959   2.933   2.526   8.253  0.5148  1.1962 -1.0162
 5500SOL    HW227960   3.075   2.504   8.304 -1.1562  1.6108 -0.3857
 5501SOL     OW27961   1.789   2.184  16.967 -0.6297 -0.0490  0.3501
 5501SOL    HW127962   1.863   2.141  17.011 -0.2054  0.0584 -0.2664
 5501SOL    HW227963   1.784   2.271  17.007  0.5069  0.7165 -1.1697
 5502SOL     OW27964   2.093   2.789   8.701  0.0640  0.4864 -0.2252
 5502SOL    HW127965   2.071   2.697   8.711  2.3950  0.0628  1.0340
 5502SOL    HW227966   2.004   2.824   8.703  0.0213  0.1909  2.6637
 5503SOL     OW27967   2.625   0.635   5.002 -0.2468  0.0132 -0.4646
 5503SOL    HW127968   2.635   0.695   5.076 -2.7616  0.4172 -0.4321
 5503SOL    HW227969   2.538   0.662   4.972  0.1522 -0.0713 -1.6661
 5504SOL     OW27970   2.968   4.120   4.529  0.4529  0.0704 -0.3047
 5504SOL    HW127971   3.046   4.174   4.538 -0.6408  1.8868 -1.7298
 5504SOL    HW227972   2.917   4.155   4.456 -0.6537 -1.8999 -0.5052
 5505SOL     OW27973   4.185   2.992   2.580 -0.1990  0.4771 -0.0567
 5505SOL    HW127974   4.214   2.993   2.488 -2.3641  2.4356 -0.7250
 5505SOL    HW227975   4.096   2.963   2.556  0.1890 -0.6843 -0.1016
 5506SOL     OW27976   3.281   1.962   0.465 -0.7157  0.1285  0.1795
 5506SOL    HW127977   3.328   2.042   0.489  1.2780 -1.1258  0.4456
 5506SOL    HW227978   3.217   1.989   0.398 -1.5281 -0.8094  0.5836
 5507SOL     OW27979   3.798   1.489   0.656  0.2054  0.6365  0.8421
 5507SOL    HW127980   3.703   1.498   0.660  0.1020 -0.7413  1.6790
 5507SOL    HW227981   3.811   1.419   0.591  0.0610 -0.5774  2.1100
 5508SOL     OW27982   3.933   4.503   5.035  0.2063  0.6120 -0.5327
 5508SOL    HW127983   3.846   4.472   5.060  0.6478  0.7213  1.1437
 5508SOL    HW227984   3.995   4.474   5.102 -1.7024  0.7412  1.3027
 5509SOL     OW27985   4.636   2.202   6.973 -0.0165  0.0184  0.0238
 5509SOL    HW127986   4.575   2.134   7.000  0.1608 -0.0174  0.3255
 5509SOL    HW227987   4.695   2.212   7.048 -1.1322  1.7972  0.6801
 5510SOL     OW27988   4.574   2.447  16.331  0.0557 -0.7371  0.1910
 5510SOL    HW127989   4.579   2.354  16.357  0.2403 -0.6697  0.3983
 5510SOL    HW227990   4.617   2.440  16.246  1.4990  2.5785  0.6608
 5511SOL     OW27991   1.715   3.712   8.191  0.1476  0.4088 -0.2221
 5511SOL    HW127992   1.746   3.653   8.123  0.9879  2.6040 -1.7464
 5511SOL    HW227993   1.798   3.738   8.230  1.1676 -0.4699 -1.8338
 5512SOL     OW27994   4.365   2.473  14.209 -0.0419  0.6302  0.1203
 5512SOL    HW127995   4.343   2.563  14.184 -0.9264 -0.6120 -3.5308
 5512SOL    HW227996   4.333   2.424  14.133 -3.5416  1.4739  1.0518
 5513SOL     OW27997   2.449   4.581  12.215  0.0719 -0.1136 -0.0439
 5513SOL    HW127998   2.537   4.551  12.191 -0.2775 -1.2715  0.1220
 5513SOL    HW227999   2.445   4.559  12.308  0.0860  0.8876  0.1911
 5514SOL     OW28000   0.815   1.897  15.100 -0.7187 -0.3787 -0.3347
 5514SOL    HW128001   0.874   1.822  15.091  1.7952  1.5606 -0.1069
 5514SOL    HW228002   0.808   1.908  15.006  0.7459 -2.1146 -0.6452
 5515SOL     OW28003   1.380   4.159   9.058 -0.1139  0.1066 -0.1823
 5515SOL    HW128004   1.419   4.123   9.137  0.3962 -1.7577 -1.2891
 5515SOL    HW228005   1.349   4.081   9.011  0.3154  0.6142 -1.3226
 5516SOL     OW28006   3.445   4.327   7.399  0.4244  0.2360 -0.1808
 5516SOL    HW128007   3.443   4.232   7.384  0.1801  0.2680 -0.3577
 5516SOL    HW228008   3.419   4.330   7.491 -0.5243 -0.8841 -0.4144
 5517SOL     OW28009   0.170   4.390  15.677  0.0185 -0.3358  0.2626
 5517SOL    HW128010   0.182   4.445  15.754 -0.7074 -0.8776  0.7634
 5517SOL    HW228011   0.077   4.367  15.685 -0.3083  0.9374  0.1378
 5518SOL     OW28012   3.520   2.283   3.803 -0.4475 -0.4665  0.0716
 5518SOL    HW128013   3.516   2.379   3.801 -3.9808 -0.6040 -0.4174
 5518SOL    HW228014   3.437   2.255   3.843  0.7412 -2.2074  1.3077
 5519SOL     OW28015   3.868   4.158   1.827  0.0339  0.5387 -0.2725
 5519SOL    HW128016   3.910   4.077   1.799 -0.0657  0.5216 -0.3707
 5519SOL    HW228017   3.864   4.138   1.921  1.8793 -1.4720 -0.6226
 5520SOL     OW28018   2.469   3.565   4.735  0.5599 -0.2053 -0.1902
 5520SOL    HW128019   2.549   3.586   4.783  0.2746  1.9703 -0.6802
 5520SOL    HW228020   2.410   3.537   4.805  2.6256 -0.9219  1.2681
 5521SOL     OW28021   2.275   0.594   8.668  0.8609  0.4197  0.1745
 5521SOL    HW128022   2.235   0.556   8.746 -0.2224  1.9125  0.3453
 5521SOL    HW228023   2.342   0.645   8.714  0.9604  0.8613 -0.4467
 5522SOL     OW28024   4.295   0.989  12.894 -0.0760 -0.6576  0.5343
 5522SOL    HW128025   4.247   0.995  12.811  1.6333  0.0278 -0.4084
 5522SOL    HW228026   4.384   0.989  12.857  0.7989  1.8328  2.6847
 5523SOL     OW28027   0.984   4.383   2.910 -0.3611 -0.1419  0.2554
 5523SOL    HW128028   0.927   4.316   2.946 -0.4213 -0.6625 -0.8050
 5523SOL    HW228029   0.932   4.436   2.850  0.9389  1.2751  0.3598
 5524SOL     OW28030   0.908   0.513   7.040 -0.0532  0.1091  0.1920
 5524SOL    HW128031   0.850   0.535   6.967  1.7887  1.6298 -0.8354
 5524SOL    HW228032   0.863   0.540   7.120  0.7756  1.7454  0.1186
 5525SOL     OW28033   0.584   4.445   5.231  0.0715 -0.2072 -0.2977
 5525SOL    HW128034   0.580   4.512   5.163  2.2974  3.3889  3.1219
 5525SOL    HW228035   0.565   4.492   5.313  1.2357  1.2306 -0.8589
 5526SOL     OW28036   3.987   2.109   3.986 -0.2090 -0.0593  0.1742
 5526SOL    HW128037   3.949   2.026   3.956  0.2648  0.3473 -1.5649
 5526SOL    HW228038   4.069   2.110   3.937  0.7588 -2.6311  1.7405
 5527SOL     OW28039   2.472   2.124   6.681 -0.2127 -0.1882  0.6618
 5527SOL    HW128040   2.444   2.155   6.594  0.2695 -0.9874  0.2202
 5527SOL    HW228041   2.445   2.033   6.667  1.4879 -0.6054 -0.0010
 5528SOL     OW28042   4.326   2.432   8.915  0.2051  0.8134 -0.2380
 5528SOL    HW128043   4.355   2.344   8.892 -1.6919 -0.1429  0.9894
 5528SOL    HW228044   4.395   2.496   8.898  1.0349  0.2677  1.1303
 5529SOL     OW28045   3.596   3.347   5.817  0.5159  0.2937 -0.6916
 5529SOL    HW128046   3.611   3.252   5.812  1.2899  0.4151 -0.6615
 5529SOL    HW228047   3.610   3.354   5.912  2.3176  0.1664 -0.9400
 5530SOL     OW28048   0.810   4.284   3.302  0.5043 -0.1571  0.6721
 5530SOL    HW128049   0.893   4.239   3.319  0.6651 -0.1517 -0.0894
 5530SOL    HW228050   0.750   4.229   3.352  0.6672  0.2537  1.3099
 5531SOL     OW28051   3.202   1.300   2.954 -0.0835  0.2828  0.3579
 5531SOL    HW128052   3.135   1.252   2.905 -0.2141  1.4730 -0.6200
 5531SOL    HW228053   3.269   1.308   2.887 -0.8127  0.6729 -0.3222
 5532SOL     OW28054   2.546   3.886   7.774  0.0364  0.3057 -0.5529
 5532SOL    HW128055   2.473   3.908   7.716 -1.3770 -0.5909  0.8868
 5532SOL    HW228056   2.520   3.939   7.850  2.7058 -1.0967  1.3022
 5533SOL     OW28057   4.352   2.941  13.147  0.1069  0.3367  0.2487
 5533SOL    HW128058   4.359   3.024  13.101 -0.3625 -0.5176 -1.3834
 5533SOL    HW228059   4.440   2.909  13.129 -1.2660 -1.4484 -3.1957
 5534SOL     OW28060   2.759   2.921   2.471 -0.5827 -0.6459  0.1205
 5534SOL    HW128061   2.716   2.842   2.439 -1.7916 -1.2643  3.3281
 5534SOL    HW228062   2.686   2.979   2.492  0.0298 -0.1835  0.9991
 5535SOL     OW28063   0.997   4.251  16.185  0.3588 -0.0302  0.1772
 5535SOL    HW128064   1.006   4.158  16.205 -0.6594 -0.3923 -1.0510
 5535SOL    HW228065   1.007   4.267  16.091  1.0315  0.2949  0.3083
 5536SOL     OW28066   2.180   0.122  15.083 -0.3995 -0.2134 -0.0763
 5536SOL    HW128067   2.125   0.150  15.010  1.4463 -0.8362 -1.6869
 5536SOL    HW228068   2.235   0.199  15.099  1.3724 -1.2161 -1.4820
 5537SOL     OW28069   4.098   3.098   9.301 -0.7164 -0.1819 -0.4650
 5537SOL    HW128070   4.132   3.047   9.375  0.3032  2.5729  0.9754
 5537SOL    HW228071   4.170   3.095   9.238 -1.9926  0.2072 -1.9341
 5538SOL     OW28072   3.850   0.073  14.924 -0.4107  0.4829  0.1844
 5538SOL    HW128073   3.913   0.028  14.868 -0.4579 -1.9245  2.0807
 5538SOL    HW228074   3.829   0.010  14.993 -1.9820  0.4746 -0.3036
 5539SOL     OW28075   1.897   3.144  15.554  0.5740  0.0381 -0.2877
 5539SOL    HW128076   1.895   3.155  15.459 -0.0191 -1.8618 -0.4997
 5539SOL    HW228077   1.992   3.141  15.569  0.4626 -1.5517  0.1760
 5540SOL     OW28078   3.998   2.098   1.751  0.1561  0.0258  0.3052
 5540SOL    HW128079   4.052   2.176   1.753 -0.5386  0.4904  0.7717
 5540SOL    HW228080   3.920   2.138   1.788 -0.1824 -1.7561  1.5237
 5541SOL     OW28081   2.735   3.957   9.734 -0.1262  0.3531  0.0323
 5541SOL    HW128082   2.642   3.973   9.747  0.5058  1.8390  2.7845
 5541SOL    HW228083   2.771   4.046   9.724 -0.6709  0.7623  1.6905
 5542SOL     OW28084   2.608   3.821   2.216 -0.0842  0.0040 -0.4086
 5542SOL    HW128085   2.584   3.823   2.124 -0.3719 -0.6516 -0.3481
 5542SOL    HW228086   2.678   3.756   2.216  1.2221  1.3908  1.0776
 5543SOL     OW28087   1.955   0.842  15.304 -0.6272 -0.6357 -0.1585
 5543SOL    HW128088   1.927   0.833  15.213 -0.8713 -0.2002 -0.1247
 5543SOL    HW228089   2.046   0.867  15.289 -1.7547  4.2076  1.0768
 5544SOL     OW28090   1.743   3.703   2.228  0.1260  0.3701  0.3123
 5544SOL    HW128091   1.834   3.703   2.197 -1.0586 -0.7458 -3.2058
 5544SOL    HW228092   1.706   3.673   2.145  0.1915 -0.6943  0.6550
 5545SOL     OW28093   4.127   4.612  16.166 -0.4430 -0.3078  0.3198
 5545SOL    HW128094   4.202   4.671  16.165  1.0617 -2.2374 -0.8592
 5545SOL    HW228095   4.145   4.578  16.254  0.5378 -0.9699 -0.1297
 5546SOL     OW28096   4.567   2.676   5.864  0.4362  0.1727 -0.7842
 5546SOL    HW128097   4.539   2.589   5.893 -1.4069  1.1980  0.5354
 5546SOL    HW228098   4.632   2.699   5.930 -1.6721  0.8187  1.0748
 5547SOL     OW28099   0.177   2.556   7.091 -0.2338  0.1141  0.3708
 5547SOL    HW128100   0.181   2.626   7.025  1.2634 -0.3534 -0.0425
 5547SOL    HW228101   0.207   2.491   7.027 -1.7324 -1.1864  1.0213
 5548SOL     OW28102   0.844   2.425   4.631 -0.1194  0.6116  0.1820
 5548SOL    HW128103   0.867   2.333   4.620 -1.4737  0.2108  0.7215
 5548SOL    HW228104   0.830   2.458   4.542 -1.0509 -1.2270 -0.3520
 5549SOL     OW28105   0.416   4.341   0.550  0.1829 -0.3748 -0.6588
 5549SOL    HW128106   0.458   4.277   0.493 -1.8553 -2.2284 -0.1074
 5549SOL    HW228107   0.337   4.292   0.573  1.0721 -0.3101  2.4932
 5550SOL     OW28108   1.867   2.272   6.663 -0.0417  0.2317  0.1484
 5550SOL    HW128109   1.919   2.324   6.601  0.0502  2.3065  1.9792
 5550SOL    HW228110   1.944   2.232   6.703 -0.6167  0.1310  1.1279
 5551SOL     OW28111   0.449   0.081   7.711 -0.4375 -0.1960  0.4208
 5551SOL    HW128112   0.354   0.087   7.713 -0.5347 -0.9722 -1.3190
 5551SOL    HW228113   0.461   0.111   7.620 -0.1953  3.0055  1.5092
 5552SOL     OW28114   3.074   1.127   7.644 -0.4738  0.1927  0.8097
 5552SOL    HW128115   3.120   1.197   7.690 -1.1833  0.1176  1.6480
 5552SOL    HW228116   3.145   1.073   7.608 -0.5348  1.7282 -1.6273
 5553SOL     OW28117   0.225   2.188   2.129 -0.1722 -1.0184  0.4203
 5553SOL    HW128118   0.241   2.124   2.059 -3.1332 -0.4849 -0.7474
 5553SOL    HW228119   0.133   2.212   2.121  0.7125  1.1165 -3.4665
 5554SOL     OW28120   0.375   0.367   5.206 -0.1439 -0.5789 -0.2847
 5554SOL    HW128121   0.425   0.442   5.239  0.7450 -1.2567 -0.1061
 5554SOL    HW228122   0.439   0.306   5.172 -0.4853 -0.5334 -1.0276
 5555SOL     OW28123   2.267   1.063  14.981 -0.1670 -0.8042 -0.6182
 5555SOL    HW128124   2.360   1.061  15.006  0.2428  4.2960 -1.8088
 5555SOL    HW228125   2.275   1.017  14.897  1.1167  0.6794 -1.3108
 5556SOL     OW28126   2.287   2.388   7.506 -0.0429 -0.2574  0.1591
 5556SOL    HW128127   2.290   2.483   7.520 -3.4582 -0.1515  0.1535
 5556SOL    HW228128   2.351   2.367   7.438 -0.4105 -0.8468 -0.0066
 5557SOL     OW28129   3.015   3.039   7.275 -0.8127 -0.1834 -0.7908
 5557SOL    HW128130   2.963   3.094   7.216 -0.3758 -0.5582 -1.5350
 5557SOL    HW228131   3.086   3.012   7.216  1.6142  0.7263  1.6861
 5558SOL     OW28132   1.007   1.996   2.703 -0.1846 -0.2690  0.1760
 5558SOL    HW128133   1.057   1.962   2.777 -0.6972  1.2096  1.2052
 5558SOL    HW228134   0.932   2.039   2.745 -0.0534  0.2091 -0.0782
 5559SOL     OW28135   0.080   1.336   5.251  0.3290  0.1597 -0.5952
 5559SOL    HW128136   0.110   1.306   5.165  1.0755 -0.0787 -0.2497
 5559SOL    HW228137   0.156   1.302   5.298 -1.2773 -0.8963  1.2164
 5560SOL     OW28138   4.715   2.258  10.387 -0.0543 -0.0370  0.2798
 5560SOL    HW128139   4.631   2.229  10.351  0.0804 -0.1310  0.0462
 5560SOL    HW228140   0.045   2.257  10.308  0.0824  3.1250  0.3331
 5561SOL     OW28141   0.231   3.264  12.053  0.3529 -0.3373 -0.3715
 5561SOL    HW128142   0.173   3.288  12.124 -0.6098  1.3063 -1.7016
 5561SOL    HW228143   0.311   3.265  12.106 -1.9018  0.4354  3.0175
 5562SOL     OW28144   2.683   2.841   4.443 -0.3620  0.4170 -0.2654
 5562SOL    HW128145   2.767   2.847   4.398 -0.5635  0.1317 -0.6666
 5562SOL    HW228146   2.637   2.907   4.391  0.9632  1.9376  0.4500
 5563SOL     OW28147   0.615   1.111   2.559 -0.3797 -0.1923  0.0373
 5563SOL    HW128148   0.647   1.026   2.591  0.5989  0.4098  0.6625
 5563SOL    HW228149   0.562   1.069   2.492 -1.5013 -2.2807  2.2207
 5564SOL     OW28150   2.080   3.627   4.621 -0.4488  0.0475 -0.3749
 5564SOL    HW128151   2.007   3.634   4.683 -0.5774  3.1241 -0.8745
 5564SOL    HW228152   2.148   3.686   4.654 -1.0579  0.9817 -0.7830
 5565SOL     OW28153   1.509   1.799  14.379  0.3039 -0.2211 -0.1488
 5565SOL    HW128154   1.472   1.840  14.301 -2.5206 -0.4435  1.0933
 5565SOL    HW228155   1.490   1.706  14.364 -0.1450  0.1272 -1.7607
 5566SOL     OW28156   2.993   1.197   8.409 -0.3141  0.6425 -0.5005
 5566SOL    HW128157   2.930   1.177   8.479  2.0849 -0.2520  1.4074
 5566SOL    HW228158   2.960   1.162   8.326  2.7412  0.3675 -1.6046
 5567SOL     OW28159   0.054   1.724  14.773  0.8117 -0.4753 -0.1292
 5567SOL    HW128160   0.142   1.713  14.738  0.9022  2.4237 -0.7897
 5567SOL    HW228161   0.061   1.788  14.843 -0.9343  0.4488 -0.7924
 5568SOL     OW28162   0.015   1.953   3.266 -0.0126  0.3727 -0.5000
 5568SOL    HW128163   0.014   2.049   3.275  1.5387  0.3229  0.1129
 5568SOL    HW228164   4.668   1.927   3.326 -1.4119  0.2273 -2.1928
 5569SOL     OW28165   3.928   2.905   9.515  0.0845  0.2948  0.3437
 5569SOL    HW128166   3.992   2.943   9.575  0.1200 -0.7233  0.9491
 5569SOL    HW228167   3.852   2.900   9.573 -0.0684 -1.4062 -0.0007
 5570SOL     OW28168   0.433   4.139  12.821 -0.2332  0.9466  0.2052
 5570SOL    HW128169   0.471   4.079  12.885 -1.8751  0.4712  0.7327
 5570SOL    HW228170   0.492   4.214  12.816  1.8856 -0.6922  0.4237
 5571SOL     OW28171   0.857   0.732   8.410 -0.2829  0.0076  0.3771
 5571SOL    HW128172   0.943   0.738   8.452  0.3992 -0.5922 -0.9283
 5571SOL    HW228173   0.861   0.636   8.415 -2.2078 -0.0883  0.0534
 5572SOL     OW28174   4.359   2.470   5.083 -0.2970  0.7490 -0.1806
 5572SOL    HW128175   4.269   2.487   5.054 -1.2939 -2.1359  1.1343
 5572SOL    HW228176   4.408   2.545   5.050  0.0901  0.3189 -0.5751
 5573SOL     OW28177   1.398   0.342  17.492  0.4638 -0.1451  0.3688
 5573SOL    HW128178   1.475   0.399  17.489  2.7389 -3.3009 -0.2632
 5573SOL    HW228179   1.382   0.328  17.399 -0.0079  0.8090  0.3037
 5574SOL     OW28180   2.222   0.593   7.520  0.0216  0.1774  0.1677
 5574SOL    HW128181   2.130   0.577   7.497 -0.4554 -0.9093  2.8065
 5574SOL    HW228182   2.219   0.685   7.546 -2.1655 -0.4738  2.1573
 5575SOL     OW28183   1.590   3.313   7.459  0.3254 -0.4638  0.3593
 5575SOL    HW128184   1.532   3.375   7.415 -1.6401 -1.0583  2.0829
 5575SOL    HW228185   1.575   3.337   7.551  2.8199  0.3376  0.5489
 5576SOL     OW28186   2.381   2.438  13.452  0.5215  0.2499  0.9190
 5576SOL    HW128187   2.315   2.507  13.447  1.6108  1.2343  0.4128
 5576SOL    HW228188   2.389   2.407  13.542 -1.0232 -0.5780  0.7766
 5577SOL     OW28189   4.120   4.003   9.724  0.0931  0.1285  0.8485
 5577SOL    HW128190   4.116   4.027   9.632 -0.8326  0.4580  0.9765
 5577SOL    HW228191   4.090   3.912   9.717 -0.9539  0.2690  3.2759
 5578SOL     OW28192   2.253   2.845  12.668  0.4174 -0.2506 -0.1965
 5578SOL    HW128193   2.189   2.798  12.614 -0.0828 -1.9018  1.8525
 5578SOL    HW228194   2.261   2.779  12.737 -1.9118  1.8292  2.0262
 5579SOL     OW28195   1.947   2.633   9.328 -0.4259 -0.2741 -0.3284
 5579SOL    HW128196   1.851   2.630   9.329 -0.4748 -0.1312 -2.9528
 5579SOL    HW228197   1.968   2.627   9.234  0.2042 -1.3264 -0.1209
 5580SOL     OW28198   3.916   2.060  14.620  0.2639  0.1248 -0.3203
 5580SOL    HW128199   3.994   2.049  14.566 -0.5171 -1.7500 -1.0642
 5580SOL    HW228200   3.914   2.156  14.628 -1.1732 -0.1155  2.2606
 5581SOL     OW28201   3.676   2.485   6.088 -0.4585  0.0921 -0.1891
 5581SOL    HW128202   3.650   2.423   6.019 -0.2573 -0.8434  0.5740
 5581SOL    HW228203   3.592   2.510   6.126 -0.1048 -0.8962  1.2525
 5582SOL     OW28204   1.252   0.796   4.308  0.2086 -0.0939  0.6700
 5582SOL    HW128205   1.288   0.881   4.283  2.0096 -0.8830  0.6457
 5582SOL    HW228206   1.281   0.739   4.238  1.3049  0.1816  0.9051
 5583SOL     OW28207   1.124   1.809  14.205  0.2990 -0.5922  0.3756
 5583SOL    HW128208   1.054   1.801  14.269  1.0255 -0.2404  1.2078
 5583SOL    HW228209   1.164   1.722  14.207 -1.1936 -1.3324 -2.4224
 5584SOL     OW28210   1.910   0.297   7.346  0.3166  0.1110 -0.1503
 5584SOL    HW128211   1.854   0.220   7.357 -0.3604  0.7787  1.0473
 5584SOL    HW228212   1.993   0.254   7.370  0.4338  1.1891  1.4069
 5585SOL     OW28213   2.446   2.389  14.588 -1.0863  0.3760 -0.6216
 5585SOL    HW128214   2.423   2.358  14.501  0.7813 -0.5609 -0.7965
 5585SOL    HW228215   2.482   2.477  14.572  1.4037 -0.3278  0.9618
 5586SOL     OW28216   4.287   0.351  12.455 -0.0982  0.0708  0.1862
 5586SOL    HW128217   4.331   0.297  12.520 -2.1921 -1.0858  0.6500
 5586SOL    HW228218   4.354   0.419  12.446 -1.7733  1.3002 -3.1954
 5587SOL     OW28219   1.763   3.307   4.922  0.7211 -0.1209  0.1341
 5587SOL    HW128220   1.711   3.295   4.842  0.3287 -1.6571  0.6319
 5587SOL    HW228221   1.789   3.217   4.940  0.8458 -0.2336 -0.5948
 5588SOL     OW28222   2.364   3.732   1.075  0.1300 -0.1428  0.1589
 5588SOL    HW128223   2.310   3.810   1.089  1.7283  0.7827  1.1646
 5588SOL    HW228224   2.335   3.680   1.150  0.4482  0.0992  0.4508
 5589SOL     OW28225   3.723   4.020   6.052 -0.2294  0.4132  0.2294
 5589SOL    HW128226   3.815   4.000   6.038 -0.6228 -0.7888 -0.6399
 5589SOL    HW228227   3.705   4.080   5.979  2.6920  0.4153 -0.4795
 5590SOL     OW28228   2.557   0.054   5.258 -0.3330 -0.4706  0.2685
 5590SOL    HW128229   2.514   4.712   5.312  0.2847 -0.7574  0.4056
 5590SOL    HW228230   2.647   0.022   5.250 -0.7017 -1.3076 -0.4814
 5591SOL     OW28231   2.430   0.919   8.028  0.2903  0.2408 -0.0494
 5591SOL    HW128232   2.503   0.910   8.089  0.0181 -1.3131  0.0368
 5591SOL    HW228233   2.473   0.877   7.954  0.5908 -0.4127  0.4996
 5592SOL     OW28234   2.638   2.032   7.531  0.0220 -0.0762 -0.0036
 5592SOL    HW128235   2.654   2.124   7.551  0.6463 -0.3844  0.9142
 5592SOL    HW228236   2.618   2.042   7.438  0.6456 -1.7899 -0.3225
 5593SOL     OW28237   4.598   0.185  17.240  0.1153  0.9156  0.2645
 5593SOL    HW128238   4.595   0.097  17.277  0.0823  1.7234  2.1838
 5593SOL    HW228239   4.688   0.200  17.213  0.2418  1.8666  1.2202
 5594SOL     OW28240   3.886   1.230   0.795 -0.1315 -0.0369  0.1047
 5594SOL    HW128241   3.922   1.198   0.878  2.8686  0.1774 -1.0983
 5594SOL    HW228242   3.937   1.310   0.786  0.1556 -0.1137  1.1141
 5595SOL     OW28243   3.515   2.687   9.094 -0.2752  0.1076  0.2695
 5595SOL    HW128244   3.539   2.618   9.156 -2.4323 -1.1243 -0.2682
 5595SOL    HW228245   3.566   2.756   9.136 -0.7375  1.4972 -1.4373
 5596SOL     OW28246   3.779   0.058   6.494  0.2148 -0.4416 -0.0100
 5596SOL    HW128247   3.768   0.023   6.582  0.7512  0.9592  0.6030
 5596SOL    HW228248   3.873   0.052   6.481  0.0449 -1.3136 -0.9291
 5597SOL     OW28249   1.375   1.112   9.980  0.1170 -0.0376  0.1218
 5597SOL    HW128250   1.323   1.068  10.047  1.2452  0.7097  1.5064
 5597SOL    HW228251   1.336   1.199   9.979  1.0247  0.3795  0.5911
 5598SOL     OW28252   2.247   2.860   7.312  0.4611 -0.5470  0.1343
 5598SOL    HW128253   2.323   2.917   7.326 -0.4304  0.9006 -0.8974
 5598SOL    HW228254   2.282   2.774   7.285 -0.4368 -0.3891 -1.5546
 5599SOL     OW28255   0.446   0.127  15.362  0.2148  0.0561 -0.2588
 5599SOL    HW128256   0.420   0.048  15.409  1.0318  1.0833  1.9029
 5599SOL    HW228257   0.540   0.110  15.364  0.0026 -0.7722  2.1459
 5600SOL     OW28258   0.686   1.198   4.938  0.0489  0.0143 -0.4881
 5600SOL    HW128259   0.669   1.230   4.849  1.0312  1.3270 -0.2031
 5600SOL    HW228260   0.778   1.172   4.925 -0.2715 -1.5982  0.5096
 5601SOL     OW28261   0.959   2.247   1.210 -0.1182 -0.6874  0.1749
 5601SOL    HW128262   0.978   2.251   1.116  0.6146 -1.3337  0.2936
 5601SOL    HW228263   1.049   2.241   1.244  0.7279 -1.4354 -2.1929
 5602SOL     OW28264   4.343   4.455   4.083  0.3519 -0.3548  0.4119
 5602SOL    HW128265   4.260   4.464   4.036 -0.7154 -0.6521  2.2193
 5602SOL    HW228266   4.342   4.539   4.129 -0.8953  0.4427 -1.0746
 5603SOL     OW28267   1.768   2.888   7.206 -0.4191  0.4318  0.7529
 5603SOL    HW128268   1.776   2.904   7.300 -0.2470 -0.5262  0.8976
 5603SOL    HW228269   1.686   2.840   7.216  0.3070 -0.6676  1.4483
 5604SOL     OW28270   3.069   3.828  13.341 -0.0309  0.2457  0.0747
 5604SOL    HW128271   3.164   3.843  13.341 -0.0912  0.4928 -2.6076
 5604SOL    HW228272   3.040   3.887  13.411 -1.0005  2.4415 -2.1661
 5605SOL     OW28273   1.269   3.808   8.618 -0.4766 -0.2903 -0.1368
 5605SOL    HW128274   1.204   3.853   8.564 -1.2353 -1.0918  0.1157
 5605SOL    HW228275   1.207   3.756   8.669 -1.4587  1.9318  0.9151
 5606SOL     OW28276   0.653   2.927  13.261 -0.5097  0.5452 -0.4805
 5606SOL    HW128277   0.684   2.902  13.349 -0.8723 -0.7726 -0.7356
 5606SOL    HW228278   0.559   2.934  13.275 -0.3626  3.5555 -0.8528
 5607SOL     OW28279   3.567   3.876  12.605 -0.3413 -0.0018  0.1686
 5607SOL    HW128280   3.533   3.921  12.683 -1.4031 -0.5676  0.0426
 5607SOL    HW228281   3.488   3.874  12.550 -1.0992  1.3606  1.2084
 5608SOL     OW28282   0.874   2.334   5.984  0.3135 -0.3315 -0.0847
 5608SOL    HW128283   0.878   2.343   6.079 -1.6194  1.7218 -0.1988
 5608SOL    HW228284   0.934   2.404   5.963  1.2161 -0.5206  1.8395
 5609SOL     OW28285   4.340   3.519  15.308  0.4433 -0.4732 -0.1602
 5609SOL    HW128286   4.381   3.546  15.225 -0.9914  0.1588 -0.6675
 5609SOL    HW228287   4.333   3.605  15.349 -0.9020 -1.9902  2.7841
 5610SOL     OW28288   0.492   4.357   0.822  0.5062 -0.3862 -0.4249
 5610SOL    HW128289   0.484   4.376   0.729 -0.2720  0.5628 -0.1515
 5610SOL    HW228290   0.399   4.344   0.838  0.8304 -0.0570  1.6831
 5611SOL     OW28291   1.214   0.033  15.051 -0.5706 -0.1707 -0.0909
 5611SOL    HW128292   1.177   0.053  15.137 -0.6784  0.3058 -0.2473
 5611SOL    HW228293   1.307   0.035  15.070 -0.1765  1.8446 -2.2343
 5612SOL     OW28294   0.271   2.684  13.313  0.5622 -0.1084  0.1996
 5612SOL    HW128295   0.201   2.627  13.344 -0.7057  0.8230 -0.9678
 5612SOL    HW228296   0.302   2.651  13.229 -1.3479 -1.2235 -0.0553
 5613SOL     OW28297   0.280   2.160   8.280 -0.4753 -0.3583 -0.5352
 5613SOL    HW128298   0.192   2.142   8.246  0.0057 -2.5204 -0.6212
 5613SOL    HW228299   0.325   2.108   8.215  1.8472  0.5168  0.3817
 5614SOL     OW28300   1.268   0.857  13.961  0.1678 -0.5071 -0.2756
 5614SOL    HW128301   1.346   0.832  13.910  0.6502 -1.4178  0.9291
 5614SOL    HW228302   1.261   0.952  13.952 -1.3697 -0.5786  0.2285
 5615SOL     OW28303   4.133   3.869   1.997  0.3896  0.1709  0.4125
 5615SOL    HW128304   4.079   3.789   2.000  0.3665  0.2076  0.8994
 5615SOL    HW228305   4.184   3.868   2.078  1.1174 -0.3975 -0.0552
 5616SOL     OW28306   3.971   0.907  12.880  0.8578 -0.6165  0.2256
 5616SOL    HW128307   3.930   0.951  12.806 -4.7457 -1.7669  2.6568
 5616SOL    HW228308   4.052   0.900  12.829  1.5195 -1.6164  1.3942
 5617SOL     OW28309   1.452   0.943   7.278 -0.2481 -0.3671 -0.0542
 5617SOL    HW128310   1.382   0.997   7.240 -0.0023  1.4116  2.0138
 5617SOL    HW228311   1.512   1.010   7.310  1.1491 -2.7695  2.4490
 5618SOL     OW28312   2.850   2.025  11.055  0.0040  0.2346  0.5654
 5618SOL    HW128313   2.874   1.996  10.967 -0.8039  1.2416 -0.0066
 5618SOL    HW228314   2.889   2.113  11.056  0.5712 -0.0097 -0.1013
 5619SOL     OW28315   2.631   2.049  13.661 -0.2649  0.2469  0.2431
 5619SOL    HW128316   2.605   1.976  13.716 -1.3110  0.8423  0.5346
 5619SOL    HW228317   2.564   2.042  13.593  0.5963  1.0173 -0.7040
 5620SOL     OW28318   0.785   4.456  16.755  0.3813  0.6015 -0.8044
 5620SOL    HW128319   0.834   4.508  16.819 -0.4841  0.5441 -0.0981
 5620SOL    HW228320   0.850   4.385  16.748 -0.4816 -0.1843 -0.8314
 5621SOL     OW28321   4.232   4.068   3.083  0.1515  0.4338 -0.3324
 5621SOL    HW128322   4.238   4.156   3.047 -0.8807 -0.2930 -2.2590
 5621SOL    HW228323   4.250   4.087   3.175 -1.1150 -0.3341  0.0751
 5622SOL     OW28324   4.133   2.141   5.415  0.5236  0.1162  0.0776
 5622SOL    HW128325   4.222   2.176   5.405  0.7847 -0.7229 -0.5114
 5622SOL    HW228326   4.085   2.216   5.379 -0.0604 -1.0879 -1.6258
 5623SOL     OW28327   4.455   3.575  16.451 -0.2135 -0.5962 -0.0021
 5623SOL    HW128328   4.422   3.532  16.372 -0.5265  0.7678 -0.6220
 5623SOL    HW228329   4.549   3.579  16.434 -0.1070 -0.1770  0.6948
 5624SOL     OW28330   4.509   0.591  16.218 -0.4910  0.1061  0.0786
 5624SOL    HW128331   4.472   0.565  16.134  0.5488  1.6794 -0.8653
 5624SOL    HW228332   4.478   0.681  16.217 -0.3971  0.1794  2.4754
 5625SOL     OW28333   0.253   3.847   5.703  0.6825  0.4848 -0.4178
 5625SOL    HW128334   0.232   3.755   5.720  2.0023  0.0125 -1.2777
 5625SOL    HW228335   0.202   3.881   5.777  1.5684 -0.0637  0.4521
 5626SOL     OW28336   3.504   3.435   7.597  0.4288 -0.4026 -0.2778
 5626SOL    HW128337   3.494   3.530   7.599  0.6406 -0.4502  3.2329
 5626SOL    HW228338   3.584   3.425   7.650 -0.2200 -0.1208  0.7666
 5627SOL     OW28339   3.509   3.251   9.392 -0.7514 -0.2463 -0.3553
 5627SOL    HW128340   3.517   3.262   9.487  0.8454  1.9312 -0.7224
 5627SOL    HW228341   3.594   3.290   9.371 -0.4786 -0.9844 -0.6472
 5628SOL     OW28342   0.858   2.187   4.475  0.0792  0.0456  0.1361
 5628SOL    HW128343   0.859   2.156   4.384  1.6696 -0.2186  0.2430
 5628SOL    HW228344   0.950   2.168   4.488  0.3479 -0.8099 -2.8958
 5629SOL     OW28345   1.989   1.320   6.698 -0.1505  0.5009 -0.3115
 5629SOL    HW128346   1.969   1.387   6.633 -0.4961 -1.4502 -2.2293
 5629SOL    HW228347   1.958   1.238   6.658 -0.2004 -0.1498  1.0623
 5630SOL     OW28348   0.003   0.123   7.224 -0.1931 -0.8733  0.2889
 5630SOL    HW128349   4.643   0.119   7.176  1.3219  0.6576 -2.4928
 5630SOL    HW228350   4.722   0.194   7.288 -1.9492  2.1415 -3.1988
 5631SOL     OW28351   3.830   4.423   3.189  0.6246  0.1423  0.5610
 5631SOL    HW128352   3.897   4.359   3.163 -0.2210 -0.1532 -0.8795
 5631SOL    HW228353   3.783   4.359   3.242  0.9881 -1.6592 -1.2830
 5632SOL     OW28354   4.069   3.790  13.745 -0.1890  0.4404  0.4568
 5632SOL    HW128355   4.137   3.773  13.810 -0.2452 -1.3576  0.0507
 5632SOL    HW228356   4.035   3.705  13.717  2.6347 -0.9929  1.4157
 5633SOL     OW28357   2.756   2.192   4.855  0.2703 -0.1961  0.1110
 5633SOL    HW128358   2.713   2.240   4.784 -0.7124  1.0930  1.5765
 5633SOL    HW228359   2.694   2.132   4.896 -0.7710  3.4518  3.8298
 5634SOL     OW28360   4.122   1.809   2.188  0.5077  0.4535  0.1048
 5634SOL    HW128361   4.077   1.766   2.260  0.3329 -1.3215 -1.0511
 5634SOL    HW228362   4.215   1.786   2.196 -0.3198 -2.5410  0.8774
 5635SOL     OW28363   0.048   4.211   2.697 -0.3372 -0.1200  0.2250
 5635SOL    HW128364   4.713   4.246   2.631  0.6092  1.0587  0.0079
 5635SOL    HW228365   0.050   4.280   2.763  0.8231 -0.9450  1.0636
 5636SOL     OW28366   2.798   4.144   6.855 -0.0108 -0.3822  0.2159
 5636SOL    HW128367   2.750   4.061   6.862  1.0453 -0.8241  2.2210
 5636SOL    HW228368   2.884   4.114   6.826 -0.7272 -1.4494 -0.8027
 5637SOL     OW28369   1.707   3.106  15.330  0.3876  0.6323  0.5245
 5637SOL    HW128370   1.697   3.139  15.240 -0.4527 -0.7192  0.1210
 5637SOL    HW228371   1.625   3.058  15.340 -0.0333  0.5973 -2.9520
 5638SOL     OW28372   2.571   0.337  13.826  0.2879 -0.1917  0.2075
 5638SOL    HW128373   2.575   0.333  13.922  1.2504 -0.0242  0.1758
 5638SOL    HW228374   2.634   0.271  13.799  0.5683  0.2099 -0.1166
 5639SOL     OW28375   1.565   0.766   8.666  0.5333 -0.4439 -0.2881
 5639SOL    HW128376   1.607   0.852   8.663 -1.0847  0.3310 -0.5629
 5639SOL    HW228377   1.600   0.728   8.586 -1.4391 -2.0211 -0.3935
 5640SOL     OW28378   3.344   1.216  13.435 -0.0282  0.1718 -0.3007
 5640SOL    HW128379   3.408   1.230  13.504  2.0603  0.9645 -2.3837
 5640SOL    HW228380   3.354   1.280  13.364  0.0033 -0.4345 -0.8414
 5641SOL     OW28381   0.617   0.009   5.190  0.7332 -0.1188  0.4166
 5641SOL    HW128382   0.567   0.044   5.264 -1.8110  1.0697 -1.8391
 5641SOL    HW228383   0.702   0.048   5.208  0.2150  0.5366  1.4112
 5642SOL     OW28384   3.038   4.604   3.071  0.0906  0.0094  0.0903
 5642SOL    HW128385   2.952   4.566   3.091  0.3440  0.0115  1.1856
 5642SOL    HW228386   3.074   4.526   3.030  1.4623  0.7453 -0.0939
 5643SOL     OW28387   2.727   2.517   8.996  0.3201 -0.2345 -0.5252
 5643SOL    HW128388   2.694   2.430   8.974  0.0209 -0.0270 -0.8849
 5643SOL    HW228389   2.789   2.531   8.924 -1.5882  2.2240 -1.6686
 5644SOL     OW28390   1.697   3.171   4.182 -0.2853  0.5063 -0.0051
 5644SOL    HW128391   1.628   3.181   4.118 -0.4900  0.6508  0.2398
 5644SOL    HW228392   1.667   3.231   4.250 -1.3523  0.7589 -0.7150
 5645SOL     OW28393   1.460   0.844   4.603 -0.1485  0.5055 -0.4256
 5645SOL    HW128394   1.491   0.916   4.658 -0.8776  0.9554 -0.6129
 5645SOL    HW228395   1.518   0.849   4.527  0.2799 -0.5767 -0.1675
 5646SOL     OW28396   4.418   0.042  10.648  0.0649  0.1002 -0.0650
 5646SOL    HW128397   4.401   0.044  10.742  1.1565  0.3861  0.1345
 5646SOL    HW228398   4.377   4.686  10.616 -0.6388  1.1419 -1.7469
 5647SOL     OW28399   2.874   0.875   6.725  0.3712 -0.3494  0.6397
 5647SOL    HW128400   2.793   0.848   6.767 -0.3229  1.9244  0.7842
 5647SOL    HW228401   2.868   0.969   6.746  2.3163  0.2108 -1.3045
 5648SOL     OW28402   4.698   3.816   3.568  0.3658 -0.0183  0.0042
 5648SOL    HW128403   4.663   3.837   3.481  0.8633  0.4016 -0.1014
 5648SOL    HW228404   0.067   3.835   3.550  0.5054  0.9812  1.7566
 5649SOL     OW28405   0.419   4.562   1.083  0.1622 -0.4750 -0.2796
 5649SOL    HW128406   0.410   4.467   1.088  1.6270 -0.5604  0.7993
 5649SOL    HW228407   0.370   4.583   1.163 -0.1758  1.8473 -1.1170
 5650SOL     OW28408   4.671   4.080  11.861 -0.2003  0.1572  0.0165
 5650SOL    HW128409   4.579   4.093  11.838  0.1013 -0.0709 -1.3252
 5650SOL    HW228410   4.703   4.097  11.773  2.6851 -1.6105  0.7099
 5651SOL     OW28411   0.627   2.863   7.133  0.5129 -0.0632  0.3185
 5651SOL    HW128412   0.640   2.769   7.138 -0.1856 -0.1965 -0.2460
 5651SOL    HW228413   0.711   2.898   7.102  0.7588 -1.1853 -0.2745
 5652SOL     OW28414   4.373   0.780   8.453  0.1954 -0.0850  0.2726
 5652SOL    HW128415   4.423   0.756   8.376 -0.7447  0.2398 -0.4438
 5652SOL    HW228416   4.403   0.711   8.513  1.4335 -1.3431 -1.8142
 5653SOL     OW28417   0.396   1.838   8.483  0.2318  0.7962 -0.0701
 5653SOL    HW128418   0.373   1.766   8.542  1.0921  0.8670  0.3525
 5653SOL    HW228419   0.399   1.914   8.540 -1.8344 -0.0789  1.1882
 5654SOL     OW28420   0.796   3.344   9.753 -0.6260  0.2438  0.1998
 5654SOL    HW128421   0.858   3.404   9.713  0.0954 -1.1054 -0.7247
 5654SOL    HW228422   0.830   3.258   9.728  0.9793  0.6788  0.9370
 5655SOL     OW28423   2.529   1.209   3.494  0.3171  0.7081  0.2045
 5655SOL    HW128424   2.532   1.115   3.474 -0.7187  0.8574 -0.6628
 5655SOL    HW228425   2.613   1.237   3.529  0.9865 -0.7856 -0.1998
 5656SOL     OW28426   1.053   2.883   1.927  0.2899 -0.2637 -0.6554
 5656SOL    HW128427   1.074   2.896   2.020  0.8644  0.2352 -0.8527
 5656SOL    HW228428   1.018   2.794   1.930 -0.6329  0.1708  1.5495
 5657SOL     OW28429   0.269   2.006   2.347 -0.0420 -0.4131 -0.2205
 5657SOL    HW128430   0.329   1.985   2.275 -0.6282  0.5141 -0.9697
 5657SOL    HW228431   0.204   2.066   2.311  2.9052  2.1188 -1.3429
 5658SOL     OW28432   4.230   3.941   6.003  0.1779 -0.0613  0.0291
 5658SOL    HW128433   4.289   3.954   6.077 -0.6929 -0.0803  0.7300
 5658SOL    HW228434   4.236   3.847   5.985 -1.1209  0.0525 -1.0447
 5659SOL     OW28435   3.563   2.299   5.913  0.2557  0.2070  0.2629
 5659SOL    HW128436   3.544   2.307   5.820  1.1259 -1.3405 -0.0437
 5659SOL    HW228437   3.626   2.228   5.915 -0.5007 -0.4674 -0.0404
 5660SOL     OW28438   2.834   3.219   9.057  0.0207 -0.0796 -0.4315
 5660SOL    HW128439   2.826   3.314   9.055 -0.3329 -0.1420 -2.3715
 5660SOL    HW228440   2.825   3.195   8.964 -0.5826 -3.3836  0.4943
 5661SOL     OW28441   1.879   4.644   7.034  0.0916  0.1001 -0.5990
 5661SOL    HW128442   1.947   4.638   7.101 -2.1216 -0.5019  1.6117
 5661SOL    HW228443   1.921   4.609   6.956 -1.6463  1.7005 -2.2638
 5662SOL     OW28444   0.114   4.090   7.042 -0.8573  0.2067 -0.1905
 5662SOL    HW128445   0.023   4.115   7.051 -1.1036 -0.5618 -0.5276
 5662SOL    HW228446   0.135   4.056   7.129 -1.6244  1.2035  0.3787
 5663SOL     OW28447   1.116   2.213   1.610  0.6123 -0.0755 -0.2615
 5663SOL    HW128448   1.161   2.208   1.526  1.5052 -1.7213  0.3239
 5663SOL    HW228449   1.023   2.230   1.592  0.9734  2.3602  0.1959
 5664SOL     OW28450   1.932   1.495   5.419  0.2600 -0.0174  0.6391
 5664SOL    HW128451   1.926   1.407   5.383  1.3426  1.6238 -3.5753
 5664SOL    HW228452   2.004   1.486   5.480  1.2450  0.2128 -0.4871
 5665SOL     OW28453   2.494   1.398   0.822  0.3771  0.8029 -0.1147
 5665SOL    HW128454   2.428   1.403   0.752  1.8485  0.6570 -1.5120
 5665SOL    HW228455   2.481   1.478   0.872 -2.6140  0.2289  0.0401
 5666SOL     OW28456   1.007   0.586  12.920 -0.2061 -0.2206 -0.6072
 5666SOL    HW128457   1.048   0.615  12.838 -2.1007 -0.3616 -1.6016
 5666SOL    HW228458   1.052   0.637  12.987 -2.1280  0.3301  0.2833
 5667SOL     OW28459   3.303   3.820   6.854 -0.1688  0.3697  0.2808
 5667SOL    HW128460   3.393   3.852   6.858  0.8274 -2.3640 -0.4223
 5667SOL    HW228461   3.263   3.861   6.931 -1.2972  0.0398 -0.1261
 5668SOL     OW28462   1.083   1.213  12.757  0.2183 -0.1076  0.2527
 5668SOL    HW128463   1.140   1.179  12.826 -0.4677 -1.0672  0.3422
 5668SOL    HW228464   0.997   1.188  12.791 -0.2534 -0.4823 -1.2271
 5669SOL     OW28465   3.040   3.072   8.334 -0.1625 -0.5598  0.3563
 5669SOL    HW128466   3.073   3.033   8.253  1.0552  0.6547  0.2749
 5669SOL    HW228467   2.993   2.996   8.369  1.7172 -2.2003 -0.7185
 5670SOL     OW28468   3.566   3.131   2.055 -0.3630 -0.0927 -0.2253
 5670SOL    HW128469   3.612   3.073   1.995 -0.4644 -0.0965 -0.2987
 5670SOL    HW228470   3.593   3.208   2.005  0.0567 -1.8211 -2.6068
 5671SOL     OW28471   1.115   0.879  15.507  0.5145  0.1174  0.4627
 5671SOL    HW128472   1.187   0.871  15.444  0.9814 -2.2191  1.3080
 5671SOL    HW228473   1.117   0.793  15.549 -0.4782 -0.5195 -0.8064
 5672SOL     OW28474   2.755   3.489   6.654 -0.0814  0.5542  0.3278
 5672SOL    HW128475   2.749   3.458   6.745  4.7163 -0.7851  0.1898
 5672SOL    HW228476   2.667   3.527   6.648 -0.1679 -0.1265 -2.5957
 5673SOL     OW28477   2.118   3.145   9.342  0.0175  0.0027 -0.0780
 5673SOL    HW128478   2.084   3.070   9.294 -0.2323  0.4381 -0.5872
 5673SOL    HW228479   2.097   3.121   9.432  2.6406  2.0301  1.0706
 5674SOL     OW28480   4.655   2.861   5.475  0.4138  0.4307 -0.4374
 5674SOL    HW128481   4.688   2.797   5.413  1.1057 -0.3449  0.7424
 5674SOL    HW228482   4.631   2.932   5.415 -1.8369  0.1173  0.0744
 5675SOL     OW28483   0.793   2.928   1.460  0.3773  0.2246  0.2120
 5675SOL    HW128484   0.720   2.912   1.401  1.7245  0.4764 -1.4969
 5675SOL    HW228485   0.754   2.978   1.532  0.2753  1.0463 -0.4262
 5676SOL     OW28486   3.272   2.116   3.179  0.0919  0.7860  0.0941
 5676SOL    HW128487   3.324   2.113   3.259 -0.5419  1.1621  0.5226
 5676SOL    HW228488   3.292   2.028   3.150 -0.3429  1.1033 -1.1815
 5677SOL     OW28489   0.419   3.606  14.613  0.0939 -0.4620  0.1493
 5677SOL    HW128490   0.339   3.628  14.564  0.3040  0.8131  0.3814
 5677SOL    HW228491   0.377   3.580  14.695  0.1036  1.9541  0.9472
 5678SOL     OW28492   1.393   3.114   7.917  0.0681 -0.1846  0.1965
 5678SOL    HW128493   1.453   3.123   7.990 -1.5354 -1.4471  1.6904
 5678SOL    HW228494   1.447   3.068   7.852 -0.1865  0.3656 -0.4039
 5679SOL     OW28495   0.495   3.753   3.945 -0.2029  0.5168  0.2384
 5679SOL    HW128496   0.555   3.686   3.913 -1.2509 -0.2615 -0.1139
 5679SOL    HW228497   0.458   3.707   4.020  1.0413 -0.7472  0.0762
 5680SOL     OW28498   4.019   0.034   5.083  0.2310  0.4415  0.0297
 5680SOL    HW128499   4.109   0.004   5.077 -0.1810 -0.9054  0.5925
 5680SOL    HW228500   3.965   4.686   5.048  0.5320 -1.3555  3.2249
 5681SOL     OW28501   4.708   0.064   2.446 -0.1130 -0.1459  0.7111
 5681SOL    HW128502   4.624   0.087   2.486  0.1533  0.5468  0.8562
 5681SOL    HW228503   4.671   0.031   2.363 -0.8969 -0.2582  1.1002
 5682SOL     OW28504   2.556   2.257   5.237  0.0225  0.1219  0.1463
 5682SOL    HW128505   2.509   2.315   5.297  0.3969 -0.1150  0.6614
 5682SOL    HW228506   2.550   2.310   5.158 -1.2954 -1.1260 -0.6063
 5683SOL     OW28507   3.736   4.561   6.318 -0.3786  0.1306 -0.2803
 5683SOL    HW128508   3.802   4.494   6.334  1.9211  2.5488  0.2887
 5683SOL    HW228509   3.756   4.626   6.386 -0.8885 -2.3226  2.2322
 5684SOL     OW28510   2.660   2.892   6.470 -0.2250  0.4076  0.2792
 5684SOL    HW128511   2.710   2.817   6.439  2.7323  0.7303  4.3310
 5684SOL    HW228512   2.716   2.951   6.419  1.4611 -2.1687 -0.8642
 5685SOL     OW28513   4.716   1.130   5.530 -0.3361  0.0399  0.5161
 5685SOL    HW128514   4.665   1.058   5.567  0.0054  0.1753  1.2344
 5685SOL    HW228515   4.655   1.163   5.463  2.3936  0.8637 -1.5697
 5686SOL     OW28516   3.742   3.607   7.811  0.0021 -0.3801 -0.1634
 5686SOL    HW128517   3.791   3.598   7.730 -0.6563  0.9034 -0.7146
 5686SOL    HW228518   3.679   3.673   7.783 -0.1321 -0.5901 -0.3546
 5687SOL     OW28519   2.423   4.098   7.017  0.4021 -0.1934 -0.3547
 5687SOL    HW128520   2.432   4.172   6.957  0.2687  0.0907 -0.0204
 5687SOL    HW228521   2.423   4.136   7.104  2.3427 -1.4812  0.2118
 5688SOL     OW28522   2.933   3.965   0.597  0.3715  0.5328  0.1016
 5688SOL    HW128523   2.867   4.012   0.547  1.4911 -1.1528 -2.9154
 5688SOL    HW228524   2.878   3.937   0.670 -0.5842  1.4918 -0.2610
 5689SOL     OW28525   3.696   4.438   1.483 -0.2456  0.5040 -0.3170
 5689SOL    HW128526   3.629   4.443   1.414 -2.1571  1.9845  1.6656
 5689SOL    HW228527   3.763   4.495   1.447  1.5584 -1.2318  0.2796
 5690SOL     OW28528   0.124   4.310   5.491  0.3022  0.1312 -0.5676
 5690SOL    HW128529   0.068   4.340   5.563  0.8395  1.4263 -0.6906
 5690SOL    HW228530   0.192   4.377   5.486  1.1316 -0.7078 -0.5279
 5691SOL     OW28531   4.717   0.647   7.036  0.0643 -0.2342  0.0706
 5691SOL    HW128532   4.703   0.636   6.942 -1.6203 -1.3985  0.4596
 5691SOL    HW228533   4.647   0.596   7.075  0.7618 -2.0366 -1.0310
 5692SOL     OW28534   3.086   4.353   2.517  0.4885 -0.0471  0.4113
 5692SOL    HW128535   3.081   4.268   2.474 -0.6121  1.5839 -2.7237
 5692SOL    HW228536   3.077   4.414   2.444 -0.1197  1.3961  1.7000
 5693SOL     OW28537   0.698   2.322   0.551 -0.4655 -0.4217 -0.3500
 5693SOL    HW128538   0.678   2.316   0.645  3.1921  0.6646  0.4937
 5693SOL    HW228539   0.608   2.323   0.517 -1.3310  0.9086  1.9426
 5694SOL     OW28540   3.630   1.637   8.365  0.7906  0.2378  0.6011
 5694SOL    HW128541   3.582   1.555   8.369 -1.7836  1.7726  1.7909
 5694SOL    HW228542   3.574   1.694   8.313  3.9121  1.0274 -1.8954
 5695SOL     OW28543   4.144   4.439   7.682 -0.2591 -0.2778 -0.4159
 5695SOL    HW128544   4.050   4.455   7.678 -0.1369  0.8641  1.3526
 5695SOL    HW228545   4.170   4.485   7.762 -1.3320  0.8869 -0.7285
 5696SOL     OW28546   3.441   1.387   1.459  0.2870 -0.1753  0.2556
 5696SOL    HW128547   3.393   1.469   1.470 -0.8792 -0.6486 -1.3964
 5696SOL    HW228548   3.388   1.345   1.391 -0.4921 -2.1629  2.1128
 5697SOL     OW28549   0.461   3.151   4.947 -0.6591  0.3515  0.1500
 5697SOL    HW128550   0.429   3.062   4.961 -1.8407  0.7875  0.2201
 5697SOL    HW228551   0.421   3.212   5.009  2.4310  1.0494  1.4173
 5698SOL     OW28552   4.663   1.004  11.668  0.1107 -0.0984 -0.2944
 5698SOL    HW128553   0.009   0.942  11.686 -0.4384 -0.1078  1.7923
 5698SOL    HW228554   4.595   0.999  11.735 -1.3722  2.0915 -1.5991
 5699SOL     OW28555   3.533   3.098  13.435  0.6257 -0.2520  0.2971
 5699SOL    HW128556   3.534   3.130  13.525  0.7083 -0.6497  0.4337
 5699SOL    HW228557   3.442   3.112  13.408  1.8134  1.4845 -2.8232
 5700SOL     OW28558   1.224   2.856   1.368 -0.4627 -0.6614 -0.8217
 5700SOL    HW128559   1.215   2.840   1.462  1.6933 -1.0306 -0.6582
 5700SOL    HW228560   1.174   2.934   1.345  3.2927  1.6580 -1.1720
 5701SOL     OW28561   0.859   2.700  17.129  0.0361  0.3385  0.1796
 5701SOL    HW128562   0.884   2.756  17.055 -1.4090  1.0625  0.2379
 5701SOL    HW228563   0.763   2.703  17.130  0.0043 -0.7790  0.6219
 5702SOL     OW28564   3.324   4.595   7.334  0.2722  0.3442  0.0208
 5702SOL    HW128565   3.371   4.516   7.306 -0.2665 -0.5463  1.5885
 5702SOL    HW228566   3.380   4.638   7.399  1.1907 -0.2218 -0.4042
 5703SOL     OW28567   1.033   3.560   3.976  0.2209  0.2689 -0.8464
 5703SOL    HW128568   1.102   3.574   4.041 -1.8694  1.0638  1.2230
 5703SOL    HW228569   0.992   3.486   4.021  2.2322 -0.1385  0.3461
 5704SOL     OW28570   2.310   0.009   3.552  0.1248 -0.4747  0.6827
 5704SOL    HW128571   2.236   4.672   3.558 -0.3570 -0.1162 -1.5229
 5704SOL    HW228572   2.386   4.677   3.570  1.3517  1.1895  0.6496
 5705SOL     OW28573   1.911   3.688   0.860 -0.6907  0.8100  0.1561
 5705SOL    HW128574   2.005   3.671   0.853 -1.2932 -2.0054 -1.0028
 5705SOL    HW228575   1.905   3.783   0.850 -3.7885  0.6651  0.5854
 5706SOL     OW28576   2.866   1.211   5.412 -0.3056  0.2437  0.2078
 5706SOL    HW128577   2.929   1.222   5.484  1.4487 -0.9675 -1.1367
 5706SOL    HW228578   2.790   1.258   5.445  0.4464  1.8645 -0.3710
 5707SOL     OW28579   3.830   3.716   7.305  0.0629 -0.3127  0.5211
 5707SOL    HW128580   3.841   3.633   7.259  0.2463  0.4120 -0.7429
 5707SOL    HW228581   3.873   3.785   7.256 -1.9496  0.1103 -0.6541
 5708SOL     OW28582   3.398   2.692   2.816 -0.3113  0.2630  0.3399
 5708SOL    HW128583   3.356   2.683   2.901  0.5538 -1.0748  0.6251
 5708SOL    HW228584   3.466   2.625   2.815 -0.6792 -0.1007 -1.0600
 5709SOL     OW28585   0.906   3.782   4.200  0.0916  0.6786 -0.6131
 5709SOL    HW128586   0.924   3.849   4.266 -0.9705 -0.9203  1.2794
 5709SOL    HW228587   0.876   3.831   4.123 -0.0067 -0.6223 -1.4027
 5710SOL     OW28588   0.250   4.539  16.305 -0.0371  0.6276 -0.2822
 5710SOL    HW128589   0.284   4.493  16.228 -0.2636  1.7569 -1.0500
 5710SOL    HW228590   0.331   4.574  16.342 -0.7031  2.2343 -0.3229
 5711SOL     OW28591   1.562   1.178   1.469  0.1230  0.5388 -0.3241
 5711SOL    HW128592   1.502   1.230   1.415 -0.4058  0.9646  0.6717
 5711SOL    HW228593   1.626   1.152   1.404  1.7108  1.7410  0.7417
 5712SOL     OW28594   3.056   1.822   3.867  0.0511 -0.8921  0.6781
 5712SOL    HW128595   3.014   1.792   3.947  0.3140 -0.4847  0.9695
 5712SOL    HW228596   3.027   1.757   3.803  2.3442 -0.4070 -0.8443
 5713SOL     OW28597   1.304   0.672   3.213 -0.0634 -0.1127 -0.0042
 5713SOL    HW128598   1.362   0.716   3.151  0.0374 -1.4293 -0.8428
 5713SOL    HW228599   1.349   0.589   3.228 -0.7243 -0.6835 -1.1675
 5714SOL     OW28600   3.762   0.785   3.520 -0.2934 -0.3228 -0.1841
 5714SOL    HW128601   3.791   0.872   3.546 -3.3900 -0.0564  2.4464
 5714SOL    HW228602   3.752   0.750   3.608 -0.3104 -3.0131 -1.2464
 5715SOL     OW28603   2.556   2.780   7.293 -0.2546 -0.4626  0.3511
 5715SOL    HW128604   2.603   2.818   7.367  1.7678  0.3815 -1.3506
 5715SOL    HW228605   2.625   2.803   7.231 -0.2726 -0.8831  0.1755
 5716SOL     OW28606   4.171   1.680  16.851  0.5502 -0.0939  0.2936
 5716SOL    HW128607   4.238   1.709  16.913 -0.1100  0.6616  0.6519
 5716SOL    HW228608   4.178   1.755  16.792  0.9271 -1.1134 -0.9645
 5717SOL     OW28609   0.238   4.366   0.870 -0.2165 -0.3645  0.1188
 5717SOL    HW128610   0.227   4.375   0.965  1.4045  0.2234  0.2538
 5717SOL    HW228611   0.173   4.297   0.858  2.0942 -2.2654 -1.7133
 5718SOL     OW28612   4.487   2.220   7.838 -0.0168  0.4037 -0.6422
 5718SOL    HW128613   4.531   2.144   7.801  0.7760  0.7669 -0.4496
 5718SOL    HW228614   4.459   2.183   7.922  0.1250  0.6467 -0.4873
 5719SOL     OW28615   4.654   3.656   8.357  0.1200  0.2801 -0.1817
 5719SOL    HW128616   4.590   3.594   8.393  0.4207  0.0553 -0.0319
 5719SOL    HW228617   4.593   3.724   8.330  0.5150  0.2452 -1.1397
 5720SOL     OW28618   2.604   1.677   2.628  0.0354 -0.1838 -0.0124
 5720SOL    HW128619   2.692   1.685   2.667  0.3469  2.6097 -1.2548
 5720SOL    HW228620   2.639   1.683   2.539  2.7393 -0.9278  0.9782
 5721SOL     OW28621   2.680   0.588   3.823 -0.0492  0.5919  0.3323
 5721SOL    HW128622   2.773   0.567   3.833 -0.2718 -0.6379 -0.2349
 5721SOL    HW228623   2.645   0.501   3.807 -1.0601  1.3730 -1.7100
 5722SOL     OW28624   3.976   1.623  14.207  0.0212 -0.2200  0.8882
 5722SOL    HW128625   3.969   1.559  14.278  1.2671 -0.7652  0.5313
 5722SOL    HW228626   3.896   1.604  14.159 -0.1173  2.4091  0.0490
 5723SOL     OW28627   1.967   4.635   6.167 -0.1109  0.3202  0.7983
 5723SOL    HW128628   1.883   4.665   6.134 -1.0751  1.4251  4.2522
 5723SOL    HW228629   1.954   4.636   6.262 -2.3254 -0.5963  0.4988
 5724SOL     OW28630   3.836   1.428   6.067  0.7433 -0.6075 -0.6202
 5724SOL    HW128631   3.875   1.341   6.064  2.1385  0.0323 -0.8616
 5724SOL    HW228632   3.895   1.476   6.010 -0.3337  1.2063 -0.2123
 5725SOL     OW28633   4.158   1.821   6.076 -0.2888  0.7099 -0.1369
 5725SOL    HW128634   4.144   1.890   6.139 -0.6830 -0.1108  0.6724
 5725SOL    HW228635   4.092   1.838   6.008 -2.1780 -2.4871  0.8639
 5726SOL     OW28636   0.760   1.829   6.879  0.1130  0.5990 -0.2101
 5726SOL    HW128637   0.819   1.754   6.878  0.2052  0.6862 -0.8876
 5726SOL    HW228638   0.700   1.817   6.806  0.5678 -0.3793 -0.4148
 5727SOL     OW28639   2.174   1.845   4.312 -0.4022  0.1472 -0.4502
 5727SOL    HW128640   2.136   1.786   4.376  1.9046  0.1631  0.9201
 5727SOL    HW228641   2.107   1.843   4.243 -1.2434  1.9184  0.3049
 5728SOL     OW28642   3.181   3.859   1.411 -0.5816  0.2069 -0.6966
 5728SOL    HW128643   3.207   3.815   1.330 -0.3150 -0.5186 -0.2118
 5728SOL    HW228644   3.187   3.953   1.391  1.0146  0.0883 -0.7906
 5729SOL     OW28645   1.493   2.840   6.724 -0.7064  0.0601 -0.6126
 5729SOL    HW128646   1.409   2.796   6.710 -0.6908 -0.0944 -0.2175
 5729SOL    HW228647   1.548   2.781   6.672  1.2115 -1.3916  3.0638
 5730SOL     OW28648   2.325   4.509  11.646 -0.2482  0.3738 -0.2148
 5730SOL    HW128649   2.307   4.513  11.552 -0.3075 -0.2546 -0.2255
 5730SOL    HW228650   2.328   4.604  11.662  0.3790  0.1134  1.2868
 5731SOL     OW28651   2.100   1.716   9.618 -0.3174  0.0980  0.8891
 5731SOL    HW128652   2.078   1.623   9.616  0.1268  0.0298 -1.3939
 5731SOL    HW228653   2.172   1.721   9.554 -0.4574 -0.1343  0.7142
 5732SOL     OW28654   2.513   3.333   6.965  0.3963  0.1757  0.3807
 5732SOL    HW128655   2.543   3.249   7.001 -0.4338 -0.4177 -0.3169
 5732SOL    HW228656   2.419   3.325   6.982  0.2800  1.0308  0.1014
 5733SOL     OW28657   3.659   3.143   5.194  0.7577 -0.7729  0.1376
 5733SOL    HW128658   3.666   3.239   5.196  0.4286 -0.7635  0.8942
 5733SOL    HW228659   3.670   3.125   5.287 -0.4453  3.0338  1.0319
 5734SOL     OW28660   0.085   0.262  15.274  0.0963  0.3667  0.4143
 5734SOL    HW128661   0.001   0.278  15.230 -0.0240 -0.1663  0.4535
 5734SOL    HW228662   0.056   0.292  15.360  0.2944 -0.3854  0.7462
 5735SOL     OW28663   2.339   1.977  17.696 -0.2493 -0.2912  0.0495
 5735SOL    HW128664   2.299   1.995   0.084  0.3808  0.1670  0.2470
 5735SOL    HW228665   2.431   1.979   0.026 -0.2233 -0.8664 -0.0049
 5736SOL     OW28666   3.378   4.719   2.619  0.0576  0.4120  0.3129
 5736SOL    HW128667   3.325   4.650   2.658  0.6173  1.5886  3.1413
 5736SOL    HW228668   3.469   4.695   2.637 -0.1264 -2.8569 -3.0319
 5737SOL     OW28669   2.377   4.591   4.597  0.2347  0.6480 -0.4895
 5737SOL    HW128670   2.310   4.638   4.549 -0.1902  0.6894  0.1419
 5737SOL    HW228671   2.428   4.669   4.618  0.4939  0.1803  0.6195
 5738SOL     OW28672   0.523   1.595   4.475  0.1954  0.3910 -0.1720
 5738SOL    HW128673   0.538   1.689   4.464  0.9583  0.2908  0.0402
 5738SOL    HW228674   0.596   1.560   4.424 -0.4775 -0.3841 -0.6010
 5739SOL     OW28675   0.705   0.784   7.928 -0.0510 -0.6832  0.1342
 5739SOL    HW128676   0.649   0.723   7.974 -0.1634 -0.2001  0.6381
 5739SOL    HW228677   0.780   0.726   7.912  1.6829  1.0503  1.8917
 5740SOL     OW28678   3.739   3.425   4.952  0.5575  0.7829 -0.2030
 5740SOL    HW128679   3.718   3.454   5.041  0.0944  0.5647 -0.2361
 5740SOL    HW228680   3.742   3.330   4.966  1.3399  0.9384  0.6784
 5741SOL     OW28681   1.357   1.366  17.388  0.9127 -0.9260 -0.4232
 5741SOL    HW128682   1.293   1.386  17.320 -0.5881 -1.1570  0.9345
 5741SOL    HW228683   1.387   1.280  17.359  2.1306 -0.5272 -0.3450
 5742SOL     OW28684   3.446   3.912   8.769  0.3557  0.3554  0.1706
 5742SOL    HW128685   3.474   3.945   8.854  0.7017 -1.4302  0.7469
 5742SOL    HW228686   3.389   3.836   8.784  0.2025  0.4321 -0.0250
 5743SOL     OW28687   2.183   0.856   4.156 -0.1644 -0.4690  0.3424
 5743SOL    HW128688   2.153   0.898   4.236 -1.8302 -0.0822 -0.4952
 5743SOL    HW228689   2.113   0.875   4.094  0.3169  1.4976  0.3915
 5744SOL     OW28690   4.618   3.972  10.922  0.0312 -0.3731  0.1621
 5744SOL    HW128691   4.567   3.891  10.923  0.4469 -0.6331 -0.1032
 5744SOL    HW228692   4.673   3.960  11.000  0.6411 -0.1321 -0.2392
 5745SOL     OW28693   3.237   2.743   5.447 -0.1230  0.3771  0.3329
 5745SOL    HW128694   3.219   2.833   5.473  3.7398  0.4966  2.7442
 5745SOL    HW228695   3.295   2.756   5.372 -0.8821  0.0580 -0.3040
 5746SOL     OW28696   4.175   2.090  17.002  0.3018  0.3203  0.1160
 5746SOL    HW128697   4.193   2.182  16.982 -1.9706  0.9909  1.0741
 5746SOL    HW228698   4.090   2.105  17.044 -0.6034 -0.7611 -1.3471
 5747SOL     OW28699   3.868   0.829  11.086  0.2322  0.7312  0.3148
 5747SOL    HW128700   3.833   0.759  11.031  0.8505  1.0774 -0.5258
 5747SOL    HW228701   3.801   0.895  11.072  0.7283  0.7334 -2.0114
 5748SOL     OW28702   2.542   0.523   5.766  0.0633 -0.1712 -0.3267
 5748SOL    HW128703   2.586   0.538   5.682 -0.7860  0.8112 -0.5936
 5748SOL    HW228704   2.504   0.435   5.761  1.8799 -0.8501 -2.2451
 5749SOL     OW28705   3.254   2.131   5.203 -0.6187 -0.8562  0.5042
 5749SOL    HW128706   3.251   2.156   5.111 -0.1258 -1.4578  0.3222
 5749SOL    HW228707   3.184   2.184   5.241  0.8898  1.1103  0.5201
 5750SOL     OW28708   2.903   3.891   6.387 -0.1381  0.1093 -1.0165
 5750SOL    HW128709   2.945   3.825   6.440 -1.6739  1.3779  1.7845
 5750SOL    HW228710   2.947   3.965   6.429  0.4892  0.5581 -2.4795
 5751SOL     OW28711   0.754   4.547   5.850 -0.0537 -0.8162  0.3508
 5751SOL    HW128712   0.673   4.544   5.799  0.3327  1.7359 -0.4150
 5751SOL    HW228713   0.716   4.559   5.937 -0.0481 -0.3862  0.2936
 5752SOL     OW28714   3.792   3.628  15.965  0.2460  0.7146  0.2756
 5752SOL    HW128715   3.876   3.651  15.925  0.5972 -1.1385 -0.0235
 5752SOL    HW228716   3.813   3.660  16.053  1.4506  1.5701 -0.3150
 5753SOL     OW28717   0.515   4.151  15.294  0.4092 -0.3843 -0.0939
 5753SOL    HW128718   0.529   4.241  15.323  2.2236  0.4663 -3.6206
 5753SOL    HW228719   0.421   4.138  15.305  0.3443  1.5777  1.6361
 5754SOL     OW28720   1.079   4.599   2.565 -0.5313  0.4007  0.0745
 5754SOL    HW128721   1.100   4.509   2.538 -1.4529  0.0740  0.4838
 5754SOL    HW228722   0.989   4.617   2.541 -0.7238  0.2782  0.7063
 5755SOL     OW28723   1.097   0.182   3.738 -0.1614 -0.0358  0.0442
 5755SOL    HW128724   1.078   0.111   3.676 -0.7501 -1.1806  1.5293
 5755SOL    HW228725   1.012   0.225   3.745  0.5991  1.4815 -0.1720
 5756SOL     OW28726   2.382   1.562   2.546 -0.4974 -0.3336  0.5099
 5756SOL    HW128727   2.305   1.567   2.602  0.2736 -0.7446  1.6059
 5756SOL    HW228728   2.454   1.595   2.600  0.0641  1.6397 -1.4409
 5757SOL     OW28729   4.058   0.069   8.088  0.5144  0.1539 -0.3699
 5757SOL    HW128730   4.029   0.096   8.174  1.7765  0.7281 -0.1342
 5757SOL    HW228731   4.106   4.713   8.111 -0.4627 -0.2262  0.3287
 5758SOL     OW28732   4.372   2.281   5.437 -0.0673 -0.0703 -0.2550
 5758SOL    HW128733   4.386   2.261   5.345 -0.9059 -2.3868  0.1170
 5758SOL    HW228734   4.457   2.299   5.476  1.0693 -2.7699 -1.5112
 5759SOL     OW28735   3.991   0.407   2.951  0.6589  0.2037  0.0907
 5759SOL    HW128736   3.940   0.476   2.907  0.2710  0.1691  0.4932
 5759SOL    HW228737   3.956   0.328   2.910  2.1952 -0.3029 -0.2380
 5760SOL     OW28738   1.990   2.319   7.931 -0.1480 -0.3188 -0.3781
 5760SOL    HW128739   1.965   2.301   8.021 -1.6573  3.2636 -0.0986
 5760SOL    HW228740   1.990   2.414   7.930  0.2365 -0.3156  0.0186
 5761SOL     OW28741   1.121   4.539   4.607 -0.0796 -0.1390 -0.2961
 5761SOL    HW128742   1.156   4.531   4.518 -1.0811  0.9082 -0.7844
 5761SOL    HW228743   1.156   4.459   4.645  0.1783  0.1054 -0.0158
 5762SOL     OW28744   4.647   2.701  11.377 -0.0427 -0.0975  0.0136
 5762SOL    HW128745   4.605   2.710  11.463 -0.0153 -0.4335  0.0606
 5762SOL    HW228746   4.577   2.663  11.324  1.1081 -2.4946  0.2186
 5763SOL     OW28747   3.567   0.445   6.102  0.2863  0.3922  0.4864
 5763SOL    HW128748   3.555   0.472   6.193 -0.9509 -1.7359  0.9652
 5763SOL    HW228749   3.570   0.349   6.099 -1.6893  0.3867 -1.4039
 5764SOL     OW28750   0.681   4.680  14.810 -0.4193  0.0202 -0.2687
 5764SOL    HW128751   0.661   4.718  14.895  0.3702  1.6478 -0.7984
 5764SOL    HW228752   0.696   0.037  14.761 -4.3726 -0.5992 -2.4650
 5765SOL     OW28753   4.180   3.317   9.097 -0.5768 -0.3438  0.5593
 5765SOL    HW128754   4.113   3.248   9.095 -0.7848 -0.1162 -0.4311
 5765SOL    HW228755   4.150   3.367   9.021 -1.4097 -0.5754  0.7403
 5766SOL     OW28756   2.865   3.888  16.578  0.0433 -0.2411 -0.2025
 5766SOL    HW128757   2.926   3.952  16.541  1.6543 -0.7758  1.4908
 5766SOL    HW228758   2.922   3.852  16.647  0.5279 -0.3397 -0.6477
 5767SOL     OW28759   2.541   3.220   6.519  0.3570  0.0475 -0.5099
 5767SOL    HW128760   2.513   3.134   6.487 -1.6086  0.1693  0.9071
 5767SOL    HW228761   2.510   3.275   6.448  1.8346 -0.2874 -1.3989
 5768SOL     OW28762   0.123   0.602  12.161  0.0463  0.1107 -0.5176
 5768SOL    HW128763   0.047   0.618  12.216 -0.2089 -1.6774 -0.3498
 5768SOL    HW228764   0.103   0.514  12.128 -0.4216 -0.6795  1.8232
 5769SOL     OW28765   1.346   2.237   8.097 -0.1749 -0.2577 -0.4228
 5769SOL    HW128766   1.422   2.209   8.046 -1.6266 -2.7945 -1.2104
 5769SOL    HW228767   1.321   2.158   8.146 -2.7798  0.2078 -1.0291
 5770SOL     OW28768   2.907   3.320   8.727 -0.1455 -0.5172  0.4301
 5770SOL    HW128769   2.971   3.275   8.672  0.6794  1.0417  0.1223
 5770SOL    HW228770   2.831   3.267   8.705  1.4383 -2.3836 -0.5405
 5771SOL     OW28771   2.614   0.784  10.663  0.3817  0.1494 -0.0551
 5771SOL    HW128772   2.614   0.688  10.660 -1.2756  0.1764 -1.2017
 5771SOL    HW228773   2.650   0.808  10.577  1.7823  1.8267  1.0233
 5772SOL     OW28774   0.072   3.894   7.902  0.6156  0.1331  0.9206
 5772SOL    HW128775   0.047   3.804   7.922 -0.6292  0.2127 -0.2598
 5772SOL    HW228776   0.091   3.894   7.808 -3.5723 -2.0738  0.0822
 5773SOL     OW28777   4.567   0.117   8.328  0.1963  0.2553  0.0605
 5773SOL    HW128778   4.506   0.191   8.335  1.2346  1.1965 -0.8899
 5773SOL    HW228779   4.618   0.139   8.406  1.1169  1.1218 -0.7782
 5774SOL     OW28780   0.698   4.350   8.416 -0.1730 -0.5769 -0.5319
 5774SOL    HW128781   0.692   4.431   8.366 -2.3950  0.1039  0.8317
 5774SOL    HW228782   0.642   4.374   8.489 -0.8508 -1.7865 -0.6505
 5775SOL     OW28783   0.894   3.826  13.688  0.0551 -0.1273 -0.3174
 5775SOL    HW128784   0.877   3.874  13.769 -1.4886 -1.7479  0.3178
 5775SOL    HW228785   0.864   3.740  13.718 -1.4517  0.7324  0.6390
 5776SOL     OW28786   3.991   1.328  17.432  0.5777  0.1700  0.4371
 5776SOL    HW128787   3.952   1.409  17.464  0.3617  0.0778  0.4081
 5776SOL    HW228788   3.972   1.324  17.338 -0.3919 -3.2301  0.7905
 5777SOL     OW28789   4.363   4.443   8.583 -0.3560  0.7711  0.1056
 5777SOL    HW128790   4.395   4.519   8.534  0.0902  0.4383 -0.1156
 5777SOL    HW228791   4.292   4.404   8.532  0.9948 -1.9020  0.2885
 5778SOL     OW28792   3.258   4.619  12.131 -0.1088  0.1105  0.4832
 5778SOL    HW128793   3.340   4.668  12.133 -1.6656  2.8152 -2.1873
 5778SOL    HW228794   3.276   4.541  12.079  0.6809  0.4964  0.1691
 5779SOL     OW28795   2.629   0.804   7.319 -0.2376 -0.2932 -0.5324
 5779SOL    HW128796   2.678   0.772   7.395  0.3339  0.3916 -0.6175
 5779SOL    HW228797   2.543   0.811   7.360  0.0658  2.0162 -0.3102
 5780SOL     OW28798   4.240   1.544   7.890 -0.6016 -0.7050 -0.6098
 5780SOL    HW128799   4.245   1.633   7.925 -0.9910 -1.7617  2.1807
 5780SOL    HW228800   4.151   1.546   7.857 -1.7791  2.3589  2.7221
 5781SOL     OW28801   0.884   3.451   5.592  0.3605 -0.4483  0.2688
 5781SOL    HW128802   0.924   3.364   5.586  1.2204 -0.0823  0.7820
 5781SOL    HW228803   0.852   3.457   5.502 -0.6730 -0.6516  0.6190
 5782SOL     OW28804   1.517   2.679  11.762  0.2077 -0.1968  0.6314
 5782SOL    HW128805   1.540   2.725  11.843 -0.1262  0.4370  0.3670
 5782SOL    HW228806   1.562   2.597  11.782  0.0659 -0.2977  0.5304
 5783SOL     OW28807   0.043   0.518   8.644 -0.3073 -0.5160  0.3593
 5783SOL    HW128808   0.044   0.441   8.588 -0.3450  0.6218 -1.1904
 5783SOL    HW228809   0.134   0.519   8.672  0.4627  0.2567 -2.2611
 5784SOL     OW28810   4.013   0.581   3.163  0.8305 -0.4001 -0.6684
 5784SOL    HW128811   4.006   0.537   3.078 -0.7874  1.1124 -1.3143
 5784SOL    HW228812   4.061   0.519   3.218 -1.2094  0.5489  2.1663
 5785SOL     OW28813   1.475   0.473   3.902 -0.3428 -0.6594  0.0309
 5785SOL    HW128814   1.478   0.400   3.964 -2.2771 -0.3059  0.5584
 5785SOL    HW228815   1.436   0.428   3.828 -0.1632  0.3715 -0.6877
 5786SOL     OW28816   4.586   0.803   6.295  0.0874 -0.3694  0.0281
 5786SOL    HW128817   4.677   0.808   6.264 -0.5911 -1.6777 -2.1154
 5786SOL    HW228818   4.582   0.764   6.383  0.1614  0.3132  0.3380
 5787SOL     OW28819   2.661   3.252   5.532 -0.2294  0.2778  0.3329
 5787SOL    HW128820   2.721   3.185   5.563 -0.0910  0.7239  1.0381
 5787SOL    HW228821   2.712   3.333   5.540  1.2753 -0.3802 -2.4706
 5788SOL     OW28822   0.731   4.546   3.348  0.0647 -0.3186  0.5687
 5788SOL    HW128823   0.752   4.454   3.334 -1.9793 -0.8283  0.9624
 5788SOL    HW228824   0.641   4.545   3.316 -0.5984  1.6453  2.3186
 5789SOL     OW28825   2.922   0.438   7.295 -0.0303  0.0579 -0.3269
 5789SOL    HW128826   2.827   0.429   7.283  0.1475 -2.2078  0.1398
 5789SOL    HW228827   2.953   0.381   7.226 -1.9808 -1.8127  0.3358
 5790SOL     OW28828   3.452   3.534  14.503  0.0401 -0.1048  0.2484
 5790SOL    HW128829   3.422   3.448  14.472 -2.0827  0.6586  0.1926
 5790SOL    HW228830   3.366   3.572  14.519 -0.4014 -2.5436  3.5433
 5791SOL     OW28831   1.589   1.453   7.215 -0.3714 -0.5056 -0.1046
 5791SOL    HW128832   1.659   1.503   7.174 -0.0352 -0.1898  0.8660
 5791SOL    HW228833   1.512   1.499   7.179  0.2699  0.6253 -0.0344
 5792SOL     OW28834   1.683   0.263   3.242 -0.3470 -0.2834  0.0949
 5792SOL    HW128835   1.622   0.193   3.265 -0.4774 -0.4423 -0.7285
 5792SOL    HW228836   1.664   0.316   3.319 -2.8657 -1.0234 -0.0143
 5793SOL     OW28837   0.906   1.110   3.768  0.2833 -1.0996 -0.2474
 5793SOL    HW128838   0.839   1.135   3.831  0.3379 -1.0786 -0.1986
 5793SOL    HW228839   0.902   1.190   3.715 -0.0486 -1.5925 -0.9743
 5794SOL     OW28840   0.564   3.796  15.438  0.1990  0.1794 -0.1512
 5794SOL    HW128841   0.611   3.871  15.476  2.4807 -1.5906  0.4672
 5794SOL    HW228842   0.485   3.789  15.493  1.9217 -2.7404  1.9383
 5795SOL     OW28843   3.614   2.989  17.286  0.1631  0.8823 -0.0652
 5795SOL    HW128844   3.665   2.935  17.347  1.7061  0.9248 -1.3164
 5795SOL    HW228845   3.669   2.981  17.207  1.0169  2.0542  0.4052
 5796SOL     OW28846   3.346   3.012   5.422  0.1255 -0.1444  0.0710
 5796SOL    HW128847   3.348   3.074   5.349  0.8271  0.9520  1.0199
 5796SOL    HW228848   3.300   3.062   5.490  0.8395  0.0013  0.4400
 5797SOL     OW28849   3.614   0.535   2.672 -0.3257  0.4764  0.0371
 5797SOL    HW128850   3.605   0.616   2.622  0.4099  0.9966  0.7423
 5797SOL    HW228851   3.597   0.479   2.596 -0.3013  1.3159 -0.5753
 5798SOL     OW28852   2.266   1.859   1.014 -1.1650  0.5672  0.1737
 5798SOL    HW128853   2.233   1.939   1.055  0.4671  2.1847 -1.7006
 5798SOL    HW228854   2.182   1.839   0.972 -1.0010 -0.5679  0.3746
 5799SOL     OW28855   4.301   1.020  15.099  0.6026 -0.1925 -0.1500
 5799SOL    HW128856   4.236   1.089  15.109  1.0293  0.3622 -1.1409
 5799SOL    HW228857   4.349   1.039  15.179  0.8722  1.5768 -0.7217
 5800SOL     OW28858   3.073   3.242   3.105  0.0228  0.1359 -0.0394
 5800SOL    HW128859   3.059   3.176   3.038 -1.5216 -0.1954  0.6124
 5800SOL    HW228860   3.133   3.303   3.061  1.0982 -0.7173  0.2366
 5801SOL     OW28861   0.578   3.206   1.428 -0.1024 -0.2535 -0.7947
 5801SOL    HW128862   0.625   3.174   1.505  0.2127  0.2788 -0.7591
 5801SOL    HW228863   0.585   3.299   1.451  1.4118 -0.4717 -0.3785
 5802SOL     OW28864   1.342   3.678   9.065  0.5863  0.8059  0.5438
 5802SOL    HW128865   1.284   3.606   9.093  2.0785  0.8020  3.6480
 5802SOL    HW228866   1.420   3.658   9.117 -1.0411 -2.3170  1.8159
 5803SOL     OW28867   0.668   1.105   0.602  0.0631  0.6107  0.4638
 5803SOL    HW128868   0.572   1.112   0.600  0.1217  0.6852 -3.0154
 5803SOL    HW228869   0.689   1.144   0.687  0.8028  1.1125  0.0510
 5804SOL     OW28870   0.681   2.404   0.836  0.2213  0.0220  0.6486
 5804SOL    HW128871   0.618   2.333   0.824 -0.2680  0.6093 -0.1994
 5804SOL    HW228872   0.641   2.438   0.916  1.0457 -0.5157  1.2982
 5805SOL     OW28873   4.210   1.744   6.753 -0.3967  0.2267 -0.2928
 5805SOL    HW128874   4.261   1.748   6.672  0.6286 -0.2840  0.3296
 5805SOL    HW228875   4.124   1.719   6.719 -0.7920  0.1452  0.7771
 5806SOL     OW28876   1.553   2.193   5.994 -0.1428 -0.5606  0.4278
 5806SOL    HW128877   1.622   2.135   6.026  0.5995 -0.0323 -0.2096
 5806SOL    HW228878   1.603   2.264   5.953 -1.7670  0.0955 -0.4242
 5807SOL     OW28879   2.171   2.460   1.313 -0.1362  0.7460  0.0007
 5807SOL    HW128880   2.263   2.434   1.316 -0.4390 -0.3186  0.3393
 5807SOL    HW228881   2.140   2.416   1.234 -1.7947 -0.8185  1.5104
 5808SOL     OW28882   0.841   3.600  13.804 -0.5178  0.7095  0.3471
 5808SOL    HW128883   0.768   3.540  13.819 -1.0872  0.5853 -2.8349
 5808SOL    HW228884   0.914   3.538  13.805  0.3692  1.7651  1.3566
 5809SOL     OW28885   4.331   3.762   9.598  0.1648  0.2558  0.4164
 5809SOL    HW128886   4.388   3.808   9.660 -0.4919 -0.7950  1.8003
 5809SOL    HW228887   4.353   3.672   9.620  1.8001  0.6508  0.4267
 5810SOL     OW28888   2.131   0.504   8.110  0.4288 -0.7914 -0.0970
 5810SOL    HW128889   2.217   0.541   8.129  0.5012 -0.6216 -0.7894
 5810SOL    HW228890   2.146   0.412   8.134 -1.8810 -1.7079 -2.1776
 5811SOL     OW28891   2.398   0.446  10.543  0.1359 -0.3831 -0.2648
 5811SOL    HW128892   2.427   0.397  10.466  2.6136  0.4296  0.1437
 5811SOL    HW228893   2.342   0.381  10.585 -1.2270 -0.3139 -1.9800
 5812SOL     OW28894   0.143   4.471  13.402 -0.5905  0.5347  0.0787
 5812SOL    HW128895   0.234   4.484  13.377 -0.4291  0.4697  0.6415
 5812SOL    HW228896   0.116   4.431  13.319 -1.7224 -0.3210  0.8545
 5813SOL     OW28897   2.143   3.413  14.365 -0.0767 -0.2545  0.1281
 5813SOL    HW128898   2.120   3.367  14.284  0.0089  0.9013 -0.5429
 5813SOL    HW228899   2.123   3.503  14.343  0.4263 -0.2572 -0.3475
 5814SOL     OW28900   1.191   4.348  12.456 -0.0876 -0.4699 -0.4524
 5814SOL    HW128901   1.108   4.312  12.486 -0.1609  0.0442 -0.0371
 5814SOL    HW228902   1.235   4.281  12.508 -0.8470  1.1128  2.1917
 5815SOL     OW28903   4.174   0.217   5.855  0.1911  0.4889  0.2816
 5815SOL    HW128904   4.093   0.180   5.822  0.0663 -0.8098  2.0547
 5815SOL    HW228905   4.146   0.302   5.890 -2.2543 -0.3822  0.3643
 5816SOL     OW28906   2.492   3.503   7.272  0.6163  0.2972 -0.3360
 5816SOL    HW128907   2.477   3.573   7.335  2.0803  0.0113  0.3293
 5816SOL    HW228908   2.399   3.493   7.252  0.8702 -1.7116 -0.5734
 5817SOL     OW28909   2.710   1.177   9.616 -0.1121  0.1966  0.5424
 5817SOL    HW128910   2.738   1.169   9.525  1.7665  1.2187  1.0362
 5817SOL    HW228911   2.753   1.108   9.665  0.5056 -0.2893 -0.6904
 5818SOL     OW28912   1.347   3.183  17.343 -0.2608 -0.2137 -0.0586
 5818SOL    HW128913   1.362   3.144  17.429 -2.9247 -2.1363 -0.4687
 5818SOL    HW228914   1.272   3.129  17.318 -0.0871  0.2836 -1.6945
 5819SOL     OW28915   0.810   1.622   6.111 -0.2572 -0.3173 -0.0010
 5819SOL    HW128916   0.797   1.712   6.141 -0.2808  0.0402 -1.0795
 5819SOL    HW228917   0.733   1.566   6.118 -0.4259 -0.1609 -0.5599
 5820SOL     OW28918   1.723   4.316   0.504  0.6496  0.0980  0.0859
 5820SOL    HW128919   1.636   4.353   0.492  1.1976  0.7370 -1.9521
 5820SOL    HW228920   1.724   4.301   0.599 -0.8465  0.4432  0.1468
 5821SOL     OW28921   3.210   2.607  11.571 -0.0687 -0.4196  0.3256
 5821SOL    HW128922   3.174   2.548  11.637  0.4864 -0.6147  0.4574
 5821SOL    HW228923   3.165   2.686  11.598 -1.6783 -1.3043  0.2022
 5822SOL     OW28924   0.470   3.908   4.343  0.4045  0.3724 -0.1094
 5822SOL    HW128925   0.550   3.961   4.344  1.3889 -1.1026 -1.8448
 5822SOL    HW228926   0.506   3.820   4.348 -0.8136 -0.0492  1.6094
 5823SOL     OW28927   3.493   2.998  13.071 -0.6282  0.0225  0.0914
 5823SOL    HW128928   3.407   2.959  13.088 -0.0580 -0.1869  2.4832
 5823SOL    HW228929   3.475   3.091  13.084 -0.7567  0.0228 -0.0877
 5824SOL     OW28930   2.156   1.570   2.708 -0.1229  0.0074  0.4163
 5824SOL    HW128931   2.088   1.504   2.719 -1.6611  1.6521  0.7527
 5824SOL    HW228932   2.187   1.582   2.797  0.0972 -0.7248  0.4435
 5825SOL     OW28933   2.214   4.472   7.865  0.2407 -0.0203 -0.2972
 5825SOL    HW128934   2.295   4.422   7.865 -1.0222 -2.0851 -1.1398
 5825SOL    HW228935   2.155   4.409   7.823  1.0687 -0.9240 -0.1031
 5826SOL     OW28936   3.609   2.023   2.126 -0.3358 -0.1746 -0.0946
 5826SOL    HW128937   3.604   2.096   2.188  0.3344 -1.8640  1.9422
 5826SOL    HW228938   3.705   2.031   2.124 -0.2987 -0.9208 -0.9341
 5827SOL     OW28939   4.268   2.418   7.231 -0.2129 -0.1218 -0.1232
 5827SOL    HW128940   4.257   2.344   7.171  1.4950  0.8112 -1.5778
 5827SOL    HW228941   4.361   2.436   7.233 -0.0389 -1.4126  2.8718
 5828SOL     OW28942   1.401   1.539   8.390  0.9100 -0.3017 -0.0052
 5828SOL    HW128943   1.340   1.612   8.403  0.1170 -1.4241  2.7001
 5828SOL    HW228944   1.379   1.466   8.448  0.3975 -0.3863 -0.3088
 5829SOL     OW28945   0.849   0.917   5.117  0.4012 -0.0475  0.4972
 5829SOL    HW128946   0.833   0.909   5.023  0.5955  0.8541  0.3859
 5829SOL    HW228947   0.897   0.836   5.134  0.5325  0.1252  0.9451
 5830SOL     OW28948   3.528   0.175   3.271  0.2913 -0.1014 -0.0991
 5830SOL    HW128949   3.518   0.083   3.249 -1.6397 -0.3007  1.5902
 5830SOL    HW228950   3.552   0.201   3.182 -0.0615 -0.5327 -0.3190
 5831SOL     OW28951   4.378   3.521   7.703  0.1158  0.0541 -0.4916
 5831SOL    HW128952   4.401   3.557   7.789  0.6153  1.3468 -1.1543
 5831SOL    HW228953   4.460   3.485   7.670 -0.5970 -0.2974 -1.8980
 5832SOL     OW28954   0.122   3.206   7.569 -0.0537  0.7315 -0.0987
 5832SOL    HW128955   0.060   3.190   7.498 -1.1760  0.6005  0.8967
 5832SOL    HW228956   0.172   3.125   7.558 -0.6824  0.3650 -0.3057
 5833SOL     OW28957   3.339   3.222  10.595 -0.5871 -0.4370  0.3297
 5833SOL    HW128958   3.423   3.207  10.639  0.3009  1.7053 -0.6585
 5833SOL    HW228959   3.286   3.163  10.648 -1.2386 -0.3998 -0.2762
 5834SOL     OW28960   3.593   0.724   2.467  0.9425  0.4783  0.2095
 5834SOL    HW128961   3.644   0.771   2.400  2.1585 -1.4626 -0.2356
 5834SOL    HW228962   3.567   0.794   2.527 -1.3378 -0.8191  0.7361
 5835SOL     OW28963   2.748   3.233  15.812 -0.0823 -0.1406 -0.2421
 5835SOL    HW128964   2.828   3.198  15.774 -1.5202 -1.0477 -2.4153
 5835SOL    HW228965   2.683   3.164  15.796 -0.2531 -0.4469  1.7790
 5836SOL     OW28966   2.130   4.554  15.510  0.5304  0.2373  0.0741
 5836SOL    HW128967   2.221   4.568  15.486  0.7759  0.6782  1.2518
 5836SOL    HW228968   2.136   4.559  15.606  0.9756  1.8009 -0.0489
 5837SOL     OW28969   0.983   3.945   3.600  0.1210  0.0537  0.0254
 5837SOL    HW128970   1.027   3.952   3.684 -0.9796 -3.5031  0.9175
 5837SOL    HW228971   0.946   3.856   3.607  1.1103 -0.5103 -1.7534
 5838SOL     OW28972   3.187   1.320   4.887 -0.3652 -0.0370 -0.1634
 5838SOL    HW128973   3.163   1.227   4.889  1.2922 -0.4142  2.2721
 5838SOL    HW228974   3.269   1.320   4.937 -0.3261  2.2734 -0.2629
 5839SOL     OW28975   1.181   2.999   7.702  0.5526  0.3057 -0.7335
 5839SOL    HW128976   1.152   3.043   7.622  0.4256  1.3250 -0.1129
 5839SOL    HW228977   1.091   2.999   7.733  1.1811 -0.3586  1.1006
 5840SOL     OW28978   4.303   3.251  13.868  0.2190  0.0251  0.1934
 5840SOL    HW128979   4.392   3.261  13.901  0.0709 -0.1909  0.6636
 5840SOL    HW228980   4.294   3.332  13.818 -1.5506 -0.7446 -0.7384
 5841SOL     OW28981   3.845   1.434  13.796  0.2711  0.5163 -0.3637
 5841SOL    HW128982   3.829   1.523  13.765  0.6536  0.4425 -0.7762
 5841SOL    HW228983   3.935   1.414  13.770 -0.5554 -0.9051 -2.0964
 5842SOL     OW28984   1.483   2.414   4.753  0.4441  0.4427 -0.2521
 5842SOL    HW128985   1.406   2.359   4.772 -0.6415  2.3491  0.8089
 5842SOL    HW228986   1.550   2.379   4.811  0.6341 -1.7514 -1.8004
 5843SOL     OW28987   1.933   2.066  17.173  0.0440  0.3005 -0.0414
 5843SOL    HW128988   2.014   2.060  17.223 -0.8881  0.0442  1.4382
 5843SOL    HW228989   1.872   2.019  17.230  0.5962 -0.2643  0.0867
 5844SOL     OW28990   3.651   0.175   7.205 -0.0520 -0.5676  0.3342
 5844SOL    HW128991   3.678   0.253   7.157  1.5114 -0.5207  1.2660
 5844SOL    HW228992   3.679   0.202   7.293  0.4073 -1.5397  0.4911
 5845SOL     OW28993   4.342   4.106   2.175 -0.1996 -0.0136  0.3705
 5845SOL    HW128994   4.417   4.163   2.190  0.4161 -0.9924  1.0372
 5845SOL    HW228995   4.277   4.153   2.227 -2.1579 -3.0789  0.6773
 5846SOL     OW28996   3.943   2.382  11.811  0.3337 -0.0735 -0.0939
 5846SOL    HW128997   3.926   2.329  11.889  0.3996 -0.3616 -0.2762
 5846SOL    HW228998   3.906   2.326  11.743  1.2560  0.0855 -0.7251
 5847SOL     OW28999   3.128   0.705  10.200  0.0678 -0.4116 -0.2781
 5847SOL    HW129000   3.084   0.729  10.118 -1.8346  2.0329  1.4593
 5847SOL    HW229001   3.117   0.781  10.257  0.7558 -0.7174  0.2653
 5848SOL     OW29002   1.172   3.663   4.927  0.3569 -0.6499 -0.1030
 5848SOL    HW129003   1.223   3.739   4.955 -0.8719 -0.1214  0.6888
 5848SOL    HW229004   1.121   3.713   4.862 -1.2886 -1.7388  0.3439
 5849SOL     OW29005   2.718   0.992   2.251 -0.0074 -0.8080  0.1617
 5849SOL    HW129006   2.638   1.044   2.256 -0.9754 -2.1086 -1.8111
 5849SOL    HW229007   2.741   1.009   2.160  0.3209 -0.6099  0.2835
 5850SOL     OW29008   2.267   4.714   8.187  0.6242  0.1800  0.3057
 5850SOL    HW129009   2.232   4.676   8.267  3.2013 -0.6458  1.0347
 5850SOL    HW229010   2.361   4.697   8.190  0.1753 -2.3826  0.0745
 5851SOL     OW29011   4.413   3.256  15.317  0.2972  0.3815  0.0088
 5851SOL    HW129012   4.367   3.337  15.293  1.0869  1.0194  0.6463
 5851SOL    HW229013   4.461   3.253  15.235  2.0103 -0.3938  1.0425
 5852SOL     OW29014   3.481   2.882  15.856  0.2215 -0.0626 -0.0845
 5852SOL    HW129015   3.447   2.810  15.910 -0.8925  0.3984 -0.1632
 5852SOL    HW229016   3.394   2.922  15.844 -0.5945 -1.8948 -0.3504
 5853SOL     OW29017   3.758   2.854   7.663  0.0932  0.0377  0.4468
 5853SOL    HW129018   3.841   2.896   7.686 -0.1575  0.5385  0.4261
 5853SOL    HW229019   3.700   2.930   7.667 -0.2729 -0.1639 -1.0115
 5854SOL     OW29020   0.506   3.048   2.494  0.7099  0.0558 -0.0357
 5854SOL    HW129021   0.499   3.057   2.399  0.1836 -1.5669 -0.1560
 5854SOL    HW229022   0.580   3.106   2.513 -0.5983  1.4234  0.8283
 5855SOL     OW29023   1.471   0.678   5.970  0.3997  0.5702 -0.3161
 5855SOL    HW129024   1.477   0.625   5.891  0.6400 -1.8535  1.2950
 5855SOL    HW229025   1.480   0.613   6.040  1.2829  0.5312 -0.4684
 5856SOL     OW29026   0.814   0.042  14.242  0.0212  0.1403  0.0078
 5856SOL    HW129027   0.896   0.084  14.268 -0.0706  0.4984 -0.2776
 5856SOL    HW229028   0.747   0.106  14.266  0.3056  0.4371  0.0186
 5857SOL     OW29029   2.008   3.381   6.264  0.0692 -0.3830 -0.1073
 5857SOL    HW129030   2.068   3.335   6.324 -1.2090 -0.5387  1.0591
 5857SOL    HW229031   1.925   3.335   6.275  1.2326 -2.6784 -0.8394
 5858SOL     OW29032   2.765   3.982  11.554  0.1760  0.5602  0.2585
 5858SOL    HW129033   2.856   3.954  11.554 -0.9982 -3.3236  4.4404
 5858SOL    HW229034   2.767   4.036  11.475  0.3883  0.1653 -0.0011
 5859SOL     OW29035   2.359   3.349   9.202  0.5728 -0.0955  0.2583
 5859SOL    HW129036   2.298   3.377   9.134  0.9734  0.9505  0.3308
 5859SOL    HW229037   2.305   3.364   9.279  0.9009  1.3522  0.2092
 5860SOL     OW29038   0.292   2.034   6.055  0.2696  0.3772  0.5462
 5860SOL    HW129039   0.318   1.975   5.984  0.9965  0.4068  0.7797
 5860SOL    HW229040   0.212   2.074   6.022  0.3962  0.7938  0.7384
 5861SOL     OW29041   0.463   0.023  13.550 -0.0931 -0.8547  0.1261
 5861SOL    HW129042   0.476   4.652  13.549 -2.1006 -1.1204 -2.2897
 5861SOL    HW229043   0.538   0.055  13.500 -0.3310  0.8827  0.8839
 5862SOL     OW29044   1.984   2.792   2.701  0.1385  0.3324 -0.0455
 5862SOL    HW129045   1.917   2.765   2.764 -0.0325  0.9842  0.0524
 5862SOL    HW229046   2.059   2.803   2.760  0.2839 -0.3532 -0.1114
 5863SOL     OW29047   0.724   0.072  15.309  0.4504  0.6788 -0.6746
 5863SOL    HW129048   0.811   0.101  15.281  1.1414  0.7484  1.5809
 5863SOL    HW229049   0.740   4.702  15.320 -0.6698  0.5051 -0.5421
 5864SOL     OW29050   3.188   1.521  17.309 -0.0255  0.0245  0.0017
 5864SOL    HW129051   3.124   1.536  17.239  0.1666 -0.7846 -0.3373
 5864SOL    HW229052   3.267   1.511  17.256 -1.5942 -0.1507 -2.3022
 5865SOL     OW29053   4.302   0.060   3.693 -0.3435  0.0041  0.0295
 5865SOL    HW129054   4.252   0.103   3.762 -1.4295 -0.2664 -0.6051
 5865SOL    HW229055   4.384   0.043   3.740 -2.7533 -3.8858  2.7312
 5866SOL     OW29056   3.055   4.619  14.868  0.3764 -0.1286 -0.1522
 5866SOL    HW129057   3.037   4.710  14.843 -0.5924 -0.0095  0.9361
 5866SOL    HW229058   3.150   4.623  14.868  0.3291  0.8927 -2.1724
 5867SOL     OW29059   2.281   1.357   6.637 -0.1772  0.1405 -0.0655
 5867SOL    HW129060   2.193   1.355   6.676 -0.2885 -0.1377 -0.3245
 5867SOL    HW229061   2.330   1.363   6.718 -2.4940  0.0149  1.3628
 5868SOL     OW29062   0.884   2.982   7.039  0.6728 -0.4966 -0.7210
 5868SOL    HW129063   0.870   3.048   6.970 -0.2164  1.2002  1.0733
 5868SOL    HW229064   0.922   3.027   7.115 -0.9657 -2.5629  1.3295
 5869SOL     OW29065   1.576   1.671   4.631 -0.6094  0.0044  0.0272
 5869SOL    HW129066   1.598   1.703   4.543 -0.9988  2.3534  0.7927
 5869SOL    HW229067   1.500   1.726   4.646 -1.7271 -1.3485 -0.7013
 5870SOL     OW29068   0.161   4.274   9.380 -0.6462 -0.1313 -0.4263
 5870SOL    HW129069   0.232   4.287   9.317 -0.6622  2.1647  0.0312
 5870SOL    HW229070   0.145   4.180   9.388  1.2949 -0.5572 -1.4638
 5871SOL     OW29071   4.640   3.137  15.447 -0.3032 -0.1858 -0.0402
 5871SOL    HW129072   4.567   3.174  15.397  1.1041  2.1531 -0.3889
 5871SOL    HW229073   4.673   3.074  15.384  0.0897  0.0899 -0.1118
 5872SOL     OW29074   3.305   2.289   7.173  0.1484 -0.1663 -0.2783
 5872SOL    HW129075   3.281   2.253   7.258  0.5019 -0.3822 -0.2717
 5872SOL    HW229076   3.401   2.290   7.178  0.1867 -3.6842 -0.3688
 5873SOL     OW29077   2.939   3.728   8.734 -0.3586 -0.2286 -0.0508
 5873SOL    HW129078   3.003   3.716   8.804 -0.2154 -0.5693 -0.2433
 5873SOL    HW229079   2.882   3.656   8.761  1.8392 -2.5053 -1.4521
 5874SOL     OW29080   1.596   1.081   1.788 -0.0266  0.0158  0.1121
 5874SOL    HW129081   1.588   1.005   1.731  0.3563 -0.8401  1.2036
 5874SOL    HW229082   1.532   1.063   1.856 -0.8039 -1.7049 -1.0874
 5875SOL     OW29083   3.162   2.221   2.358 -0.3104  0.2244 -0.3847
 5875SOL    HW129084   3.127   2.190   2.442  0.6732  1.0741  0.3414
 5875SOL    HW229085   3.107   2.164   2.304 -0.8105 -0.3941  0.7637
 5876SOL     OW29086   0.918   0.056   5.268  0.4940  0.1714  0.0297
 5876SOL    HW129087   0.992   0.029   5.213 -0.7779  1.4489 -2.3268
 5876SOL    HW229088   0.898   4.693   5.303 -3.0832  2.4777  3.6800
 5877SOL     OW29089   4.717   0.189   7.633 -0.2165 -0.5255  0.1526
 5877SOL    HW129090   0.020   0.274   7.596  1.1542 -1.0454 -0.0537
 5877SOL    HW229091   4.624   0.198   7.651 -0.0350 -2.3261  1.9553
 5878SOL     OW29092   2.509   3.243   4.833  0.0791  0.1483 -0.2519
 5878SOL    HW129093   2.548   3.212   4.751  1.5402  0.9538  0.1466
 5878SOL    HW229094   2.582   3.291   4.872  2.2599 -0.9658 -2.9349
 5879SOL     OW29095   1.373   1.984  11.164  0.2713 -0.3239  0.0227
 5879SOL    HW129096   1.435   1.938  11.220  2.2230 -0.1852 -2.0685
 5879SOL    HW229097   1.423   1.996  11.084 -0.3170  0.8611 -0.1758
 5880SOL     OW29098   2.159   1.165   0.550 -0.4457  0.5329  0.8046
 5880SOL    HW129099   2.092   1.097   0.551  2.4415 -2.3831 -0.8509
 5880SOL    HW229100   2.239   1.114   0.568  0.8682  1.1427 -3.4711
 5881SOL     OW29101   3.756   0.983   4.598 -0.5792  0.6879  0.3973
 5881SOL    HW129102   3.677   0.931   4.614 -0.2797 -0.1995 -0.9698
 5881SOL    HW229103   3.812   0.927   4.544  0.0407  1.9003 -0.2272
 5882SOL     OW29104   0.385   2.745   6.461  0.6444  0.3415 -0.2403
 5882SOL    HW129105   0.310   2.780   6.509  0.2638  2.2404 -2.2262
 5882SOL    HW229106   0.353   2.745   6.371  0.8284  1.9342 -0.3091
 5883SOL     OW29107   3.392   0.583   2.313  0.3558 -0.7154 -0.4385
 5883SOL    HW129108   3.461   0.632   2.358 -0.4955  0.0679  0.0068
 5883SOL    HW229109   3.327   0.556   2.378  0.9038  0.9964  0.8009
 5884SOL     OW29110   1.046   3.285   8.826 -0.1502  0.4441 -0.2961
 5884SOL    HW129111   1.059   3.323   8.739  0.0448 -1.4623 -1.1100
 5884SOL    HW229112   1.137   3.282   8.856 -0.2562  0.6742  0.0473
 5885SOL     OW29113   2.071   1.774  12.712 -0.2356  0.5418  0.2417
 5885SOL    HW129114   1.992   1.721  12.721  2.3900 -3.3460  0.3334
 5885SOL    HW229115   2.138   1.708  12.692  1.3299  2.2134 -0.0621
 5886SOL     OW29116   2.099   2.651   6.669  0.1671  0.0120 -0.4561
 5886SOL    HW129117   2.169   2.710   6.639 -0.1181 -0.2515 -1.6167
 5886SOL    HW229118   2.021   2.707   6.673  0.9687  1.2828 -2.3191
 5887SOL     OW29119   4.466   1.599   5.454 -0.6568  0.4893  0.3121
 5887SOL    HW129120   4.500   1.619   5.367  0.4749 -0.5823  0.5134
 5887SOL    HW229121   4.387   1.653   5.459 -1.7210 -0.9245 -1.5329
 5888SOL     OW29122   1.517   0.369  14.459  0.1715 -0.3514 -0.2471
 5888SOL    HW129123   1.472   0.399  14.538  0.8314 -1.0478  0.3942
 5888SOL    HW229124   1.561   0.451  14.438  0.4404 -0.1240  1.1870
 5889SOL     OW29125   1.448   4.345   8.415  0.3713  1.0262 -0.3830
 5889SOL    HW129126   1.500   4.272   8.448  1.0019  1.4760 -0.3861
 5889SOL    HW229127   1.364   4.305   8.390  1.8078 -1.6239 -0.9052
 5890SOL     OW29128   0.345   3.330   4.441 -0.6720  0.5869  0.4430
 5890SOL    HW129129   0.355   3.268   4.514 -0.5472  1.8327  1.4807
 5890SOL    HW229130   0.290   3.394   4.485 -2.2871  0.1604 -0.9740
 5891SOL     OW29131   4.682   0.359   4.476  0.0252 -0.0559  0.4944
 5891SOL    HW129132   4.624   0.356   4.401 -0.5577  0.8191  0.9145
 5891SOL    HW229133   4.638   0.321   4.552 -0.8911 -2.4040 -1.2118
 5892SOL     OW29134   0.854   3.355   4.628  0.0485  0.4998 -0.5921
 5892SOL    HW129135   0.862   3.387   4.718 -1.1808  1.4862 -0.8410
 5892SOL    HW229136   0.911   3.279   4.643  0.0771  0.6173 -0.1049
 5893SOL     OW29137   0.908   1.806   3.127  0.0267 -0.2542  0.3339
 5893SOL    HW129138   0.966   1.748   3.176 -1.5260 -0.5862  1.7728
 5893SOL    HW229139   0.935   1.788   3.037 -2.5127  1.6039 -0.8364
 5894SOL     OW29140   2.485   4.255  14.376 -0.9843  0.2095  0.1262
 5894SOL    HW129141   2.569   4.285  14.411 -1.4617  0.7650  0.8025
 5894SOL    HW229142   2.497   4.162  14.396 -0.2157  0.0886 -0.8992
 5895SOL     OW29143   4.680   0.445   1.751  0.3868 -0.0964 -0.0335
 5895SOL    HW129144   4.590   0.479   1.755 -0.1082 -1.4029 -0.0472
 5895SOL    HW229145   4.674   0.360   1.795  1.2727 -0.1295  0.0134
 5896SOL     OW29146   0.616   1.052   6.542  0.0664  0.2257 -0.4523
 5896SOL    HW129147   0.624   1.094   6.456 -1.0219  0.6373 -0.3505
 5896SOL    HW229148   0.521   1.060   6.550 -0.0073 -2.2174  0.9953
 5897SOL     OW29149   4.635   3.252   6.734  0.1241 -0.0127  0.2101
 5897SOL    HW129150   4.542   3.273   6.727  0.1829  0.7044  1.6711
 5897SOL    HW229151   4.677   3.330   6.697  1.6944 -1.1153 -0.3626
 5898SOL     OW29152   2.517   4.635   8.262 -0.1510 -0.4419 -0.1829
 5898SOL    HW129153   2.600   4.668   8.227  0.6796 -0.8561  1.4122
 5898SOL    HW229154   2.560   4.559   8.302 -3.0938 -1.7270  0.5267
 5899SOL     OW29155   2.658   0.565  12.857 -0.6562 -0.3134  0.2498
 5899SOL    HW129156   2.676   0.632  12.791  2.3070 -0.1874  1.1834
 5899SOL    HW229157   2.605   0.618  12.916  1.8869  1.9777  0.4645
 5900SOL     OW29158   0.044   2.979   2.846 -0.7125 -0.0290  0.5963
 5900SOL    HW129159   0.125   2.960   2.893  0.2074  2.6682  0.1193
 5900SOL    HW229160   0.061   2.923   2.770  1.2541  0.8376  0.3997
 5901SOL     OW29161   0.248   1.352   5.807  0.3122 -0.6875  0.1296
 5901SOL    HW129162   0.230   1.308   5.890  2.4588  0.3353  1.1286
 5901SOL    HW229163   0.165   1.381   5.768  0.9231  1.7465  0.6163
 5902SOL     OW29164   2.974   2.908   5.122  0.4874  0.2751 -0.7214
 5902SOL    HW129165   3.068   2.910   5.104  0.5723  1.5915 -0.1463
 5902SOL    HW229166   2.935   2.903   5.035  0.3041  1.8731 -0.7296
 5903SOL     OW29167   0.987   4.250  14.631  0.0149  0.2894  0.4359
 5903SOL    HW129168   0.989   4.155  14.618  0.9308 -0.1177  3.6055
 5903SOL    HW229169   0.944   4.249  14.716 -1.2787  0.0231 -0.2211
 5904SOL     OW29170   0.101   2.875   6.790 -0.7993 -0.1224 -0.1642
 5904SOL    HW129171   0.171   2.815   6.814 -0.0323  0.7092 -0.3095
 5904SOL    HW229172   0.105   2.867   6.695 -3.9677  0.5172 -0.3481
 5905SOL     OW29173   4.551   2.275  15.824 -0.0968 -0.0460  0.4261
 5905SOL    HW129174   4.617   2.300  15.760 -0.0276  0.4243  0.6836
 5905SOL    HW229175   4.483   2.338  15.799  0.0438 -0.4448 -0.9786
 5906SOL     OW29176   0.667   1.662  13.748  0.2149  0.3627  0.6233
 5906SOL    HW129177   0.647   1.710  13.667  0.5245 -1.3862 -0.4804
 5906SOL    HW229178   0.583   1.617  13.754  1.0179 -1.4388 -1.9190
 5907SOL     OW29179   3.960   1.661   6.682  0.1197 -0.3559 -0.6730
 5907SOL    HW129180   3.882   1.684   6.632  0.1555  1.5973  0.1672
 5907SOL    HW229181   3.923   1.632   6.765  1.1259  0.4242  0.0413
 5908SOL     OW29182   3.948   3.750  16.915 -0.1192  0.4032 -0.2600
 5908SOL    HW129183   3.992   3.808  16.852 -2.0347  0.7741 -1.2458
 5908SOL    HW229184   3.960   3.801  16.996 -4.0978 -1.4680  1.4986
 5909SOL     OW29185   2.545   3.554  16.340 -0.0318  0.1631  0.1385
 5909SOL    HW129186   2.599   3.628  16.367 -1.9664  1.1664  1.2933
 5909SOL    HW229187   2.521   3.575  16.249 -0.0822  1.4447  0.4537
 5910SOL     OW29188   0.245   4.067   6.715  0.1049  0.1637  0.1077
 5910SOL    HW129189   0.206   4.078   6.802 -1.2138 -0.5150 -0.3922
 5910SOL    HW229190   0.206   4.140   6.667  0.6515 -0.7647 -1.7521
 5911SOL     OW29191   1.150   0.674   5.495 -0.0643 -0.3845  0.1885
 5911SOL    HW129192   1.110   0.630   5.420  2.6213 -1.6364 -0.5231
 5911SOL    HW229193   1.205   0.730   5.440  0.6848  0.2377  1.5519
 5912SOL     OW29194   2.027   1.841   6.013 -0.3079 -0.5730 -0.4487
 5912SOL    HW129195   2.038   1.829   6.107  0.4159  1.1211 -0.3063
 5912SOL    HW229196   1.935   1.817   6.001 -0.2745 -1.1109  0.3782
 5913SOL     OW29197   2.160   2.613   0.512 -0.2125  0.0142 -0.0242
 5913SOL    HW129198   2.203   2.548   0.568 -0.6395  0.1745  0.4849
 5913SOL    HW229199   2.071   2.616   0.547 -0.2602 -3.6928  0.2646
 5914SOL     OW29200   4.216   1.146   6.162  0.2144 -0.3696  0.3228
 5914SOL    HW129201   4.278   1.219   6.154  0.8558 -1.1496 -1.9001
 5914SOL    HW229202   4.273   1.070   6.156  2.1929  1.1048  0.4494
 5915SOL     OW29203   4.077   2.527   7.600 -0.2082 -0.4089  0.4698
 5915SOL    HW129204   4.131   2.470   7.655  1.7518  1.5307  0.5732
 5915SOL    HW229205   4.073   2.476   7.520 -0.6220 -0.0578  0.2648
 5916SOL     OW29206   0.534   2.981   5.678 -0.0908  0.2959 -0.4684
 5916SOL    HW129207   0.449   2.937   5.686  0.3687 -0.1310  2.0654
 5916SOL    HW229208   0.496   3.066   5.656  0.1413  0.0050 -2.0300
 5917SOL     OW29209   3.069   2.578  12.961 -0.5635  0.0344  0.7587
 5917SOL    HW129210   3.124   2.538  13.029  2.0006 -0.6189 -1.6996
 5917SOL    HW229211   3.035   2.508  12.905  1.4158  0.2555 -0.7286
 5918SOL     OW29212   2.970   1.628   3.672  0.0129  0.4385  0.2131
 5918SOL    HW129213   3.029   1.553   3.662  0.1577  0.6752 -0.7540
 5918SOL    HW229214   2.944   1.646   3.581 -1.1002 -1.9664  0.0671
 5919SOL     OW29215   2.907   4.659  15.542  0.2568  0.4073  0.6321
 5919SOL    HW129216   2.823   4.696  15.515  1.2884  0.6673 -2.2777
 5919SOL    HW229217   2.949   0.010  15.584 -0.2988  0.7878  0.4993
 5920SOL     OW29218   0.648   4.112   7.289  0.1028 -0.0130  0.7889
 5920SOL    HW129219   0.693   4.073   7.214 -1.6989 -2.4654  0.9774
 5920SOL    HW229220   0.696   4.087   7.368 -0.4846 -0.2751  1.0713
 5921SOL     OW29221   4.597   0.883  13.939  0.4828 -0.1585 -0.2307
 5921SOL    HW129222   4.554   0.900  13.855 -1.8770 -0.2944  0.9525
 5921SOL    HW229223   4.535   0.907  14.008  0.1427  1.5307 -1.1339
 5922SOL     OW29224   4.483   3.263  12.255  0.4968  0.3716 -0.1912
 5922SOL    HW129225   4.424   3.339  12.254  2.2459  1.7177 -0.8981
 5922SOL    HW229226   4.473   3.229  12.166  1.2188 -0.3141 -0.0074
 5923SOL     OW29227   2.531   2.448   7.750 -0.0257  0.0812 -0.7316
 5923SOL    HW129228   2.593   2.461   7.821 -1.7999 -2.2771  1.2675
 5923SOL    HW229229   2.488   2.533   7.748 -0.6705 -0.1954  1.1642
 5924SOL     OW29230   2.511   3.147  11.140 -0.5557 -0.8579 -0.2573
 5924SOL    HW129231   2.455   3.119  11.212 -0.7349  1.6880  0.5947
 5924SOL    HW229232   2.599   3.148  11.178 -0.1765 -1.2480 -1.1110
 5925SOL     OW29233   1.707   3.244   9.009 -0.4433  0.2891  0.7145
 5925SOL    HW129234   1.674   3.185   8.942 -1.7155  2.2773 -0.4315
 5925SOL    HW229235   1.770   3.293   8.957  1.7204 -0.0004  3.0561
 5926SOL     OW29236   3.565   3.580  17.087 -0.1364 -0.2895  0.5651
 5926SOL    HW129237   3.574   3.654  17.146 -0.3016 -0.0556  0.2954
 5926SOL    HW229238   3.536   3.505  17.139 -1.1061 -1.8419 -2.2314
 5927SOL     OW29239   3.988   2.012   5.626 -0.4611 -0.1491 -0.0594
 5927SOL    HW129240   4.051   2.071   5.584 -1.9172  0.5802 -1.2350
 5927SOL    HW229241   4.032   1.933   5.595  0.4928  0.7992 -1.1091
 5928SOL     OW29242   1.160   1.843   6.717 -0.1089  0.1388  0.6455
 5928SOL    HW129243   1.237   1.790   6.736  0.8691  1.5720  0.6792
 5928SOL    HW229244   1.102   1.770   6.738  0.6073 -1.0641 -1.5532
 5929SOL     OW29245   0.830   2.895   3.583 -0.2278 -0.1882  0.0631
 5929SOL    HW129246   0.829   2.986   3.613 -0.8317  0.0205 -0.5921
 5929SOL    HW229247   0.837   2.853   3.669  1.1863 -1.1261 -0.5113
 5930SOL     OW29248   0.169   4.180  14.365 -0.0356  0.5492  0.2849
 5930SOL    HW129249   0.182   4.144  14.277 -1.0467 -0.6240  0.6118
 5930SOL    HW229250   0.243   4.144  14.414  0.7210  1.3119 -0.2956
 5931SOL     OW29251   0.425   3.405   9.276  0.4095  0.1539 -0.2898
 5931SOL    HW129252   0.385   3.340   9.334  1.5344 -0.5405 -0.3048
 5931SOL    HW229253   0.517   3.396   9.302 -0.3661  0.5069  2.6258
 5932SOL     OW29254   2.608   2.954   1.971 -0.2247  0.5406  0.2215
 5932SOL    HW129255   2.629   2.887   1.905  0.2660  0.3615  0.5553
 5932SOL    HW229256   2.630   3.033   1.920 -0.7453  1.2248  1.0770
 5933SOL     OW29257   1.858   2.816   6.715 -0.1106 -0.1118 -0.0053
 5933SOL    HW129258   1.875   2.909   6.732 -1.0193  0.0046  0.2668
 5933SOL    HW229259   1.811   2.818   6.632  1.5445  0.2257 -0.9198
 5934SOL     OW29260   3.333   1.801   6.288 -0.3702 -0.4207 -0.1550
 5934SOL    HW129261   3.412   1.803   6.233  0.1995 -0.7041  0.6585
 5934SOL    HW229262   3.295   1.717   6.265  2.0711 -1.3699 -0.7202
 5935SOL     OW29263   4.665   3.320   7.064 -0.3073  0.0022  0.4798
 5935SOL    HW129264   4.625   3.380   7.001 -0.3603  0.1016  0.6085
 5935SOL    HW229265   4.700   3.254   7.005  2.3586  0.9000  1.0693
 5936SOL     OW29266   0.108   3.338  15.461  0.0548 -0.3058 -0.4651
 5936SOL    HW129267   0.077   3.397  15.529 -0.7615 -1.6199  0.2957
 5936SOL    HW229268   0.041   3.270  15.467 -1.3553  1.2864  1.4340
 5937SOL     OW29269   3.407   2.574  10.069 -0.2129  0.5079  0.0748
 5937SOL    HW129270   3.352   2.587   9.991  0.1126 -0.2100 -0.2780
 5937SOL    HW229271   3.378   2.642  10.130 -0.0101  2.4186 -1.9490
 5938SOL     OW29272   1.059   0.226  10.531 -0.3174  0.6206  0.3707
 5938SOL    HW129273   1.133   0.196  10.583  1.3510  0.4641 -2.0978
 5938SOL    HW229274   0.984   0.190  10.578 -0.3398 -1.0347 -0.9316
 5939SOL     OW29275   4.044   2.575   3.421 -0.2151  0.0730  0.0186
 5939SOL    HW129276   4.110   2.644   3.421  0.7054 -0.7998 -1.0934
 5939SOL    HW229277   3.975   2.610   3.477 -1.2988 -0.9489 -0.6552
 5940SOL     OW29278   3.396   4.286   7.664 -0.3261  0.5873  0.0739
 5940SOL    HW129279   3.482   4.257   7.694 -1.2437 -0.9635  1.2177
 5940SOL    HW229280   3.334   4.216   7.689  0.8891 -0.4482  0.1956
 5941SOL     OW29281   0.668   1.996   0.563 -0.5807 -0.2699 -0.1601
 5941SOL    HW129282   0.679   1.918   0.509  0.5296  0.3899 -0.8737
 5941SOL    HW229283   0.578   2.027   0.552  0.0882  1.4153 -0.8969
 5942SOL     OW29284   0.183   0.081  13.643  0.5457 -0.0726 -0.6116
 5942SOL    HW129285   0.259   0.075  13.585  0.7792 -0.6553 -0.2458
 5942SOL    HW229286   0.120   0.054  13.577  1.8995 -0.4738 -1.7304
 5943SOL     OW29287   0.868   0.490   7.967  0.0993  0.0779  0.2621
 5943SOL    HW129288   0.883   0.414   8.023 -0.5032 -1.8137 -2.1351
 5943SOL    HW229289   0.783   0.512   8.005 -1.8254 -0.4865 -3.6519
 5944SOL     OW29290   0.104   3.931   2.661  0.4908  0.1847  0.1334
 5944SOL    HW129291   0.150   3.922   2.577 -0.3829 -0.3572 -0.2924
 5944SOL    HW229292   0.079   4.023   2.662 -1.2327 -0.2686 -0.0362
 5945SOL     OW29293   0.846   1.536   5.451 -0.2307 -0.6087  0.5388
 5945SOL    HW129294   0.794   1.581   5.385  0.1700 -0.1680  0.5238
 5945SOL    HW229295   0.922   1.507   5.400  0.6485 -1.6522  2.4207
 5946SOL     OW29296   1.239   3.586   2.749  0.1788  0.2729 -0.1564
 5946SOL    HW129297   1.246   3.663   2.693  0.8050 -0.5783 -1.2520
 5946SOL    HW229298   1.244   3.615   2.840  0.4676 -1.4496  0.3737
 5947SOL     OW29299   2.082   2.930   3.579  0.2741 -0.4115  0.2167
 5947SOL    HW129300   1.999   2.955   3.537  1.0098  0.3980 -0.7567
 5947SOL    HW229301   2.137   2.948   3.503 -1.4929 -0.3396 -1.0559
 5948SOL     OW29302   4.186   2.887  12.270  0.2581  0.3890 -0.0691
 5948SOL    HW129303   4.253   2.887  12.339 -0.0970 -0.9175  0.2759
 5948SOL    HW229304   4.216   2.808  12.223  0.6657  0.8514 -0.5847
 5949SOL     OW29305   4.361   3.221   5.044  0.0370 -0.5834  0.5182
 5949SOL    HW129306   4.275   3.186   5.018 -0.1637 -0.0502  0.4685
 5949SOL    HW229307   4.361   3.203   5.138 -2.1407  1.0545  0.8418
 5950SOL     OW29308   0.574   3.167   5.381  0.2998  0.4545 -0.4904
 5950SOL    HW129309   0.662   3.152   5.413  1.3214  2.3723 -2.3735
 5950SOL    HW229310   0.586   3.147   5.288  1.0310  2.5616 -0.8494
 5951SOL     OW29311   1.852   0.735   5.045 -0.7608 -0.3932 -0.2725
 5951SOL    HW129312   1.777   0.780   5.084 -0.3754 -1.9811  2.3309
 5951SOL    HW229313   1.816   0.700   4.964 -0.1568 -0.5549 -0.4656
 5952SOL     OW29314   0.910   2.560   9.211 -0.7716 -0.4712  0.2949
 5952SOL    HW129315   0.976   2.623   9.240 -0.3663 -0.3090 -0.9861
 5952SOL    HW229316   0.965   2.482   9.204 -0.9751 -0.7607  1.8183
 5953SOL     OW29317   4.536   1.345   3.908  0.9753 -0.3232 -0.7481
 5953SOL    HW129318   4.478   1.347   3.984 -2.6558  1.2188 -3.5471
 5953SOL    HW229319   4.509   1.260   3.874 -1.0820 -0.6125  1.6416
 5954SOL     OW29320   0.788   3.960   6.065 -0.0086 -0.1128  0.0549
 5954SOL    HW129321   0.715   3.915   6.023  1.1273 -2.0943  0.2479
 5954SOL    HW229322   0.851   3.888   6.064  3.4011  2.8520  0.9797
 5955SOL     OW29323   2.491   4.156   3.322  0.1309  0.0881 -0.2403
 5955SOL    HW129324   2.580   4.148   3.355 -0.0947 -0.7012  0.1665
 5955SOL    HW229325   2.449   4.177   3.406  2.0991  0.0816  0.7467
 5956SOL     OW29326   1.288   1.988   4.889  0.4466 -0.4932 -0.6978
 5956SOL    HW129327   1.278   1.897   4.864 -0.9789 -0.5198 -0.0188
 5956SOL    HW229328   1.251   1.981   4.977  1.7896 -1.3671 -0.2092
 5957SOL     OW29329   0.128   3.246   3.847  0.0652 -0.1837 -0.2631
 5957SOL    HW129330   0.204   3.248   3.905  1.0401 -0.2412 -1.5309
 5957SOL    HW229331   0.075   3.179   3.890  1.3253 -1.3408 -0.5376
 5958SOL     OW29332   2.348   0.033  10.890 -0.4786 -0.2475 -0.7962
 5958SOL    HW129333   2.434   0.062  10.919 -0.3356  0.0561 -1.5470
 5958SOL    HW229334   2.298   0.037  10.972 -1.1754 -0.8714 -1.1898
 5959SOL     OW29335   2.203   2.510   5.719  0.0270  0.6176  0.5379
 5959SOL    HW129336   2.287   2.512   5.672  0.4724  1.1754  1.3591
 5959SOL    HW229337   2.194   2.599   5.751 -0.2767 -0.3367  3.0982
 5960SOL     OW29338   1.239   2.817   5.030 -0.2076 -0.3333  0.2374
 5960SOL    HW129339   1.254   2.739   4.976  0.9857 -1.1540  1.7490
 5960SOL    HW229340   1.315   2.809   5.087 -0.2350  0.3635  0.3712
 5961SOL     OW29341   1.614   3.278   5.541 -0.2385  0.2830  0.6071
 5961SOL    HW129342   1.580   3.253   5.627 -2.0868  0.1888 -0.1653
 5961SOL    HW229343   1.585   3.199   5.496 -0.0105  0.7277 -0.3186
 5962SOL     OW29344   0.201   3.529   5.490  0.1495 -0.5042 -0.8891
 5962SOL    HW129345   0.284   3.483   5.477  0.8405  1.6680 -3.9150
 5962SOL    HW229346   0.138   3.462   5.465 -0.4294  0.9329 -3.2342
 5963SOL     OW29347   4.094   1.924   7.063  0.3134  0.4347  0.4833
 5963SOL    HW129348   4.116   1.832   7.046  0.4757  0.5814 -0.0807
 5963SOL    HW229349   4.042   1.925   7.144 -2.2585 -0.4680 -1.1459
 5964SOL     OW29350   2.199   0.557   4.176 -0.3782 -0.4074  0.0911
 5964SOL    HW129351   2.160   0.644   4.177 -0.2550 -0.3516 -0.1409
 5964SOL    HW229352   2.189   0.536   4.083  1.1925 -3.4586  0.6026
 5965SOL     OW29353   2.198   0.694   6.086 -0.5082  0.4168  0.0896
 5965SOL    HW129354   2.290   0.718   6.096 -0.3808  0.3743 -1.0408
 5965SOL    HW229355   2.189   0.697   5.991  0.8518  0.1415 -0.0571
 5966SOL     OW29356   2.867   0.715   7.980 -0.0146 -0.1483 -0.3402
 5966SOL    HW129357   2.918   0.671   7.912  0.2325  1.6975 -1.3271
 5966SOL    HW229358   2.814   0.640   8.009  0.9644 -0.8846 -0.4561
 5967SOL     OW29359   0.287   3.897   6.460 -0.1602 -0.2391 -0.3720
 5967SOL    HW129360   0.324   3.959   6.523 -0.2823  2.2066 -2.7109
 5967SOL    HW229361   0.282   3.826   6.524 -1.4658 -2.0047 -2.4617
 5968SOL     OW29362   2.596   2.295   5.985  0.0737  0.9145  0.4747
 5968SOL    HW129363   2.513   2.343   5.983 -0.0667  0.5796 -1.1873
 5968SOL    HW229364   2.576   2.248   6.066  0.9027 -0.7589 -0.2933
 5969SOL     OW29365   1.968   1.057  12.554  0.5187 -0.4110  0.4018
 5969SOL    HW129366   1.953   1.132  12.611  0.9292 -0.2674  0.3214
 5969SOL    HW229367   1.885   1.015  12.573  0.4148 -0.2026  0.4077
 5970SOL     OW29368   0.792   3.428   5.330  0.4819  0.1522 -0.3661
 5970SOL    HW129369   0.767   3.376   5.254  2.0623 -1.7943  0.4406
 5970SOL    HW229370   0.771   3.513   5.290 -0.6536 -0.6722 -1.5074
 5971SOL     OW29371   3.235   3.326   2.532  0.1289 -0.0453  0.1821
 5971SOL    HW129372   3.211   3.243   2.573 -3.5157  0.0457 -1.8441
 5971SOL    HW229373   3.324   3.343   2.563  1.1603 -2.6133 -1.4077
 5972SOL     OW29374   2.848   2.433   3.911 -0.4231  0.5888 -0.2556
 5972SOL    HW129375   2.780   2.481   3.863 -0.2326  1.1925  0.0812
 5972SOL    HW229376   2.886   2.499   3.969 -0.1389  0.2255 -0.0295
 5973SOL     OW29377   1.960   0.741   3.143  0.0695 -0.2817 -0.1625
 5973SOL    HW129378   1.977   0.661   3.094  1.9277  2.1557 -3.4832
 5973SOL    HW229379   1.955   0.712   3.234  1.3304  0.0342  0.0097
 5974SOL     OW29380   3.824   0.657  11.889 -0.4255 -0.0447  0.4131
 5974SOL    HW129381   3.880   0.712  11.944 -0.2661 -0.3566  0.5595
 5974SOL    HW229382   3.893   0.637  11.826  1.9326  1.8472  2.3781
 5975SOL     OW29383   4.449   0.824  13.709 -0.0140 -0.1990  0.2528
 5975SOL    HW129384   4.363   0.850  13.679  1.0609  2.2417 -0.6736
 5975SOL    HW229385   4.425   0.735  13.737  1.7071 -1.0011 -0.7993
 5976SOL     OW29386   2.917   0.373   3.289 -0.4694  0.2031 -0.0929
 5976SOL    HW129387   2.841   0.431   3.294 -0.8325 -0.2490 -0.3121
 5976SOL    HW229388   2.895   0.321   3.211 -0.6877  0.8723 -0.4712
 5977SOL     OW29389   4.495   0.942   5.594  0.2790  0.6052 -0.3061
 5977SOL    HW129390   4.467   0.869   5.539  1.9322  0.5664 -1.0608
 5977SOL    HW229391   4.413   0.963   5.640  0.4488 -1.8957  1.1627
 5978SOL     OW29392   0.658   1.229   8.065 -0.0719  0.3828 -0.2666
 5978SOL    HW129393   0.721   1.301   8.078 -0.6153  0.8509 -0.2136
 5978SOL    HW229394   0.719   1.158   8.044 -0.9809  0.0233 -1.7531
 5979SOL     OW29395   2.078   1.486   6.067  0.1276 -0.1117  0.0005
 5979SOL    HW129396   2.001   1.542   6.079  1.3756  1.4746  0.6219
 5979SOL    HW229397   2.037   1.400   6.061 -0.7198  0.4112 -1.5500
 5980SOL     OW29398   1.925   3.363  10.215 -0.1571  0.5877  0.4011
 5980SOL    HW129399   1.853   3.389  10.272 -1.5301  1.3262 -1.7074
 5980SOL    HW229400   1.995   3.415  10.255 -0.5553  0.5921  1.0907
 5981SOL     OW29401   3.663   2.503   9.979 -0.1968 -0.2191  0.4677
 5981SOL    HW129402   3.694   2.534  10.064  0.6254  1.0886 -0.3138
 5981SOL    HW229403   3.568   2.511   9.988 -0.1318  0.3699  0.6726
 5982SOL     OW29404   2.629   3.008  15.723  0.1068 -0.2078  0.5834
 5982SOL    HW129405   2.536   2.992  15.741  0.2371  0.1385  1.5430
 5982SOL    HW229406   2.622   3.009  15.627  0.4260  0.8251  0.5726
 5983SOL     OW29407   1.308   3.268   9.253  0.3003  0.0842  0.1897
 5983SOL    HW129408   1.250   3.254   9.328 -1.0201  2.6460 -0.3611
 5983SOL    HW229409   1.392   3.262   9.298  1.0240  0.9901 -1.0565
 5984SOL     OW29410   4.613   4.065   2.878 -0.1332 -0.0129  0.1430
 5984SOL    HW129411   4.664   4.105   2.808 -2.2463 -1.9574 -2.5155
 5984SOL    HW229412   4.673   4.061   2.953  2.0525  0.2664 -1.5857
 5985SOL     OW29413   3.577   1.905  17.036  0.2810  0.0082  0.5268
 5985SOL    HW129414   3.493   1.940  17.009 -0.6466 -0.9942  2.0589
 5985SOL    HW229415   3.611   1.980  17.085  1.3735 -0.1227 -0.0227
 5986SOL     OW29416   1.174   2.334  11.260  0.2001 -0.0110 -0.4748
 5986SOL    HW129417   1.085   2.368  11.269  0.1389  0.3627 -2.4669
 5986SOL    HW229418   1.213   2.403  11.206  0.2082  0.0935 -0.3331
 5987SOL     OW29419   3.661   3.658  12.389 -0.2580  0.3499 -0.3304
 5987SOL    HW129420   3.605   3.606  12.446  0.0888 -0.7159 -0.9657
 5987SOL    HW229421   3.631   3.744  12.420 -2.5218  0.2753 -2.3157
 5988SOL     OW29422   3.210   1.428   4.194  0.4212 -0.1870  0.7308
 5988SOL    HW129423   3.180   1.518   4.200 -2.9583 -1.2965  0.6751
 5988SOL    HW229424   3.241   1.405   4.282  0.3620  0.3750  0.8976
 5989SOL     OW29425   4.505   4.128  12.786  0.2581 -0.0167  0.1375
 5989SOL    HW129426   4.546   4.136  12.700  0.2547 -1.4542  0.0097
 5989SOL    HW229427   4.420   4.166  12.765 -0.2600 -0.7497  0.9186
 5990SOL     OW29428   3.849   0.372   0.696 -0.2927 -0.5119 -0.2338
 5990SOL    HW129429   3.772   0.398   0.646 -0.9277 -0.3156  0.8419
 5990SOL    HW229430   3.899   0.453   0.696 -0.4898 -0.3869 -1.6205
 5991SOL     OW29431   3.051   0.893   0.093 -0.4536  0.2012 -0.5003
 5991SOL    HW129432   3.037   0.808   0.052 -1.2556 -0.2480  0.6948
 5991SOL    HW229433   2.975   0.941   0.060 -1.7954 -0.2901  1.8401
 5992SOL     OW29434   4.100   0.961   7.748  0.2780 -0.4695 -0.1646
 5992SOL    HW129435   4.145   0.941   7.830  0.4916  1.2281  0.1367
 5992SOL    HW229436   4.155   1.031   7.713  0.2634 -0.2433  0.2643
 5993SOL     OW29437   3.586   3.981   2.980  0.0646 -0.6815  0.0328
 5993SOL    HW129438   3.509   4.014   2.934 -0.2614 -3.3057 -1.3072
 5993SOL    HW229439   3.647   4.044   2.942  0.8081 -1.8333 -0.6823
 5994SOL     OW29440   3.985   0.082  13.739  0.2098  0.7124  0.6966
 5994SOL    HW129441   3.970   0.149  13.806  0.7279  2.2688 -0.7392
 5994SOL    HW229442   4.048   0.030  13.788  0.6201 -0.4748 -1.1055
 5995SOL     OW29443   4.173   0.883  11.739  0.2916  0.0865  0.0179
 5995SOL    HW129444   4.113   0.810  11.726 -0.3110 -0.1091  3.8967
 5995SOL    HW229445   4.233   0.865  11.667  0.0709 -0.3329 -0.0601
 5996SOL     OW29446   0.527   4.634   2.418 -0.2860 -0.0152  0.1196
 5996SOL    HW129447   0.542   4.638   2.324 -1.0079 -1.7761 -0.0628
 5996SOL    HW229448   0.433   4.618   2.408 -0.7552  1.1224  2.5724
 5997SOL     OW29449   4.203   1.359  12.486  0.0301 -0.7449 -0.0297
 5997SOL    HW129450   4.236   1.352  12.576  0.2372  2.4360  0.1489
 5997SOL    HW229451   4.265   1.415  12.440  0.5492  0.5605  2.2523
 5998SOL     OW29452   2.507   4.377   6.301  0.5562  0.4939  0.1609
 5998SOL    HW129453   2.434   4.316   6.312 -1.1935  2.8358  1.6686
 5998SOL    HW229454   2.534   4.401   6.390  1.2059  0.8165 -0.1190
 5999SOL     OW29455   1.796   1.388   9.163  0.1505  0.3196  0.0830
 5999SOL    HW129456   1.742   1.310   9.147  0.6663 -0.0862  0.3166
 5999SOL    HW229457   1.855   1.383   9.088  1.7026  0.8839  1.2674
 6000SOL     OW29458   2.337   4.458   6.796  0.1175 -0.8574  0.0458
 6000SOL    HW129459   2.299   4.383   6.751  0.7087  0.2445 -2.2789
 6000SOL    HW229460   2.409   4.406   6.831  1.7078  0.3343 -1.5032
 6001SOL     OW29461   1.470   3.799  11.046 -0.1450 -0.2492 -0.4492
 6001SOL    HW129462   1.434   3.715  11.073 -1.5262  0.4441 -0.1591
 6001SOL    HW229463   1.455   3.848  11.127  0.2088 -1.2176  0.2004
 6002SOL     OW29464   4.133   3.829   8.013 -0.7490 -0.0332 -0.0787
 6002SOL    HW129465   4.053   3.777   8.019 -1.0339  0.4730  0.5830
 6002SOL    HW229466   4.107   3.898   7.952  1.1072 -0.8618 -1.8127
 6003SOL     OW29467   2.309   3.200   2.509  0.0224  0.7610  0.2344
 6003SOL    HW129468   2.268   3.157   2.434 -0.9284 -1.1918  1.8940
 6003SOL    HW229469   2.321   3.292   2.486  2.1206  0.9514  2.0566
 6004SOL     OW29470   4.385   2.458   8.088 -0.3456 -0.0333 -0.4582
 6004SOL    HW129471   4.445   2.530   8.069  2.2179 -1.8351  0.8454
 6004SOL    HW229472   4.429   2.433   8.170  0.2303 -2.3262 -1.4627
 6005SOL     OW29473   3.595   4.185  16.363  0.7167 -0.5488  0.0985
 6005SOL    HW129474   3.664   4.139  16.411  0.9984 -0.3079 -0.0719
 6005SOL    HW229475   3.611   4.164  16.271 -0.2844  0.1255 -0.2340
 6006SOL     OW29476   1.982   4.300   5.057  0.6127 -0.0787  0.1140
 6006SOL    HW129477   1.944   4.383   5.089  0.1175  0.0251 -0.7420
 6006SOL    HW229478   2.064   4.304   5.105  0.3068 -0.1460  0.6487
 6007SOL     OW29479   4.688   3.724   0.090  0.2485  0.9566 -0.1259
 6007SOL    HW129480   0.054   3.756   0.102  1.3734 -2.4645  0.5551
 6007SOL    HW229481   4.701   3.702  17.694 -1.2638 -0.9852  0.1210
 6008SOL     OW29482   3.388   1.186   5.418  0.5068  0.4829 -0.2396
 6008SOL    HW129483   3.406   1.178   5.512 -0.7863  0.5194  0.0068
 6008SOL    HW229484   3.409   1.276   5.391 -3.2491  1.6079  0.5738
 6009SOL     OW29485   4.370   4.541   1.776 -0.6328 -0.2450  0.2616
 6009SOL    HW129486   4.421   4.604   1.725  0.6235  0.6663  2.6455
 6009SOL    HW229487   4.281   4.553   1.741  1.3920  1.9363 -4.2112
 6010SOL     OW29488   0.384   1.667  16.782 -0.5499 -0.0373  0.8217
 6010SOL    HW129489   0.474   1.693  16.764 -0.8966  0.2645 -0.4855
 6010SOL    HW229490   0.383   1.577  16.750 -3.3342 -0.2767  1.5308
 6011SOL     OW29491   0.218   0.486  10.727  0.0272  0.0105  0.4324
 6011SOL    HW129492   0.293   0.542  10.707  0.0350 -0.2905 -0.3960
 6011SOL    HW229493   0.149   0.552  10.729 -0.1636 -0.1620 -0.4409
 6012SOL     OW29494   4.181   2.859  13.807  0.1596 -0.1592  0.4460
 6012SOL    HW129495   4.091   2.838  13.831  0.0065  1.0800  0.9114
 6012SOL    HW229496   4.223   2.787  13.854 -0.7634 -2.1076 -1.6761
 6013SOL     OW29497   0.063   4.565   9.316  0.1206 -0.7509  0.1402
 6013SOL    HW129498   0.150   4.525   9.324  0.0037 -1.3193 -1.5244
 6013SOL    HW229499   0.080   4.640   9.373  0.3577 -0.5663 -0.1770
 6014SOL     OW29500   1.302   0.159  10.624 -0.0133 -0.5601 -0.0070
 6014SOL    HW129501   1.361   0.235  10.625  1.2440 -1.5256  0.3712
 6014SOL    HW229502   1.314   0.129  10.714 -1.3297  0.0539  0.3646
 6015SOL     OW29503   2.592   3.104   4.026  0.0176  0.1807 -0.6218
 6015SOL    HW129504   2.656   3.164   3.988 -2.2742  3.2088  0.3798
 6015SOL    HW229505   2.518   3.129   3.972 -0.8305 -1.4226 -0.2061
 6016SOL     OW29506   3.724   1.431  11.948 -0.0058 -0.0190 -0.1660
 6016SOL    HW129507   3.687   1.360  11.897 -0.3162  0.0985 -0.1023
 6016SOL    HW229508   3.816   1.404  11.947  0.2746  0.9910 -1.5731
 6017SOL     OW29509   2.306   4.702  12.011 -0.1115 -0.0107 -0.1096
 6017SOL    HW129510   2.374   4.695  12.078  1.1911  1.0025 -1.3047
 6017SOL    HW229511   2.351   0.040  11.953 -0.1964 -0.9010 -1.1216
 6018SOL     OW29512   3.253   1.587   3.720  0.7612 -0.2013 -0.3316
 6018SOL    HW129513   3.305   1.511   3.696 -0.7973 -1.8366  1.4657
 6018SOL    HW229514   3.288   1.641   3.649  1.7040 -2.5538 -1.6408
 6019SOL     OW29515   3.111   3.086  14.521  0.1006  0.7055  0.3378
 6019SOL    HW129516   3.177   3.147  14.554  1.4430 -2.0110  2.7046
 6019SOL    HW229517   3.034   3.142  14.526 -0.3118  0.3561 -2.0188
 6020SOL     OW29518   2.141   3.137   5.520 -0.0688  0.2831  0.2332
 6020SOL    HW129519   2.112   3.149   5.430  0.6721 -1.6435 -0.2633
 6020SOL    HW229520   2.217   3.195   5.522  1.3541 -1.4826 -1.9943
 6021SOL     OW29521   4.333   0.406  11.805 -0.2828 -0.0637 -0.6966
 6021SOL    HW129522   4.263   0.407  11.870  0.2828  0.2028 -0.0930
 6021SOL    HW229523   4.390   0.333  11.824  0.6428  0.4714 -1.3999
 6022SOL     OW29524   2.172   1.278   9.433  0.4677  0.3220 -0.4765
 6022SOL    HW129525   2.148   1.221   9.360 -0.2070 -0.9045  0.7033
 6022SOL    HW229526   2.107   1.248   9.497  0.1558  1.0058 -0.4678
 6023SOL     OW29527   4.375   0.551   5.075 -0.0745  0.4804 -0.6934
 6023SOL    HW129528   4.297   0.554   5.129  0.1461 -0.1240 -0.3513
 6023SOL    HW229529   4.416   0.619   5.128  0.1730  0.7580 -1.2326
 6024SOL     OW29530   3.962   0.231   5.624 -0.1190  0.6229  0.0171
 6024SOL    HW129531   3.927   0.150   5.588 -2.6525 -0.1867  4.3992
 6024SOL    HW229532   3.891   0.270   5.674 -0.2990 -1.0872  1.0781
 6025SOL     OW29533   2.673   0.545   8.038  0.6827  0.5555  0.1904
 6025SOL    HW129534   2.643   0.475   7.981  1.2766  1.8208 -1.6775
 6025SOL    HW229535   2.607   0.542   8.107 -1.2628 -0.2002 -1.7174
 6026SOL     OW29536   3.500   3.579   2.885 -0.4419  0.1621 -0.2381
 6026SOL    HW129537   3.426   3.607   2.832 -0.1382 -0.0038 -0.7541
 6026SOL    HW229538   3.517   3.660   2.933 -2.3729 -0.2152  1.0664
 6027SOL     OW29539   0.874   3.792   0.356 -0.5815 -0.8823 -0.0321
 6027SOL    HW129540   0.911   3.726   0.298  1.1596  0.2381 -0.2087
 6027SOL    HW229541   0.910   3.768   0.441  1.2026 -0.2392 -0.6040
 6028SOL     OW29542   1.386   3.543   7.493 -0.2330  0.0392 -0.0327
 6028SOL    HW129543   1.379   3.634   7.522  0.3899  0.5601 -1.4819
 6028SOL    HW229544   1.428   3.510   7.572 -0.1211 -0.0889 -0.1455
 6029SOL     OW29545   4.472   0.660  14.542  0.6393  0.3163 -0.4782
 6029SOL    HW129546   4.556   0.613  14.546  0.4961  0.1410  0.5699
 6029SOL    HW229547   4.473   0.685  14.450  0.9461 -0.4914 -0.6963
 6030SOL     OW29548   2.378   0.546   3.682 -0.0162 -0.4652  0.2374
 6030SOL    HW129549   2.308   0.570   3.621  0.4672  2.6027  0.8991
 6030SOL    HW229550   2.354   0.457   3.707 -0.7780  0.1445  1.6561
 6031SOL     OW29551   2.919   0.740  10.004  0.4744 -0.3798 -0.3319
 6031SOL    HW129552   2.868   0.783  10.073  1.2028 -2.3737  1.4580
 6031SOL    HW229553   2.855   0.677   9.971  0.7272 -0.8089  0.0027
 6032SOL     OW29554   4.325   4.091   8.622 -0.3014 -0.3760  0.0264
 6032SOL    HW129555   4.327   4.098   8.527 -1.4276  3.3147  0.2497
 6032SOL    HW229556   4.398   4.149   8.643 -0.5182  0.5476 -1.7676
 6033SOL     OW29557   4.342   2.230  12.424  0.2553  0.4106 -0.0409
 6033SOL    HW129558   4.313   2.223  12.333 -1.1542  0.6999  0.3907
 6033SOL    HW229559   4.295   2.159  12.468  1.7045 -1.0239 -0.8428
 6034SOL     OW29560   4.059   4.327   0.747 -0.5448 -0.0672  0.0779
 6034SOL    HW129561   4.038   4.417   0.771 -0.6069 -1.0693  3.7822
 6034SOL    HW229562   4.022   4.281   0.822 -0.8282 -0.4382 -0.2935
 6035SOL     OW29563   0.691   2.469   1.692  0.0074 -0.6076  0.2049
 6035SOL    HW129564   0.713   2.562   1.690 -1.4497 -0.2667 -0.4488
 6035SOL    HW229565   0.640   2.471   1.773  1.2379  0.0705  0.9635
 6036SOL     OW29566   0.248   0.282   4.285  0.2238  0.5107  0.0898
 6036SOL    HW129567   0.259   0.227   4.208 -0.3115  3.0079 -1.7980
 6036SOL    HW229568   0.296   0.242   4.357  0.0261  0.1443  0.0174
 6037SOL     OW29569   3.275   4.405  13.727 -0.0513 -0.1435  0.0977
 6037SOL    HW129570   3.336   4.457  13.779  0.1762 -1.5371  1.2262
 6037SOL    HW229571   3.264   4.338  13.796 -0.7766 -1.4314 -1.2622
 6038SOL     OW29572   1.926   1.406   2.761 -0.2823  0.7125 -0.0169
 6038SOL    HW129573   1.893   1.367   2.681 -1.2110  0.2796  0.5732
 6038SOL    HW229574   1.912   1.341   2.830  0.0203 -0.2161 -0.8421
 6039SOL     OW29575   1.368   1.210   8.420 -0.1990  0.2921 -0.7603
 6039SOL    HW129576   1.421   1.249   8.489 -1.1097 -2.3296  1.4177
 6039SOL    HW229577   1.404   1.122   8.413  0.7479  0.3571  3.2979
 6040SOL     OW29578   4.678   3.456   4.752 -0.4500 -0.0692  0.4995
 6040SOL    HW129579   4.665   3.430   4.843  2.0842  2.7303  1.6737
 6040SOL    HW229580   0.043   3.421   4.743 -0.6317  0.1402 -2.0544
 6041SOL     OW29581   2.853   3.279   8.297 -0.0836 -0.1171  0.8057
 6041SOL    HW129582   2.877   3.186   8.297 -1.5899 -0.5138  1.9470
 6041SOL    HW229583   2.939   3.320   8.304  0.1706 -0.4016 -0.7390
 6042SOL     OW29584   1.203   4.679   6.526 -0.1535 -0.2101 -0.3493
 6042SOL    HW129585   1.273   0.021   6.522 -0.5379  0.3793  2.3382
 6042SOL    HW229586   1.245   4.596   6.504  1.5835  0.3448  0.9033
 6043SOL     OW29587   2.197   1.019   7.959 -0.6712 -0.4607 -0.4999
 6043SOL    HW129588   2.144   1.051   8.032 -0.2699 -0.4363 -0.2178
 6043SOL    HW229589   2.262   0.965   8.004 -0.5676 -0.5293 -0.7276
 6044SOL     OW29590   1.834   3.903  15.781  0.2609 -0.4517 -0.1229
 6044SOL    HW129591   1.884   3.854  15.716  3.2208  0.9540  1.0757
 6044SOL    HW229592   1.745   3.884  15.751  0.2371  2.7160 -2.1107
 6045SOL     OW29593   4.625   1.412  10.852 -0.1162  0.2318  0.0430
 6045SOL    HW129594   4.701   1.452  10.894 -0.0171  1.1402 -1.0034
 6045SOL    HW229595   4.607   1.470  10.778  0.5728  2.6923  1.8030
 6046SOL     OW29596   0.914   3.178  16.733 -0.1897 -0.0965 -0.1993
 6046SOL    HW129597   0.976   3.181  16.660  0.0192  0.7684  0.0192
 6046SOL    HW229598   0.845   3.132  16.685  0.3409  1.5232 -2.5148
 6047SOL     OW29599   3.415   4.186   8.654  0.2015 -0.0386  0.2254
 6047SOL    HW129600   3.357   4.170   8.580 -1.4779  3.5978  0.7440
 6047SOL    HW229601   3.489   4.130   8.635  1.0021  1.6893 -1.7720
 6048SOL     OW29602   2.648   2.766  14.870 -0.2152 -0.0313 -0.2275
 6048SOL    HW129603   2.742   2.763  14.853 -0.4497 -1.8230 -1.2594
 6048SOL    HW229604   2.621   2.809  14.789  2.3311  1.5471 -0.2536
 6049SOL     OW29605   3.247   2.652   7.646 -0.0503 -0.1073 -0.3014
 6049SOL    HW129606   3.236   2.566   7.687 -0.4325 -0.8086 -1.8627
 6049SOL    HW229607   3.166   2.700   7.661 -0.3276 -0.2642 -1.2678
 6050SOL     OW29608   1.035   4.244   5.881  0.0665 -0.0376 -0.0913
 6050SOL    HW129609   1.121   4.254   5.839  1.6826 -1.4007  2.8240
 6050SOL    HW229610   0.980   4.206   5.814 -0.5075 -0.2336  0.4915
 6051SOL     OW29611   3.577   0.895   9.262 -0.2575  0.8479  0.4013
 6051SOL    HW129612   3.660   0.858   9.292 -0.2828 -0.4913 -1.1697
 6051SOL    HW229613   3.601   0.931   9.176 -3.6909  2.6675  0.1910
 6052SOL     OW29614   3.882   1.789   2.769 -0.3436 -0.2103  0.4279
 6052SOL    HW129615   3.843   1.847   2.833 -0.0370 -0.7196  1.0828
 6052SOL    HW229616   3.964   1.773   2.816  0.4656  0.2207 -0.8065
 6053SOL     OW29617   4.534   1.700   6.928  0.2965  0.3873  0.6284
 6053SOL    HW129618   4.526   1.794   6.912 -0.7635 -0.1997 -2.4150
 6053SOL    HW229619   4.478   1.679   7.003 -1.0792  0.9632 -0.2310
 6054SOL     OW29620   4.073   3.644  10.943  0.0505  0.2043  0.4397
 6054SOL    HW129621   4.139   3.676  11.005  0.1634 -1.7878  1.3572
 6054SOL    HW229622   4.018   3.722  10.938 -1.5953 -1.0642 -1.2689
 6055SOL     OW29623   0.434   1.283   9.399 -0.1203 -0.5083  0.4277
 6055SOL    HW129624   0.429   1.261   9.306  2.1099  1.1306 -0.0751
 6055SOL    HW229625   0.366   1.229   9.439 -1.4643 -0.1119 -1.3182
 6056SOL     OW29626   3.901   3.601   9.196  0.0174 -0.3591  0.8673
 6056SOL    HW129627   3.933   3.515   9.222  3.2820  0.5677 -0.0562
 6056SOL    HW229628   3.813   3.576   9.170  0.0642  1.3050 -0.9355
 6057SOL     OW29629   2.425   2.742  15.080 -0.6753  0.1643 -0.1249
 6057SOL    HW129630   2.432   2.695  15.163  0.6467 -2.7149 -1.8335
 6057SOL    HW229631   2.341   2.788  15.083 -1.4646 -1.4066  1.6040
 6058SOL     OW29632   0.479   3.400   5.112  0.1952  0.6876 -0.6875
 6058SOL    HW129633   0.557   3.432   5.066  0.3365  0.8336 -0.3474
 6058SOL    HW229634   0.526   3.344   5.174 -1.5354 -0.5727 -0.5317
 6059SOL     OW29635   0.580   2.303   5.947  0.1314  0.3553 -0.2597
 6059SOL    HW129636   0.599   2.349   6.029  1.4974 -0.2892 -0.2266
 6059SOL    HW229637   0.668   2.268   5.933  0.0271 -0.8829  2.3253
 6060SOL     OW29638   2.498   2.682   4.166  0.1391  0.0962  0.4802
 6060SOL    HW129639   2.438   2.634   4.224 -1.8561  1.0090 -0.8213
 6060SOL    HW229640   2.473   2.772   4.185 -0.2345  0.1698 -0.3265
 6061SOL     OW29641   2.252   4.566  15.105 -0.2588 -0.0616  0.4291
 6061SOL    HW129642   2.303   4.571  15.025  0.7512 -0.9772  1.0093
 6061SOL    HW229643   2.253   4.658  15.132 -0.8338  0.2517 -0.6259
 6062SOL     OW29644   0.483   1.759  10.571  0.6154  0.1373  0.1479
 6062SOL    HW129645   0.526   1.843  10.583  0.7167  0.2906 -1.3109
 6062SOL    HW229646   0.478   1.723  10.660  0.6289  0.7980  0.4127
 6063SOL     OW29647   0.632   4.410   7.330 -0.5347  0.0970  0.3811
 6063SOL    HW129648   0.697   4.467   7.290  0.1812 -0.0200  1.3715
 6063SOL    HW229649   0.636   4.328   7.280  2.4844  1.2889 -1.3078
 6064SOL     OW29650   3.810   2.929   8.028 -0.3646  0.1776  0.3009
 6064SOL    HW129651   3.882   2.937   8.090 -0.1678  1.6781 -0.1038
 6064SOL    HW229652   3.828   2.995   7.961  1.8987 -0.0423  0.7022
 6065SOL     OW29653   4.588   0.020   2.201 -0.4080  0.4462 -0.1356
 6065SOL    HW129654   4.517   4.687   2.230 -2.1268  1.1082 -2.9491
 6065SOL    HW229655   4.537   0.094   2.167  0.4991  0.9332 -0.4394
 6066SOL     OW29656   0.393   1.962   2.852 -0.5903 -0.1266  0.4460
 6066SOL    HW129657   0.379   2.015   2.774 -0.4100  0.4279  0.7883
 6066SOL    HW229658   0.441   1.887   2.816 -0.0944 -0.5251  1.9420
 6067SOL     OW29659   2.091   0.571   7.844  0.0783 -0.0841  0.0041
 6067SOL    HW129660   2.106   0.665   7.834 -1.4606  0.0461 -1.0546
 6067SOL    HW229661   2.081   0.573   7.939  2.1039 -1.2155  0.2339
 6068SOL     OW29662   0.899   2.386  14.058 -0.6852 -0.1977 -0.2264
 6068SOL    HW129663   0.853   2.367  14.140  2.2802  2.0078  1.9472
 6068SOL    HW229664   0.864   2.471  14.033  2.0621  1.3138  1.1419
 6069SOL     OW29665   0.620   1.171   2.130  0.1122 -0.4912  0.4321
 6069SOL    HW129666   0.676   1.154   2.054  0.2967 -0.6403  0.6015
 6069SOL    HW229667   0.629   1.093   2.185  2.0432 -0.8678 -0.3885
 6070SOL     OW29668   1.588   0.364   7.493 -0.4995  0.3597  0.8783
 6070SOL    HW129669   1.619   0.290   7.545  2.3027 -0.5467 -2.0896
 6070SOL    HW229670   1.654   0.432   7.506  1.2958 -1.2800  0.3304
 6071SOL     OW29671   4.648   3.860   3.267  0.5340  0.5642  0.1142
 6071SOL    HW129672   4.581   3.805   3.226  1.3558 -0.9373  0.7740
 6071SOL    HW229673   0.001   3.816   3.231  1.0544  2.1703 -0.7345
 6072SOL     OW29674   2.580   0.955   5.480 -0.6588  0.2679  0.0330
 6072SOL    HW129675   2.560   0.909   5.562  0.1376  0.2146  0.2066
 6072SOL    HW229676   2.675   0.942   5.479 -1.1169 -3.1251  0.0196
 6073SOL     OW29677   0.925   1.562   7.418  0.4154  0.3036  0.2214
 6073SOL    HW129678   0.864   1.489   7.425  0.9886 -0.1499  0.4356
 6073SOL    HW229679   0.864   1.633   7.399  1.2655  1.3225  1.3119
 6074SOL     OW29680   3.632   0.097   3.797  0.1502 -0.0460  0.0845
 6074SOL    HW129681   3.541   0.125   3.786  0.0817 -0.2323  0.1689
 6074SOL    HW229682   3.624   0.002   3.809  1.9188 -0.0782  0.9439
 6075SOL     OW29683   3.144   4.536   7.525 -0.1030 -0.0026  0.1038
 6075SOL    HW129684   3.065   4.541   7.472  0.6528  0.5162 -0.9957
 6075SOL    HW229685   3.217   4.552   7.464  1.3946 -1.1249  1.5967
 6076SOL     OW29686   0.811   3.974  13.222 -0.0430 -0.2539  0.6119
 6076SOL    HW129687   0.882   3.980  13.285  2.2166  0.0485 -2.0099
 6076SOL    HW229688   0.731   3.980  13.275  0.7975  2.4673  1.5265
 6077SOL     OW29689   0.309   1.114   7.894 -0.1013  0.0160 -0.1326
 6077SOL    HW129690   0.302   1.053   7.968 -0.3496  1.2732  0.8674
 6077SOL    HW229691   0.251   1.067   7.834 -1.0066  1.2189 -0.1927
 6078SOL     OW29692   3.336   1.195   3.789 -0.1458  0.2214  0.2140
 6078SOL    HW129693   3.385   1.261   3.740  0.0348 -2.0876 -2.7413
 6078SOL    HW229694   3.339   1.232   3.877 -0.5811 -0.8301  0.6703
 6079SOL     OW29695   1.941   1.143   4.361 -0.5949  1.2106 -0.3174
 6079SOL    HW129696   1.904   1.230   4.345  1.0441  1.8249 -0.8089
 6079SOL    HW229697   2.035   1.159   4.367 -0.2652 -0.1794 -1.7062
 6080SOL     OW29698   3.710   0.461   8.141 -0.1016 -0.0649 -0.4825
 6080SOL    HW129699   3.721   0.555   8.152 -1.6245 -0.0446  0.9446
 6080SOL    HW229700   3.704   0.436   8.234  0.0920  0.8331 -0.2282
 6081SOL     OW29701   0.757   0.737   4.598  0.2278  0.2530  0.3322
 6081SOL    HW129702   0.666   0.720   4.571  0.1193 -2.0151  2.1554
 6081SOL    HW229703   0.776   0.648   4.627  1.8957  0.8224  0.9813
 6082SOL     OW29704   2.322   4.163   7.738  0.3829  0.3455 -0.1343
 6082SOL    HW129705   2.255   4.222   7.703  0.4251  0.9543  0.8123
 6082SOL    HW229706   2.286   4.110   7.809  3.9421 -1.1185  0.5853
 6083SOL     OW29707   3.688   4.183   3.282 -0.3782 -0.2130 -0.2755
 6083SOL    HW129708   3.737   4.144   3.209 -0.0550 -1.3207  0.5338
 6083SOL    HW229709   3.664   4.107   3.334  1.9382  0.7900  2.2137
 6084SOL     OW29710   1.862   0.416   3.871  0.1333  0.0351  0.0922
 6084SOL    HW129711   1.781   0.433   3.823 -0.3698 -0.9800  0.5833
 6084SOL    HW229712   1.839   0.416   3.963 -1.6471  0.3530 -0.3578
 6085SOL     OW29713   4.432   1.995   4.628  0.3252 -0.4012  0.0577
 6085SOL    HW129714   4.410   2.063   4.564 -1.0221 -1.3473 -0.4767
 6085SOL    HW229715   4.397   1.913   4.593  1.7296 -0.8702 -0.2669
 6086SOL     OW29716   1.912   3.765  11.433 -0.7096  0.0645 -0.0953
 6086SOL    HW129717   1.885   3.776  11.341 -0.5092 -2.1847 -0.4200
 6086SOL    HW229718   1.875   3.841  11.477  0.3681  1.0575 -0.9180
 6087SOL     OW29719   2.458   1.649   3.233 -0.5538  0.4745 -0.1526
 6087SOL    HW129720   2.507   1.568   3.249 -1.9322 -0.3297  0.1074
 6087SOL    HW229721   2.374   1.608   3.256 -1.0514  1.0724 -0.9092
 6088SOL     OW29722   0.636   2.962   7.643 -0.1325 -0.7037  0.4063
 6088SOL    HW129723   0.609   2.871   7.658 -0.4318 -0.5001  1.0981
 6088SOL    HW229724   0.600   2.979   7.557 -0.3762 -1.1940  0.4090
 6089SOL     OW29725   2.561   2.625  14.536 -0.1976  0.0333 -0.0585
 6089SOL    HW129726   2.518   2.625  14.450 -2.2322  0.9249  0.9589
 6089SOL    HW229727   2.506   2.679  14.592 -0.0165 -0.0975  0.2438
 6090SOL     OW29728   1.610   1.551   5.479 -0.1333 -0.0543  0.3930
 6090SOL    HW129729   1.555   1.624   5.452  0.0923  0.1052  0.3649
 6090SOL    HW229730   1.652   1.527   5.397  0.7157  2.7801 -0.0011
 6091SOL     OW29731   4.436   4.492   2.288 -0.4157 -0.4965  0.5096
 6091SOL    HW129732   4.344   4.483   2.265  0.1676 -2.9551 -0.9430
 6091SOL    HW229733   4.475   4.419   2.239 -1.2389 -2.2645  2.4844
 6092SOL     OW29734   2.824   2.840   7.319 -0.1910  0.1921  0.1237
 6092SOL    HW129735   2.859   2.778   7.384  0.5517 -0.9308 -1.3446
 6092SOL    HW229736   2.894   2.903   7.304  0.7540 -1.3853 -2.0986
 6093SOL     OW29737   2.442   3.292   8.601  0.5149 -0.0772 -0.4502
 6093SOL    HW129738   2.466   3.200   8.596  2.2308  0.3151  0.8464
 6093SOL    HW229739   2.506   3.329   8.540 -2.7044  4.1288 -1.2959
 6094SOL     OW29740   4.401   2.661  16.252  0.2607  0.3551 -0.8310
 6094SOL    HW129741   4.451   2.592  16.296 -1.0809  0.3896  0.7594
 6094SOL    HW229742   4.314   2.643  16.287 -0.4293  1.8474 -1.7773
 6095SOL     OW29743   1.201   1.606   7.548 -0.3161  0.0454  0.2281
 6095SOL    HW129744   1.217   1.603   7.642  2.0204 -1.0075 -0.2005
 6095SOL    HW229745   1.110   1.574   7.552 -0.6654  1.0368  0.1402
 6096SOL     OW29746   0.732   2.785   4.319  0.0141 -0.6957 -0.1133
 6096SOL    HW129747   0.746   2.818   4.408 -1.9370  0.4082 -0.2160
 6096SOL    HW229748   0.697   2.697   4.329 -1.1160 -0.3523 -1.0458
 6097SOL     OW29749   1.147   1.083   3.567 -0.6127 -0.0982 -0.1241
 6097SOL    HW129750   1.143   1.174   3.597 -0.0569  0.3704 -1.4665
 6097SOL    HW229751   1.084   1.049   3.631 -0.8921 -0.8853 -0.8201
 6098SOL     OW29752   4.427   1.487   6.725 -0.6427  0.3023 -0.5672
 6098SOL    HW129753   4.450   1.554   6.789  0.9517 -0.5479 -0.2519
 6098SOL    HW229754   4.331   1.493   6.731 -0.3911  1.9787  1.6300
 6099SOL     OW29755   1.033   1.148   7.268  0.2444 -0.2539  0.1253
 6099SOL    HW129756   0.953   1.132   7.320  0.2596 -2.4177 -0.4974
 6099SOL    HW229757   1.066   1.068   7.228  0.9855  1.2503 -2.2674
 6100SOL     OW29758   2.873   0.862   2.908  0.0803  0.4055 -0.3855
 6100SOL    HW129759   2.960   0.826   2.892 -0.6202  0.4750 -4.2962
 6100SOL    HW229760   2.814   0.803   2.861  0.2673 -2.8376  3.3726
 6101SOL     OW29761   0.228   4.170  10.216  0.0109  0.0121 -0.1953
 6101SOL    HW129762   0.151   4.157  10.272  0.2022  3.7075  0.8980
 6101SOL    HW229763   0.188   4.212  10.139  1.9548  0.8737 -0.7204
 6102SOL     OW29764   1.930   1.643   3.746  0.0658  0.1083  0.1096
 6102SOL    HW129765   1.855   1.594   3.777 -0.7198  1.0057 -0.3617
 6102SOL    HW229766   1.881   1.723   3.726  0.0851  0.7794  2.7501
 6103SOL     OW29767   3.506   0.896   4.166  0.1746 -0.2137  0.7236
 6103SOL    HW129768   3.516   0.966   4.231 -0.8905  0.9202 -0.3154
 6103SOL    HW229769   3.500   0.824   4.228 -0.9098 -1.2315 -0.5626
 6104SOL     OW29770   2.103   0.184   3.092  1.1062  0.1623  0.0055
 6104SOL    HW129771   2.136   0.273   3.104  1.4571  0.1428 -0.7616
 6104SOL    HW229772   2.170   0.149   3.034 -0.1656  1.6234 -2.3714
 6105SOL     OW29773   1.203   1.235   5.416  0.0221  0.1927 -0.2157
 6105SOL    HW129774   1.125   1.181   5.428  0.5117 -0.7398 -1.1687
 6105SOL    HW229775   1.185   1.268   5.328  1.0131  2.2278  0.3505
 6106SOL     OW29776   0.994   1.957   5.937 -0.1847 -0.3272 -0.3358
 6106SOL    HW129777   1.029   1.968   6.026  0.0484 -0.4974 -0.4074
 6106SOL    HW229778   1.075   1.937   5.890 -0.3597  0.7246 -1.0942
 6107SOL     OW29779   2.048   0.232   8.976 -0.2570 -0.4212 -0.4707
 6107SOL    HW129780   2.012   0.189   9.054 -1.9116 -1.0201 -1.5851
 6107SOL    HW229781   2.108   0.163   8.949 -0.3247 -0.8738  0.5116
 6108SOL     OW29782   2.309   0.083  11.715  0.5760 -0.4825 -0.1815
 6108SOL    HW129783   2.334   0.154  11.774  0.9006 -0.6247 -0.1493
 6108SOL    HW229784   2.285   0.124  11.632 -2.2128 -0.3280  0.7059
 6109SOL     OW29785   2.082   2.394   6.526  0.6153 -0.0568 -0.1693
 6109SOL    HW129786   2.115   2.419   6.439 -0.2124  0.7403 -0.2556
 6109SOL    HW229787   2.086   2.481   6.564  4.1341 -0.7251  0.9664
 6110SOL     OW29788   4.206   2.443   4.342 -0.0126  0.7435  0.1433
 6110SOL    HW129789   4.228   2.536   4.341 -0.5863  0.8567 -2.0996
 6110SOL    HW229790   4.123   2.444   4.390  0.3054  0.0950  0.6949
 6111SOL     OW29791   0.090   0.007  16.174 -0.1215 -0.1479 -0.2873
 6111SOL    HW129792   0.143   4.674  16.229  2.7306  2.5407 -0.2751
 6111SOL    HW229793   0.058   0.085  16.219 -0.4642 -0.6258  0.3069
 6112SOL     OW29794   2.018   0.992   2.298  0.3119  0.3160 -0.1953
 6112SOL    HW129795   2.034   0.948   2.214 -0.1467 -1.7524  0.7965
 6112SOL    HW229796   1.933   0.952   2.316  0.8661 -1.4286 -1.4808
 6113SOL     OW29797   2.756   2.539   2.149 -0.2933 -0.1430 -0.1668
 6113SOL    HW129798   2.730   2.622   2.190 -2.7706 -0.8255 -0.3591
 6113SOL    HW229799   2.849   2.560   2.141 -0.3438  0.4881  0.8554
 6114SOL     OW29800   2.195   2.192   3.521 -0.4329  0.0097 -0.0698
 6114SOL    HW129801   2.232   2.184   3.609 -0.1449 -1.3526 -0.3227
 6114SOL    HW229802   2.130   2.254   3.555 -1.4141 -0.1122 -1.7658
 6115SOL     OW29803   1.547   4.019   4.435  0.1019  0.6757 -0.3429
 6115SOL    HW129804   1.633   4.054   4.457  0.8397 -1.6404  0.4466
 6115SOL    HW229805   1.509   4.026   4.523 -0.2759 -0.0389 -0.4529
 6116SOL     OW29806   3.663   2.049   8.598  0.4312  0.3148  0.3551
 6116SOL    HW129807   3.619   1.970   8.629  1.2753 -0.6442 -0.8832
 6116SOL    HW229808   3.596   2.114   8.620  0.3852  0.0719  0.9491
 6117SOL     OW29809   1.257   0.512   5.212 -0.1647  0.5185 -0.1473
 6117SOL    HW129810   1.321   0.488   5.146 -1.4175  1.9869 -1.8967
 6117SOL    HW229811   1.238   0.427   5.251  3.2936 -0.6399 -1.0017
 6118SOL     OW29812   2.567   0.328  14.094 -0.4309 -0.4317 -0.0772
 6118SOL    HW129813   2.591   0.382  14.170  0.7830 -0.1823 -0.6324
 6118SOL    HW229814   2.594   0.243  14.130  1.8996 -0.6531 -2.3177
 6119SOL     OW29815   0.496   0.075   3.883 -0.1553 -0.0400  0.3415
 6119SOL    HW129816   0.550   4.721   3.892 -1.8306 -1.2939 -0.3193
 6119SOL    HW229817   0.538   0.122   3.812  1.5470 -1.0037  0.7237
 6120SOL     OW29818   3.827   4.379  17.638 -0.0965 -0.3603  0.1178
 6120SOL    HW129819   3.737   4.386  17.605 -0.4215 -2.8578  0.4433
 6120SOL    HW229820   3.855   4.299  17.595 -1.5363  0.0997 -1.6661
 6121SOL     OW29821   1.799   0.548   0.067 -0.0983 -0.7486  0.0497
 6121SOL    HW129822   1.812   0.457   0.095  1.1383 -0.9097 -1.0482
 6121SOL    HW229823   1.730   0.531   0.003 -0.0238 -3.5853  0.7291
 6122SOL     OW29824   4.223   0.588   1.293  0.0533 -0.4378  0.1618
 6122SOL    HW129825   4.154   0.648   1.263  1.5990  1.5972  0.6988
 6122SOL    HW229826   4.292   0.630   1.242  2.1013 -1.1100  2.3720
 6123SOL     OW29827   0.420   2.169  14.526 -0.1082 -0.3043 -0.2574
 6123SOL    HW129828   0.357   2.185  14.596  1.5212 -2.6719  1.7696
 6123SOL    HW229829   0.441   2.075  14.523  2.3965  0.2324  0.2613
 6124SOL     OW29830   2.855   4.354   5.785  0.2384 -0.4862  0.9064
 6124SOL    HW129831   2.826   4.442   5.811 -0.5983 -1.1998  2.3708
 6124SOL    HW229832   2.802   4.297   5.841 -2.1007 -1.9527 -2.7873
 6125SOL     OW29833   1.160   0.383   5.504  0.0809  0.3385  0.4949
 6125SOL    HW129834   1.079   0.358   5.550  0.0458 -1.5415 -0.6375
 6125SOL    HW229835   1.183   0.464   5.550 -1.6806  2.0617 -1.6556
 6126SOL     OW29836   1.105   0.382  12.179 -0.5285 -0.0971 -0.1591
 6126SOL    HW129837   1.074   0.471  12.200  1.0666  0.1379  1.2230
 6126SOL    HW229838   1.200   0.391  12.191 -0.4404  0.5277 -1.3126
 6127SOL     OW29839   0.769   4.612   6.454  0.3348  0.0686  0.0835
 6127SOL    HW129840   0.728   4.657   6.527  1.0094  1.2771 -0.2864
 6127SOL    HW229841   0.847   4.663   6.431 -0.8067  0.9908 -1.6965
 6128SOL     OW29842   1.985   0.576  17.600  0.3319 -0.3412  0.1398
 6128SOL    HW129843   2.036   0.509  17.646 -0.2113 -1.2936 -0.6360
 6128SOL    HW229844   1.924   0.597  17.671  1.2404  3.1274 -0.1272
 6129SOL     OW29845   2.730   3.243   4.638  0.6113  0.1566 -0.2741
 6129SOL    HW129846   2.767   3.279   4.718 -1.2955  0.9716  0.2545
 6129SOL    HW229847   2.725   3.151   4.663 -3.3604  0.0024 -1.6157
 6130SOL     OW29848   1.085   1.736   2.123 -0.1658 -0.3475  0.4849
 6130SOL    HW129849   1.154   1.671   2.136 -0.8868 -0.9656  1.2090
 6130SOL    HW229850   1.137   1.792   2.066  1.2830 -0.2026  1.9499
 6131SOL     OW29851   4.000   3.848  11.763  0.4556  0.0712 -0.6130
 6131SOL    HW129852   3.946   3.839  11.684 -1.6500  1.4738  0.6615
 6131SOL    HW229853   4.022   3.758  11.785  1.0828  0.8629  2.0533
 6132SOL     OW29854   3.416   2.440   1.574  0.2772 -0.3207 -0.1555
 6132SOL    HW129855   3.349   2.433   1.506  2.6674 -1.2672 -2.4569
 6132SOL    HW229856   3.405   2.362   1.627 -1.5813  0.4182  0.5293
 6133SOL     OW29857   2.478   1.868   3.791 -0.1567  0.6373 -0.2519
 6133SOL    HW129858   2.551   1.870   3.729  0.5505  4.5193  0.6573
 6133SOL    HW229859   2.527   1.839   3.868  0.5006 -0.7308 -1.1986
 6134SOL     OW29860   3.031   1.691  12.852  0.0469  0.0236  0.6180
 6134SOL    HW129861   3.072   1.632  12.916  1.9180 -1.2042 -1.7356
 6134SOL    HW229862   2.949   1.649  12.826 -0.1066  2.0969 -2.1826
 6135SOL     OW29863   0.690   4.161  10.319 -0.1352  0.1692 -0.0085
 6135SOL    HW129864   0.714   4.104  10.393  0.7252 -1.1053 -1.2557
 6135SOL    HW229865   0.603   4.123  10.305  0.0866 -0.6586  0.8295
 6136SOL     OW29866   1.546   1.241   6.277 -0.2554  0.1304 -0.4023
 6136SOL    HW129867   1.547   1.147   6.298 -0.9491  0.3488  0.5453
 6136SOL    HW229868   1.462   1.239   6.232  0.0131 -1.4814 -0.8478
 6137SOL     OW29869   1.195   2.485   5.120  0.0576 -0.5483  0.3054
 6137SOL    HW129870   1.143   2.474   5.200 -1.4705  3.2420 -0.1899
 6137SOL    HW229871   1.278   2.516   5.157  0.1693  0.0904 -0.4774
 6138SOL     OW29872   3.086   1.716   5.619  0.3827 -0.1565 -0.2345
 6138SOL    HW129873   3.168   1.762   5.600  0.2615 -0.2267 -0.9404
 6138SOL    HW229874   3.113   1.627   5.593  0.5881  0.2695 -1.4994
 6139SOL     OW29875   4.381   4.011  11.457 -0.3795  0.0107  0.3414
 6139SOL    HW129876   4.329   3.937  11.488 -1.5269 -0.1943 -2.0469
 6139SOL    HW229877   4.434   3.971  11.387  0.7953  1.0889  0.6250
 6140SOL     OW29878   0.134   0.116   5.139 -0.5781 -0.4594  0.2821
 6140SOL    HW129879   0.161   0.025   5.127  3.0856  0.6607 -0.0789
 6140SOL    HW229880   0.217   0.156   5.112 -0.6204 -1.4442 -1.3163
 6141SOL     OW29881   0.287   4.223   2.580  0.6396 -0.7155 -0.2127
 6141SOL    HW129882   0.278   4.180   2.495  4.1183  0.3293 -1.1238
 6141SOL    HW229883   0.200   4.218   2.619  0.6297  0.1465 -0.1321
 6142SOL     OW29884   2.279   0.679   9.232 -0.3620  0.2319  0.9892
 6142SOL    HW129885   2.333   0.757   9.218 -1.2498  0.3169 -1.9398
 6142SOL    HW229886   2.207   0.689   9.170  0.8044 -0.8521 -0.5115
 6143SOL     OW29887   3.880   4.160   6.955  0.5264  0.0918 -0.3607
 6143SOL    HW129888   3.846   4.079   6.916 -0.1546  1.3144 -2.2868
 6143SOL    HW229889   3.968   4.136   6.986  0.1335  0.9012  1.4099
 6144SOL     OW29890   3.668   3.004  10.624 -0.0926 -0.5521 -0.1919
 6144SOL    HW129891   3.621   3.038  10.548  0.9745  0.3228 -0.4536
 6144SOL    HW229892   3.610   3.033  10.694  0.2596 -1.2781  0.4111
 6145SOL     OW29893   2.875   1.714   8.880 -0.3460 -0.4124 -0.5812
 6145SOL    HW129894   2.874   1.661   8.960 -3.6688  0.4105 -0.0598
 6145SOL    HW229895   2.931   1.782   8.917 -0.2534 -0.9365  0.2544
 6146SOL     OW29896   3.136   2.395  10.177  0.6452  0.3633  0.2607
 6146SOL    HW129897   3.086   2.456  10.230 -0.1666 -0.6512  0.6639
 6146SOL    HW229898   3.217   2.444  10.170 -0.2979  1.8384 -0.2117
 6147SOL     OW29899   1.753   2.493  10.457 -0.7295 -0.5643 -0.4496
 6147SOL    HW129900   1.760   2.472  10.364  2.7699 -1.2389 -0.0300
 6147SOL    HW229901   1.794   2.579  10.453  1.5645 -1.6004  0.9384
 6148SOL     OW29902   3.803   0.942  12.394 -0.3957  0.0892  0.3829
 6148SOL    HW129903   3.845   1.001  12.457  0.5557  0.0548 -0.2084
 6148SOL    HW229904   3.796   0.858  12.439 -2.4302  0.5253  0.8531
 6149SOL     OW29905   0.739   3.385   7.281 -0.1546 -0.0014 -0.1921
 6149SOL    HW129906   0.696   3.346   7.205 -0.3603 -1.5743  0.7271
 6149SOL    HW229907   0.723   3.320   7.349  0.7653  0.7954  0.7928
 6150SOL     OW29908   0.933   4.022   8.106 -0.2753  0.6809 -0.3149
 6150SOL    HW129909   0.943   3.957   8.175 -1.0601  2.2008  1.2285
 6150SOL    HW229910   0.891   4.095   8.151  0.3578  0.7161  0.2185
 6151SOL     OW29911   0.707   1.310   3.041  0.5523  0.7841  0.2418
 6151SOL    HW129912   0.708   1.403   3.062  1.5811  0.3686  2.0296
 6151SOL    HW229913   0.733   1.313   2.949 -0.0442  0.5143  0.0651
 6152SOL     OW29914   0.969   4.570   0.238 -0.2598  0.0326  0.4064
 6152SOL    HW129915   0.990   4.486   0.198  2.2844  0.1155  1.5497
 6152SOL    HW229916   0.928   4.615   0.164  0.6635 -1.6484 -1.1356
 6153SOL     OW29917   3.427   0.680   6.639  0.1153  0.7726 -0.1525
 6153SOL    HW129918   3.401   0.649   6.726 -1.1597 -1.5574 -1.3571
 6153SOL    HW229919   3.420   0.600   6.586 -1.9297  0.9403 -0.1554
 6154SOL     OW29920   4.600   2.509   3.090  0.6536 -0.0560 -0.2465
 6154SOL    HW129921   4.547   2.581   3.124 -0.2192  0.2221 -2.2254
 6154SOL    HW229922   4.600   2.524   2.996  1.5682 -1.3384 -0.4531
 6155SOL     OW29923   2.125   1.928   8.093  0.1273 -0.0092 -0.3190
 6155SOL    HW129924   2.034   1.954   8.081  0.8761  3.0366  0.5647
 6155SOL    HW229925   2.142   1.882   8.011 -1.5459 -1.8436  0.3640
 6156SOL     OW29926   1.736   2.032   6.261 -0.0717  0.2046 -0.4249
 6156SOL    HW129927   1.716   2.106   6.319  1.0034  0.5583 -0.5060
 6156SOL    HW229928   1.785   2.080   6.194 -1.6752  1.0946 -0.9766
 6157SOL     OW29929   3.614   1.852  15.516 -0.0281 -0.6403  0.4380
 6157SOL    HW129930   3.598   1.916  15.447  1.3114 -1.8435 -0.9761
 6157SOL    HW229931   3.701   1.825  15.488 -0.3320  0.2953 -1.3984
 6158SOL     OW29932   2.945   2.323   4.213  0.2006  0.0194  0.4833
 6158SOL    HW129933   2.917   2.409   4.181  0.9955  0.0005 -0.2680
 6158SOL    HW229934   2.956   2.278   4.130  0.4182  2.4552 -0.8031
 6159SOL     OW29935   1.289   3.108   7.219 -0.0495 -0.0169 -0.3848
 6159SOL    HW129936   1.329   3.192   7.200 -0.7796 -0.1705 -2.6176
 6159SOL    HW229937   1.345   3.084   7.293  1.5775  0.0536 -1.5905
 6160SOL     OW29938   0.937   1.958  17.029  0.0009  0.8544  0.3712
 6160SOL    HW129939   0.958   1.961  17.122  1.3752 -2.2208  0.1827
 6160SOL    HW229940   1.019   1.922  16.995 -0.1661  0.2236  0.6422
 6161SOL     OW29941   4.672   4.679   4.057  0.1255 -0.1431  0.3335
 6161SOL    HW129942   0.042   4.678   4.036 -0.5061 -3.8510 -2.2852
 6161SOL    HW229943   4.667   4.688   4.152 -2.1833  2.5230 -0.0574
 6162SOL     OW29944   4.092   4.366  14.780 -0.1123 -0.3679 -0.5656
 6162SOL    HW129945   4.126   4.340  14.865 -0.1274 -1.3382 -0.8543
 6162SOL    HW229946   4.108   4.288  14.726 -1.6044  0.0825 -1.6432
 6163SOL     OW29947   3.670   0.195   8.088 -0.1184 -0.0202  0.0378
 6163SOL    HW129948   3.698   0.283   8.111  2.2993 -0.6485 -0.5286
 6163SOL    HW229949   3.729   0.181   8.014 -2.0287 -0.4279 -1.4161
 6164SOL     OW29950   1.303   1.432   6.778  0.3276 -0.4159  0.9972
 6164SOL    HW129951   1.295   1.491   6.854  0.0709  0.7998  0.0314
 6164SOL    HW229952   1.303   1.345   6.818 -0.0963  0.5490  3.1571
 6165SOL     OW29953   3.166   4.019  14.087  0.4734 -0.0748 -0.1391
 6165SOL    HW129954   3.214   3.968  14.021  0.5567 -0.0765 -0.0775
 6165SOL    HW229955   3.097   3.954  14.098 -2.4062  2.9577 -0.4427
 6166SOL     OW29956   2.360   0.114  15.925 -0.5545  0.2466  0.3340
 6166SOL    HW129957   2.439   0.081  15.970  1.0797  2.7971 -0.6968
 6166SOL    HW229958   2.297   0.108  15.997 -1.9685  1.7056 -0.8056
 6167SOL     OW29959   3.323   0.972   6.423  0.1878  0.1778  0.5673
 6167SOL    HW129960   3.361   0.892   6.385 -1.8159 -0.5359  0.0849
 6167SOL    HW229961   3.234   0.956   6.453  0.1139 -0.2711  0.1248
 6168SOL     OW29962   4.412   1.384   7.781  0.2920  0.0888 -0.3135
 6168SOL    HW129963   4.360   1.457   7.815 -0.9746 -0.4355 -1.1532
 6168SOL    HW229964   4.488   1.428   7.742 -0.7588  0.6287 -1.7322
 6169SOL     OW29965   4.647   3.028   8.982 -0.7566 -0.2326  0.2996
 6169SOL    HW129966   4.688   2.942   8.968  0.5809  0.6805 -1.3633
 6169SOL    HW229967   4.713   3.091   8.955  1.0539 -2.3840 -0.3016
 6170SOL     OW29968   3.262   1.652  15.556 -0.3409 -0.4423 -0.2385
 6170SOL    HW129969   3.230   1.740  15.535 -0.0555 -0.4503 -0.7269
 6170SOL    HW229970   3.273   1.657  15.651 -1.2561 -0.0425 -0.1577
 6171SOL     OW29971   1.567   1.726   7.914 -0.3844  0.3331  0.1940
 6171SOL    HW129972   1.503   1.797   7.919 -0.8902 -0.2491  1.9573
 6171SOL    HW229973   1.647   1.777   7.923  0.2804 -1.3343  3.8535
 6172SOL     OW29974   3.793   0.409   6.683  0.4453  0.0702  0.6278
 6172SOL    HW129975   3.775   0.501   6.703 -0.6517  0.0121 -0.0887
 6172SOL    HW229976   3.743   0.360   6.748  0.9838  1.4002  2.0553
 6173SOL     OW29977   3.521   0.966   2.071 -0.1383 -0.4474  0.3131
 6173SOL    HW129978   3.509   1.031   2.001 -1.7229 -1.0002  0.0662
 6173SOL    HW229979   3.506   1.027   2.143 -4.0420  0.0328 -0.8625
 6174SOL     OW29980   1.494   4.110   7.731  0.3137 -0.0872  0.1287
 6174SOL    HW129981   1.577   4.146   7.761 -0.0499  1.1093 -0.2895
 6174SOL    HW229982   1.429   4.180   7.738  1.9968  1.5525 -0.4536
 6175SOL     OW29983   0.672   3.703   7.779 -0.2927  0.1450  0.4616
 6175SOL    HW129984   0.740   3.756   7.738  0.9747 -0.5015  1.7041
 6175SOL    HW229985   0.699   3.728   7.868  2.0081  0.6922 -0.3731
 6176SOL     OW29986   2.859   1.064   8.225  0.2835  0.6164  0.0010
 6176SOL    HW129987   2.823   1.021   8.147 -1.9622  0.1486  1.2753
 6176SOL    HW229988   2.817   1.012   8.293 -0.8110 -0.5989 -1.6029
 6177SOL     OW29989   2.634   2.345   4.663  0.5244 -0.1195  0.3467
 6177SOL    HW129990   2.594   2.422   4.703  1.6117 -0.1189  1.4564
 6177SOL    HW229991   2.620   2.359   4.570  0.0484 -2.4510  0.0704
 6178SOL     OW29992   0.950   3.514   8.955 -0.0637  0.2521 -0.4686
 6178SOL    HW129993   0.980   3.430   8.922  1.2597 -0.0531  1.5532
 6178SOL    HW229994   0.861   3.520   8.918 -0.7072 -3.8938  0.4554
 6179SOL     OW29995   1.376   0.501   7.203 -0.6911  0.2361 -0.5194
 6179SOL    HW129996   1.302   0.561   7.200 -3.1749 -2.7635  3.2574
 6179SOL    HW229997   1.445   0.560   7.235 -0.4430  0.0031 -0.6249
 6180SOL     OW29998   3.344   3.345   2.996 -0.1299 -0.3009 -0.3826
 6180SOL    HW129999   3.435   3.321   2.975  0.1601  2.5957 -2.4026
 6180SOL    HW230000   3.342   3.440   2.994 -2.1310 -0.3486 -0.8566
 6181SOL     OW30001   2.580   1.888  11.417  0.4530 -0.3346 -0.0043
 6181SOL    HW130002   2.606   1.965  11.366  0.6693  0.3498  1.1473
 6181SOL    HW230003   2.618   1.905  11.503 -0.6444  1.4119  0.1470
 6182SOL     OW30004   2.211   3.032  10.011  0.5721 -0.8054 -0.0900
 6182SOL    HW130005   2.132   2.980   9.996  1.3422 -2.1419  0.4461
 6182SOL    HW230006   2.186   3.112   9.965 -2.8195 -2.2903 -0.8201
 6183SOL     OW30007   4.462   0.321   6.204 -0.3867 -0.5301  0.9851
 6183SOL    HW130008   4.551   0.309   6.238 -0.0405  1.8128  0.9416
 6183SOL    HW230009   4.424   0.236   6.225  1.0862 -1.3574  0.2194
 6184SOL     OW30010   4.560   1.059   4.534  0.7663 -0.2914 -0.2581
 6184SOL    HW130011   4.497   1.003   4.488  1.7238 -3.7023  2.5962
 6184SOL    HW230012   4.639   1.055   4.481 -0.2282 -0.0263 -1.7610
 6185SOL     OW30013   0.036   1.391   5.654 -0.1015  0.1696  0.4880
 6185SOL    HW130014   4.685   1.451   5.652 -0.6313 -0.4809  0.6946
 6185SOL    HW230015   0.020   1.331   5.581 -0.5784  0.8926  0.0016
 6186SOL     OW30016   2.880   1.754   5.788 -0.4468 -0.3798  0.1003
 6186SOL    HW130017   2.961   1.723   5.747 -0.2633  0.0623  0.1199
 6186SOL    HW230018   2.899   1.848   5.782 -0.8386 -0.2513  0.8975
 6187SOL     OW30019   4.121   2.519  17.488 -0.0955  0.0871 -0.2832
 6187SOL    HW130020   4.044   2.503  17.434  0.7694 -2.0317 -0.9080
 6187SOL    HW230021   4.095   2.508  17.580 -0.4952 -1.4799 -0.5835
 6188SOL     OW30022   2.827   2.081   8.123  0.1348 -0.3234 -0.1551
 6188SOL    HW130023   2.885   2.028   8.068 -1.9128 -1.6333 -1.0635
 6188SOL    HW230024   2.884   2.112   8.194  0.4207 -2.1922  0.4253
 6189SOL     OW30025   1.585   2.336   6.689 -0.3652  0.0996  0.1574
 6189SOL    HW130026   1.567   2.334   6.783  0.2217  1.9865  0.3229
 6189SOL    HW230027   1.677   2.360   6.679 -0.3222  0.5200  1.4966
 6190SOL     OW30028   3.758   3.916   8.262 -0.0791  0.2523 -0.3786
 6190SOL    HW130029   3.803   3.877   8.337 -1.9967 -3.4220 -1.1552
 6190SOL    HW230030   3.746   4.005   8.295  0.0389  0.8997 -2.0542
 6191SOL     OW30031   4.371   0.902   6.187 -0.3288 -0.1604  0.0124
 6191SOL    HW130032   4.452   0.867   6.224 -0.4389 -1.6233 -1.1299
 6191SOL    HW230033   4.379   0.868   6.098  0.3266 -0.3664  0.1523
 6192SOL     OW30034   1.605   0.360  16.665 -0.3589  0.6110  0.7263
 6192SOL    HW130035   1.514   0.332  16.671 -0.0344 -0.4623  0.6315
 6192SOL    HW230036   1.633   0.329  16.752  1.4366 -0.9003 -0.3874
 6193SOL     OW30037   1.184   2.881   2.657  0.0860  0.0346 -0.4323
 6193SOL    HW130038   1.195   2.954   2.717 -1.6536 -1.0518  1.2315
 6193SOL    HW230039   1.113   2.916   2.603  0.6365  1.2319 -0.3712
 6194SOL     OW30040   2.122   4.415   8.293 -0.0179 -0.0509  0.2893
 6194SOL    HW130041   2.082   4.502   8.297 -0.2509 -0.0690 -1.6587
 6194SOL    HW230042   2.156   4.398   8.381  2.0818 -0.3203 -0.5811
 6195SOL     OW30043   3.998   1.046   8.039 -0.3480  0.3618 -0.4709
 6195SOL    HW130044   4.067   0.994   8.000 -0.8900 -0.4479 -0.3425
 6195SOL    HW230045   4.016   1.134   8.004  0.8012  1.2971  2.4483
 6196SOL     OW30046   3.833   4.102   0.068 -0.0922  0.2160  0.6546
 6196SOL    HW130047   3.817   4.148   0.150  0.9046  2.5149 -0.4499
 6196SOL    HW230048   3.746   4.093   0.028 -0.1349  0.4296  0.7010
 6197SOL     OW30049   3.770   1.707   2.007  0.0752  0.5840 -0.0957
 6197SOL    HW130050   3.837   1.772   1.989  0.6399  0.2139  0.6774
 6197SOL    HW230051   3.705   1.738   1.943 -1.0737 -0.9169  0.3320
 6198SOL     OW30052   0.612   2.293   4.114  0.0883 -0.5658 -0.3427
 6198SOL    HW130053   0.590   2.200   4.112 -1.0026 -0.3099  0.0121
 6198SOL    HW230054   0.663   2.307   4.034  0.8912  0.7321  0.3852
 6199SOL     OW30055   4.187   1.351  14.837  0.7796  0.1565  0.1096
 6199SOL    HW130056   4.271   1.317  14.806  0.4752 -0.2910 -0.2271
 6199SOL    HW230057   4.124   1.281  14.821  0.3839  0.4952  0.1960
 6200SOL     OW30058   1.231   1.577   2.898  0.0210 -0.3652  0.2174
 6200SOL    HW130059   1.266   1.602   2.984  0.3246  2.6541 -0.7735
 6200SOL    HW230060   1.303   1.519   2.874  0.4035  0.2220 -0.0602
 6201SOL     OW30061   3.236   0.377   8.777 -0.0125 -0.0593  0.4493
 6201SOL    HW130062   3.243   0.282   8.782  1.5756  0.0786  0.7474
 6201SOL    HW230063   3.142   0.383   8.760 -0.3378 -2.0615  1.5474
 6202SOL     OW30064   1.806   2.058   5.997 -0.1956 -0.4732 -0.1212
 6202SOL    HW130065   1.784   1.977   5.951  4.0370 -1.2671 -0.7469
 6202SOL    HW230066   1.889   2.077   5.953 -0.9034  0.9641 -0.8422
 6203SOL     OW30067   3.275   1.548   2.581 -0.5218  0.3857  0.3042
 6203SOL    HW130068   3.331   1.624   2.599  2.2866 -1.8741  1.1011
 6203SOL    HW230069   3.204   1.580   2.526 -0.0914  0.1488 -0.3932
 6204SOL     OW30070   4.066   0.748  14.781  0.6279  0.0190 -0.4644
 6204SOL    HW130071   4.108   0.834  14.785  0.7289 -0.0819  0.7265
 6204SOL    HW230072   4.033   0.753  14.871 -1.0770  2.8426 -1.2779
 6205SOL     OW30073   4.625   0.754   1.988  0.1086  0.5027  0.0937
 6205SOL    HW130074   4.537   0.784   1.964  0.3052  1.0059  0.0082
 6205SOL    HW230075   4.620   0.781   2.080 -1.3550  0.6965 -0.0340
 6206SOL     OW30076   0.190   2.740  11.425  0.8680  0.0191 -0.6475
 6206SOL    HW130077   0.189   2.775  11.514 -1.3244  0.3909 -0.8208
 6206SOL    HW230078   0.098   2.740  11.397  0.9640  0.4796 -0.9596
 6207SOL     OW30079   3.944   3.366  16.021 -0.0506  0.6549  0.5005
 6207SOL    HW130080   3.947   3.277  15.987  1.8297  1.4554 -1.4569
 6207SOL    HW230081   3.925   3.409  15.938  0.2333 -0.0042  0.0960
 6208SOL     OW30082   0.207   1.874   5.299  0.0430  0.0441 -0.0594
 6208SOL    HW130083   0.241   1.786   5.318  1.1063  0.2235 -1.1391
 6208SOL    HW230084   0.281   1.927   5.330  0.0836 -0.4015  0.6079
 6209SOL     OW30085   1.973   3.299  15.099  0.1590 -0.4105 -0.4133
 6209SOL    HW130086   1.892   3.257  15.070 -1.3139  0.0659  3.0046
 6209SOL    HW230087   2.024   3.305  15.018  1.7542 -0.9757  0.5434
 6210SOL     OW30088   2.942   4.105   2.897 -0.5039  0.2901  0.0491
 6210SOL    HW130089   2.913   4.113   2.988 -1.0287  1.0436 -0.1856
 6210SOL    HW230090   2.897   4.026   2.867 -1.3315  0.9131 -0.3391
 6211SOL     OW30091   3.206   1.784   4.490 -0.1597  0.2514 -0.3726
 6211SOL    HW130092   3.199   1.720   4.561  2.6820  0.2017 -0.1595
 6211SOL    HW230093   3.169   1.737   4.414 -2.5097  3.9336 -1.4964
 6212SOL     OW30094   1.960   4.244   4.189 -0.5944  0.1413  0.4087
 6212SOL    HW130095   1.999   4.188   4.256  0.1958  0.1115 -0.0795
 6212SOL    HW230096   1.914   4.312   4.239 -0.5367 -2.2037  3.6397
 6213SOL     OW30097   0.693   2.338  12.863  0.2153  0.5612  0.1582
 6213SOL    HW130098   0.759   2.299  12.805  0.4034 -0.6394  1.2062
 6213SOL    HW230099   0.752   2.385  12.922  0.2548  1.4062 -0.5436
 6214SOL     OW30100   2.360   2.414   8.138 -0.3810 -0.4937  0.3970
 6214SOL    HW130101   2.443   2.371   8.116 -0.1123  0.6239 -0.7484
 6214SOL    HW230102   2.295   2.351   8.106  0.3880 -0.2943 -1.5517
 6215SOL     OW30103   3.956   0.494   0.318  0.2460 -0.1340 -0.0422
 6215SOL    HW130104   3.902   0.523   0.392 -0.1871  1.7992 -1.1202
 6215SOL    HW230105   3.883   0.476   0.258  1.0975  0.9454 -1.4057
 6216SOL     OW30106   1.728   4.533   4.739  0.4351  0.4392  1.5112
 6216SOL    HW130107   1.659   4.513   4.677  1.5245  1.5936 -0.0541
 6216SOL    HW230108   1.808   4.513   4.690  0.2720  0.9394  1.0563
 6217SOL     OW30109   0.563   1.267   2.790  0.1080  0.8799 -0.4294
 6217SOL    HW130110   0.536   1.226   2.707  1.1007 -0.9285  0.1443
 6217SOL    HW230111   0.603   1.188   2.826  1.4137  2.2131  1.0212
 6218SOL     OW30112   1.370   4.456   5.248 -0.6567 -0.4468 -0.0719
 6218SOL    HW130113   1.318   4.536   5.255  0.4838 -0.0165  3.3543
 6218SOL    HW230114   1.428   4.471   5.322  0.1904 -1.4296 -0.5346
 6219SOL     OW30115   2.609   1.894   8.122  0.4856  0.4778 -1.2433
 6219SOL    HW130116   2.650   1.809   8.105 -0.3613 -0.2553  0.4316
 6219SOL    HW230117   2.686   1.947   8.145  1.2740 -0.7422 -1.1149
 6220SOL     OW30118   2.669   0.158   3.467 -0.0962 -0.4610 -0.1743
 6220SOL    HW130119   2.678   0.246   3.503  0.9101 -0.9531  0.7972
 6220SOL    HW230120   2.621   0.178   3.386 -0.2021 -1.0941 -0.2696
 6221SOL     OW30121   1.559   1.893   1.033  0.3599  0.2887  0.1709
 6221SOL    HW130122   1.513   1.976   1.048  2.3035  1.4537 -0.2927
 6221SOL    HW230123   1.646   1.917   1.065  0.5621  0.3423 -0.4168
 6222SOL     OW30124   1.368   1.839   8.794  0.0627 -0.0720  0.2164
 6222SOL    HW130125   1.285   1.806   8.760  1.2409 -2.3394 -0.4433
 6222SOL    HW230126   1.332   1.908   8.851  1.1795 -1.5113  2.6135
 6223SOL     OW30127   2.577   4.664   6.280  0.3701  0.3593 -0.2113
 6223SOL    HW130128   2.515   4.591   6.294 -0.1232  0.9122  0.5025
 6223SOL    HW230129   2.540   4.720   6.348 -1.0204  0.7778 -1.3060
 6224SOL     OW30130   4.267   2.678   7.164  0.2841  0.1233  0.3330
 6224SOL    HW130131   4.258   2.593   7.207 -1.9962  0.3678  0.3194
 6224SOL    HW230132   4.310   2.655   7.082  1.9532  1.0559  0.9338
 6225SOL     OW30133   2.962   3.635   3.457 -0.6542 -0.2972 -0.3263
 6225SOL    HW130134   3.042   3.587   3.479  0.7387  2.1573  0.0164
 6225SOL    HW230135   2.992   3.698   3.392 -2.2685  0.7570 -0.0674
 6226SOL     OW30136   1.143   0.242   7.410 -0.4146  0.1539 -0.2180
 6226SOL    HW130137   1.133   0.338   7.411  0.7231  0.2614  1.3461
 6226SOL    HW230138   1.223   0.233   7.359 -0.5353  2.9848 -0.9413
 6227SOL     OW30139   3.796   1.167  15.111 -0.1407 -0.0898 -0.3985
 6227SOL    HW130140   3.822   1.111  15.038  1.3285  1.9517 -1.4392
 6227SOL    HW230141   3.701   1.152  15.114  0.0101 -1.3172 -1.8039
 6228SOL     OW30142   0.988   1.693  14.800  0.1437  0.3722 -0.0618
 6228SOL    HW130143   1.049   1.708  14.872 -1.1090  0.0635  1.0543
 6228SOL    HW230144   0.955   1.783  14.803 -2.5439 -0.5656 -1.4517
 6229SOL     OW30145   0.879   2.645   1.966  0.3014  0.5628 -0.2900
 6229SOL    HW130146   0.915   2.558   1.951 -1.2091 -0.1237  0.0766
 6229SOL    HW230147   0.818   2.661   1.894  0.9131  0.5953 -0.7993
 6230SOL     OW30148   2.770   2.284   0.004 -0.1001 -0.0980  0.4014
 6230SOL    HW130149   2.716   2.234   0.065 -1.0889 -1.7580 -1.8040
 6230SOL    HW230150   2.724   2.270  17.618  0.5235  1.9874 -0.2849
 6231SOL     OW30151   3.848   3.458  10.958  0.7967 -0.4471 -0.2163
 6231SOL    HW130152   3.844   3.502  11.043  1.4983 -2.0153  0.6101
 6231SOL    HW230153   3.931   3.502  10.939 -0.2271  1.5505 -0.0858
 6232SOL     OW30154   2.243   3.949   1.872 -0.2122 -0.1518  0.4153
 6232SOL    HW130155   2.172   4.009   1.849 -0.1074  0.3713  1.4380
 6232SOL    HW230156   2.317   4.008   1.861 -0.4390  0.1114  0.2947
 6233SOL     OW30157   0.508   0.622   6.712 -0.0783  0.6039 -0.1478
 6233SOL    HW130158   0.448   0.693   6.688 -1.2649  0.5619  2.7366
 6233SOL    HW230159   0.484   0.549   6.655 -0.0754  0.0210  0.6044
 6234SOL     OW30160   3.146   3.600  14.564 -0.2209  0.0851  0.4984
 6234SOL    HW130161   3.060   3.568  14.538  0.0389  0.3522 -0.6970
 6234SOL    HW230162   3.164   3.530  14.627  1.4081 -0.8340 -0.9887
 6235SOL     OW30163   2.862   1.713   4.069 -0.1920 -0.6319  0.5033
 6235SOL    HW130164   2.820   1.797   4.088  0.8539  0.3537 -1.5482
 6235SOL    HW230165   2.787   1.659   4.045  0.6531 -0.0638 -3.3870
 6236SOL     OW30166   1.324   2.231   1.758  0.2266  0.2661 -0.2000
 6236SOL    HW130167   1.241   2.227   1.712 -0.3144  0.9306  0.7272
 6236SOL    HW230168   1.325   2.323   1.783  0.5709 -0.2471  1.6676
 6237SOL     OW30169   2.358   1.678   4.018 -0.9644 -0.0918  0.8811
 6237SOL    HW130170   2.321   1.633   3.942  1.1591  0.3482 -0.4161
 6237SOL    HW230171   2.293   1.744   4.038  0.0795  1.0630  0.4415
 6238SOL     OW30172   1.574   4.093   2.721 -0.1486 -0.4350 -0.3448
 6238SOL    HW130173   1.623   4.156   2.668 -1.5974 -0.8885 -2.1806
 6238SOL    HW230174   1.648   4.065   2.776  0.7094  2.0501 -0.2450
 6239SOL     OW30175   3.257   1.973   9.525 -0.2136  0.0993  0.4149
 6239SOL    HW130176   3.169   1.973   9.488 -0.3425 -0.4306  0.7218
 6239SOL    HW230177   3.237   2.019   9.607 -0.7115  1.1481 -0.2963
 6240SOL     OW30178   4.131   1.554   6.500  0.4583 -0.2375 -0.2113
 6240SOL    HW130179   4.094   1.623   6.444 -1.3621  0.0214  1.3353
 6240SOL    HW230180   4.063   1.545   6.566 -1.2204 -3.3232 -2.3210
 6241SOL     OW30181   0.277   1.679   2.138 -0.3308 -0.0946 -0.3416
 6241SOL    HW130182   0.351   1.717   2.090  1.1781 -1.0205  1.2252
 6241SOL    HW230183   0.331   1.609   2.177 -2.1729 -1.4261 -0.2048
 6242SOL     OW30184   3.341   2.486   5.376 -0.8473  0.2216 -0.6716
 6242SOL    HW130185   3.319   2.565   5.425 -0.9907 -0.4017  0.2817
 6242SOL    HW230186   3.258   2.438   5.368  1.6966 -4.1105 -1.3212
 6243SOL     OW30187   2.530   1.256   4.606 -0.0719  0.3006 -0.0554
 6243SOL    HW130188   2.619   1.290   4.615  0.5848 -0.6909 -3.1939
 6243SOL    HW230189   2.502   1.284   4.519 -0.9936  1.0061  0.4601
 6244SOL     OW30190   0.744   2.294   3.890 -0.0715 -0.1672  0.1831
 6244SOL    HW130191   0.715   2.324   3.804  1.0868  0.6597  0.0944
 6244SOL    HW230192   0.824   2.250   3.861 -0.1986  0.1631 -0.6788
 6245SOL     OW30193   3.536   0.726   1.943  1.1985 -0.4966  0.3897
 6245SOL    HW130194   3.530   0.786   1.868 -0.2778 -1.3839 -0.2053
 6245SOL    HW230195   3.542   0.789   2.015 -1.7156 -0.3975  0.5329
 6246SOL     OW30196   1.547   0.126   6.133 -0.3394 -0.3892 -0.1547
 6246SOL    HW130197   1.534   0.194   6.067  1.0738 -0.9953 -1.0398
 6246SOL    HW230198   1.610   0.175   6.186 -0.5738  1.5896 -1.7244
 6247SOL     OW30199   0.206   0.045  17.650  0.1386 -0.2060  0.4001
 6247SOL    HW130200   0.116   0.076  17.643  0.1316 -0.1142  0.9412
 6247SOL    HW230201   0.252   0.122  17.683 -2.0956  1.5574 -0.6076
 6248SOL     OW30202   1.490   1.109   3.103 -0.1509  0.1908  0.0900
 6248SOL    HW130203   1.407   1.138   3.066  0.2664 -0.8799 -1.6690
 6248SOL    HW230204   1.544   1.185   3.083  1.8479 -1.5144 -0.9690
 6249SOL     OW30205   2.434   0.962   7.475  0.1251  0.1643 -0.4620
 6249SOL    HW130206   2.493   1.021   7.428  0.7201  0.0796  0.1704
 6249SOL    HW230207   2.352   1.003   7.450 -0.6027 -1.0193  0.0092
 6250SOL     OW30208   0.067   1.445   2.547  0.1488  0.1427  0.4113
 6250SOL    HW130209   0.043   1.482   2.632 -0.2662  0.9227 -0.0453
 6250SOL    HW230210   0.086   1.525   2.498  0.1457  0.1041  0.3467
 6251SOL     OW30211   1.169   1.944   3.227  0.0498 -0.1648  0.0277
 6251SOL    HW130212   1.191   2.006   3.158 -2.1066  1.6968  1.0244
 6251SOL    HW230213   1.246   1.944   3.284  1.2964 -0.0181 -1.6634
 6252SOL     OW30214   1.230   3.335   7.824  0.2331 -0.0417 -0.3254
 6252SOL    HW130215   1.269   3.253   7.854 -0.2091  0.4350  1.5165
 6252SOL    HW230216   1.138   3.310   7.817  0.3372 -0.6437  0.4790
 6253SOL     OW30217   0.647   3.541   3.883 -0.0704  0.5150 -0.0269
 6253SOL    HW130218   0.697   3.510   3.959  1.8015  0.4948 -1.2649
 6253SOL    HW230219   0.714   3.537   3.815  0.0588  0.0299  0.1279
 6254SOL     OW30220   0.206   3.729   4.212 -0.7151 -0.3222  0.6337
 6254SOL    HW130221   0.118   3.763   4.233 -1.4816 -0.0034 -3.1764
 6254SOL    HW230222   0.202   3.634   4.202 -0.3634 -0.2725  0.0699
 6255SOL     OW30223   3.846   3.228  16.241  0.2862  0.6087 -0.0951
 6255SOL    HW130224   3.900   3.269  16.174  2.2447 -0.2957  0.9375
 6255SOL    HW230225   3.824   3.303  16.298  0.4607  2.9159 -3.0602
 6256SOL     OW30226   2.421   3.050   5.332 -0.0734 -0.4235 -0.5999
 6256SOL    HW130227   2.428   3.009   5.418 -0.0329  0.1137 -0.3468
 6256SOL    HW230228   2.423   3.141   5.361  0.3869 -0.1335 -1.5152
 6257SOL     OW30229   1.218   1.408   4.143 -0.3164  0.3478 -0.0387
 6257SOL    HW130230   1.228   1.456   4.061  0.6906 -0.2618 -0.2698
 6257SOL    HW230231   1.148   1.346   4.119  0.6934 -0.8617  0.1627
 6258SOL     OW30232   2.423   2.770   9.556 -0.1975 -0.1416  0.5784
 6258SOL    HW130233   2.353   2.814   9.509 -2.0374 -2.2494  1.3568
 6258SOL    HW230234   2.485   2.747   9.487  0.6764  0.5973  1.1173
 6259SOL     OW30235   1.668   1.668   8.415 -0.5860  0.4503 -0.9403
 6259SOL    HW130236   1.742   1.626   8.458 -1.5705 -2.3877 -2.0284
 6259SOL    HW230237   1.596   1.608   8.437  0.6436  0.3611  2.9310
 6260SOL     OW30238   3.680   1.921  16.382 -0.3892  0.1294 -0.2060
 6260SOL    HW130239   3.588   1.946  16.396 -0.6485  0.2221 -2.0157
 6260SOL    HW230240   3.682   1.915  16.286  2.5972 -0.8058 -0.0782
 6261SOL     OW30241   3.864   4.493  16.854 -0.1693  0.1571  0.1391
 6261SOL    HW130242   3.800   4.471  16.787  1.4541  1.5237 -1.8801
 6261SOL    HW230243   3.910   4.555  16.797 -1.7149  2.5012  1.4249
 6262SOL     OW30244   1.892   2.006   3.312  0.2827  0.0464  0.0475
 6262SOL    HW130245   1.889   2.075   3.379 -0.6711  1.4103 -1.3839
 6262SOL    HW230246   1.848   2.053   3.241 -0.3405 -2.0171 -0.9154
 6263SOL     OW30247   2.014   4.520  17.387 -0.6588  0.0685  0.1157
 6263SOL    HW130248   2.027   4.564  17.471  0.2874 -1.2514  0.6693
 6263SOL    HW230249   1.975   4.441  17.425  0.4594  0.2277  1.5800
 6264SOL     OW30250   0.638   0.567  16.874  0.1932 -0.0052  0.4272
 6264SOL    HW130251   0.628   0.477  16.846 -0.5080 -0.1346  1.0805
 6264SOL    HW230252   0.663   0.612  16.793  0.1757 -0.3803  0.2169
 6265SOL     OW30253   4.351   2.217   8.557  0.0148 -0.1857 -0.6254
 6265SOL    HW130254   4.273   2.270   8.542 -0.0686 -0.4865 -1.2226
 6265SOL    HW230255   4.342   2.161   8.480  1.4919 -0.3301 -0.6885
 6266SOL     OW30256   0.566   2.976   7.914 -0.2831 -0.1547  0.2507
 6266SOL    HW130257   0.481   2.957   7.953  0.7073  0.7845  2.8880
 6266SOL    HW230258   0.551   2.922   7.837  1.2212  0.2023 -0.2985
 6267SOL     OW30259   3.961   1.680   3.240 -0.4008 -0.1510  0.8081
 6267SOL    HW130260   3.946   1.589   3.267  0.8790 -1.3410 -2.4864
 6267SOL    HW230261   4.014   1.726   3.304  1.5010  0.8042 -1.4662
 6268SOL     OW30262   2.862   0.925   7.240  0.5011  0.1552  0.3696
 6268SOL    HW130263   2.775   0.892   7.259 -0.0333  0.6670 -1.1977
 6268SOL    HW230264   2.903   0.912   7.326  2.3609 -2.4236 -0.8972
 6269SOL     OW30265   0.037   4.515  16.506 -0.0911  0.2730 -0.4987
 6269SOL    HW130266   4.677   4.472  16.485  0.7399 -1.8247  0.5046
 6269SOL    HW230267   0.077   4.523  16.419  0.7798  3.9906  0.2638
 6270SOL     OW30268   2.668   3.542   7.708 -0.8513 -0.5301 -0.3257
 6270SOL    HW130269   2.576   3.553   7.732 -0.2991  3.1836  0.1040
 6270SOL    HW230270   2.677   3.590   7.626 -0.2085  0.3327  0.2470
 6271SOL     OW30271   2.628   4.063  17.127  0.2753  0.3376 -0.2084
 6271SOL    HW130272   2.554   4.004  17.112 -0.2368  0.9711 -0.1706
 6271SOL    HW230273   2.686   4.047  17.053 -0.3013 -2.8286  0.0246
 6272SOL     OW30274   0.028   3.983   1.781 -0.8340  0.0937 -0.3489
 6272SOL    HW130275   4.658   3.994   1.770 -0.8197  0.4818 -0.0611
 6272SOL    HW230276   0.057   4.074   1.787  3.4540 -1.2120 -1.1550
 6273SOL     OW30277   4.154   3.637  10.466  0.0995  0.5654  0.0723
 6273SOL    HW130278   4.138   3.542  10.469  1.6477  0.2471 -2.1137
 6273SOL    HW230279   4.240   3.640  10.425  0.3490  3.0130  0.8013
 6274SOL     OW30280   3.782   3.787  13.678  0.2701  0.2712 -0.0698
 6274SOL    HW130281   3.823   3.705  13.652 -0.6761 -0.4640  0.7802
 6274SOL    HW230282   3.834   3.842  13.619 -0.0404  1.1654  0.4896
 6275SOL     OW30283   3.477   1.372   8.348  0.1016  0.3317  0.1251
 6275SOL    HW130284   3.416   1.312   8.391  1.0334 -0.6164  0.1190
 6275SOL    HW230285   3.420   1.372   8.271  0.4252 -1.6559 -0.1273
 6276SOL     OW30286   1.387   1.273  13.178 -0.7064  0.5525 -0.1865
 6276SOL    HW130287   1.354   1.274  13.268 -0.6268  2.0207 -0.1729
 6276SOL    HW230288   1.400   1.367  13.162  2.5865 -0.3227 -2.6359
 6277SOL     OW30289   1.908   3.223   0.348 -0.7391  0.3137  0.2975
 6277SOL    HW130290   1.816   3.229   0.322 -0.8217 -0.6775  0.3395
 6277SOL    HW230291   1.904   3.221   0.444  1.4021  0.2722  0.3789
 6278SOL     OW30292   4.618   2.961   0.806  0.5135  0.0124  0.0170
 6278SOL    HW130293   4.600   2.873   0.772 -0.3435 -0.2506  1.1601
 6278SOL    HW230294   4.700   2.939   0.850 -0.7052  0.4581  2.4952
 6279SOL     OW30295   0.792   0.835  13.141  0.2058 -0.2803  0.4675
 6279SOL    HW130296   0.747   0.750  13.131  1.4260 -0.7991 -0.5989
 6279SOL    HW230297   0.777   0.855  13.234 -2.6661  0.4958 -0.1624
 6280SOL     OW30298   1.611   3.046  16.565 -0.0651 -0.0835 -0.2573
 6280SOL    HW130299   1.580   3.023  16.652  1.3327  0.5147  0.3963
 6280SOL    HW230300   1.706   3.057  16.566 -0.1253  0.3624  0.2817
 6281SOL     OW30301   3.628   0.599  10.688 -0.6770  0.2352  0.1930
 6281SOL    HW130302   3.653   0.507  10.699 -1.5482 -0.1256 -0.7774
 6281SOL    HW230303   3.535   0.579  10.681 -0.5350  0.3277 -2.0010
 6282SOL     OW30304   2.318   4.514  16.117  0.2198 -0.0320  0.3793
 6282SOL    HW130305   2.293   4.527  16.025  0.0900 -2.3804  0.0749
 6282SOL    HW230306   2.348   4.423  16.112  1.4389  0.3334  1.0101
 6283SOL     OW30307   1.002   4.472  15.164  0.2252 -0.4226 -0.2813
 6283SOL    HW130308   1.079   4.437  15.119 -0.8242 -1.0736 -1.5519
 6283SOL    HW230309   1.054   4.509  15.235  1.3780 -0.7205 -0.9630
 6284SOL     OW30310   0.939   0.187  15.169 -0.5862 -0.2368 -0.0478
 6284SOL    HW130311   1.018   0.141  15.196 -0.5144  1.2508  2.1836
 6284SOL    HW230312   0.964   0.267  15.215  2.5016  0.1526 -2.3898
 6285SOL     OW30313   1.222   0.763   6.896 -0.2075  0.0231  0.2215
 6285SOL    HW130314   1.301   0.793   6.942  0.3351  0.3190 -0.9105
 6285SOL    HW230315   1.251   0.677   6.865 -1.5997  0.0379 -1.1250
 6286SOL     OW30316   2.597   2.720   9.354  0.9268 -0.5196 -0.2457
 6286SOL    HW130317   2.669   2.782   9.347 -0.9903  1.4517 -2.4377
 6286SOL    HW230318   2.537   2.758   9.289 -0.3905 -1.7645  0.2409
 6287SOL     OW30319   4.612   1.492  10.590 -0.0164  0.0278 -0.1528
 6287SOL    HW130320   4.605   1.397  10.582  0.6851  0.1222 -1.8546
 6287SOL    HW230321   4.603   1.521  10.499 -0.8771  1.3753  0.3702
 6288SOL     OW30322   3.756   0.518   9.160  0.1963  0.1439  0.4972
 6288SOL    HW130323   3.675   0.467   9.162 -2.2119  4.0081 -0.6942
 6288SOL    HW230324   3.735   0.581   9.229 -0.3498 -0.2640  0.7042
 6289SOL     OW30325   4.389   2.099  10.835  0.5057  0.6045 -0.1488
 6289SOL    HW130326   4.310   2.059  10.798  0.6529  0.4981 -0.3504
 6289SOL    HW230327   4.360   2.119  10.924 -0.4518 -2.2076  0.1747
 6290SOL     OW30328   2.718   0.160   0.045 -0.5846  0.6069  0.0245
 6290SOL    HW130329   2.767   0.151  17.660  0.1371 -0.0388  0.5219
 6290SOL    HW230330   2.788   0.166   0.110  0.1417  1.1781 -0.8106
 6291SOL     OW30331   2.137   3.281   4.086 -0.2908 -1.1889  0.5447
 6291SOL    HW130332   2.102   3.361   4.046 -0.7494 -2.0143 -0.7084
 6291SOL    HW230333   2.159   3.230   4.007 -0.8719 -1.5649  0.6325
 6292SOL     OW30334   0.815   2.994   2.340 -0.2567  0.1253 -0.3548
 6292SOL    HW130335   0.726   3.028   2.345  0.1602  0.8895  1.5511
 6292SOL    HW230336   0.804   2.913   2.290  0.3369  0.3842 -0.9062
 6293SOL     OW30337   3.671   2.998   2.972 -0.2543 -0.1257  0.0262
 6293SOL    HW130338   3.711   2.983   2.887 -0.1474  0.5019 -0.0327
 6293SOL    HW230339   3.694   2.916   3.015  0.6920 -0.3768 -0.9710
 6294SOL     OW30340   4.620   0.873   2.224  0.1903 -0.0361 -0.0217
 6294SOL    HW130341   4.667   0.856   2.306 -0.4412  0.6645  0.4864
 6294SOL    HW230342   4.602   0.967   2.219 -0.2750 -0.1179  0.1955
 6295SOL     OW30343   1.566   2.998   9.374  0.0941 -0.5211 -0.2794
 6295SOL    HW130344   1.624   2.961   9.440 -0.6231 -2.0098 -0.4901
 6295SOL    HW230345   1.577   2.931   9.306 -1.6750 -0.9577 -0.1332
 6296SOL     OW30346   3.453   0.896   2.649  1.0190  0.0210  0.1851
 6296SOL    HW130347   3.396   0.970   2.630  0.4278 -0.8007 -1.2138
 6296SOL    HW230348   3.473   0.901   2.742  1.3734 -0.3854  0.1349
 6297SOL     OW30349   2.162   3.383   7.966  0.2136  0.2264 -0.2993
 6297SOL    HW130350   2.136   3.411   7.878  0.5232  0.4119 -0.3315
 6297SOL    HW230351   2.082   3.388   8.019  0.3921 -1.5087  0.1404
 6298SOL     OW30352   2.784   1.327  15.066  0.0500  0.1687 -0.1857
 6298SOL    HW130353   2.861   1.295  15.018  1.4061  2.0602  0.7196
 6298SOL    HW230354   2.750   1.240  15.086  2.5470 -1.1025 -1.3552
 6299SOL     OW30355   3.159   2.647   9.233 -0.4989  0.1301  0.6219
 6299SOL    HW130356   3.197   2.575   9.182 -1.7518 -1.3525  1.7994
 6299SOL    HW230357   3.069   2.614   9.230  0.0326 -1.2768 -0.2026
 6300SOL     OW30358   2.905   2.599  15.975 -0.4066  0.0354 -0.1880
 6300SOL    HW130359   2.811   2.615  15.989  0.4081  3.0083  1.9225
 6300SOL    HW230360   2.893   2.513  15.936  0.7972 -1.0956  1.8988
 6301SOL     OW30361   0.229   1.771   3.280 -0.3085  0.2797 -0.8479
 6301SOL    HW130362   0.176   1.851   3.283 -1.5412 -0.5821  0.4215
 6301SOL    HW230363   0.307   1.813   3.245 -0.3713  0.0039 -1.3139
 6302SOL     OW30364   0.311   3.048   8.533 -0.0195  0.1851  0.0398
 6302SOL    HW130365   0.387   2.996   8.505 -0.6409 -0.0499 -1.2323
 6302SOL    HW230366   0.235   3.001   8.500  1.0801  0.4964 -2.9494
 6303SOL     OW30367   2.706   4.221   0.011 -0.6228  0.6767  0.0741
 6303SOL    HW130368   2.761   4.193  17.634 -0.4221 -1.3189  0.9866
 6303SOL    HW230369   2.632   4.162  17.693 -0.4682 -0.0847  2.3701
 6304SOL     OW30370   4.124   3.592   1.775 -0.6737 -0.1321 -0.9352
 6304SOL    HW130371   4.204   3.614   1.822  0.1528  0.5465 -2.6819
 6304SOL    HW230372   4.163   3.590   1.688 -1.3604  1.4356 -1.2834
 6305SOL     OW30373   2.966   4.548  17.302  0.0459 -0.2225  0.4192
 6305SOL    HW130374   2.872   4.557  17.317 -0.7119 -2.5798 -2.9708
 6305SOL    HW230375   3.000   4.587  17.383  1.3471  2.4285 -1.3904
 6306SOL     OW30376   1.817   1.243   2.539 -0.0492 -0.5036  1.1243
 6306SOL    HW130377   1.742   1.297   2.516  1.2894  1.5093  1.5096
 6306SOL    HW230378   1.864   1.243   2.455 -0.3408 -0.1605  0.9600
 6307SOL     OW30379   4.563   0.450   0.828  0.3382  0.0950  0.1992
 6307SOL    HW130380   4.633   0.386   0.830 -1.2482 -1.7043 -1.6902
 6307SOL    HW230381   4.480   0.402   0.833  0.2686  0.3717  1.7823
 6308SOL     OW30382   1.399   2.068   5.777 -0.6453  0.3112 -0.6701
 6308SOL    HW130383   1.342   2.124   5.725 -0.0257  0.2418 -1.4222
 6308SOL    HW230384   1.400   2.110   5.863  2.4274  0.9193 -0.9976
 6309SOL     OW30385   3.047   0.952   9.894 -0.2118 -0.0950 -0.0809
 6309SOL    HW130386   2.982   0.883   9.881 -0.2924  0.3059 -1.8240
 6309SOL    HW230387   2.996   1.013   9.947  0.3531  2.8366 -2.8971
 6310SOL     OW30388   0.130   2.195   4.886 -0.2383 -0.6540 -0.1547
 6310SOL    HW130389   0.064   2.150   4.833  0.8624 -1.5922 -0.7168
 6310SOL    HW230390   0.098   2.174   4.973  0.9297  1.1958  0.7267
 6311SOL     OW30391   3.269   3.982   5.571  0.4893  0.0769 -0.0594
 6311SOL    HW130392   3.279   3.908   5.631  3.2729  1.9030  1.7125
 6311SOL    HW230393   3.356   3.995   5.534 -0.2481 -1.8003 -2.4229
 6312SOL     OW30394   4.519   3.083  16.407 -0.3961  0.2878  0.3670
 6312SOL    HW130395   4.468   3.109  16.483  0.3073 -0.3358  1.0505
 6312SOL    HW230396   4.452   3.106  16.343  0.5205 -1.6098 -1.2791
 6313SOL     OW30397   4.615   1.962   4.149 -0.8217 -0.1183  0.5314
 6313SOL    HW130398   4.699   1.935   4.111 -1.8338 -0.4582 -1.4404
 6313SOL    HW230399   4.560   1.918   4.084 -0.4837 -1.9897  1.5157
 6314SOL     OW30400   2.972   3.767   6.719 -0.0399 -0.2654  0.1575
 6314SOL    HW130401   2.921   3.764   6.800 -0.5908 -0.3439 -0.1861
 6314SOL    HW230402   3.007   3.679   6.710  1.8540  0.3623  1.2646
 6315SOL     OW30403   1.838   4.155   7.873  0.5912  0.2695 -0.4498
 6315SOL    HW130404   1.855   4.204   7.953  0.1114  0.9506 -0.7610
 6315SOL    HW230405   1.809   4.231   7.822  2.3409  0.7404 -0.7212
 6316SOL     OW30406   3.185   1.749   2.846 -0.4700 -0.0399  0.6086
 6316SOL    HW130407   3.115   1.815   2.851 -0.5595 -0.1789  1.2657
 6316SOL    HW230408   3.240   1.793   2.782 -1.2259 -0.0573 -0.0532
 6317SOL     OW30409   0.962   1.209   9.491  0.0209  0.0112 -0.0857
 6317SOL    HW130410   0.999   1.293   9.466  0.2785 -0.1795 -0.3594
 6317SOL    HW230411   0.879   1.201   9.444 -0.3039 -1.0504  0.6565
 6318SOL     OW30412   3.634   4.330  14.095 -0.2017 -0.2452 -0.5097
 6318SOL    HW130413   3.595   4.247  14.067 -0.8856 -0.0728 -0.0572
 6318SOL    HW230414   3.561   4.390  14.082  0.1259  0.3540  0.4733
 6319SOL     OW30415   1.185   2.055   8.606  0.0698  0.3545 -0.9024
 6319SOL    HW130416   1.115   2.004   8.566  0.9452 -1.6114  0.0961
 6319SOL    HW230417   1.179   2.040   8.701  1.7760 -1.2058 -1.0520
 6320SOL     OW30418   4.421   0.090   6.406 -0.1492  0.6349 -0.0127
 6320SOL    HW130419   4.426   0.175   6.449 -1.4903 -0.3830  2.1821
 6320SOL    HW230420   4.467   0.048   6.479 -0.2370 -0.7295 -0.7345
 6321SOL     OW30421   2.977   0.299   6.545  0.1429 -0.2709 -0.0942
 6321SOL    HW130422   3.022   0.215   6.538 -0.9921 -0.8028 -1.0277
 6321SOL    HW230423   2.926   0.284   6.625  1.0111  0.4753  0.5999
 6322SOL     OW30424   0.209   2.922   9.639  0.5610  0.6581  0.3211
 6322SOL    HW130425   0.188   2.842   9.687  1.1827 -0.7031 -1.6422
 6322SOL    HW230426   0.287   2.891   9.592 -0.1393 -0.5890 -0.0171
 6323SOL     OW30427   3.446   1.546   0.765  0.1683  0.0115  0.2990
 6323SOL    HW130428   3.505   1.550   0.839 -0.8754  1.7233  1.0132
 6323SOL    HW230429   3.394   1.624   0.783  0.7826  0.5220 -0.1293
 6324SOL     OW30430   2.397   3.050  15.245  0.0275 -0.9021 -0.9578
 6324SOL    HW130431   2.379   3.111  15.173 -1.5897 -2.6313 -2.0132
 6324SOL    HW230432   2.351   2.972  15.215 -0.9354 -0.1633 -1.4299
 6325SOL     OW30433   0.020   0.800   2.446  0.3562  0.9320 -0.4076
 6325SOL    HW130434   0.089   0.820   2.508 -1.4831  1.7753  1.3656
 6325SOL    HW230435   0.031   0.705   2.432  3.6972  1.1042  1.1427
 6326SOL     OW30436   2.153   0.464   8.908  0.1867 -0.1028  0.1727
 6326SOL    HW130437   2.095   0.388   8.909 -0.0716  0.0618 -1.7602
 6326SOL    HW230438   2.234   0.417   8.890  0.9004  1.1106  0.2105
 6327SOL     OW30439   4.382   3.766   8.669 -0.3021  0.1406  0.2287
 6327SOL    HW130440   4.471   3.738   8.650 -0.8798 -0.4427 -1.5877
 6327SOL    HW230441   4.384   3.862   8.675  0.6570  0.0292  1.7753
 6328SOL     OW30442   3.131   1.186  11.877 -0.3588 -0.5460 -0.3915
 6328SOL    HW130443   3.084   1.260  11.838  2.7821  1.0784 -1.0725
 6328SOL    HW230444   3.207   1.188  11.819  0.6887  0.0234  1.0360
 6329SOL     OW30445   4.676   0.217   6.754  0.0817  0.2392 -0.8270
 6329SOL    HW130446   0.009   0.290   6.728  1.9284 -1.7400 -2.3756
 6329SOL    HW230447   0.004   0.178   6.825 -1.5249  1.8724  1.2275
 6330SOL     OW30448   2.359   4.532   8.953  0.2490  0.0020  0.0360
 6330SOL    HW130449   2.408   4.490   9.024  0.3710 -1.9304 -1.1934
 6330SOL    HW230450   2.337   4.458   8.897 -0.3067  1.2777 -1.4257
 6331SOL     OW30451   0.020   1.737   3.688 -0.1169  0.1633  0.1727
 6331SOL    HW130452   4.669   1.694   3.730 -0.3567  1.2119  0.8390
 6331SOL    HW230453   0.066   1.658   3.660  0.7091 -0.2102  2.6176
 6332SOL     OW30454   4.174   1.995  15.995  0.1037  0.0879 -0.6974
 6332SOL    HW130455   4.167   2.084  15.961  3.6440  0.5990 -0.0343
 6332SOL    HW230456   4.172   1.952  15.909 -0.6924 -1.4597  0.1054
 6333SOL     OW30457   2.849   2.186   6.246  0.3114 -0.6528  0.3935
 6333SOL    HW130458   2.896   2.140   6.316  1.9239  2.8485  1.6309
 6333SOL    HW230459   2.913   2.251   6.215 -0.8713 -0.4484 -1.5761
 6334SOL     OW30460   1.365   4.135   2.006 -0.1215 -0.5240 -0.2111
 6334SOL    HW130461   1.364   4.052   1.957 -0.6852 -1.5897  1.5974
 6334SOL    HW230462   1.437   4.109   2.065  0.6298  0.9968 -0.4756
 6335SOL     OW30463   3.414   4.192   5.242  0.0947 -0.2501 -0.8148
 6335SOL    HW130464   3.446   4.245   5.315 -0.8030  2.2020 -2.2112
 6335SOL    HW230465   3.368   4.262   5.197 -1.7379 -1.6878 -1.1583
 6336SOL     OW30466   3.299   2.189   2.079 -0.5644 -0.1370 -0.2582
 6336SOL    HW130467   3.338   2.123   2.022  0.6135  0.4797 -0.1509
 6336SOL    HW230468   3.250   2.134   2.141  2.5581 -3.2541 -0.5491
 6337SOL     OW30469   3.665   1.247   2.164  0.6125  0.3461 -0.8235
 6337SOL    HW130470   3.701   1.173   2.114  0.8050 -0.0102 -0.1496
 6337SOL    HW230471   3.731   1.239   2.233 -0.9453 -0.3519  0.5635
 6338SOL     OW30472   2.984   4.107  12.766  0.2617 -0.4798 -0.0719
 6338SOL    HW130473   3.072   4.070  12.756  0.9275  1.0908 -0.1147
 6338SOL    HW230474   2.937   4.027  12.744 -1.6404  0.3388  1.0621
 6339SOL     OW30475   1.032   4.484   5.028  0.7146 -0.2851 -0.0068
 6339SOL    HW130476   1.121   4.485   5.063 -0.1352 -2.0975  2.2521
 6339SOL    HW230477   1.023   4.563   4.975 -0.2705 -0.4078 -0.0314
 6340SOL     OW30478   0.375   0.651   3.364 -0.0743  0.4869 -0.3791
 6340SOL    HW130479   0.326   0.693   3.294  1.3144  0.2616 -1.4763
 6340SOL    HW230480   0.310   0.602   3.415  2.2329 -0.3040  1.7934
 6341SOL     OW30481   0.432   4.071  14.392 -0.0926 -0.3994 -0.2337
 6341SOL    HW130482   0.452   4.116  14.475  2.0910 -0.6961 -0.5994
 6341SOL    HW230483   0.413   3.979  14.411 -1.8732  0.1796  0.8666
 6342SOL     OW30484   4.205   4.065   8.889 -0.0973 -0.6430 -0.1887
 6342SOL    HW130485   4.288   4.096   8.925 -0.8580 -1.1313  1.9351
 6342SOL    HW230486   4.232   4.063   8.797 -0.6216  0.2035 -0.3535
 6343SOL     OW30487   4.346   1.201   3.307  0.1907 -0.4574  0.5389
 6343SOL    HW130488   4.302   1.116   3.305 -0.1685 -0.2097 -2.4198
 6343SOL    HW230489   4.269   1.252   3.284  0.0598 -0.7620  0.3026
 6344SOL     OW30490   4.257   3.722   4.126 -0.1242  0.1338  0.2164
 6344SOL    HW130491   4.171   3.703   4.088 -1.2321  0.6500  2.4683
 6344SOL    HW230492   4.258   3.647   4.187  2.9555  1.3242  1.6279
 6345SOL     OW30493   0.369   1.788   1.229  0.0155 -0.2775  0.4223
 6345SOL    HW130494   0.313   1.865   1.225 -1.1773 -1.1187  1.0646
 6345SOL    HW230495   0.441   1.812   1.171 -0.7961  2.5481  0.5964
 6346SOL     OW30496   0.354   2.450  15.369  0.0054  0.2282  0.5696
 6346SOL    HW130497   0.309   2.532  15.387 -0.2915  1.3582 -5.1340
 6346SOL    HW230498   0.399   2.441  15.453 -3.3277 -0.6005  2.2743
 6347SOL     OW30499   3.195   0.332   3.252 -0.2397 -0.0830 -0.4724
 6347SOL    HW130500   3.104   0.362   3.254  0.0242  0.5881  1.3578
 6347SOL    HW230501   3.176   0.252   3.203  1.7775 -0.4053 -0.7639
 6348SOL     OW30502   0.687   2.660  13.610  0.1323 -0.1651  0.1089
 6348SOL    HW130503   0.706   2.750  13.584 -0.7656 -0.4775 -1.6318
 6348SOL    HW230504   0.645   2.633  13.528  1.9626  3.4616 -2.0247
 6349SOL     OW30505   0.532   2.678   0.878 -0.4456  0.0476 -0.4400
 6349SOL    HW130506   0.518   2.762   0.922 -1.1164  0.9143 -2.3208
 6349SOL    HW230507   0.585   2.631   0.942 -1.1571  0.6783  0.6138
 6350SOL     OW30508   0.920   4.668  12.138 -0.2798 -0.2025 -0.3044
 6350SOL    HW130509   0.826   4.685  12.141 -0.9390 -3.8078 -0.6617
 6350SOL    HW230510   0.926   4.593  12.197  2.6276  0.9263  0.8292
 6351SOL     OW30511   2.572   0.211   1.419  0.2950 -0.1967  0.2750
 6351SOL    HW130512   2.559   0.118   1.436  0.4539  0.0650  1.7932
 6351SOL    HW230513   2.664   0.201   1.397  0.3898  0.0451  0.5622
 6352SOL     OW30514   2.179   0.982   9.519  0.1724  0.2870  0.1043
 6352SOL    HW130515   2.194   1.002   9.611 -0.7530  3.8174 -0.5021
 6352SOL    HW230516   2.104   0.923   9.523 -0.3024  1.0758  2.8017
 6353SOL     OW30517   0.174   3.720   0.861  0.1800 -0.4640 -0.2719
 6353SOL    HW130518   0.248   3.694   0.916 -1.1525  0.7609  2.0846
 6353SOL    HW230519   0.224   3.740   0.782 -0.1119 -0.6550 -0.5052
 6354SOL     OW30520   1.110   4.642   7.273  0.0708 -0.5663  0.6988
 6354SOL    HW130521   1.105   4.711   7.208 -1.1894  0.2401  1.6407
 6354SOL    HW230522   1.083   4.566   7.222  0.5998  0.0187 -0.4541
 6355SOL     OW30523   4.368   2.658   3.029  0.2579  0.3451 -0.6097
 6355SOL    HW130524   4.401   2.732   2.978 -1.3511  2.1173  0.9247
 6355SOL    HW230525   4.290   2.695   3.071 -0.0749 -0.3904 -0.5742
 6356SOL     OW30526   2.385   1.939   1.332 -0.4650 -0.1445  0.6878
 6356SOL    HW130527   2.363   1.872   1.395 -0.0441 -1.7543 -0.8823
 6356SOL    HW230528   2.308   1.929   1.277  0.4108 -3.0779  0.0038
 6357SOL     OW30529   3.338   3.965   5.963 -0.0194  0.2515 -0.5971
 6357SOL    HW130530   3.415   4.018   5.983 -1.9148  2.4434  0.9619
 6357SOL    HW230531   3.299   3.944   6.048  0.3903  3.0503  0.2794
 6358SOL     OW30532   2.009   1.432  16.104 -0.5389  0.3140 -0.3116
 6358SOL    HW130533   1.983   1.519  16.074  0.6076  0.4556 -0.8807
 6358SOL    HW230534   2.013   1.393  16.017  1.0726  1.8763 -0.9356
 6359SOL     OW30535   3.163   1.274   6.222  0.8383 -0.2948  0.2043
 6359SOL    HW130536   3.114   1.212   6.168  0.5226 -0.4834  0.7083
 6359SOL    HW230537   3.085   1.314   6.260  1.0040 -1.0992  1.3895
 6360SOL     OW30538   1.178   2.716   7.250  0.8284  0.1658  0.1303
 6360SOL    HW130539   1.229   2.645   7.289  0.5499  2.1592  4.1045
 6360SOL    HW230540   1.117   2.663   7.200 -1.2405  2.0610  0.6386
 6361SOL     OW30541   0.888   4.593   7.606 -0.1209  0.6522  0.5412
 6361SOL    HW130542   0.911   4.630   7.521  2.3925  0.3230  1.0983
 6361SOL    HW230543   0.793   4.587   7.596 -0.0617 -0.0731  0.4099
 6362SOL     OW30544   0.088   1.278   7.926  0.6502  0.7651  0.1435
 6362SOL    HW130545   0.158   1.213   7.922  0.0605  0.0088  2.0233
 6362SOL    HW230546   0.006   1.228   7.921  2.4113 -2.1049 -0.5632
 6363SOL     OW30547   1.022   1.431  13.331 -0.1485  0.2216 -0.2550
 6363SOL    HW130548   0.959   1.495  13.365  2.1505  2.9486 -1.2218
 6363SOL    HW230549   1.043   1.382  13.411  2.1651  0.5619 -0.6793
 6364SOL     OW30550   1.813   2.463   9.001 -0.1240 -0.6386  0.2210
 6364SOL    HW130551   1.892   2.412   9.019 -0.2662 -0.2377  1.9744
 6364SOL    HW230552   1.758   2.388   8.976  0.4714 -1.5571  1.6614
 6365SOL     OW30553   4.244   2.321   4.071  0.3636 -0.8545 -0.1226
 6365SOL    HW130554   4.227   2.390   4.135  1.2425 -1.6846  1.0249
 6365SOL    HW230555   4.161   2.274   4.075 -0.0114 -0.2237 -0.5280
 6366SOL     OW30556   3.385   1.538   7.389 -0.2284 -0.0508  0.8424
 6366SOL    HW130557   3.374   1.452   7.348  0.8215  0.5098 -0.6149
 6366SOL    HW230558   3.413   1.585   7.311 -0.5085 -0.8936  0.2368
 6367SOL     OW30559   0.496   2.193   9.408  0.6064  0.0694  0.4036
 6367SOL    HW130560   0.548   2.183   9.328 -3.4737 -1.0193 -2.1288
 6367SOL    HW230561   0.497   2.289   9.410  2.3834  0.0812 -0.9949
 6368SOL     OW30562   3.438   0.682  10.288 -0.3791  0.2712 -0.1684
 6368SOL    HW130563   3.529   0.662  10.267  0.1170  0.9384  1.3706
 6368SOL    HW230564   3.393   0.648  10.211 -1.5576 -0.0310  0.6701
 6369SOL     OW30565   0.518   3.355   8.025  0.5839  0.2552  0.1549
 6369SOL    HW130566   0.467   3.276   8.010  0.4356  0.4756 -0.4752
 6369SOL    HW230567   0.465   3.420   7.979  1.4671  0.3528 -0.7347
 6370SOL     OW30568   0.311   1.641   1.842  0.4009 -0.5015  0.6582
 6370SOL    HW130569   0.301   1.635   1.747 -1.1581 -2.7333  0.9538
 6370SOL    HW230570   0.404   1.621   1.845 -0.2848 -3.9400 -0.7920
 6371SOL     OW30571   3.862   3.548   5.909 -0.6324 -0.1374 -0.2959
 6371SOL    HW130572   3.826   3.621   5.860 -1.2606  0.1629  0.6084
 6371SOL    HW230573   3.838   3.580   5.996 -1.2312  2.2870 -1.3690
 6372SOL     OW30574   1.409   1.003   3.597  0.0528 -0.2737  0.3324
 6372SOL    HW130575   1.321   1.036   3.583 -0.8600 -2.2886  1.3959
 6372SOL    HW230576   1.405   0.940   3.525 -0.3070 -0.7466  0.7587
 6373SOL     OW30577   1.459   1.651  14.747 -0.2311  0.0303  0.5689
 6373SOL    HW130578   1.427   1.710  14.679  0.9706 -0.2596 -0.2448
 6373SOL    HW230579   1.371   1.614  14.762  0.3787 -1.5457  0.3149
 6374SOL     OW30580   3.442   4.686   4.273  0.3298  0.4636  0.0784
 6374SOL    HW130581   3.393   4.719   4.197  0.8615 -0.4584 -0.6648
 6374SOL    HW230582   3.387   0.000   4.342 -0.6207 -0.8683  0.0495
 6375SOL     OW30583   1.892   0.735  17.188  0.3038  0.5304 -0.1304
 6375SOL    HW130584   1.945   0.670  17.233  1.0814  2.0466  1.1666
 6375SOL    HW230585   1.845   0.757  17.269  1.8908 -0.4945  1.0486
 6376SOL     OW30586   0.820   2.925   5.745  0.2015  0.1604 -0.4954
 6376SOL    HW130587   0.735   2.905   5.704 -0.7316  0.7871  1.1381
 6376SOL    HW230588   0.825   2.878   5.828 -1.8179 -2.3197 -1.7866
 6377SOL     OW30589   3.124   3.908   1.892 -0.2275 -0.7678  0.0518
 6377SOL    HW130590   3.139   4.001   1.907 -2.9880 -0.6731  2.2801
 6377SOL    HW230591   3.083   3.912   1.806  2.0206 -0.4612 -1.0013
 6378SOL     OW30592   1.798   1.374   4.120  0.0962 -0.1614  0.1798
 6378SOL    HW130593   1.801   1.393   4.213 -1.3424 -0.7534  0.3360
 6378SOL    HW230594   1.872   1.426   4.089  0.7508  0.0967  2.1745
 6379SOL     OW30595   1.387   1.686   1.014  0.0368  0.5274 -0.7579
 6379SOL    HW130596   1.450   1.625   0.977  0.5932  1.6234 -1.6047
 6379SOL    HW230597   1.441   1.765   1.024 -0.5804  0.7444  0.8809
 6380SOL     OW30598   1.851   1.600   6.171  0.7327 -0.2864  0.7031
 6380SOL    HW130599   1.823   1.663   6.237  1.0708  0.1060  0.4706
 6380SOL    HW230600   1.786   1.626   6.105  0.7451 -0.7399  0.5076
 6381SOL     OW30601   1.235   4.190   8.329  0.4441  0.1860  0.1239
 6381SOL    HW130602   1.221   4.197   8.234  1.0907 -0.0930  0.0093
 6381SOL    HW230603   1.271   4.102   8.335  0.7026  0.2795 -0.0589
 6382SOL     OW30604   2.126   3.301   0.703 -0.0893 -0.4804 -0.4373
 6382SOL    HW130605   2.030   3.296   0.710 -0.0164 -1.3195  0.0897
 6382SOL    HW230606   2.150   3.377   0.651 -0.1358  0.0730  0.3524
 6383SOL     OW30607   3.243   2.383   7.711  0.0673  0.3406 -0.7137
 6383SOL    HW130608   3.187   2.350   7.782  1.3640  0.4730  0.3812
 6383SOL    HW230609   3.184   2.380   7.636 -0.8436 -0.3640  0.0264
 6384SOL     OW30610   0.904   2.260   3.516 -0.3867  0.7308  0.1506
 6384SOL    HW130611   0.953   2.297   3.443 -2.3386  2.4286 -0.3008
 6384SOL    HW230612   0.824   2.234   3.472  0.7075  0.9644 -1.9545
 6385SOL     OW30613   0.665   1.308   8.391  0.0990 -0.1153  0.0344
 6385SOL    HW130614   0.617   1.227   8.405  0.8078 -0.7011 -0.8685
 6385SOL    HW230615   0.747   1.271   8.357 -1.2201 -3.8842  0.9147
 6386SOL     OW30616   4.234   1.427   6.941  0.3460 -0.2823 -0.7327
 6386SOL    HW130617   4.157   1.376   6.914 -0.5608 -0.2371  1.8382
 6386SOL    HW230618   4.308   1.389   6.893  1.8436  1.4894  0.1812
 6387SOL     OW30619   2.279   2.715  11.617 -0.5891 -0.1093 -0.7085
 6387SOL    HW130620   2.286   2.783  11.550  2.5729 -0.0851 -0.3208
 6387SOL    HW230621   2.334   2.758  11.682 -0.5669  1.9695 -2.0911
 6388SOL     OW30622   4.228   2.407  14.624  0.3595 -0.0236  0.0981
 6388SOL    HW130623   4.278   2.327  14.638 -1.6672 -0.7289  3.2079
 6388SOL    HW230624   4.302   2.446  14.578 -2.1413  1.9285 -2.2967
 6389SOL     OW30625   4.073   1.903   7.653 -0.1702  0.5396 -0.4090
 6389SOL    HW130626   4.103   1.915   7.744 -1.6227 -2.7939  0.5183
 6389SOL    HW230627   3.978   1.895   7.656  0.0620 -1.0822  2.3599
 6390SOL     OW30628   0.204   0.398   3.132 -0.0909 -0.0131 -0.2565
 6390SOL    HW130629   0.172   0.480   3.095 -0.8111  0.0249  0.4635
 6390SOL    HW230630   0.211   0.336   3.059 -0.6840 -1.6764  1.0963
 6391SOL     OW30631   1.169   1.846   9.233  0.0307  0.0522  0.6181
 6391SOL    HW130632   1.220   1.927   9.222 -0.2750  0.2558  0.7030
 6391SOL    HW230633   1.240   1.787   9.258  0.8330  0.6228 -0.3030
 6392SOL     OW30634   0.238   1.603   5.283  0.3901  0.4026 -0.1275
 6392SOL    HW130635   0.267   1.570   5.198 -0.3869  2.0380 -1.0386
 6392SOL    HW230636   0.153   1.559   5.290  0.1367  0.9063  0.0007
 6393SOL     OW30637   0.969   3.990   7.294  0.4569 -0.0217  0.6454
 6393SOL    HW130638   0.995   3.900   7.276  4.2229  1.2089 -0.1554
 6393SOL    HW230639   0.910   4.003   7.220  0.0747  0.2563  0.9932
 6394SOL     OW30640   3.248   2.662   6.022 -0.2847  0.4394 -0.6377
 6394SOL    HW130641   3.315   2.687   5.959 -1.4025  1.0240 -1.5855
 6394SOL    HW230642   3.191   2.613   5.963 -1.3522  1.5860 -0.5438
 6395SOL     OW30643   4.629   3.833   2.427  0.0840  0.3332  0.2434
 6395SOL    HW130644   4.615   3.790   2.342  0.3275  0.1364  0.3030
 6395SOL    HW230645   4.716   3.873   2.419  0.8718 -1.3326  0.2874
 6396SOL     OW30646   1.821   3.409   7.550 -0.5678 -0.4694  0.0559
 6396SOL    HW130647   1.778   3.338   7.503 -0.7844  0.7347 -1.5639
 6396SOL    HW230648   1.828   3.477   7.483  1.1767 -0.7031  0.0013
 6397SOL     OW30649   0.518   4.693   2.126  0.4846  0.0104 -0.4241
 6397SOL    HW130650   0.569   0.010   2.056  1.2026  3.2439  1.9756
 6397SOL    HW230651   0.542   4.602   2.110  2.6284  0.3572  0.8256
 6398SOL     OW30652   3.361   1.297  12.436  0.1695  0.6203  0.2557
 6398SOL    HW130653   3.300   1.328  12.370  2.3939  2.5929 -0.8851
 6398SOL    HW230654   3.353   1.203  12.419  2.2690  0.3302  0.8074
 6399SOL     OW30655   1.795   0.682   7.121  0.1686  0.3132  0.1081
 6399SOL    HW130656   1.838   0.597   7.114 -1.6068 -0.4280 -1.9693
 6399SOL    HW230657   1.847   0.744   7.070 -0.3928  0.2657 -0.5265
 6400SOL     OW30658   0.434   0.361   1.584 -0.3628 -0.0462  0.4229
 6400SOL    HW130659   0.512   0.402   1.546 -1.2271 -1.8459 -3.3423
 6400SOL    HW230660   0.410   0.433   1.643 -0.0283  0.6852 -0.3372
 6401SOL     OW30661   2.552   1.844   6.885 -0.1149 -0.0811  0.7850
 6401SOL    HW130662   2.501   1.778   6.839  0.6397  0.9827 -1.6152
 6401SOL    HW230663   2.559   1.812   6.974  2.4085  0.8929  0.9475
 6402SOL     OW30664   0.011   0.067  15.781  0.2977 -0.8213  0.0233
 6402SOL    HW130665   0.074   0.113  15.837 -1.0097  1.5524 -0.4664
 6402SOL    HW230666   0.044   4.701  15.790 -1.4186 -1.5613 -1.2165
 6403SOL     OW30667   3.074   4.105   4.892 -0.4183 -0.2686  0.1430
 6403SOL    HW130668   3.125   4.052   4.953 -1.2616 -0.5947  0.5768
 6403SOL    HW230669   3.125   4.091   4.812 -1.6524 -0.7084 -0.5781
 6404SOL     OW30670   2.122   1.883   1.914  0.2943 -0.9566  0.2742
 6404SOL    HW130671   2.172   1.899   1.994  0.7734  0.2486 -0.2703
 6404SOL    HW230672   2.061   1.956   1.919 -0.8380 -1.6771 -3.2167
 6405SOL     OW30673   4.281   3.214   3.818 -0.1280 -0.0758 -0.3493
 6405SOL    HW130674   4.324   3.161   3.886 -0.2967  1.3331  0.8602
 6405SOL    HW230675   4.190   3.203   3.846  0.5928 -0.4001  1.9234
 6406SOL     OW30676   3.346   2.405   1.959  0.4556  0.1172  0.1196
 6406SOL    HW130677   3.336   2.324   2.010  1.5239  0.6952  1.2277
 6406SOL    HW230678   3.254   2.423   1.937  0.2557 -2.6278 -1.2635
 6407SOL     OW30679   2.248   3.046  13.469  0.3767 -0.5110 -0.6343
 6407SOL    HW130680   2.337   3.012  13.473  0.5532 -0.0802 -0.9005
 6407SOL    HW230681   2.238   3.106  13.543  0.7094  0.2390 -1.2055
 6408SOL     OW30682   3.038   0.830   8.146  0.2345  0.0985  0.1826
 6408SOL    HW130683   3.001   0.814   8.059  0.5359  0.5235 -0.0265
 6408SOL    HW230684   2.985   0.771   8.199  1.0332  1.0122  1.9695
 6409SOL     OW30685   3.069   0.055   5.794 -0.4972 -0.0540 -0.0528
 6409SOL    HW130686   3.134   0.115   5.756 -1.1828  0.9077  0.2974
 6409SOL    HW230687   3.089   4.710   5.730  0.4117 -0.8360  1.0698
 6410SOL     OW30688   3.714   2.196   8.120 -0.1278  0.0442  0.7808
 6410SOL    HW130689   3.792   2.152   8.088 -0.6800  0.9280 -1.7990
 6410SOL    HW230690   3.660   2.216   8.044 -2.1009 -2.3862  1.5483
 6411SOL     OW30691   2.861   2.394   0.354  0.1104 -0.0351 -0.2577
 6411SOL    HW130692   2.907   2.353   0.427  0.2413 -0.8214 -0.7885
 6411SOL    HW230693   2.776   2.412   0.396 -0.5775 -0.1685 -1.5914
 6412SOL     OW30694   4.319   3.806   5.338  0.4424 -0.0717  0.3250
 6412SOL    HW130695   4.313   3.900   5.320 -2.0690 -0.3681 -0.3607
 6412SOL    HW230696   4.405   3.782   5.304 -0.2262 -2.2249  0.1832
 6413SOL     OW30697   0.595   3.572  11.975 -0.3777 -0.3160  0.1011
 6413SOL    HW130698   0.558   3.579  11.887  0.7518  1.3143 -0.2576
 6413SOL    HW230699   0.684   3.541  11.956 -0.6238  0.1355 -1.8375
 6414SOL     OW30700   0.044   4.589   7.918  0.7507  0.0733 -0.4152
 6414SOL    HW130701   0.021   4.658   7.981 -0.7593  0.4923 -1.4450
 6414SOL    HW230702   4.681   4.548   7.923  0.8633 -0.0668  0.5598
 6415SOL     OW30703   2.786   1.213  15.590 -0.0766 -0.0684  0.7116
 6415SOL    HW130704   2.806   1.128  15.630 -2.8727 -1.1630 -0.2358
 6415SOL    HW230705   2.736   1.259  15.657 -2.3064 -3.0828  1.1416
 6416SOL     OW30706   3.745   2.096   5.606  0.0978  0.1550 -0.0410
 6416SOL    HW130707   3.737   2.006   5.573 -2.0766  0.5352 -0.5834
 6416SOL    HW230708   3.833   2.089   5.641  0.3798  1.3783 -0.5088
 6417SOL     OW30709   2.182   3.482   0.077  0.0971 -0.3966  0.5426
 6417SOL    HW130710   2.160   3.460  17.683  1.2696  0.8833 -0.0503
 6417SOL    HW230711   2.231   3.403   0.102  0.3550 -0.2792  0.4118
 6418SOL     OW30712   3.032   1.627   9.327 -0.3906 -0.6942 -0.1592
 6418SOL    HW130713   3.051   1.701   9.384 -4.8624  0.3819 -0.0441
 6418SOL    HW230714   3.117   1.616   9.285  0.8098  4.5903  0.8975
 6419SOL     OW30715   0.517   1.811   0.098 -0.6360  0.3063  0.4946
 6419SOL    HW130716   0.578   1.826   0.170 -0.0555 -0.2590  0.1195
 6419SOL    HW230717   0.569   1.830   0.020 -3.0591  1.0183 -0.9485
 6420SOL     OW30718   2.584   1.651   8.965  0.1215  0.0131  0.7853
 6420SOL    HW130719   2.565   1.589   9.036  2.2635  1.5282  2.6625
 6420SOL    HW230720   2.632   1.600   8.900  0.8695 -0.9160  2.0433
 6421SOL     OW30721   3.620   2.250  15.140 -0.3735 -0.5656 -0.8836
 6421SOL    HW130722   3.615   2.195  15.217 -0.2938 -0.2018 -0.6179
 6421SOL    HW230723   3.530   2.283  15.136 -1.4572 -3.5975 -1.6595
 6422SOL     OW30724   4.089   1.869  13.993 -0.0495 -0.2063  0.3225
 6422SOL    HW130725   4.176   1.829  13.985  0.2759  0.6091 -0.3126
 6422SOL    HW230726   4.040   1.850  13.913 -0.0422  2.2213 -0.2664
 6423SOL     OW30727   0.498   1.845   9.129  0.4481 -0.4635  0.4437
 6423SOL    HW130728   0.471   1.758   9.160 -0.3743 -0.6940 -0.9211
 6423SOL    HW230729   0.420   1.901   9.138 -0.0499 -0.8683 -1.3966
 6424SOL     OW30730   2.899   3.777   2.906 -0.2441 -0.3611  0.3763
 6424SOL    HW130731   2.947   3.697   2.882 -0.0161 -0.3544  0.8086
 6424SOL    HW230732   2.826   3.736   2.951 -2.3250  3.5413  0.5330
 6425SOL     OW30733   3.157   3.199  16.969  0.3360 -0.7394  0.3161
 6425SOL    HW130734   3.106   3.134  16.920  1.5560 -2.2126  0.9755
 6425SOL    HW230735   3.120   3.203  17.058  1.3380  1.2140  0.6391
 6426SOL     OW30736   4.101   3.875   6.459 -0.1267 -0.5355  0.1674
 6426SOL    HW130737   4.109   3.966   6.431  0.0511 -0.0143  1.9571
 6426SOL    HW230738   4.191   3.859   6.485  0.5297  2.8683 -0.1214
 6427SOL     OW30739   2.503   2.479   5.655 -0.4707  0.4619 -0.0787
 6427SOL    HW130740   2.562   2.403   5.652 -0.1451  0.6611  1.3544
 6427SOL    HW230741   2.565   2.541   5.693 -0.2145  0.8701 -1.1753
 6428SOL     OW30742   2.691   3.121   1.259  0.2852 -1.0529  0.6273
 6428SOL    HW130743   2.720   3.207   1.292  0.5144 -0.4024 -1.2521
 6428SOL    HW230744   2.618   3.138   1.200  0.2379  1.7255  1.4972
 6429SOL     OW30745   3.459   3.041   6.027 -0.4462 -0.2267  0.2458
 6429SOL    HW130746   3.472   3.071   6.117 -1.0525 -0.0104  0.2625
 6429SOL    HW230747   3.465   2.945   6.032 -0.2675 -0.3405 -2.2905
 6430SOL     OW30748   3.950   4.586  13.927  0.4462 -0.3057 -0.5953
 6430SOL    HW130749   3.926   4.506  13.975  0.1851 -0.4373 -0.9473
 6430SOL    HW230750   3.862   4.622  13.912  0.3413 -0.3543 -0.1068
 6431SOL     OW30751   2.190   4.333  10.804 -0.0422 -0.0362  0.8793
 6431SOL    HW130752   2.283   4.331  10.783 -0.2381  0.3774 -0.0169
 6431SOL    HW230753   2.151   4.366  10.723  2.9756 -0.0834 -0.6035
 6432SOL     OW30754   0.090   2.903   8.668  0.3647 -0.3892 -0.1057
 6432SOL    HW130755   0.054   2.979   8.623 -1.5818 -0.0852  1.9372
 6432SOL    HW230756   0.122   2.856   8.592 -0.2449 -0.6489 -0.1994
 6433SOL     OW30757   1.920   2.155   4.044  0.0742  0.0633 -0.8254
 6433SOL    HW130758   1.994   2.133   4.101  0.9214 -0.0568 -1.9421
 6433SOL    HW230759   1.860   2.090   4.080  2.6666 -0.9587  1.6141
 6434SOL     OW30760   2.571   1.178  16.454 -0.4155  0.2219 -0.0886
 6434SOL    HW130761   2.584   1.217  16.540 -0.8617  0.5285 -0.1595
 6434SOL    HW230762   2.482   1.143  16.463  0.4507 -2.4917 -2.1812
 6435SOL     OW30763   0.133   0.020   9.512  0.0659 -0.2962  0.4551
 6435SOL    HW130764   0.171   4.675   9.568 -0.3043  0.2789  1.4018
 6435SOL    HW230765   0.055   0.037   9.563 -0.0256 -0.9930  0.5516
 6436SOL     OW30766   0.438   2.762   6.143  0.0969  0.3154 -0.2626
 6436SOL    HW130767   0.468   2.803   6.062  2.0978  0.7114  0.6613
 6436SOL    HW230768   0.488   2.816   6.205  0.3082 -0.9612  0.6703
 6437SOL     OW30769   1.882   4.148   9.281 -0.0812 -0.4535 -0.1043
 6437SOL    HW130770   1.921   4.175   9.364 -1.4237  2.0622 -0.3048
 6437SOL    HW230771   1.949   4.094   9.238 -0.1485 -0.4127 -0.2611
 6438SOL     OW30772   0.538   3.918   2.476  0.1447 -0.6150 -0.1281
 6438SOL    HW130773   0.551   3.824   2.491 -1.8611 -1.0962 -1.4747
 6438SOL    HW230774   0.461   3.923   2.420 -0.1008  1.7898  0.4436
 6439SOL     OW30775   4.217   2.663  14.712  0.5391 -0.2120 -1.3592
 6439SOL    HW130776   4.272   2.632  14.784 -0.4359  1.0964 -0.0739
 6439SOL    HW230777   4.196   2.575  14.680  1.5455 -0.1468 -2.2274
 6440SOL     OW30778   1.177   3.550   5.672  0.2679  0.2754  0.1846
 6440SOL    HW130779   1.216   3.505   5.747 -0.6802  1.7654  1.5686
 6440SOL    HW230780   1.172   3.483   5.604 -1.3275  1.1372 -0.5400
 6441SOL     OW30781   1.037   3.104   7.498  0.2512  0.3333  0.0141
 6441SOL    HW130782   1.042   3.174   7.433  0.6078  0.2588 -0.0371
 6441SOL    HW230783   1.042   3.033   7.434  0.1074  0.1373  0.2224
 6442SOL     OW30784   0.719   3.663   7.250 -0.6237 -0.1236  0.2085
 6442SOL    HW130785   0.732   3.569   7.258 -2.5168 -0.2457  1.9063
 6442SOL    HW230786   0.672   3.674   7.333  0.9466  1.7675  0.8568
 6443SOL     OW30787   0.594   2.777   2.584  0.4318  0.3817 -0.1065
 6443SOL    HW130788   0.586   2.724   2.504 -4.3179  1.5319 -0.4120
 6443SOL    HW230789   0.568   2.865   2.559 -0.3824  0.1812  0.0316
 6444SOL     OW30790   3.785   0.546   4.563 -0.1872 -0.3887 -0.1111
 6444SOL    HW130791   3.740   0.464   4.543  1.7297 -1.8551  1.5762
 6444SOL    HW230792   3.722   0.587   4.622  0.7747  0.9644 -0.0140
 6445SOL     OW30793   3.348   0.290   5.084  0.4139  0.3494 -0.2512
 6445SOL    HW130794   3.283   0.242   5.032  0.3379 -0.3915  0.5323
 6445SOL    HW230795   3.306   0.374   5.097 -1.6821 -0.6892 -0.2833
 6446SOL     OW30796   1.243   0.805   3.936  0.0176  0.1782 -0.8142
 6446SOL    HW130797   1.176   0.812   3.867 -1.5172  2.2762  0.8949
 6446SOL    HW230798   1.207   0.867   3.999  0.1874  1.2635 -1.7935
 6447SOL     OW30799   4.462   4.443   7.036  0.3711  0.3223  0.1357
 6447SOL    HW130800   4.549   4.404   7.034 -0.3942 -1.4110  0.7972
 6447SOL    HW230801   4.473   4.499   7.114 -0.0801 -0.4530  0.7639
 6448SOL     OW30802   3.511   0.030  13.650 -0.3536 -0.4276  0.2841
 6448SOL    HW130803   3.606   0.024  13.639 -0.5117 -0.0896 -1.2477
 6448SOL    HW230804   3.508   0.089  13.726 -0.1173  0.2742 -0.2418
 6449SOL     OW30805   3.033   1.048   7.066  0.6464  0.0609 -0.2262
 6449SOL    HW130806   3.061   0.957   7.071  0.4728 -0.0197 -0.6778
 6449SOL    HW230807   2.961   1.046   7.128  0.6738 -2.0563 -0.2558
 6450SOL     OW30808   3.742   0.135  10.528  0.1661  0.0992  0.0006
 6450SOL    HW130809   3.822   0.099  10.491  0.5231  1.7171 -0.7829
 6450SOL    HW230810   3.667   0.123  10.470  0.4622 -1.8956  0.0218
 6451SOL     OW30811   4.717   2.848  11.069 -0.6620 -0.5381 -0.0979
 6451SOL    HW130812   0.019   2.894  11.149 -0.1152 -0.7829 -0.1337
 6451SOL    HW230813   4.668   2.774  11.106 -1.1609 -0.7599 -1.2056
 6452SOL     OW30814   1.466   0.997   2.018 -0.4013 -0.1084  0.4137
 6452SOL    HW130815   1.527   0.937   2.061 -0.9016 -1.9688 -1.4944
 6452SOL    HW230816   1.384   0.979   2.063 -2.7584  0.7780 -3.5927
 6453SOL     OW30817   2.137   0.725   1.399 -0.2593 -0.3827 -0.2391
 6453SOL    HW130818   2.157   0.816   1.423 -0.7424 -0.5297  0.7496
 6453SOL    HW230819   2.044   0.735   1.423 -0.0898 -0.3670  0.4125
 6454SOL     OW30820   1.644   0.808  15.442 -0.6141  0.2506  0.6278
 6454SOL    HW130821   1.684   0.731  15.483 -0.5049 -0.7514 -1.3770
 6454SOL    HW230822   1.562   0.772  15.409 -0.8804  0.0805  1.4624
 6455SOL     OW30823   1.836   1.645  10.360 -0.0199 -0.1626 -0.0801
 6455SOL    HW130824   1.916   1.612  10.321  0.9676  1.2228  0.7773
 6455SOL    HW230825   1.782   1.633  10.282  2.2046 -2.0549 -1.3411
 6456SOL     OW30826   2.438   3.009   5.600 -0.2555 -0.2400 -0.0232
 6456SOL    HW130827   2.523   2.967   5.588  0.1504  0.2943  1.0520
 6456SOL    HW230828   2.448   3.068   5.675 -2.1853  2.2403 -1.7459
 6457SOL     OW30829   1.729   0.821   4.758  0.1288 -0.6289 -0.1377
 6457SOL    HW130830   1.788   0.760   4.712 -0.5366 -0.7180 -0.8769
 6457SOL    HW230831   1.770   0.902   4.726 -0.4111  0.1766  1.2147
 6458SOL     OW30832   4.124   4.129   7.043  0.2173 -0.1177  0.1190
 6458SOL    HW130833   4.169   4.211   7.062  1.4514 -0.9531  0.8413
 6458SOL    HW230834   4.185   4.074   6.994 -0.7394 -1.6132  0.5996
 6459SOL     OW30835   4.167   4.113   6.372 -0.2593 -0.1676 -0.4065
 6459SOL    HW130836   4.186   4.206   6.365  0.1526 -0.1574  0.8263
 6459SOL    HW230837   4.072   4.105   6.367 -0.1307 -0.3935 -2.6092
 6460SOL     OW30838   4.221   4.508   1.130 -0.3969 -0.5382  0.2943
 6460SOL    HW130839   4.148   4.450   1.106 -0.1586 -0.9840  0.6367
 6460SOL    HW230840   4.258   4.448   1.195 -0.5057 -0.8635  0.0578
 6461SOL     OW30841   4.637   3.506   7.564 -0.2754 -0.3138  0.2080
 6461SOL    HW130842   0.004   3.534   7.576 -0.7648  0.5192  1.9325
 6461SOL    HW230843   4.644   3.455   7.483 -0.2084 -1.9757  1.2667
 6462SOL     OW30844   3.617   3.305  17.390  0.3023 -0.4971 -0.1115
 6462SOL    HW130845   3.673   3.243  17.436  1.1927  0.6309  0.3140
 6462SOL    HW230846   3.654   3.386  17.424  0.7328 -0.5954 -0.3425
 6463SOL     OW30847   2.085   0.236   4.903  0.0418  0.2187 -0.0973
 6463SOL    HW130848   1.996   0.260   4.877 -0.1031  0.7661  0.9069
 6463SOL    HW230849   2.127   0.320   4.921  0.1251  0.3341 -0.8264
 6464SOL     OW30850   1.469   0.817  16.020  0.5740  0.2626 -0.1110
 6464SOL    HW130851   1.373   0.813  16.018  0.7119 -2.4456 -1.2437
 6464SOL    HW230852   1.498   0.808  16.111  0.8513  0.0584 -0.2188
 6465SOL     OW30853   1.044   0.091  11.682 -0.2943  0.7792 -0.0052
 6465SOL    HW130854   1.065   0.182  11.706  1.3162 -0.1587  2.0295
 6465SOL    HW230855   1.099   0.085  11.604  0.8896  0.9334  0.8218
 6466SOL     OW30856   2.594   3.386   0.706 -0.1211  0.1715 -0.0625
 6466SOL    HW130857   2.517   3.368   0.760  0.7425  0.8128  1.3971
 6466SOL    HW230858   2.639   3.446   0.766  1.7054 -0.3767 -0.8776
 6467SOL     OW30859   1.847   1.256   1.863  0.1474 -0.0286  0.2257
 6467SOL    HW130860   1.830   1.174   1.911  1.3118 -1.2777 -1.5115
 6467SOL    HW230861   1.827   1.316   1.935 -1.0377  1.1506 -1.0886
 6468SOL     OW30862   3.622   3.247   9.139  0.1177  0.1475  0.0235
 6468SOL    HW130863   3.626   3.334   9.099 -1.2378 -0.8577 -2.2735
 6468SOL    HW230864   3.558   3.263   9.208 -0.8683 -0.3121 -0.7920
 6469SOL     OW30865   3.374   0.464   6.359 -0.7934 -0.1459  0.5202
 6469SOL    HW130866   3.311   0.465   6.286  2.1838  1.0882 -2.0132
 6469SOL    HW230867   3.352   0.395   6.421  1.1743 -0.9241  0.3401
 6470SOL     OW30868   1.048   2.446   7.186  0.1404  0.6831 -0.2876
 6470SOL    HW130869   1.033   2.446   7.091 -1.3265  1.2660 -0.0596
 6470SOL    HW230870   1.108   2.373   7.195 -1.0686 -0.1278  1.1183
 6471SOL     OW30871   3.448   3.511  12.513  1.0545 -0.1647 -0.3407
 6471SOL    HW130872   3.355   3.487  12.514  1.1643 -0.5770 -0.1146
 6471SOL    HW230873   3.484   3.436  12.559 -1.0111 -0.3058  1.0400
 6472SOL     OW30874   0.105   3.693   3.106  0.0296  0.1359  0.5728
 6472SOL    HW130875   0.074   3.707   3.017  0.1688 -2.2786  0.1371
 6472SOL    HW230876   0.092   3.598   3.109 -2.4198  0.4721  0.4796
 6473SOL     OW30877   2.434   2.290   1.755 -0.6768 -0.0999 -0.2805
 6473SOL    HW130878   2.456   2.251   1.839 -0.4180 -4.3356 -2.2770
 6473SOL    HW230879   2.340   2.271   1.750 -0.1221 -2.7149 -1.0452
 6474SOL     OW30880   1.171   1.867   2.929 -0.1417  0.3170  0.3834
 6474SOL    HW130881   1.125   1.785   2.910  0.1566  0.6796 -1.7960
 6474SOL    HW230882   1.175   1.874   3.025 -1.6723 -2.1385  0.6372
 6475SOL     OW30883   4.575   1.052  10.298  0.1084  0.1244 -0.4141
 6475SOL    HW130884   4.568   1.015  10.386  0.0358  1.2511  0.0671
 6475SOL    HW230885   4.656   1.101  10.312  1.5291 -2.1377 -0.9332
 6476SOL     OW30886   4.544   3.872  11.291 -0.5125  0.3029 -0.0934
 6476SOL    HW130887   4.617   3.906  11.241  0.2411 -3.1291 -1.2927
 6476SOL    HW230888   4.591   3.811  11.347 -0.8918  2.2008  2.3365
 6477SOL     OW30889   0.177   2.030   7.008 -0.0415 -0.5296 -0.1141
 6477SOL    HW130890   0.229   1.953   7.032 -1.2318 -0.2831  3.2105
 6477SOL    HW230891   0.104   2.020   7.069 -1.5283  0.3591 -1.7429
 6478SOL     OW30892   3.736   4.064   6.574 -0.1872  0.3834 -0.1759
 6478SOL    HW130893   3.725   4.145   6.625  0.6412  1.3920 -1.5977
 6478SOL    HW230894   3.655   4.053   6.525  0.1782  0.6895 -0.8530
 6479SOL     OW30895   2.197   0.072   9.656 -0.1287 -0.0485 -0.2354
 6479SOL    HW130896   2.198   0.052   9.563  2.5823  0.5603 -0.3506
 6479SOL    HW230897   2.107   0.081   9.688 -0.3589  0.1236 -0.9360
 6480SOL     OW30898   3.068   1.579  10.308 -0.3392 -0.1821  0.5666
 6480SOL    HW130899   3.146   1.525  10.300 -0.9128 -0.9423  0.1279
 6480SOL    HW230900   3.097   1.641  10.375  2.1806 -0.4175 -0.3290
 6481SOL     OW30901   3.918   1.468   2.936 -0.3022  0.1117  0.2879
 6481SOL    HW130902   3.879   1.527   3.000  0.5876  0.9795  0.0254
 6481SOL    HW230903   3.867   1.480   2.855 -0.0262  0.2666  0.1369
 6482SOL     OW30904   3.610   2.406   1.219 -0.1231  0.2534  0.0391
 6482SOL    HW130905   3.691   2.392   1.267  0.4047  1.3268 -0.5474
 6482SOL    HW230906   3.583   2.315   1.212 -0.6004  0.2723  1.4889
 6483SOL     OW30907   1.884   2.992   0.636 -0.6136 -0.1857 -0.1128
 6483SOL    HW130908   1.920   3.033   0.714 -1.7574  2.3070 -0.8948
 6483SOL    HW230909   1.952   2.933   0.601  0.8550  1.5158 -0.1165
 6484SOL     OW30910   0.804   0.928   4.827 -0.4040 -0.1777 -0.0727
 6484SOL    HW130911   0.777   0.895   4.741  0.2195 -0.8014 -0.0272
 6484SOL    HW230912   0.727   0.912   4.881  1.2618 -1.1009  2.0265
 6485SOL     OW30913   2.566   1.050   8.906  0.3917 -0.3343 -0.5193
 6485SOL    HW130914   2.650   1.096   8.911 -0.8623  1.9775 -1.3824
 6485SOL    HW230915   2.512   1.108   8.854  2.4773  0.5691 -1.6817
 6486SOL     OW30916   1.554   0.697   7.258  0.0799 -0.1845  0.2069
 6486SOL    HW130917   1.534   0.788   7.277  0.6896 -0.1330  0.6179
 6486SOL    HW230918   1.637   0.712   7.213  0.6106 -2.3691  0.4553
 6487SOL     OW30919   3.294   4.581   9.199  0.3088 -0.0868 -0.3417
 6487SOL    HW130920   3.247   4.615   9.123 -1.9142 -1.4781  0.4052
 6487SOL    HW230921   3.339   4.660   9.227 -0.0939 -0.2641  0.8146
 6488SOL     OW30922   1.052   3.446   9.772 -0.0757 -0.6703  0.2106
 6488SOL    HW130923   1.144   3.462   9.749 -0.1945 -0.5719 -0.1999
 6488SOL    HW230924   1.078   3.376   9.832 -2.1305 -0.7976  0.9313
 6489SOL     OW30925   2.579   4.535   5.424  0.1001  0.1709  0.0578
 6489SOL    HW130926   2.624   4.487   5.355  1.2546  4.1103 -1.9447
 6489SOL    HW230927   2.535   4.463   5.469 -1.0451  1.7000  1.4221
 6490SOL     OW30928   2.183   0.947   4.417  0.0297  0.5701 -0.3195
 6490SOL    HW130929   2.182   0.928   4.510 -0.8839 -1.4230 -0.7466
 6490SOL    HW230930   2.206   1.040   4.421  0.5790  0.3977  0.3990
 6491SOL     OW30931   3.724   3.762   2.988 -0.1799  0.0358  0.1047
 6491SOL    HW130932   3.687   3.844   3.022 -0.3093  0.7855 -1.8293
 6491SOL    HW230933   3.756   3.787   2.901 -2.1941  1.0449 -0.3414
 6492SOL     OW30934   3.531   0.515   5.617 -0.0070 -0.0451 -0.0258
 6492SOL    HW130935   3.597   0.570   5.576 -0.8430 -0.7420 -2.2778
 6492SOL    HW230936   3.453   0.539   5.566 -0.9280 -1.1609  0.8615
 6493SOL     OW30937   0.550   0.293   3.726  0.0581  0.1431  0.6249
 6493SOL    HW130938   0.499   0.373   3.741  1.0490  0.6389  1.3768
 6493SOL    HW230939   0.533   0.267   3.635 -1.2407  2.1932  0.2738
 6494SOL     OW30940   0.941   1.163   4.843 -0.2828  0.5729  0.2800
 6494SOL    HW130941   0.984   1.176   4.759  0.0935 -2.4584  0.0130
 6494SOL    HW230942   0.885   1.093   4.808  2.0491  0.0788 -2.4066
 6495SOL     OW30943   4.208   1.173  17.544 -0.1269  0.3638  0.2431
 6495SOL    HW130944   4.169   1.131  17.620 -1.4671 -0.8178 -1.1178
 6495SOL    HW230945   4.131   1.216  17.507  1.0484  1.2211 -1.2589
 6496SOL     OW30946   0.268   2.154  14.759 -0.2421 -0.2821 -0.4899
 6496SOL    HW130947   0.318   2.143  14.840  1.4346  0.0705 -1.4758
 6496SOL    HW230948   0.183   2.182  14.791  0.8394  2.0039  0.3791
 6497SOL     OW30949   3.561   1.671  10.391 -0.4544 -0.4842  0.0770
 6497SOL    HW130950   3.594   1.703  10.307  0.3847 -1.7982 -0.1006
 6497SOL    HW230951   3.546   1.757  10.430 -0.5696 -0.0668 -0.8869
 6498SOL     OW30952   4.001   2.576   4.490  0.2872  0.6222  0.0282
 6498SOL    HW130953   4.057   2.568   4.567  0.1085 -4.9790 -0.4402
 6498SOL    HW230954   3.940   2.644   4.521 -0.1401  1.6011 -2.9290
 6499SOL     OW30955   0.453   3.823   8.657  0.5131  0.4820 -0.3327
 6499SOL    HW130956   0.455   3.917   8.673  0.0033  0.7357 -1.7328
 6499SOL    HW230957   0.468   3.820   8.562  1.6110 -0.8810 -0.1157
 6500SOL     OW30958   4.333   0.168   0.199  0.2035  0.2375 -0.0074
 6500SOL    HW130959   4.264   0.232   0.182  1.3967  1.4781 -0.2408
 6500SOL    HW230960   4.320   0.158   0.293  2.2687  0.4402  0.2974
 6501SOL     OW30961   0.239   3.813   6.885 -0.0889  0.2160 -0.4312
 6501SOL    HW130962   0.206   3.770   6.965 -3.5721  1.4627 -1.1832
 6501SOL    HW230963   0.308   3.871   6.917 -0.1436 -1.6559  3.1829
 6502SOL     OW30964   0.550   3.978  10.549 -0.0124 -0.3509  0.5937
 6502SOL    HW130965   0.581   3.891  10.575 -2.5684 -0.7489  2.3527
 6502SOL    HW230966   0.510   3.970  10.463  0.3873  2.0002  0.2026
 6503SOL     OW30967   4.034   4.380   3.371  0.2036 -0.3338 -0.5249
 6503SOL    HW130968   3.966   4.422   3.423  0.5625 -0.7200  0.2553
 6503SOL    HW230969   4.033   4.294   3.413  0.2148  0.7074  1.5628
 6504SOL     OW30970   2.827   2.388   5.908  0.0609  0.1347  0.4574
 6504SOL    HW130971   2.790   2.373   5.821 -1.7200  2.6460  0.7889
 6504SOL    HW230972   2.757   2.345   5.958  0.0262 -0.3924 -0.0463
 6505SOL     OW30973   1.927   2.165   1.274 -0.0270 -0.0108  0.6159
 6505SOL    HW130974   1.943   2.258   1.291 -1.7856  0.3802  0.1098
 6505SOL    HW230975   1.847   2.163   1.326 -0.6548  1.8045 -0.2770
 6506SOL     OW30976   4.206   3.279  16.963 -0.0133 -0.0769  0.3048
 6506SOL    HW130977   4.138   3.257  16.900 -0.1555  0.8052  0.1522
 6506SOL    HW230978   4.217   3.374  16.956  0.1445 -0.0342  1.1314
 6507SOL     OW30979   0.322   0.533   7.363  0.3400  0.0319  0.2900
 6507SOL    HW130980   0.291   0.525   7.453  0.4040 -0.7734  0.2419
 6507SOL    HW230981   0.413   0.513   7.385  0.4565 -0.4931 -0.6634
 6508SOL     OW30982   4.558   3.717   2.187 -0.0117  0.2858  0.0905
 6508SOL    HW130983   4.546   3.783   2.118 -0.7090  0.1185  0.0432
 6508SOL    HW230984   4.630   3.664   2.155 -1.1429 -0.5882 -1.0250
 6509SOL     OW30985   3.762   2.274   2.813 -0.2669  0.0054  0.1790
 6509SOL    HW130986   3.799   2.188   2.835  1.2010  1.3247  2.8774
 6509SOL    HW230987   3.824   2.328   2.861  2.6120 -1.8525 -1.4963
 6510SOL     OW30988   1.426   3.860  16.157  0.4665  0.1265  0.2270
 6510SOL    HW130989   1.332   3.873  16.149  0.4074 -1.2583 -1.3063
 6510SOL    HW230990   1.439   3.794  16.226  1.5350 -2.6628 -2.6399
 6511SOL     OW30991   1.683   3.984   5.903 -0.3966 -0.1176 -0.2604
 6511SOL    HW130992   1.777   4.000   5.891 -0.0286 -2.2714 -0.3478
 6511SOL    HW230993   1.642   3.992   5.817 -1.0233 -0.7954 -0.0341
 6512SOL     OW30994   1.920   2.692  13.366 -0.2391 -0.2463  0.0448
 6512SOL    HW130995   1.915   2.747  13.444 -0.8118  0.6756 -0.6418
 6512SOL    HW230996   1.911   2.602  13.398 -0.0480  0.5787  2.3926
 6513SOL     OW30997   4.563   0.728   1.342  0.3927 -0.3890 -0.6150
 6513SOL    HW130998   4.490   0.769   1.388  1.4084 -1.7918  2.2401
 6513SOL    HW230999   4.580   0.795   1.276  0.1561  1.3610  1.0946
 6514SOL     OW31000   4.148   4.575  17.666  0.1580  0.2763 -0.7316
 6514SOL    HW131001   4.205   4.564   0.045  0.4719  1.3320 -0.8127
 6514SOL    HW231002   4.062   4.568   0.010  1.3166  1.0466  1.8755
 6515SOL     OW31003   0.873   0.539   5.329  0.3466  0.1725 -0.0189
 6515SOL    HW131004   0.914   0.594   5.262  0.3294  0.4464  0.1959
 6515SOL    HW231005   0.925   0.459   5.331  0.7342  0.3985 -1.9630
 6516SOL     OW31006   1.431   2.865   1.737 -0.0136  0.2494 -0.4625
 6516SOL    HW131007   1.423   2.847   1.831  2.2059 -1.3008 -0.5703
 6516SOL    HW231008   1.515   2.830   1.708  0.1809 -0.9249  1.5194
 6517SOL     OW31009   2.395   0.961  15.746  0.2467 -0.4251  0.1451
 6517SOL    HW131010   2.403   0.914  15.663  0.1202 -2.3010  1.1829
 6517SOL    HW231011   2.360   0.891  15.802 -0.8977  0.6223  0.7385
 6518SOL     OW31012   0.423   2.598   4.935 -0.6563 -0.1670  0.2919
 6518SOL    HW131013   0.467   2.615   4.852 -0.6994 -0.3129  0.2381
 6518SOL    HW231014   0.341   2.555   4.911 -0.7139  1.9146 -3.1350
 6519SOL     OW31015   1.235   2.767   6.664 -0.0514 -0.1631 -0.2504
 6519SOL    HW131016   1.210   2.675   6.658 -1.0266 -0.0034  1.3569
 6519SOL    HW231017   1.147   2.803   6.650 -0.0015 -0.6550 -1.8638
 6520SOL     OW31018   0.171   4.287   9.965  0.2146  0.7486  0.4568
 6520SOL    HW131019   0.105   4.320   9.904  0.1399 -1.1947 -0.5277
 6520SOL    HW231020   0.229   4.362   9.979 -0.5109  1.4486 -0.3564
 6521SOL     OW31021   3.026   3.284  13.252 -0.4094  0.2308 -0.1085
 6521SOL    HW131022   2.955   3.322  13.304  0.1717 -2.0189  2.3244
 6521SOL    HW231023   2.985   3.202  13.226 -2.9706  1.0492  1.4201
 6522SOL     OW31024   3.064   4.054   6.771 -0.6046  0.0939  0.2475
 6522SOL    HW131025   3.124   4.048   6.845  1.2747  2.6558 -1.0862
 6522SOL    HW231026   3.046   3.960   6.762  4.1836 -0.9124  1.2801
 6523SOL     OW31027   4.097   3.604   6.393 -0.0097 -0.6175 -0.1596
 6523SOL    HW131028   4.078   3.692   6.425  0.7331  0.2787 -2.2088
 6523SOL    HW231029   4.034   3.618   6.322  0.5761 -0.9491 -0.7381
 6524SOL     OW31030   3.469   1.113   8.074 -0.5138  0.1122 -0.3190
 6524SOL    HW131031   3.518   1.054   8.017 -1.8421 -0.6456 -0.6820
 6524SOL    HW231032   3.398   1.149   8.020 -0.0556 -1.5505 -2.0487
 6525SOL     OW31033   3.579   1.384   0.507  0.6910  0.1521  0.0603
 6525SOL    HW131034   3.505   1.348   0.458 -0.8676  2.0989  0.9732
 6525SOL    HW231035   3.649   1.319   0.505 -1.0646 -1.6902 -2.0917
 6526SOL     OW31036   3.239   4.565   1.066  0.6373  0.2044  0.0764
 6526SOL    HW131037   3.202   4.589   0.981  1.6855 -1.4102 -0.8356
 6526SOL    HW231038   3.182   4.615   1.125  2.2514  2.6224 -0.4181
 6527SOL     OW31039   4.033   1.100   4.093  0.1434  0.3377  0.5354
 6527SOL    HW131040   3.966   1.134   4.034  1.2170 -0.0360 -0.8996
 6527SOL    HW231041   3.992   1.106   4.179 -1.5428  0.1916 -0.2718
 6528SOL     OW31042   2.259   3.189  16.284 -0.3822 -0.7780 -0.1146
 6528SOL    HW131043   2.220   3.163  16.367 -1.2631 -0.0649 -0.2982
 6528SOL    HW231044   2.176   3.193  16.235 -0.7371 -1.5672  0.4175
 6529SOL     OW31045   1.777   3.058  11.800  0.1135 -0.5746 -0.0504
 6529SOL    HW131046   1.845   2.991  11.787 -0.9102 -1.2606 -1.7471
 6529SOL    HW231047   1.818   3.126  11.746 -2.2151 -1.0904 -2.4393
 6530SOL     OW31048   3.630   2.526   0.847 -0.0452  0.6921 -0.3359
 6530SOL    HW131049   3.723   2.506   0.835 -0.2234 -0.8202  0.7886
 6530SOL    HW231050   3.606   2.567   0.764 -1.7307 -1.6568 -0.9998
 6531SOL     OW31051   0.631   0.733   8.638 -0.6576 -0.2489 -0.4157
 6531SOL    HW131052   0.724   0.730   8.658 -1.2879  1.3748  2.7092
 6531SOL    HW231053   0.604   0.644   8.662 -0.2061 -0.1329  0.5332
 6532SOL     OW31054   3.684   4.584  11.925 -0.3193  0.4652 -0.2505
 6532SOL    HW131055   3.604   4.614  11.968 -2.1823 -4.0372 -0.5674
 6532SOL    HW231056   3.722   4.666  11.895  2.6540 -0.6592  0.4556
 6533SOL     OW31057   3.947   4.055   4.100 -0.6505 -0.0911 -0.3494
 6533SOL    HW131058   3.875   4.096   4.052 -0.9294 -0.4701 -0.2530
 6533SOL    HW231059   3.999   4.130   4.131  0.5455 -1.9596  2.2083
 6534SOL     OW31060   1.473   2.242   4.319 -0.2893 -0.0205 -0.2718
 6534SOL    HW131061   1.434   2.189   4.388  0.3227  0.4302  0.4125
 6534SOL    HW231062   1.506   2.315   4.370  2.7254 -0.7443 -1.1750
 6535SOL     OW31063   3.142   3.769  10.778 -0.1282 -0.2092  0.7196
 6535SOL    HW131064   3.105   3.680  10.780 -0.1815 -0.2389 -1.6214
 6535SOL    HW231065   3.078   3.832  10.810 -2.2708 -0.1230 -3.6810
 6536SOL     OW31066   2.172   1.266   6.996  0.4372  0.9228  0.2774
 6536SOL    HW131067   2.239   1.328   6.968  2.3064 -0.5152  1.5466
 6536SOL    HW231068   2.235   1.195   6.988 -0.4615 -0.0392  1.6643
 6537SOL     OW31069   1.998   2.096   5.220  0.5162 -0.3726 -0.0258
 6537SOL    HW131070   2.051   2.026   5.260  1.7357 -0.3519 -1.5754
 6537SOL    HW231071   1.994   2.066   5.129 -1.1395  1.6327 -0.6019
 6538SOL     OW31072   4.119   1.542   4.731 -0.6087  0.3938 -0.0539
 6538SOL    HW131073   4.208   1.552   4.763  0.1176 -1.4590 -1.5303
 6538SOL    HW231074   4.115   1.454   4.694  3.0080  2.0594 -4.3854
 6539SOL     OW31075   4.105   2.621   9.720 -0.0740 -0.2744 -0.1865
 6539SOL    HW131076   4.081   2.603   9.629 -2.0262 -2.4974  0.7774
 6539SOL    HW231077   4.014   2.633   9.745  0.0533  1.2762 -0.4378
 6540SOL     OW31078   0.873   2.412   5.205 -0.6652  0.2647  0.3763
 6540SOL    HW131079   0.829   2.465   5.272 -3.3003  2.1734 -2.8295
 6540SOL    HW231080   0.822   2.419   5.124  0.2741 -2.2755 -0.4441
 6541SOL     OW31081   0.998   3.382  13.909 -0.0564  0.2408  0.0396
 6541SOL    HW131082   0.947   3.322  13.963  1.4598  0.0008  1.1941
 6541SOL    HW231083   1.079   3.335  13.889  0.4074  0.6142  1.0322
 6542SOL     OW31084   3.201   4.098  13.234  0.3949 -0.3013 -0.2523
 6542SOL    HW131085   3.117   4.116  13.192  0.6010  0.3710 -0.3736
 6542SOL    HW231086   3.195   4.171  13.296 -1.3033 -1.3198  0.7802
 6543SOL     OW31087   1.533   3.864   3.129 -0.1137 -0.0304  0.5814
 6543SOL    HW131088   1.530   3.831   3.219 -1.4707  2.5707  1.4988
 6543SOL    HW231089   1.466   3.933   3.122  1.9183  2.0466  1.3596
 6544SOL     OW31090   2.129   3.121   5.048 -0.2290 -0.3332  0.4520
 6544SOL    HW131091   2.158   3.191   4.990 -2.5257  0.4509  0.2663
 6544SOL    HW231092   2.067   3.166   5.106 -1.2368 -2.4625  1.0449
 6545SOL     OW31093   4.384   3.902  17.205 -0.1365 -0.3878  0.0953
 6545SOL    HW131094   4.329   3.972  17.171 -2.0848 -1.2854  1.4172
 6545SOL    HW231095   4.371   3.917  17.299 -1.7634  1.0246 -0.3584
 6546SOL     OW31096   3.697   2.692   7.952 -0.4900 -0.2628  0.6119
 6546SOL    HW131097   3.737   2.777   7.934  0.5344 -1.0478 -0.8100
 6546SOL    HW231098   3.735   2.630   7.891  0.0549 -0.9663  1.6663
 6547SOL     OW31099   2.876   1.956   2.560  0.5789 -0.5018 -0.2476
 6547SOL    HW131100   2.855   1.894   2.630 -2.7245  0.1864 -0.6058
 6547SOL    HW231101   2.789   1.956   2.519  0.9188 -2.7930 -0.9422
 6548SOL     OW31102   0.757   2.201  12.286 -0.1231 -0.7547  0.1600
 6548SOL    HW131103   0.719   2.275  12.333  2.8761  0.2586  0.9584
 6548SOL    HW231104   0.680   2.148  12.265  1.2160 -1.5592 -2.6611
 6549SOL     OW31105   2.260   0.258   1.083  0.5461  0.0431 -0.2002
 6549SOL    HW131106   2.196   0.224   1.145  1.5203  0.8803  1.2746
 6549SOL    HW231107   2.280   0.187   1.022 -1.1510 -0.5655 -0.0270
 6550SOL     OW31108   3.872   3.283   5.802  0.1742 -0.6074  0.4009
 6550SOL    HW131109   3.864   3.307   5.709  1.6796  0.3603  0.5270
 6550SOL    HW231110   3.863   3.371   5.839 -2.0934 -1.0178  0.8362
 6551SOL     OW31111   2.817   4.123   4.782 -0.3436 -0.9053 -0.3477
 6551SOL    HW131112   2.902   4.131   4.825 -1.1284  1.6327  0.7199
 6551SOL    HW231113   2.840   4.120   4.689 -1.4096  2.5436 -0.7452
 6552SOL     OW31114   1.872   1.678   2.021 -0.3931 -0.3114  0.1138
 6552SOL    HW131115   1.964   1.679   1.994 -1.2158 -1.3885 -2.7246
 6552SOL    HW231116   1.830   1.709   1.941 -0.1385  1.7566  0.7865
 6553SOL     OW31117   2.863   3.186  14.554 -0.4196  0.2294  0.1619
 6553SOL    HW131118   2.783   3.160  14.509  0.7204 -0.9853 -1.1633
 6553SOL    HW231119   2.825   3.170  14.641 -0.5408  1.8705  0.4092
 6554SOL     OW31120   0.515   0.589  14.664  0.9095 -0.1672  0.0971
 6554SOL    HW131121   0.537   0.649  14.735 -0.5849  1.6687 -0.9819
 6554SOL    HW231122   0.541   0.506  14.704  3.5431  0.5604 -0.1337
 6555SOL     OW31123   0.537   2.975   5.968  0.3275 -0.5324  0.2688
 6555SOL    HW131124   0.585   3.058   5.971 -1.7398  0.7559 -2.6441
 6555SOL    HW231125   0.529   2.968   5.873 -0.6753 -2.0634  0.4711
 6556SOL     OW31126   2.592   3.393   8.407 -0.0137 -0.1481 -0.3096
 6556SOL    HW131127   2.673   3.356   8.372 -0.0619 -0.1958 -0.3700
 6556SOL    HW231128   2.595   3.484   8.377  0.9424 -0.4025 -0.9991
 6557SOL     OW31129   2.412   3.199   3.848 -0.3938  0.4652  0.1649
 6557SOL    HW131130   2.325   3.158   3.846 -0.0635 -0.3093  1.1372
 6557SOL    HW231131   2.438   3.195   3.756  1.7219  3.4408  0.6402
 6558SOL     OW31132   3.155   2.401  17.618 -0.0209 -0.5364  0.3254
 6558SOL    HW131133   3.101   2.426  17.693  1.1145 -0.2828  1.0717
 6558SOL    HW231134   3.231   2.350  17.647 -0.1916 -1.7688 -1.4398
 6559SOL     OW31135   3.046   4.341   4.147  0.2157  0.3257 -0.2043
 6559SOL    HW131136   3.100   4.302   4.078  1.0432  0.5764  0.2889
 6559SOL    HW231137   3.014   4.264   4.195  0.2318  0.8727  0.6796
 6560SOL     OW31138   1.049   0.797   4.885  0.0984 -0.0556  0.1976
 6560SOL    HW131139   0.980   0.827   4.825  0.2418  0.4397  0.2811
 6560SOL    HW231140   1.119   0.859   4.863  1.7878 -2.0809 -0.1139
 6561SOL     OW31141   4.349   3.366   4.731 -1.0271  0.1999  0.4126
 6561SOL    HW131142   4.328   3.447   4.776  2.0223  0.5878  1.1725
 6561SOL    HW231143   4.374   3.413   4.651  0.5031  0.9197  1.3128
 6562SOL     OW31144   4.687   3.120   3.316  0.0117 -0.4994  0.1732
 6562SOL    HW131145   4.708   3.208   3.348 -0.2253 -0.4527  0.1980
 6562SOL    HW231146   0.040   3.096   3.264  0.1608 -0.0852  0.1999
 6563SOL     OW31147   3.732   0.014   6.749  0.5533 -0.4536 -0.4968
 6563SOL    HW131148   3.756   0.100   6.783 -0.3344 -0.4050 -0.0057
 6563SOL    HW231149   3.724   4.696   6.835 -2.4999 -0.9844 -1.0335
 6564SOL     OW31150   3.260   3.066   2.689  0.2010 -0.0571  0.4790
 6564SOL    HW131151   3.333   3.006   2.676 -1.0611 -1.9386  2.1194
 6564SOL    HW231152   3.189   3.003   2.691 -0.0259  0.1500 -0.8559
 6565SOL     OW31153   3.427   1.646   6.911 -0.1856 -0.3299 -0.1266
 6565SOL    HW131154   3.510   1.633   6.863  0.3225  1.9866  0.1527
 6565SOL    HW231155   3.394   1.732   6.886  1.5846  0.2973 -0.3144
 6566SOL     OW31156   3.387   2.810   8.355  0.4472  0.7511 -0.6164
 6566SOL    HW131157   3.463   2.805   8.297 -0.1095 -1.2564 -1.1793
 6566SOL    HW231158   3.369   2.904   8.358 -1.5004  0.3600  0.3786
 6567SOL     OW31159   1.496   3.293  12.656 -0.2117 -0.3582 -0.0388
 6567SOL    HW131160   1.509   3.207  12.697 -2.8746 -0.0371  1.4563
 6567SOL    HW231161   1.444   3.341  12.720 -0.0729 -0.4930  0.1757
 6568SOL     OW31162   1.045   2.995   0.609 -0.1469  0.1116 -0.0311
 6568SOL    HW131163   1.127   3.010   0.655 -0.5057 -3.0673  1.6257
 6568SOL    HW231164   1.051   3.055   0.534  2.8655  2.5886  2.2239
 6569SOL     OW31165   4.544   0.502  15.265  0.2966 -0.2986  0.2323
 6569SOL    HW131166   4.616   0.521  15.205 -0.5888 -1.9943 -1.3851
 6569SOL    HW231167   4.531   0.413  15.232 -2.8434 -0.1883  1.1631
 6570SOL     OW31168   3.551   2.067  16.735  0.4049 -0.0220  0.1222
 6570SOL    HW131169   3.522   2.125  16.664  1.9878  0.7098  0.0498
 6570SOL    HW231170   3.568   2.148  16.784 -2.6043 -1.0557  2.8237
 6571SOL     OW31171   2.946   4.160  12.079  0.6214  0.0148 -0.9391
 6571SOL    HW131172   3.028   4.206  12.058  0.1631  0.6029 -1.4463
 6571SOL    HW231173   2.893   4.151  12.000  1.5539 -0.9314 -1.4657
 6572SOL     OW31174   1.295   1.640   6.402 -0.0088 -0.0984  0.2423
 6572SOL    HW131175   1.295   1.604   6.314 -0.0061  2.3424 -0.7581
 6572SOL    HW231176   1.202   1.639   6.426 -0.2620  1.2276 -0.6501
 6573SOL     OW31177   1.148   1.539   6.998  0.3495 -0.1357  0.4275
 6573SOL    HW131178   1.090   1.496   7.062 -0.5198  0.3399 -0.0415
 6573SOL    HW231179   1.218   1.565   7.058  1.6503 -1.4113 -0.5415
 6574SOL     OW31180   0.151   3.549  11.399 -0.7116  0.1131  0.8007
 6574SOL    HW131181   0.169   3.535  11.306  0.0577 -0.3041  1.0046
 6574SOL    HW231182   0.233   3.589  11.428 -1.3926  1.7872  0.3902
 6575SOL     OW31183   4.007   2.468   2.174 -0.2696  0.0955 -0.0159
 6575SOL    HW131184   3.915   2.492   2.159 -0.3768 -0.9517 -1.0667
 6575SOL    HW231185   4.018   2.467   2.269  0.5753  0.6460 -0.1122
 6576SOL     OW31186   0.638   0.986   6.876  0.0772  0.6824  0.1111
 6576SOL    HW131187   0.604   1.074   6.890 -2.8692 -0.0942 -2.0049
 6576SOL    HW231188   0.628   0.977   6.781  1.3510  0.4963 -0.0072
 6577SOL     OW31189   2.988   3.347   1.812 -0.3441 -0.1462  0.3474
 6577SOL    HW131190   3.033   3.429   1.829  0.4347 -0.7081  0.9821
 6577SOL    HW231191   3.028   3.296   1.741 -0.2332  0.2618  0.1211
 6578SOL     OW31192   0.788   4.489   4.749  0.0824 -0.1950 -0.4001
 6578SOL    HW131193   0.708   4.541   4.737 -0.7588 -0.9035  2.0829
 6578SOL    HW231194   0.853   4.558   4.738  0.1107 -0.0338  0.7848
 6579SOL     OW31195   1.481   2.086   4.711 -0.4011  0.1812  0.3897
 6579SOL    HW131196   1.553   2.141   4.741 -0.7772  1.0072 -0.2615
 6579SOL    HW231197   1.443   2.055   4.794  0.0479  1.8598  1.2251
 6580SOL     OW31198   2.418   1.249  13.666 -0.5728 -0.2292 -0.0267
 6580SOL    HW131199   2.337   1.231  13.618 -0.8605  0.2253  0.2935
 6580SOL    HW231200   2.493   1.222  13.613 -0.7067 -0.9801  0.1596
 6581SOL     OW31201   4.322   3.522   2.820  0.7332  0.1585  0.3948
 6581SOL    HW131202   4.316   3.428   2.833 -0.9065 -0.0672 -2.0960
 6581SOL    HW231203   4.407   3.542   2.861  1.1684 -1.5924  0.3394
 6582SOL     OW31204   1.989   4.645   5.859  0.2644  0.2565 -0.5354
 6582SOL    HW131205   1.899   4.624   5.836  0.3425  0.3452 -0.9264
 6582SOL    HW231206   1.989   4.659   5.954 -0.6701  0.9252 -0.6355
 6583SOL     OW31207   0.771   3.705  11.059 -0.9184  0.2573 -0.2517
 6583SOL    HW131208   0.694   3.761  11.048 -0.0530  1.7374  1.4183
 6583SOL    HW231209   0.774   3.684  11.152  1.5699 -1.1595 -0.6350
 6584SOL     OW31210   3.542   1.249   6.604  0.2329 -0.5797 -0.2819
 6584SOL    HW131211   3.492   1.292   6.534 -0.0824  1.1028  0.9708
 6584SOL    HW231212   3.628   1.283   6.581 -0.0003  0.0899 -0.1712
 6585SOL     OW31213   1.847   3.456   2.293 -0.0425 -0.5083 -0.6224
 6585SOL    HW131214   1.784   3.526   2.308  0.4749  0.0353 -0.9653
 6585SOL    HW231215   1.791   3.407   2.233 -1.0084 -0.7295  0.4528
 6586SOL     OW31216   3.459   0.487   2.028 -0.5846  0.4000 -0.3662
 6586SOL    HW131217   3.430   0.529   2.109  2.5318 -0.9674  1.4904
 6586SOL    HW231218   3.509   0.560   1.991 -1.9059  0.6454 -1.6230
 6587SOL     OW31219   3.560   3.236   9.668  0.5622 -0.1369 -0.3071
 6587SOL    HW131220   3.528   3.326   9.677  1.2589  0.1690 -0.8524
 6587SOL    HW231221   3.505   3.205   9.739 -0.5714 -0.0134 -1.1315
 6588SOL     OW31222   0.080   0.686   1.812 -0.6171 -0.0194  0.0592
 6588SOL    HW131223   0.034   0.604   1.793 -0.1318  0.0590 -1.3812
 6588SOL    HW231224   0.013   0.733   1.862 -0.3697  2.0418 -1.5637
 6589SOL     OW31225   2.398   3.275   5.999 -0.1940 -0.3051 -0.2423
 6589SOL    HW131226   2.455   3.247   5.927  2.6258  1.5575  1.2724
 6589SOL    HW231227   2.419   3.205   6.060  0.0643  0.2696  0.3314
 6590SOL     OW31228   2.385   0.174   3.914  0.3142  0.3114 -1.2012
 6590SOL    HW131229   2.469   0.195   3.873  0.5835  0.0728 -0.7601
 6590SOL    HW231230   2.401   0.205   4.003 -1.3029 -0.3084 -0.6899
 6591SOL     OW31231   2.589   2.257   9.007 -0.1053  0.5924  0.1201
 6591SOL    HW131232   2.542   2.175   8.993  1.1335  0.2145 -1.8428
 6591SOL    HW231233   2.631   2.242   9.091  0.0955  0.3439 -0.0261
 6592SOL     OW31234   0.546   2.714   1.663  0.3381  0.0324 -0.1074
 6592SOL    HW131235   0.454   2.701   1.686 -0.0405 -0.1145 -1.6636
 6592SOL    HW231236   0.533   2.785   1.600  6.4650  0.8280 -0.4622
 6593SOL     OW31237   0.987   3.671   6.898  0.5307  0.3963  0.7464
 6593SOL    HW131238   0.914   3.633   6.849  1.8254  0.1879 -1.0126
 6593SOL    HW231239   0.942   3.709   6.974 -0.2882 -0.2832  0.6037
 6594SOL     OW31240   3.414   3.652   3.987 -0.0548  0.6182  0.0130
 6594SOL    HW131241   3.495   3.685   4.025  0.9165  0.0792 -1.5665
 6594SOL    HW231242   3.414   3.558   4.006  3.5959  0.3318 -1.4070
 6595SOL     OW31243   4.281   2.000   2.655  0.3051 -0.0294  0.1487
 6595SOL    HW131244   4.229   1.922   2.672 -0.9773  0.6873 -0.4639
 6595SOL    HW231245   4.268   2.026   2.564  0.1265 -0.9769 -0.0941
 6596SOL     OW31246   3.709   1.341   8.576 -0.2348  0.5379 -0.0833
 6596SOL    HW131247   3.636   1.331   8.514  0.4703 -0.5172 -0.7558
 6596SOL    HW231248   3.667   1.337   8.661 -1.0865  1.3338 -0.4702
 6597SOL     OW31249   4.606   0.439  16.473  0.1792 -0.2504 -0.3924
 6597SOL    HW131250   4.607   0.417  16.566 -0.5001  0.7314 -0.1573
 6597SOL    HW231251   4.644   0.526  16.481  0.2311 -0.2413 -0.7671
 6598SOL     OW31252   3.199   4.286   1.765 -0.1951 -0.1066 -0.1207
 6598SOL    HW131253   3.213   4.348   1.694  3.1152 -1.7946 -0.9805
 6598SOL    HW231254   3.104   4.281   1.753 -0.6600  0.3543  3.4468
 6599SOL     OW31255   2.995   1.112   6.075  0.1530 -0.2927  0.0696
 6599SOL    HW131256   2.988   1.046   6.006  0.8554 -0.0901 -0.1899
 6599SOL    HW231257   2.916   1.163   6.058  1.8297  1.7475 -1.6245
 6600SOL     OW31258   0.549   1.372   5.250 -0.3736 -0.1418 -0.4713
 6600SOL    HW131259   0.519   1.430   5.320  3.3383  1.6093 -0.3885
 6600SOL    HW231260   0.644   1.382   5.252 -0.3888  0.6878 -4.9666
 6601SOL     OW31261   3.554   2.047   8.316 -0.9019  0.1680 -0.1413
 6601SOL    HW131262   3.633   2.060   8.368 -1.6650  0.6051  0.9164
 6601SOL    HW231263   3.595   2.083   8.237 -0.3690 -0.7149 -0.2684
 6602SOL     OW31264   1.210   3.748  15.378  0.4364 -0.0603 -0.1462
 6602SOL    HW131265   1.172   3.741  15.290  0.9863  0.9213 -0.4622
 6602SOL    HW231266   1.244   3.837  15.380 -1.4506  0.6867 -1.0911
 6603SOL     OW31267   4.192   3.664   4.431  0.1431  0.0108 -0.0399
 6603SOL    HW131268   4.117   3.633   4.481 -0.2187 -0.6229 -0.9755
 6603SOL    HW231269   4.262   3.619   4.479 -0.7694  0.5103  1.7318
 6604SOL     OW31270   0.945   3.454   4.911 -0.3975  0.5398 -0.8177
 6604SOL    HW131271   1.010   3.404   4.960  0.7891  2.3681 -0.5432
 6604SOL    HW231272   1.002   3.526   4.884  0.3451 -0.5347 -2.1062
 6605SOL     OW31273   3.391   1.144   7.793 -0.6522 -0.0200 -0.0720
 6605SOL    HW131274   3.446   1.222   7.795  0.1527 -0.5797 -0.6604
 6605SOL    HW231275   3.418   1.116   7.705  1.2531  2.8784 -0.4021
 6606SOL     OW31276   1.927   4.062   5.825  0.0887 -0.9239 -0.1689
 6606SOL    HW131277   1.940   4.156   5.838 -0.9591 -0.7387 -0.4017
 6606SOL    HW231278   1.922   4.073   5.730 -0.2419 -1.2501 -0.1884
 6607SOL     OW31279   1.914   3.178  14.470  0.1757  0.3783 -0.2572
 6607SOL    HW131280   1.887   3.256  14.420 -1.3216 -0.2831 -0.4877
 6607SOL    HW231281   1.891   3.207  14.558 -1.2395  0.5763 -0.6819
 6608SOL     OW31282   0.023   1.874   6.669  0.4006 -0.0176  0.9329
 6608SOL    HW131283   0.023   1.881   6.573 -0.6167  2.1279  1.1046
 6608SOL    HW231284   0.031   1.964   6.698  0.2760  0.1190  0.5483
 6609SOL     OW31285   4.252   4.250   3.650 -0.5551 -0.4687 -0.4848
 6609SOL    HW131286   4.279   4.310   3.720 -1.0733 -0.2477 -0.4719
 6609SOL    HW231287   4.308   4.291   3.584 -0.9297  0.2525 -0.3533
 6610SOL     OW31288   1.052   4.000   5.379 -0.2724  0.2868  0.6346
 6610SOL    HW131289   1.023   4.010   5.288  3.6481 -0.6427 -0.7543
 6610SOL    HW231290   1.067   4.092   5.402 -1.7835  1.0512 -1.4396
 6611SOL     OW31291   2.432   3.559   6.621 -0.4558  0.4551 -0.4822
 6611SOL    HW131292   2.439   3.487   6.557  0.6187  2.7330 -2.9193
 6611SOL    HW231293   2.336   3.555   6.622 -0.4564  0.8519  0.7112
 6612SOL     OW31294   2.374   2.949   5.058 -0.2917  0.5517 -0.0785
 6612SOL    HW131295   2.337   3.031   5.026 -1.3498  0.2425  0.3393
 6612SOL    HW231296   2.381   2.970   5.151 -0.4483 -1.2521  0.3366
 6613SOL     OW31297   3.523   1.692   8.007  0.7569 -0.3718  0.2017
 6613SOL    HW131298   3.525   1.761   7.941  0.3929  0.6966  1.2975
 6613SOL    HW231299   3.505   1.742   8.086  0.6515  1.2174 -0.8353
 6614SOL     OW31300   4.465   1.066   7.614 -0.0105  0.2349  0.1983
 6614SOL    HW131301   4.479   1.045   7.707 -2.0191  1.4622  0.7702
 6614SOL    HW231302   4.528   1.137   7.604 -0.3072  0.2456 -1.4694
 6615SOL     OW31303   3.463   4.609   6.581 -1.0064 -0.3663  0.0553
 6615SOL    HW131304   3.456   4.695   6.539 -0.7690  0.2453  1.2703
 6615SOL    HW231305   3.526   4.627   6.651  0.5693  2.0673 -2.0044
 6616SOL     OW31306   1.815   2.949   3.484 -0.0823 -0.1985  0.0591
 6616SOL    HW131307   1.791   2.996   3.404  0.8235 -0.7677 -0.5464
 6616SOL    HW231308   1.738   2.965   3.540 -0.5633  0.8166 -0.8844
 6617SOL     OW31309   2.288   3.939  10.883  0.3400  0.0305 -0.0467
 6617SOL    HW131310   2.287   3.867  10.820 -1.7024  0.9985 -1.1299
 6617SOL    HW231311   2.367   3.988  10.861 -1.3161  2.4193 -0.6319
 6618SOL     OW31312   3.550   4.394   2.458 -0.6381  0.0618 -0.2711
 6618SOL    HW131313   3.631   4.423   2.414 -0.8751 -0.0695 -0.7973
 6618SOL    HW231314   3.504   4.475   2.479 -1.2543 -0.1013 -0.9809
 6619SOL     OW31315   0.930   1.036   5.749  0.2790 -0.0712 -0.3348
 6619SOL    HW131316   0.846   1.079   5.764 -0.0697 -0.8500 -0.0509
 6619SOL    HW231317   0.988   1.107   5.774  0.5042 -0.1943 -0.4986
 6620SOL     OW31318   3.456   1.908   6.768 -0.1856  0.1437  0.0509
 6620SOL    HW131319   3.462   1.851   6.692  3.0026  1.1257 -0.4478
 6620SOL    HW231320   3.375   1.957   6.756 -1.6699 -1.7704  2.1243
 6621SOL     OW31321   0.877   1.783   4.944  0.1408 -0.0930  0.3716
 6621SOL    HW131322   0.849   1.873   4.927 -0.4077 -0.5358 -1.0025
 6621SOL    HW231323   0.891   1.757   4.853  1.5275  0.5570  0.3956
 6622SOL     OW31324   2.698   3.671  16.981 -0.4094  0.3140  0.1395
 6622SOL    HW131325   2.630   3.723  17.025 -0.1670  0.5483  0.2409
 6622SOL    HW231326   2.763   3.733  16.948  0.8194 -1.5337 -0.8964
 6623SOL     OW31327   4.707   2.171   8.285 -0.2233 -0.5950 -0.6504
 6623SOL    HW131328   4.626   2.131   8.254 -0.0036  0.5637 -2.7005
 6623SOL    HW231329   4.694   2.262   8.260  1.5061 -0.1114  0.1703
 6624SOL     OW31330   1.206   2.049  17.590 -0.2256 -0.1824  0.4046
 6624SOL    HW131331   1.300   2.029  17.580 -0.1530  0.9150 -1.1294
 6624SOL    HW231332   1.223   2.138  17.619  0.2443 -0.6207  1.4975
 6625SOL     OW31333   2.500   2.575   8.325  0.1912 -0.1034 -0.3656
 6625SOL    HW131334   2.450   2.547   8.401 -1.0938 -1.7822 -1.8273
 6625SOL    HW231335   2.451   2.526   8.259 -0.8099  0.8590 -0.3306
 6626SOL     OW31336   1.922   4.532   1.137 -0.0979 -0.2431  0.8921
 6626SOL    HW131337   1.882   4.613   1.106  1.5800 -0.6367 -2.2788
 6626SOL    HW231338   1.907   4.522   1.231 -0.7196 -0.8758  0.7244
 6627SOL     OW31339   3.318   2.995   6.753 -0.1593 -0.0752  0.1269
 6627SOL    HW131340   3.237   2.946   6.770 -0.5570  1.2512  1.9801
 6627SOL    HW231341   3.317   3.005   6.658 -1.6799 -0.5462  0.0822
 6628SOL     OW31342   2.015   1.896   2.937  0.4207 -0.2956  0.5131
 6628SOL    HW131343   2.062   1.868   3.016 -0.0938 -1.5944  0.3481
 6628SOL    HW231344   1.924   1.873   2.958 -0.0003 -1.0545 -2.1964
 6629SOL     OW31345   2.845   1.803   3.251  0.4067 -0.3428 -0.0200
 6629SOL    HW131346   2.841   1.722   3.302  2.1675 -0.7285 -0.4977
 6629SOL    HW231347   2.792   1.856   3.309 -0.5785 -0.3564 -0.8992
 6630SOL     OW31348   4.451   3.725   3.115  0.3157  0.1515 -0.0144
 6630SOL    HW131349   4.434   3.767   3.031 -3.5756  0.2731  0.8105
 6630SOL    HW231350   4.386   3.656   3.109  1.7272 -1.0828 -0.9455
 6631SOL     OW31351   1.481   2.790   7.278 -0.4796 -0.0395  0.5902
 6631SOL    HW131352   1.433   2.863   7.316 -2.3546 -2.3362  2.6194
 6631SOL    HW231353   1.459   2.800   7.185  0.1902  1.6792  0.6190
 6632SOL     OW31354   3.276   0.862   4.413  0.1775 -0.3475 -0.0850
 6632SOL    HW131355   3.290   0.957   4.415  0.0497 -0.3126 -0.7802
 6632SOL    HW231356   3.207   0.859   4.347 -0.4035  1.0093  0.4594
 6633SOL     OW31357   2.092   1.672   7.137 -0.0860 -0.0832 -0.0733
 6633SOL    HW131358   2.029   1.737   7.169 -0.8817 -0.1761 -1.4936
 6633SOL    HW231359   2.029   1.618   7.091  1.2823 -1.0906 -0.7712
 6634SOL     OW31360   1.454   4.138   6.679  0.0179  0.1011 -0.3193
 6634SOL    HW131361   1.494   4.101   6.758 -0.8278 -1.2967 -0.5454
 6634SOL    HW231362   1.379   4.193   6.702  0.7265  0.6340  0.6954
 6635SOL     OW31363   4.195   2.732   5.162  0.0475  0.1533 -0.0598
 6635SOL    HW131364   4.118   2.772   5.201 -0.8180 -1.6955  0.1353
 6635SOL    HW231365   4.150   2.693   5.087  1.7014  2.3478 -2.2328
 6636SOL     OW31366   2.684   1.334   5.557 -0.1155 -0.3840 -0.1301
 6636SOL    HW131367   2.590   1.339   5.572  0.1728 -0.6583  1.7352
 6636SOL    HW231368   2.720   1.318   5.644  1.7520  1.8506 -0.4838
 6637SOL     OW31369   3.385   0.529  12.516 -0.4555 -0.0323 -0.2529
 6637SOL    HW131370   3.302   0.483  12.506  0.2845 -0.9588 -2.1392
 6637SOL    HW231371   3.441   0.455  12.540  3.1161  2.1157 -1.8186
 6638SOL     OW31372   3.343   1.265   3.177 -0.2117  0.2232 -0.4147
 6638SOL    HW131373   3.267   1.208   3.190 -0.6221  0.8497 -0.0539
 6638SOL    HW231374   3.327   1.288   3.085  0.0908 -2.0327 -1.0355
 6639SOL     OW31375   1.062   1.582   5.651 -0.3180 -0.1968 -1.1344
 6639SOL    HW131376   1.037   1.571   5.743  1.5269 -1.8572 -0.8056
 6639SOL    HW231377   0.993   1.540   5.600 -1.9933  0.0035  0.9735
 6640SOL     OW31378   4.251   3.052   3.223 -0.1973  0.2211 -0.2034
 6640SOL    HW131379   4.325   3.089   3.175  0.5752  0.6818  1.3450
 6640SOL    HW231380   4.241   3.109   3.299 -0.4222  0.3344 -0.3188
 6641SOL     OW31381   0.988   0.097   2.802  0.3191  0.9908 -0.1657
 6641SOL    HW131382   1.074   0.090   2.843 -0.3048 -2.0655  0.5871
 6641SOL    HW231383   0.964   0.012   2.764 -1.4934  1.1178  0.6575
 6642SOL     OW31384   1.147   2.679   4.369 -0.0759 -0.3838  0.1261
 6642SOL    HW131385   1.102   2.695   4.452  0.6546  0.3548  0.3828
 6642SOL    HW231386   1.240   2.682   4.392 -0.6036  0.3606  2.2154
 6643SOL     OW31387   1.190   0.673  13.312 -0.3351 -0.2539  0.2151
 6643SOL    HW131388   1.099   0.645  13.322 -0.4463 -0.4446 -1.4431
 6643SOL    HW231389   1.218   0.665  13.404 -0.6416 -0.3577  0.2975
 6644SOL     OW31390   2.736   4.123   3.410  0.2011  0.5218  0.4764
 6644SOL    HW131391   2.794   4.168   3.471 -0.8350  0.2818  1.6408
 6644SOL    HW231392   2.707   4.050   3.464  3.2184  0.0862  1.4749
 6645SOL     OW31393   4.491   0.407   6.936  0.2487  0.6741  0.1810
 6645SOL    HW131394   4.469   0.498   6.916  0.2244  0.2805 -1.5508
 6645SOL    HW231395   4.526   0.383   6.850  0.5605 -1.5123  0.9331
 6646SOL     OW31396   0.787   1.237   7.717 -0.3891  0.2317  0.2141
 6646SOL    HW131397   0.714   1.175   7.717 -0.2751  0.0944  0.2453
 6646SOL    HW231398   0.848   1.192   7.777  2.4506  1.4901 -1.7186
 6647SOL     OW31399   3.859   4.556   1.881 -0.8289  0.0948  0.5083
 6647SOL    HW131400   3.791   4.540   1.816 -1.1483  2.5239  0.2322
 6647SOL    HW231401   3.906   4.476   1.859 -0.5273  0.2086  0.7308
 6648SOL     OW31402   3.055   4.219  11.779  0.4722  0.4643 -0.0484
 6648SOL    HW131403   3.039   4.249  11.689  3.0350  1.9369 -0.0098
 6648SOL    HW231404   3.013   4.133  11.788 -2.7122  2.3680  3.2422
 6649SOL     OW31405   1.313   3.675  13.728  0.6141 -0.1682  0.2879
 6649SOL    HW131406   1.346   3.760  13.757 -1.2411  0.3291  0.9413
 6649SOL    HW231407   1.242   3.699  13.668  0.4999 -1.0048  0.0958
 6650SOL     OW31408   2.920   2.976   1.106  0.1356  0.2630  0.1622
 6650SOL    HW131409   2.871   3.018   1.036 -1.1529 -1.1572  0.2283
 6650SOL    HW231410   2.859   2.938   1.170  0.4041 -1.1364 -0.4166
 6651SOL     OW31411   4.602   3.991  16.749  0.5362  0.4620  0.0238
 6651SOL    HW131412   4.654   3.914  16.773 -1.6663 -1.2757 -0.8074
 6651SOL    HW231413   4.659   4.040  16.689  0.9201 -1.3596 -1.0969
 6652SOL     OW31414   4.711   3.280   0.242 -0.1262 -0.6823  0.4809
 6652SOL    HW131415   4.641   3.329   0.198  0.7636  0.1915  0.0315
 6652SOL    HW231416   0.017   3.347   0.303  1.3106 -0.3671 -0.5757
 6653SOL     OW31417   2.735   2.283  16.673  0.0690 -0.3918 -0.4822
 6653SOL    HW131418   2.749   2.197  16.712  0.7399  0.1241  0.4328
 6653SOL    HW231419   2.643   2.301  16.693  0.6657  0.6006  1.4057
 6654SOL     OW31420   0.557   1.577   8.347 -0.0256 -0.2000  0.0123
 6654SOL    HW131421   0.480   1.564   8.401  0.2595 -0.6719  0.3101
 6654SOL    HW231422   0.612   1.501   8.369 -0.5567 -0.6632 -0.2652
 6655SOL     OW31423   3.583   0.589   0.787 -0.5823  0.0439 -0.2437
 6655SOL    HW131424   3.555   0.673   0.823  1.9008  0.3376  0.9816
 6655SOL    HW231425   3.513   0.555   0.731  0.6213  0.5571 -2.0629
 6656SOL     OW31426   0.634   4.201   8.767  0.6886  0.3272 -0.2989
 6656SOL    HW131427   0.634   4.242   8.854 -1.2709 -1.6210  0.6213
 6656SOL    HW231428   0.660   4.109   8.769  1.7579  0.6383 -0.0385
 6657SOL     OW31429   2.444   4.129  16.374 -0.2735  0.2846  0.4779
 6657SOL    HW131430   2.431   4.213  16.417  0.0103 -0.9698  3.0507
 6657SOL    HW231431   2.480   4.092  16.455 -0.4923 -0.2644  0.3232
 6658SOL     OW31432   2.835   2.029   6.518  0.2561 -0.0273  0.3555
 6658SOL    HW131433   2.816   1.990   6.603 -0.1884  2.8932  1.5909
 6658SOL    HW231434   2.750   2.008   6.479  0.6865 -0.4311 -0.3676
 6659SOL     OW31435   1.197   0.092   4.258  0.8135  0.3159 -0.1674
 6659SOL    HW131436   1.246   0.098   4.176 -1.3669 -1.0643 -1.5484
 6659SOL    HW231437   1.130   0.026   4.239 -1.9194  2.5321  1.8664
 6660SOL     OW31438   2.806   3.652   2.343  0.3079  0.8466 -0.1255
 6660SOL    HW131439   2.857   3.599   2.282 -0.7035 -0.7929  0.4474
 6660SOL    HW231440   2.846   3.623   2.424 -0.5261  0.6047  0.2049
 6661SOL     OW31441   0.944   2.277   4.110 -0.4840  0.2142 -0.0122
 6661SOL    HW131442   0.956   2.356   4.163 -3.0110 -1.5845  3.2694
 6661SOL    HW231443   0.894   2.316   4.038  0.2085  0.9279 -0.1058
 6662SOL     OW31444   4.435   2.593   6.976 -0.7482  0.0273  0.4029
 6662SOL    HW131445   4.441   2.533   6.901 -1.6959  1.7914 -1.0861
 6662SOL    HW231446   4.462   2.543   7.053 -0.1164 -0.3673 -0.0772
 6663SOL     OW31447   3.764   0.154   7.816  0.2585 -0.0319 -0.1941
 6663SOL    HW131448   3.753   0.248   7.805  0.0804 -0.0475 -0.1499
 6663SOL    HW231449   3.834   0.138   7.753 -1.7609 -0.8433 -2.2376
 6664SOL     OW31450   2.750   1.556   3.408  0.1170  0.0763  0.7729
 6664SOL    HW131451   2.680   1.507   3.365  1.7870 -0.0396 -1.7824
 6664SOL    HW231452   2.826   1.500   3.391 -0.3533  0.1433 -1.4975
 6665SOL     OW31453   4.398   1.568  12.364  0.1146 -0.0040 -0.4159
 6665SOL    HW131454   4.329   1.607  12.418  0.6682  1.0881 -0.5000
 6665SOL    HW231455   4.454   1.646  12.369  0.2806 -0.0284 -1.9069
 6666SOL     OW31456   2.576   2.174  14.761 -0.0237 -0.9123  0.0607
 6666SOL    HW131457   2.546   2.209  14.677  2.0393  4.6044  1.6314
 6666SOL    HW231458   2.662   2.215  14.762 -1.2059  1.5923 -0.8158
 6667SOL     OW31459   2.943   2.286   7.642 -0.0949 -0.4715  0.4190
 6667SOL    HW131460   2.856   2.249   7.657  0.9134 -2.2755  1.8471
 6667SOL    HW231461   2.993   2.241   7.710 -0.3663  0.3267  1.1556
 6668SOL     OW31462   1.306   1.704   4.823 -0.3208 -0.0038  0.3595
 6668SOL    HW131463   1.266   1.646   4.759 -1.5957 -0.2942  1.4254
 6668SOL    HW231464   1.383   1.649   4.837 -0.0786  0.0348 -0.8350
 6669SOL     OW31465   0.307   0.401   2.013 -0.3084  0.2522  0.2383
 6669SOL    HW131466   0.263   0.328   1.968 -0.5006 -1.2625  2.9114
 6669SOL    HW231467   0.232   0.447   2.050 -0.5112  0.8102 -0.8678
 6670SOL     OW31468   0.784   2.228   8.886  0.1355  0.1057  0.4710
 6670SOL    HW131469   0.767   2.301   8.946 -4.1553  0.2787 -0.9916
 6670SOL    HW231470   0.869   2.200   8.921 -1.6444 -2.0298  3.0925
 6671SOL     OW31471   3.366   0.602   2.839  0.5348  0.6714 -0.5762
 6671SOL    HW131472   3.392   0.590   2.930 -1.3163 -0.1322 -0.1510
 6671SOL    HW231473   3.441   0.645   2.798  2.2647 -2.1678 -0.3749
 6672SOL     OW31474   0.466   3.599   6.971  0.4875  0.0710 -0.2659
 6672SOL    HW131475   0.535   3.533   6.965  1.8601  1.4634  0.1761
 6672SOL    HW231476   0.511   3.677   6.939 -2.4326  2.5333  1.6859
 6673SOL     OW31477   3.446   1.196   7.037 -0.0734  0.3147  0.2869
 6673SOL    HW131478   3.361   1.240   7.028  0.5121  1.4020  0.0666
 6673SOL    HW231479   3.423   1.114   7.080 -1.2013 -0.5159 -1.9093
 6674SOL     OW31480   0.190   3.953   5.473 -0.3701  0.7091  0.0535
 6674SOL    HW131481   0.119   3.988   5.527 -1.5007 -1.3554 -0.1035
 6674SOL    HW231482   0.218   3.896   5.545  0.6586  0.5985 -0.4322
 6675SOL     OW31483   2.971   4.313   9.404 -0.5206 -0.1066  0.2135
 6675SOL    HW131484   2.995   4.264   9.325  1.1834 -0.9061  1.2180
 6675SOL    HW231485   2.942   4.250   9.470 -1.1487 -0.0503 -0.0131
 6676SOL     OW31486   1.918   0.312  14.907 -0.4679 -0.0818 -0.0010
 6676SOL    HW131487   2.013   0.320  14.917 -0.4760 -2.5486  2.0414
 6676SOL    HW231488   1.921   0.316  14.812 -1.9379  2.3117  0.0343
 6677SOL     OW31489   4.318   1.120  10.292 -0.0139  0.1903 -0.0311
 6677SOL    HW131490   4.289   1.086  10.207  0.9624  0.4350 -0.4576
 6677SOL    HW231491   4.410   1.093  10.294 -0.2253 -0.4373  0.7821
 6678SOL     OW31492   4.147   3.833   3.288 -1.0431  0.2284 -0.0610
 6678SOL    HW131493   4.212   3.866   3.350 -2.9095  1.8889  1.0169
 6678SOL    HW231494   4.188   3.830   3.202 -3.7129 -0.9197 -1.3080
 6679SOL     OW31495   2.272   0.663  11.062  0.0606  1.0561  0.4817
 6679SOL    HW131496   2.276   0.587  11.005 -1.8499  0.7873  0.6908
 6679SOL    HW231497   2.362   0.695  11.058 -0.4600  2.3839 -0.5558
 6680SOL     OW31498   3.280   3.158   9.288 -0.0697  0.5743  0.6749
 6680SOL    HW131499   3.367   3.195   9.299  0.9194 -1.1317 -1.5411
 6680SOL    HW231500   3.274   3.120   9.376  1.6649  1.3346  1.1142
 6681SOL     OW31501   2.584   1.083   2.873  0.2788  0.3574  0.1783
 6681SOL    HW131502   2.539   1.073   2.957  1.5539  0.8923  0.9225
 6681SOL    HW231503   2.567   1.175   2.856 -1.9585 -0.0095  0.4025
 6682SOL     OW31504   1.157   3.362   4.452 -0.5195  0.1339  0.3601
 6682SOL    HW131505   1.078   3.412   4.430 -1.0615 -1.0385 -0.3383
 6682SOL    HW231506   1.138   3.292   4.390  1.3666 -3.0902  3.4297
 6683SOL     OW31507   2.940   4.405   0.883 -0.2301  0.4056  0.1023
 6683SOL    HW131508   3.015   4.392   0.825  0.6144 -0.0517  1.3010
 6683SOL    HW231509   2.967   4.354   0.959 -2.2463  0.3400  0.7802
 6684SOL     OW31510   2.028   4.150   2.717 -0.4857  0.3634  0.2569
 6684SOL    HW131511   2.119   4.125   2.733  0.7316  4.3497 -0.4695
 6684SOL    HW231512   2.013   4.111   2.631 -0.0656 -2.4486  1.4596
 6685SOL     OW31513   2.445   1.209   5.414 -0.7825  0.3478  0.3565
 6685SOL    HW131514   2.406   1.251   5.491 -2.0452  0.7198 -0.4864
 6685SOL    HW231515   2.508   1.148   5.453 -0.7253 -0.7771 -1.5011
 6686SOL     OW31516   4.439   0.632   4.386 -0.0608  0.1680 -0.2939
 6686SOL    HW131517   4.394   0.717   4.389  0.3650  0.4558 -2.6729
 6686SOL    HW231518   4.361   0.578   4.398 -0.4711  1.2127  1.7905
 6687SOL     OW31519   3.633   1.819   4.872  0.3069  0.1439 -0.4024
 6687SOL    HW131520   3.656   1.813   4.780  0.5350 -1.4309 -0.2379
 6687SOL    HW231521   3.658   1.910   4.892 -2.0775  0.6894  0.1113
 6688SOL     OW31522   2.823   2.171   4.424  0.0221  0.4552  0.1564
 6688SOL    HW131523   2.856   2.229   4.355  1.8456 -1.1368 -0.3031
 6688SOL    HW231524   2.824   2.086   4.381 -1.5280  0.6487 -0.2766
 6689SOL     OW31525   2.331   4.677   3.213 -0.0900 -0.0358 -0.2345
 6689SOL    HW131526   2.404   4.615   3.215  0.5485  0.7459  0.7221
 6689SOL    HW231527   2.286   4.640   3.289 -0.6004  0.9972 -0.0317
 6690SOL     OW31528   1.920   2.500  14.854 -0.7967 -0.3102 -0.4488
 6690SOL    HW131529   1.973   2.579  14.839  0.7386 -1.2065  0.1913
 6690SOL    HW231530   1.975   2.466  14.925 -0.1669 -0.1299 -0.8498
 6691SOL     OW31531   0.176   0.040   7.777  0.4388  0.2747 -0.1537
 6691SOL    HW131532   0.107   0.083   7.727 -0.2093 -0.7222 -0.1137
 6691SOL    HW231533   0.127   4.703   7.832 -2.2637  2.5197 -0.0632
 6692SOL     OW31534   3.551   2.767  10.367  0.0081  0.4999  0.2324
 6692SOL    HW131535   3.517   2.770  10.457  0.1235 -2.4866  0.3594
 6692SOL    HW231536   3.603   2.847  10.364 -1.0454  1.2683  2.6434
 6693SOL     OW31537   0.603   0.891  16.227 -0.5849 -0.5061  0.3695
 6693SOL    HW131538   0.696   0.881  16.249 -0.2152 -0.5126 -1.1602
 6693SOL    HW231539   0.612   0.950  16.152  0.1031 -1.9026 -0.6659
 6694SOL     OW31540   2.345   4.308   8.767 -0.6056  0.1407  0.0340
 6694SOL    HW131541   2.411   4.247   8.734  0.5576  0.0426  2.5284
 6694SOL    HW231542   2.270   4.250   8.780 -0.0226 -0.9398 -1.4496
 6695SOL     OW31543   2.291   3.839  13.625 -0.1664 -0.5109  0.5749
 6695SOL    HW131544   2.343   3.764  13.596  0.6560  0.0941  0.5000
 6695SOL    HW231545   2.303   3.883  13.540  1.7268 -0.8397  0.6791
 6696SOL     OW31546   0.848   4.666  10.509 -0.3041 -0.1873 -0.2103
 6696SOL    HW131547   0.810   4.580  10.490 -3.8228  1.1615  0.6695
 6696SOL    HW231548   0.899   4.643  10.587  0.2693  1.6176 -0.0469
 6697SOL     OW31549   0.757   0.433  11.871 -0.3361  0.2839 -0.0867
 6697SOL    HW131550   0.838   0.483  11.858 -0.9652  1.3590  0.1158
 6697SOL    HW231551   0.699   0.479  11.812 -1.2402 -1.1505 -0.3119
 6698SOL     OW31552   3.091   0.615   7.372  0.1436 -0.1797  0.0330
 6698SOL    HW131553   3.027   0.547   7.350  0.4756 -0.8931  1.3247
 6698SOL    HW231554   3.174   0.575   7.397  0.4881 -0.2764 -1.2452
 6699SOL     OW31555   1.968   3.445   9.454  0.1532  0.0913  0.4446
 6699SOL    HW131556   2.013   3.415   9.532 -0.0941  1.0102  0.9364
 6699SOL    HW231557   2.051   3.446   9.406 -0.2899  0.5945 -0.3261
 6700SOL     OW31558   0.929   1.501   3.894  0.2430 -0.7027 -0.4476
 6700SOL    HW131559   0.932   1.543   3.980  0.1289  2.1197 -1.8161
 6700SOL    HW231560   0.844   1.457   3.897 -0.3318  0.5354  1.2564
 6701SOL     OW31561   0.915   4.249  16.510  0.4279 -0.0414 -0.4680
 6701SOL    HW131562   0.989   4.190  16.493  0.6692  0.7556 -2.2646
 6701SOL    HW231563   0.897   4.288  16.424  0.0112 -2.1783 -1.3549
 6702SOL     OW31564   1.427   2.260   5.168  0.6209 -0.2588 -0.0399
 6702SOL    HW131565   1.442   2.212   5.250  0.1021  0.2181  0.3385
 6702SOL    HW231566   1.403   2.347   5.201 -2.1450 -1.3559  0.8192
 6703SOL     OW31567   3.383   4.164  11.579 -0.1013  0.0314 -0.2212
 6703SOL    HW131568   3.327   4.163  11.502 -1.8020  1.2667  1.0140
 6703SOL    HW231569   3.441   4.237  11.558 -1.5359  1.3515  0.3765
 6704SOL     OW31570   3.353   3.366   9.028  0.0002 -0.4323  0.0372
 6704SOL    HW131571   3.315   3.441   9.073  2.0044  0.9327 -0.5311
 6704SOL    HW231572   3.290   3.295   9.037 -0.7371  0.3272  0.8345
 6705SOL     OW31573   0.007   1.093   4.824  0.0131  0.8895  0.1853
 6705SOL    HW131574   0.065   1.066   4.753  2.5417  0.1077  2.5300
 6705SOL    HW231575   4.646   1.065   4.789 -0.1982  2.7462 -0.7918
 6706SOL     OW31576   4.361   2.309   0.502  0.3234 -0.2315  0.6820
 6706SOL    HW131577   4.450   2.298   0.536  1.1387 -2.6400 -2.1763
 6706SOL    HW231578   4.316   2.238   0.549  1.0932 -1.5477 -0.5925
 6707SOL     OW31579   1.099   1.977   1.949 -0.1165 -0.3331  0.1723
 6707SOL    HW131580   1.139   2.062   1.969 -0.0222 -0.5202  0.7867
 6707SOL    HW231581   1.115   1.957   1.857  0.8886 -0.5812  0.3992
 6708SOL     OW31582   1.142   2.698   8.474 -0.3470  0.1296 -0.1037
 6708SOL    HW131583   1.140   2.793   8.462 -0.7257 -0.0719 -1.6363
 6708SOL    HW231584   1.219   2.682   8.420 -0.9929  0.7248 -1.1990
 6709SOL     OW31585   3.836   4.465  14.555  0.4756  0.1459  0.2216
 6709SOL    HW131586   3.778   4.423  14.491 -1.2027  1.0576  1.1625
 6709SOL    HW231587   3.848   4.551  14.514 -1.5352 -0.0571 -0.7773
 6710SOL     OW31588   2.289   2.841   6.183  0.1701 -0.2497 -0.3181
 6710SOL    HW131589   2.214   2.818   6.128  0.4616 -1.3617 -0.2454
 6710SOL    HW231590   2.341   2.761   6.183  0.0992 -0.2959 -1.0735
 6711SOL     OW31591   1.899   3.616   3.417  0.2455 -0.5502 -0.4046
 6711SOL    HW131592   1.944   3.622   3.333 -1.3055  0.4479 -1.1529
 6711SOL    HW231593   1.869   3.707   3.412 -1.3559 -1.0619  0.1415
 6712SOL     OW31594   3.828   4.052  13.940 -0.0358  0.2914 -0.0582
 6712SOL    HW131595   3.848   3.974  13.993  0.4438 -1.4021 -2.7223
 6712SOL    HW231596   3.846   4.011  13.855  0.7182 -1.2460  0.8325
 6713SOL     OW31597   0.201   3.144   3.173  0.5116  0.3392  0.2142
 6713SOL    HW131598   0.287   3.109   3.193 -0.6804 -3.0596 -0.5374
 6713SOL    HW231599   0.210   3.187   3.088 -0.5387 -1.5830 -0.8699
 6714SOL     OW31600   1.916   3.949   8.237 -0.2708  0.4180 -1.0242
 6714SOL    HW131601   1.957   4.031   8.208 -1.2672  0.7892 -1.3653
 6714SOL    HW231602   1.907   3.977   8.328  0.0973 -2.9838  0.0636
 6715SOL     OW31603   1.838   3.919  13.654  0.2612 -0.4392 -0.2164
 6715SOL    HW131604   1.762   3.876  13.615  0.1465 -0.1629 -0.2989
 6715SOL    HW231605   1.808   4.003  13.690 -1.5405 -0.7126 -1.0540
 6716SOL     OW31606   2.148   3.027  12.985  0.2686  0.2708  0.0055
 6716SOL    HW131607   2.198   3.081  12.924  2.2981  0.5485  1.8793
 6716SOL    HW231608   2.176   2.937  12.967 -1.3534 -0.2795  0.2356
 6717SOL     OW31609   3.710   4.395   5.175 -0.1084  0.3164  0.1613
 6717SOL    HW131610   3.787   4.338   5.182  0.4849  1.5754  3.8103
 6717SOL    HW231611   3.675   4.367   5.090 -1.6477 -0.1609  0.9711
 6718SOL     OW31612   4.096   3.406   8.830 -0.2134  0.3912  0.3062
 6718SOL    HW131613   4.090   3.312   8.814  0.9865  0.4962 -0.7144
 6718SOL    HW231614   4.026   3.415   8.765  0.7814  0.7340 -0.7097
 6719SOL     OW31615   2.208   1.247   6.299 -0.2886  0.0172 -0.2149
 6719SOL    HW131616   2.162   1.324   6.330 -1.8980 -0.6540 -0.9457
 6719SOL    HW231617   2.294   1.250   6.341 -0.9300 -0.3312  1.1320
 6720SOL     OW31618   2.395   2.227   2.798  0.3922  0.2418  1.0264
 6720SOL    HW131619   2.301   2.208   2.801  0.3451  0.3903  0.5281
 6720SOL    HW231620   2.438   2.146   2.773  1.0484 -0.0790  3.1993
 6721SOL     OW31621   3.476   4.519   0.087  0.1743 -0.0182 -0.1018
 6721SOL    HW131622   3.423   4.591   0.053  1.0555  0.3159 -0.7842
 6721SOL    HW231623   3.481   4.464   0.009 -2.7783  1.1368 -1.1118
 6722SOL     OW31624   3.767   0.564   9.708  0.3269 -0.0996 -0.4659
 6722SOL    HW131625   3.810   0.554   9.623 -0.1523 -1.2490 -0.5742
 6722SOL    HW231626   3.780   0.658   9.724 -1.3776  0.2998 -1.4470
 6723SOL     OW31627   1.011   1.545   4.342  0.4806 -0.3443 -0.0035
 6723SOL    HW131628   1.031   1.636   4.321 -0.5613 -0.6942 -2.4350
 6723SOL    HW231629   1.079   1.496   4.295  1.4231 -1.5478  2.5886
 6724SOL     OW31630   1.732   0.912   7.391  0.3194 -0.0165 -0.2828
 6724SOL    HW131631   1.724   0.942   7.300  1.5541  1.3196  0.0403
 6724SOL    HW231632   1.672   0.968   7.440  0.2374 -1.4707  1.2585
 6725SOL     OW31633   1.003   0.654   7.615  0.4709 -0.3272 -0.4604
 6725SOL    HW131634   1.080   0.702   7.586 -0.8938  0.5437 -2.6570
 6725SOL    HW231635   0.976   0.720   7.679  0.2317  1.9039 -2.8591
 6726SOL     OW31636   1.243   1.534   3.900  0.0928 -0.0915  0.6718
 6726SOL    HW131637   1.155   1.543   3.864 -0.1384  2.2618  1.7812
 6726SOL    HW231638   1.283   1.603   3.847 -2.2157  0.1800 -0.7369
 6727SOL     OW31639   2.344   0.967   8.346  0.2259  0.3373 -0.1237
 6727SOL    HW131640   2.284   0.897   8.372  0.0661  0.8270  0.8293
 6727SOL    HW231641   2.421   0.921   8.315 -1.9909 -3.3150 -0.1900
 6728SOL     OW31642   0.820   3.685   2.482 -0.1459 -0.9896 -0.5156
 6728SOL    HW131643   0.742   3.644   2.520  0.3181 -1.4707 -0.0795
 6728SOL    HW231644   0.830   3.767   2.530  0.5096  0.2732 -2.8102
 6729SOL     OW31645   1.731   3.838   9.137  0.3008  0.0244 -0.3222
 6729SOL    HW131646   1.665   3.806   9.199  1.3765 -1.5597  0.0001
 6729SOL    HW231647   1.804   3.789   9.174 -0.3720 -1.6229 -1.1860
 6730SOL     OW31648   0.075   4.057   3.070 -0.2060  0.2634 -0.3103
 6730SOL    HW131649   0.030   3.985   3.115  2.6434 -0.7386  0.9165
 6730SOL    HW231650   0.152   4.062   3.126 -1.3165 -2.6944  1.5030
 6731SOL     OW31651   0.908   3.473   6.545  0.2414  0.0054  0.3754
 6731SOL    HW131652   0.997   3.440   6.539 -0.0556 -0.5044 -1.3900
 6731SOL    HW231653   0.881   3.458   6.635 -3.3922 -0.2496 -0.7325
 6732SOL     OW31654   3.889   1.597  17.447  0.1595 -0.4480  0.4491
 6732SOL    HW131655   3.903   1.684  17.485 -0.8821 -0.8518  1.7958
 6732SOL    HW231656   3.794   1.600  17.456  0.0126 -1.2681 -0.9587
 6733SOL     OW31657   3.077   2.579   5.118 -0.4860 -0.4299 -0.1588
 6733SOL    HW131658   3.093   2.603   5.027  1.8573 -0.0821  0.3298
 6733SOL    HW231659   3.076   2.662   5.166 -2.5985 -0.5816  0.0507
 6734SOL     OW31660   1.750   0.274   6.268  0.0893  0.4656  0.2406
 6734SOL    HW131661   1.819   0.225   6.313  0.2944 -1.1576 -1.8353
 6734SOL    HW231662   1.798   0.356   6.257  2.0967 -0.9548 -1.5884
 6735SOL     OW31663   0.372   4.438  16.087  0.3936 -0.4796  0.0746
 6735SOL    HW131664   0.412   4.351  16.094 -2.4667 -1.9833 -2.2026
 6735SOL    HW231665   0.425   4.481  16.020  1.0845 -1.2103  0.1498
 6736SOL     OW31666   2.686   1.237   6.233 -0.1271  0.0068 -0.3849
 6736SOL    HW131667   2.658   1.252   6.323  0.1015  1.2775 -0.5223
 6736SOL    HW231668   2.604   1.206   6.196 -0.8832 -0.5171  1.7121
 6737SOL     OW31669   3.548   2.695  14.231 -0.2604  0.1193 -0.2133
 6737SOL    HW131670   3.548   2.666  14.322  1.0352  1.2812  0.1579
 6737SOL    HW231671   3.471   2.751  14.228  0.0134  0.4428 -1.2472
 6738SOL     OW31672   1.051   0.115   7.112 -0.1667 -0.1132 -0.0932
 6738SOL    HW131673   1.096   0.186   7.065 -0.3682 -0.8074 -1.3295
 6738SOL    HW231674   0.975   0.168   7.135  0.6600  1.5176 -1.1244
 6739SOL     OW31675   2.811   0.621   4.806  0.1840  0.0283  0.0368
 6739SOL    HW131676   2.866   0.544   4.823  1.1076  0.5805 -0.4254
 6739SOL    HW231677   2.754   0.635   4.882  2.0871  0.1976  1.4324
 6740SOL     OW31678   3.209   3.299   6.747  0.1051 -0.7718  0.1596
 6740SOL    HW131679   3.294   3.260   6.726 -0.0300 -0.6147 -0.6933
 6740SOL    HW231680   3.233   3.339   6.831 -1.2341  0.9692 -0.2720
 6741SOL     OW31681   1.892   2.604   7.993 -0.1127  0.1797  0.2604
 6741SOL    HW131682   1.819   2.632   7.939 -0.7971 -1.8963  0.0840
 6741SOL    HW231683   1.957   2.634   7.930 -0.4662 -2.4250 -1.3479
 6742SOL     OW31684   3.596   3.276  17.121 -0.4128  0.0225 -0.5387
 6742SOL    HW131685   3.592   3.285  17.217  0.9961  0.8676 -0.5568
 6742SOL    HW231686   3.674   3.223  17.108 -0.4499 -0.6927  2.0458
 6743SOL     OW31687   4.375   3.094  12.878  0.0540 -0.0732  0.3757
 6743SOL    HW131688   4.427   3.013  12.877  1.0471  0.5784 -0.2856
 6743SOL    HW231689   4.289   3.075  12.840 -1.0033  2.2255  1.6237
 6744SOL     OW31690   2.299   4.718   0.599  0.4112 -0.3493  0.3327
 6744SOL    HW131691   2.394   4.710   0.588  0.1003 -0.9398 -1.9316
 6744SOL    HW231692   2.270   0.076   0.560 -1.8281 -1.1750  0.2521
 6745SOL     OW31693   2.932   4.351   1.673  0.0305 -0.4411  0.4048
 6745SOL    HW131694   2.931   4.332   1.580  1.2814  1.1386  0.0583
 6745SOL    HW231695   2.912   4.444   1.662  3.2293 -0.1230 -2.5659
 6746SOL     OW31696   2.049   1.648   9.198  0.0558 -0.3355  0.2631
 6746SOL    HW131697   2.091   1.564   9.216  0.7760 -0.1099 -0.3438
 6746SOL    HW231698   2.081   1.655   9.108  0.5138 -2.7273  0.2379
 6747SOL     OW31699   2.749   2.793  13.439  0.3242  0.0771 -0.4165
 6747SOL    HW131700   2.678   2.844  13.478  1.6738  2.3832 -0.9799
 6747SOL    HW231701   2.729   2.806  13.347  0.6324  0.7493 -0.3881
 6748SOL     OW31702   2.229   1.719  13.287 -0.6811 -0.0918 -0.4271
 6748SOL    HW131703   2.242   1.734  13.193  1.0053 -0.5225 -0.2608
 6748SOL    HW231704   2.277   1.637  13.289 -0.0652  0.2925  0.2855
 6749SOL     OW31705   2.360   0.854  13.800  0.8863 -0.0969 -0.1749
 6749SOL    HW131706   2.418   0.905  13.856  1.1339 -0.9974  0.3932
 6749SOL    HW231707   2.299   0.917  13.761 -0.7204 -0.6390  1.4495
 6750SOL     OW31708   3.472   2.912   0.991  0.0369  0.3869  0.2516
 6750SOL    HW131709   3.496   2.835   1.041 -0.5910 -1.3115 -2.0506
 6750SOL    HW231710   3.558   2.954   0.985  2.0757 -3.6045  1.8581
 6751SOL     OW31711   1.670   3.427  11.860 -0.3723  0.0951  0.1284
 6751SOL    HW131712   1.602   3.379  11.906  0.7689 -1.7573 -0.1388
 6751SOL    HW231713   1.723   3.455  11.934  1.1515 -0.9443 -0.5895
 6752SOL     OW31714   0.067   4.257   8.881  0.2209  0.6154  0.4292
 6752SOL    HW131715   0.020   4.326   8.927 -1.7486 -0.7405  0.4472
 6752SOL    HW231716   0.108   4.311   8.813 -0.6310  0.7918  0.0551
 6753SOL     OW31717   3.406   3.745  10.036 -0.7792  0.1568 -0.2439
 6753SOL    HW131718   3.493   3.772  10.064  0.0294 -0.4517 -2.1065
 6753SOL    HW231719   3.349   3.769  10.108 -1.0310 -1.3142  0.0492
 6754SOL     OW31720   1.979   0.933   4.000 -0.3676 -0.0713 -0.2978
 6754SOL    HW131721   1.953   0.871   3.932  1.0180 -2.9589  1.7765
 6754SOL    HW231722   1.916   1.000   3.976 -0.3706  0.1673  0.3589
 6755SOL     OW31723   0.965   0.293  14.010  0.5082  0.2589 -0.0895
 6755SOL    HW131724   0.983   0.199  14.007 -1.0003 -0.0881  2.1556
 6755SOL    HW231725   0.871   0.284  14.025  0.4682 -2.3442 -1.9106
 6756SOL     OW31726   1.839   3.249   9.701 -0.0661  0.0312 -0.0921
 6756SOL    HW131727   1.931   3.226   9.687 -0.7177 -2.3062 -0.4931
 6756SOL    HW231728   1.842   3.259   9.796 -2.8216 -0.2025  0.0024
 6757SOL     OW31729   4.149   2.263   3.804 -0.7084  0.2414 -0.4651
 6757SOL    HW131730   4.205   2.302   3.871 -3.2415  1.4501  0.9885
 6757SOL    HW231731   4.069   2.304   3.838 -1.7306 -0.8738 -1.5462
 6758SOL     OW31732   1.411   0.647   4.096  0.5707 -0.4795  0.4694
 6758SOL    HW131733   1.326   0.671   4.060  1.0732  0.5952 -0.0193
 6758SOL    HW231734   1.451   0.599   4.024  1.5811  0.0992  0.6350
 6759SOL     OW31735   2.513   0.134   2.188 -0.2312 -0.4273  0.5935
 6759SOL    HW131736   2.536   0.226   2.188  0.2261 -0.5532 -1.3042
 6759SOL    HW231737   2.568   0.122   2.110  1.4969  0.2338  1.7199
 6760SOL     OW31738   2.636   1.110  15.377 -0.3981 -0.2272 -0.6968
 6760SOL    HW131739   2.637   1.028  15.427 -2.9389  0.1843  0.0349
 6760SOL    HW231740   2.702   1.164  15.418 -0.9756  1.5661 -2.1232
 6761SOL     OW31741   2.589   3.836   5.587 -0.5853 -0.1566  0.1362
 6761SOL    HW131742   2.628   3.917   5.553 -0.8000  0.2000  0.7244
 6761SOL    HW231743   2.506   3.832   5.540  0.3868  0.1761 -1.6304
 6762SOL     OW31744   3.623   4.399   8.185 -0.1534  0.2095  0.1886
 6762SOL    HW131745   3.632   4.430   8.095  2.6218  4.0915  1.7742
 6762SOL    HW231746   3.535   4.363   8.181  0.1454 -0.2436 -1.8574
 6763SOL     OW31747   0.491   0.648   7.794 -0.1933 -0.1376 -0.1333
 6763SOL    HW131748   0.567   0.595   7.770  0.7909  1.8225 -1.3356
 6763SOL    HW231749   0.489   0.721   7.732 -2.5763 -0.9382 -1.0135
 6764SOL     OW31750   0.103   0.066   3.511 -0.1804 -0.2024  0.2001
 6764SOL    HW131751   0.156   0.123   3.455  0.7896  1.0876  2.4098
 6764SOL    HW231752   0.130   0.081   3.602 -0.9776  0.6324  0.2986
 6765SOL     OW31753   3.693   0.527   6.421 -0.1294 -0.0264 -0.2995
 6765SOL    HW131754   3.713   0.510   6.513 -2.0089 -1.1189 -0.0714
 6765SOL    HW231755   3.709   0.438   6.388  2.1475  0.4221 -0.3667
 6766SOL     OW31756   1.674   2.646   7.847 -0.8494 -0.2026 -0.9414
 6766SOL    HW131757   1.670   2.571   7.905  3.2585 -0.3380 -0.8238
 6766SOL    HW231758   1.590   2.645   7.801 -0.4582 -0.5689 -1.6644
 6767SOL     OW31759   2.883   1.812   4.698  0.1532 -0.2763  0.2879
 6767SOL    HW131760   2.842   1.786   4.615 -1.0839  0.5938  0.6242
 6767SOL    HW231761   2.914   1.899   4.675 -0.5304 -0.9631 -3.2847
 6768SOL     OW31762   1.575   3.526  16.208  0.4656 -0.0494  0.1528
 6768SOL    HW131763   1.521   3.565  16.277  1.9978  0.7749  0.8781
 6768SOL    HW231764   1.658   3.568  16.228  0.6010 -0.5033  0.5624
 6769SOL     OW31765   2.407   0.964   4.038 -0.5938 -0.3911 -0.1053
 6769SOL    HW131766   2.335   0.927   4.089  0.3474 -2.7623 -0.4939
 6769SOL    HW231767   2.433   0.879   4.001 -0.3146 -0.3871  0.0837
 6770SOL     OW31768   2.283   1.192  16.034 -0.2002 -0.3514  0.1813
 6770SOL    HW131769   2.332   1.209  16.114 -0.4693  0.3689  0.1890
 6770SOL    HW231770   2.267   1.282  16.006 -0.5793  0.3814  2.7701
 6771SOL     OW31771   4.265   3.416  14.620 -0.5551  0.6211  0.3921
 6771SOL    HW131772   4.343   3.372  14.655  1.2654  1.8838 -2.0555
 6771SOL    HW231773   4.206   3.341  14.615 -0.1646  0.4210 -1.2128
 6772SOL     OW31774   0.893   3.999   6.382  0.3046 -0.1120  0.2039
 6772SOL    HW131775   0.895   3.963   6.293  2.6254 -1.1736  0.6894
 6772SOL    HW231776   0.929   3.924   6.428  0.6043  0.8406  1.5064
 6773SOL     OW31777   3.818   4.253   0.391  0.1326 -0.5798  0.0400
 6773SOL    HW131778   3.770   4.304   0.326  2.2107 -0.0744 -1.0848
 6773SOL    HW231779   3.885   4.317   0.416  1.0718 -1.8648  0.7833
 6774SOL     OW31780   0.413   3.125   4.630  0.5937 -0.8582  0.2812
 6774SOL    HW131781   0.370   3.114   4.715  0.3489 -1.1978  0.1144
 6774SOL    HW231782   0.369   3.052   4.587 -1.2314  0.4252  0.0119
 6775SOL     OW31783   2.319   1.727  10.224 -0.1586 -0.0022  0.4813
 6775SOL    HW131784   2.365   1.776  10.155  1.0967  0.7455  1.8260
 6775SOL    HW231785   2.382   1.737  10.296  1.7210 -0.2092 -1.1465
 6776SOL     OW31786   0.743   1.945   8.051  0.0660 -0.0642 -0.4264
 6776SOL    HW131787   0.776   1.863   8.087  0.2900 -0.3293 -1.2303
 6776SOL    HW231788   0.694   1.975   8.127  1.1645 -1.0126  0.6459
 6777SOL     OW31789   1.697   2.653   2.184  0.4101 -0.2604  0.1788
 6777SOL    HW131790   1.767   2.588   2.180 -0.0124 -0.5474 -2.6082
 6777SOL    HW231791   1.737   2.712   2.120 -2.1172  0.2876 -0.8781
 6778SOL     OW31792   2.357   4.184   1.814 -0.5231  0.4751 -0.0001
 6778SOL    HW131793   2.446   4.151   1.801 -0.4021  0.9774 -0.4664
 6778SOL    HW231794   2.323   4.168   1.726 -0.0673 -0.1292 -0.0673
 6779SOL     OW31795   0.790   2.113   6.928  0.3837  0.4590  0.1333
 6779SOL    HW131796   0.793   2.127   6.834  2.6591  0.8572  0.2757
 6779SOL    HW231797   0.789   2.018   6.926 -2.7308  0.4653  0.3579
 6780SOL     OW31798   3.256   2.225   6.112  0.6703 -0.3068  0.0426
 6780SOL    HW131799   3.275   2.259   6.024  0.0260 -0.7306 -0.2625
 6780SOL    HW231800   3.198   2.158   6.076 -0.4657 -1.0026  3.2497
 6781SOL     OW31801   2.130   3.924   7.794 -1.3877  0.3456  0.2032
 6781SOL    HW131802   2.061   3.964   7.741 -1.6468  1.3442  1.3090
 6781SOL    HW231803   2.088   3.839   7.806  2.1768 -1.2932  1.0484
 6782SOL     OW31804   4.131   3.977   1.744 -0.2006  0.2186  0.3793
 6782SOL    HW131805   4.124   3.936   1.831  2.2140 -0.5375  0.2211
 6782SOL    HW231806   4.174   4.057   1.774  0.8641  0.2627 -1.3045
 6783SOL     OW31807   1.787   0.290   0.179 -0.8425  0.0377  0.1148
 6783SOL    HW131808   1.698   0.258   0.169 -1.6902  1.9309  1.5464
 6783SOL    HW231809   1.839   0.218   0.215 -0.5482  0.4917  0.5925
 6784SOL     OW31810   3.257   0.234   2.661 -0.1154 -0.4866 -0.2480
 6784SOL    HW131811   3.165   0.209   2.664 -0.5624  1.1407 -0.2122
 6784SOL    HW231812   3.301   0.152   2.641 -0.8109 -1.1098  0.8042
 6785SOL     OW31813   1.992   2.893   1.971  0.4057  0.0705 -0.6739
 6785SOL    HW131814   2.047   2.962   1.935  1.1858 -0.5072 -0.5982
 6785SOL    HW231815   2.057   2.843   2.020  0.8716  3.5987  2.2310
 6786SOL     OW31816   1.598   2.208   2.605  0.1986  0.5461  0.3495
 6786SOL    HW131817   1.584   2.242   2.517  1.9243  0.1357 -0.0895
 6786SOL    HW231818   1.568   2.279   2.663 -2.8729 -0.1037 -0.4584
 6787SOL     OW31819   0.416   3.550  10.602 -0.2114  0.1295  0.0987
 6787SOL    HW131820   0.470   3.499  10.661 -0.7734  1.0982  1.4458
 6787SOL    HW231821   0.476   3.625  10.595  1.5902 -1.1027  2.4461
 6788SOL     OW31822   4.233   3.947   8.249  0.2192  0.4002  0.2510
 6788SOL    HW131823   4.198   4.027   8.211  2.0767  0.8282 -0.5432
 6788SOL    HW231824   4.204   3.886   8.181  0.7737 -0.5466  0.8598
 6789SOL     OW31825   3.396   3.198   4.486 -0.0123  0.1659 -0.7262
 6789SOL    HW131826   3.482   3.235   4.507  0.1059 -0.1559 -0.6506
 6789SOL    HW231827   3.395   3.227   4.395 -0.4780 -0.0088 -0.7766
 6790SOL     OW31828   0.070   2.875  13.419 -0.3410  0.0060 -0.2402
 6790SOL    HW131829   4.700   2.873  13.438 -0.3174  0.0629 -0.1217
 6790SOL    HW231830   0.083   2.805  13.354 -1.3143 -1.4913  1.1679
 6791SOL     OW31831   2.168   2.363   2.229 -0.4253  0.2308  0.1917
 6791SOL    HW131832   2.212   2.406   2.155  0.8972  1.5074  1.7054
 6791SOL    HW231833   2.204   2.420   2.297 -2.0746  0.7929  0.5949
 6792SOL     OW31834   2.183   0.717   1.144  0.6400  0.1030 -0.1562
 6792SOL    HW131835   2.164   0.722   1.238  0.1831 -1.2075 -0.1853
 6792SOL    HW231836   2.244   0.645   1.135 -0.7731 -1.1364  0.1939
 6793SOL     OW31837   2.558   1.216   7.370  0.0992  0.3325 -0.1353
 6793SOL    HW131838   2.602   1.225   7.286 -0.9408  0.0001 -0.7181
 6793SOL    HW231839   2.492   1.285   7.355  0.1278  0.2206 -0.7760
 6794SOL     OW31840   1.241   0.395   7.686  0.3820 -0.4630  0.3178
 6794SOL    HW131841   1.293   0.458   7.735  1.1765 -1.0895  0.2786
 6794SOL    HW231842   1.233   0.443   7.603 -1.4526  1.0858  1.3790
 6795SOL     OW31843   3.620   0.353   4.809 -0.1218 -0.4061  0.6408
 6795SOL    HW131844   3.657   0.283   4.863 -2.1786 -0.0632  2.5140
 6795SOL    HW231845   3.667   0.338   4.727 -0.3492 -0.8409  0.5949
 6796SOL     OW31846   0.901   3.664  14.621  0.0381  0.0806 -0.7328
 6796SOL    HW131847   0.939   3.631  14.703 -2.5527 -0.9395  0.0580
 6796SOL    HW231848   0.888   3.585  14.567  1.3903 -1.2801  0.9176
 6797SOL     OW31849   1.402   2.848   2.392  0.4091  0.4312  0.0540
 6797SOL    HW131850   1.399   2.784   2.320  2.2359  1.3361 -0.8554
 6797SOL    HW231851   1.423   2.789   2.464  0.3705 -0.3859 -0.6008
 6798SOL     OW31852   4.342   1.759   2.493  0.2976 -0.7539 -0.0521
 6798SOL    HW131853   4.322   1.777   2.401 -0.5236  0.5132  0.3834
 6798SOL    HW231854   4.436   1.777   2.482 -0.3980  2.7297 -0.3630
 6799SOL     OW31855   3.095   1.332  16.032 -0.3970  0.3898  0.0479
 6799SOL    HW131856   3.081   1.276  16.109  1.8267 -0.9379 -0.5175
 6799SOL    HW231857   3.027   1.291  15.977 -1.4203  2.4157 -0.2117
 6800SOL     OW31858   4.573   0.074  16.376  0.0961 -0.4901 -0.3575
 6800SOL    HW131859   4.651   0.121  16.404 -0.8845  1.7121 -1.2711
 6800SOL    HW231860   4.523   0.145  16.336  1.1790 -0.3795 -1.5026
 6801SOL     OW31861   0.712   3.204   2.606 -0.0707  0.1094 -0.0601
 6801SOL    HW131862   0.768   3.269   2.563  2.3844 -1.0116  1.4754
 6801SOL    HW231863   0.687   3.246   2.688 -1.0462  0.6326 -0.6293
 6802SOL     OW31864   3.280   4.500   1.934 -0.0937 -0.7926  0.0374
 6802SOL    HW131865   3.195   4.507   1.979 -0.0072 -1.0174  0.2368
 6802SOL    HW231866   3.266   4.414   1.894 -0.9042 -0.2683 -0.7876
 6803SOL     OW31867   1.901   1.048   5.870 -0.3277 -0.1670 -0.3294
 6803SOL    HW131868   1.992   1.021   5.854 -0.9337 -0.9898 -2.3539
 6803SOL    HW231869   1.844   0.977   5.838  0.0382 -0.6524  0.0873
 6804SOL     OW31870   0.633   2.084   7.273 -0.1756 -0.0849 -0.1398
 6804SOL    HW131871   0.628   1.996   7.235 -0.0512  0.7860 -2.1718
 6804SOL    HW231872   0.727   2.099   7.279 -0.0729 -0.3209 -1.0524
 6805SOL     OW31873   4.033   2.601   3.835 -0.1950  0.6832  0.3541
 6805SOL    HW131874   3.963   2.652   3.794 -1.3544 -0.8937  0.3309
 6805SOL    HW231875   3.988   2.575   3.916 -0.5586  1.9338  0.5493
 6806SOL     OW31876   4.385   0.098   5.648 -0.0159  0.3355 -0.0136
 6806SOL    HW131877   4.402   0.143   5.731 -1.5067  0.8418  0.0136
 6806SOL    HW231878   4.475   0.072   5.628  0.7925  2.2507  1.0390
 6807SOL     OW31879   3.538   2.479  14.934 -0.8484 -0.0932  0.9288
 6807SOL    HW131880   3.467   2.414  14.933 -0.7231 -0.2150 -0.0741
 6807SOL    HW231881   3.614   2.429  14.906 -0.5832  0.5747  0.4709
 6808SOL     OW31882   1.490   4.190   4.970  0.3602 -0.3533  0.1232
 6808SOL    HW131883   1.461   4.198   5.061  1.6270  1.2063  0.3829
 6808SOL    HW231884   1.404   4.184   4.928  0.3611  0.0833  0.0626
 6809SOL     OW31885   4.632   4.453   6.379  0.3335 -0.2124  0.1434
 6809SOL    HW131886   4.623   4.464   6.474  1.0663  1.5590  0.0062
 6809SOL    HW231887   4.538   4.459   6.360  0.5875  1.6732 -0.4488
 6810SOL     OW31888   3.360   3.090   1.176 -0.4524  0.5524  0.5706
 6810SOL    HW131889   3.279   3.115   1.132 -0.4201 -2.3315 -1.1198
 6810SOL    HW231890   3.391   3.020   1.118  2.2108  0.5043  2.0345
 6811SOL     OW31891   0.497   2.119  11.067 -0.0615 -0.4399  0.2540
 6811SOL    HW131892   0.512   2.207  11.102  1.5349 -1.2545  1.6268
 6811SOL    HW231893   0.578   2.112  11.017 -0.1283  1.3330 -0.1206
 6812SOL     OW31894   4.338   1.269  11.732 -0.1671  0.2279 -0.0500
 6812SOL    HW131895   4.339   1.266  11.636 -0.3356 -0.6306 -0.0289
 6812SOL    HW231896   4.423   1.310  11.747  1.2084 -2.6427  0.0374
 6813SOL     OW31897   4.322   2.195  14.338  0.4127 -0.2679  0.0649
 6813SOL    HW131898   4.316   2.150  14.254 -2.3680  0.1980  0.0100
 6813SOL    HW231899   4.350   2.281  14.307  2.9111 -0.6328  1.3058
 6814SOL     OW31900   0.310   1.223   5.283  0.2775 -0.4722 -0.3633
 6814SOL    HW131901   0.352   1.160   5.224  0.2085  0.0932 -1.0075
 6814SOL    HW231902   0.380   1.287   5.296  0.7061 -1.0016 -0.0351
 6815SOL     OW31903   1.834   4.265   7.197 -0.2260 -0.9816  0.1268
 6815SOL    HW131904   1.803   4.353   7.219  1.1514 -0.0999 -1.4779
 6815SOL    HW231905   1.748   4.233   7.169  0.1347 -1.4168 -0.4884
 6816SOL     OW31906   2.092   1.182   2.906 -0.0318  0.2405 -0.0636
 6816SOL    HW131907   2.110   1.091   2.929  0.5111 -0.1562 -2.0535
 6816SOL    HW231908   2.163   1.188   2.842  0.2135 -0.1987  0.1712
 6817SOL     OW31909   3.333   3.912  13.888 -0.2780  0.1700 -0.0729
 6817SOL    HW131910   3.336   3.969  13.811 -1.7492 -0.2277 -0.4211
 6817SOL    HW231911   3.413   3.862  13.869 -1.1869 -0.5176 -2.0391
 6818SOL     OW31912   1.046   2.340   6.940  0.4787 -0.0724 -0.5185
 6818SOL    HW131913   0.993   2.264   6.966  1.0990 -0.3945 -0.1974
 6818SOL    HW231914   1.137   2.310   6.939  0.1909 -0.9378 -0.7462
 6819SOL     OW31915   0.752   2.176  10.981 -0.3176 -0.2814  0.2163
 6819SOL    HW131916   0.785   2.134  11.061 -0.0027 -0.0785  0.1917
 6819SOL    HW231917   0.763   2.270  10.995 -0.1497 -0.3517  0.5668
 6820SOL     OW31918   0.501   0.306   2.196 -0.2457  0.4970  0.3942
 6820SOL    HW131919   0.439   0.328   2.126  1.2081 -1.1156 -1.4130
 6820SOL    HW231920   0.535   0.228   2.152 -1.4996 -0.0263  0.3369
 6821SOL     OW31921   0.376   0.942   3.813 -0.0774 -0.0051  0.5018
 6821SOL    HW131922   0.445   1.007   3.807 -0.4622  0.4091  0.5410
 6821SOL    HW231923   0.339   0.949   3.725  0.3505  1.7512  0.4700
 6822SOL     OW31924   3.571   1.603   2.180  0.1077  0.3544  0.2497
 6822SOL    HW131925   3.634   1.641   2.119 -0.5489 -0.3840 -0.8733
 6822SOL    HW231926   3.512   1.678   2.192  2.5239  2.3044  0.0868
 6823SOL     OW31927   2.389   0.885  10.763 -0.0263  0.3576  0.1950
 6823SOL    HW131928   2.471   0.855  10.723  0.1847  0.2288  0.7218
 6823SOL    HW231929   2.431   0.880  10.850  0.4535  0.0703 -0.0518
 6824SOL     OW31930   1.387   4.454   4.805  0.3249  0.3535 -0.0469
 6824SOL    HW131931   1.470   4.451   4.853 -0.1211 -0.7182  0.6441
 6824SOL    HW231932   1.363   4.546   4.814 -1.2026 -0.0079 -0.4241
 6825SOL     OW31933   1.963   2.582   7.474 -0.8841  0.0015 -0.9845
 6825SOL    HW131934   1.952   2.653   7.538  0.1404  0.1946 -1.0179
 6825SOL    HW231935   2.058   2.587   7.485 -0.6397 -2.0060 -2.2645
 6826SOL     OW31936   4.236   2.353   7.795 -0.3446  0.3014  0.6854
 6826SOL    HW131937   4.251   2.262   7.771  2.6519  0.4801  1.8125
 6826SOL    HW231938   4.319   2.366   7.840  1.2366 -0.4060 -2.0245
 6827SOL     OW31939   0.106   1.171  10.411  0.2485  0.5439  0.1728
 6827SOL    HW131940   0.175   1.138  10.354 -0.5670 -1.3969  0.3098
 6827SOL    HW231941   0.150   1.237  10.466  1.4256  0.2906 -0.4560
 6828SOL     OW31942   0.822   4.232   6.536  0.1234 -0.6832 -0.1840
 6828SOL    HW131943   0.871   4.168   6.483 -1.4612 -1.6577 -0.4575
 6828SOL    HW231944   0.809   4.289   6.460 -0.8237 -0.4999  0.1171
 6829SOL     OW31945   0.753   3.637   2.229  0.3590 -0.2788  0.3240
 6829SOL    HW131946   0.779   3.679   2.312  2.0445  2.5767 -1.6542
 6829SOL    HW231947   0.808   3.559   2.230 -0.3618 -0.7796  0.5860
 6830SOL     OW31948   1.016   4.189   0.436 -0.3563  0.2027 -0.5871
 6830SOL    HW131949   0.921   4.196   0.426 -0.3188  2.5023  0.7467
 6830SOL    HW231950   1.010   4.129   0.511  0.0790  1.8492  0.7615
 6831SOL     OW31951   3.199   3.106   2.234 -0.2456  0.4596 -0.6878
 6831SOL    HW131952   3.246   3.056   2.301 -1.8660  3.0608  2.4281
 6831SOL    HW231953   3.118   3.122   2.283  2.4877  1.4731  3.5164
 6832SOL     OW31954   4.687   0.651   4.569  0.2577 -0.1781  0.4955
 6832SOL    HW131955   4.604   0.698   4.571 -0.9384 -2.2355 -1.4998
 6832SOL    HW231956   4.663   0.601   4.491  1.1312 -2.0379  1.4374
 6833SOL     OW31957   4.557   4.224   2.228 -0.1290  0.5901  0.0474
 6833SOL    HW131958   4.633   4.203   2.174  0.0392  0.8621  0.1766
 6833SOL    HW231959   4.592   4.223   2.317 -0.8087 -0.1777  0.2999
 6834SOL     OW31960   3.401   0.103   9.274  0.7065 -0.2779 -0.1421
 6834SOL    HW131961   3.428   0.057   9.354 -0.3085  0.2203  0.4719
 6834SOL    HW231962   3.309   0.114   9.295  0.8612 -2.7207  1.9013
 6835SOL     OW31963   0.594   3.108   9.442  0.6758 -0.1952 -0.4040
 6835SOL    HW131964   0.511   3.124   9.397  0.4282 -2.6094 -0.7946
 6835SOL    HW231965   0.617   3.196   9.472  1.0786 -0.6253  0.5334
 6836SOL     OW31966   3.404   1.317   2.732 -0.1000 -0.0436 -0.1020
 6836SOL    HW131967   3.405   1.347   2.641  2.8688  2.2929  0.7055
 6836SOL    HW231968   3.454   1.392   2.764  1.2991 -1.0711  0.1349
 6837SOL     OW31969   3.243   3.270   7.229  0.0994  0.1582 -0.0024
 6837SOL    HW131970   3.257   3.176   7.217  0.3577  0.3361 -1.0795
 6837SOL    HW231971   3.271   3.282   7.320  1.2614  1.2418 -0.5086
 6838SOL     OW31972   2.160   2.393  11.819  0.7790 -0.1094 -0.6454
 6838SOL    HW131973   2.150   2.309  11.864 -1.9905  0.4192 -0.2312
 6838SOL    HW231974   2.077   2.406  11.771 -0.8896  1.2593  2.6018
 6839SOL     OW31975   4.577   3.367   4.126  0.8053 -0.5475  0.6228
 6839SOL    HW131976   4.509   3.300   4.136 -0.2872  0.6939  1.4356
 6839SOL    HW231977   4.557   3.395   4.037 -1.0106  2.1938  1.9053
 6840SOL     OW31978   3.014   2.802   8.387 -0.5049 -0.1566  0.5106
 6840SOL    HW131979   2.940   2.762   8.431 -1.2381 -0.2585 -0.8288
 6840SOL    HW231980   3.070   2.728   8.363  1.2211  1.9303 -1.9978
 6841SOL     OW31981   2.369   3.349  13.537  0.1208  0.2977  0.2753
 6841SOL    HW131982   2.415   3.295  13.472 -0.0542 -0.4374  0.7615
 6841SOL    HW231983   2.418   3.431  13.530 -1.2591  1.4036  3.8195
 6842SOL     OW31984   2.562   1.473   9.195  0.4724  0.0007  1.3125
 6842SOL    HW131985   2.555   1.461   9.290 -2.2960  0.7131  1.1854
 6842SOL    HW231986   2.648   1.437   9.176  0.8136  1.7989 -0.5393
 6843SOL     OW31987   3.765   0.406  10.052  0.0425 -0.0484 -0.2045
 6843SOL    HW131988   3.836   0.363  10.100  0.0912  0.9583  0.6428
 6843SOL    HW231989   3.787   0.382   9.963  2.5033 -1.1345  0.7043
 6844SOL     OW31990   4.013   3.235  17.237  0.6463  0.3903  0.0989
 6844SOL    HW131991   4.099   3.255  17.273  1.1531 -0.9589 -0.3844
 6844SOL    HW231992   4.028   3.181  17.160 -0.4176 -1.0979  0.9296
 6845SOL     OW31993   0.760   0.640   2.436  0.6109  0.7953  0.1656
 6845SOL    HW131994   0.757   0.578   2.363 -0.8433 -0.3640  1.2127
 6845SOL    HW231995   0.853   0.661   2.438  0.4248  1.3780  1.9196
 6846SOL     OW31996   1.207   4.673   5.211 -0.0418 -0.1328  0.2888
 6846SOL    HW131997   1.259   4.690   5.132 -1.2206  2.2798  0.0633
 6846SOL    HW231998   1.231   0.030   5.256 -2.3361 -0.2933  1.8009
 6847SOL     OW31999   2.315   2.113   5.753  0.8475 -0.3219 -0.1093
 6847SOL    HW132000   2.326   2.128   5.659 -0.6388 -0.2044 -0.2511
 6847SOL    HW232001   2.398   2.075   5.784  2.1571  1.6827 -1.1765
 6848SOL     OW32002   0.460   0.617  11.902  0.3560 -0.4680  0.6305
 6848SOL    HW132003   0.517   0.599  11.827 -0.9798 -1.0422 -0.2415
 6848SOL    HW232004   0.418   0.695  11.866  0.0194 -1.6369 -1.5277
 6849SOL     OW32005   3.075   1.536   2.391  0.1832 -0.1539  0.7179
 6849SOL    HW132006   3.018   1.592   2.338  0.1052 -2.3026 -1.4133
 6849SOL    HW232007   3.116   1.480   2.325  1.6646  0.6171  0.9698
 6850SOL     OW32008   2.711   4.063   5.499 -0.1252  0.3007  0.0145
 6850SOL    HW132009   2.800   4.054   5.535 -0.6499 -3.1612  0.4059
 6850SOL    HW232010   2.727   4.117   5.421 -1.0373 -0.9258 -1.0235
 6851SOL     OW32011   0.097   0.028   5.396 -0.4599  0.1057 -0.1711
 6851SOL    HW132012   0.131   0.095   5.456 -0.4041  0.1336 -0.2345
 6851SOL    HW232013   0.098   0.077   5.314 -1.1083  0.1993 -0.1245
 6852SOL     OW32014   4.418   4.720  14.486 -0.1352 -0.3354  0.0908
 6852SOL    HW132015   4.505   4.694  14.457  0.4860  0.4247  1.3245
 6852SOL    HW232016   4.394   4.649  14.545 -2.0716  1.1180  1.0719
 6853SOL     OW32017   1.731   4.334   3.534  0.0781  0.2611  0.1637
 6853SOL    HW132018   1.820   4.357   3.507  0.8095 -2.2689  0.3707
 6853SOL    HW232019   1.742   4.322   3.628 -0.0621 -0.8884  0.0429
 6854SOL     OW32020   3.959   3.213   3.003  0.3793  0.1668 -0.3504
 6854SOL    HW132021   3.981   3.265   2.926  0.4610 -0.6876 -0.9025
 6854SOL    HW232022   4.020   3.252   3.065  0.3857 -1.7724  0.8671
 6855SOL     OW32023   3.516   3.356   7.944  0.3944  0.4681  0.1738
 6855SOL    HW132024   3.424   3.351   7.917  1.2638 -2.5048 -2.2657
 6855SOL    HW232025   3.523   3.449   7.965  1.5857  0.9011 -2.0320
 6856SOL     OW32026   2.611   3.763   4.190  0.2677  0.1944  0.2823
 6856SOL    HW132027   2.531   3.711   4.178  0.8984  0.0468 -3.2203
 6856SOL    HW232028   2.575   3.847   4.219 -0.2567 -0.4259  1.4302
 6857SOL     OW32029   1.993   3.972   3.812  0.1980  0.1110  0.1639
 6857SOL    HW132030   1.982   3.955   3.905  0.5949 -2.5010 -0.2784
 6857SOL    HW232031   1.924   3.918   3.774  2.1890 -1.1277 -1.7345
 6858SOL     OW32032   3.482   1.758   6.544 -0.5872  0.4096  0.1808
 6858SOL    HW132033   3.464   1.792   6.456 -1.8237  0.7028  0.5469
 6858SOL    HW232034   3.417   1.688   6.543 -0.0611 -0.0476 -1.7165
 6859SOL     OW32035   3.564   3.580   8.153  1.0180 -0.4317 -0.6819
 6859SOL    HW132036   3.646   3.573   8.202 -1.1015 -0.9515  2.7461
 6859SOL    HW232037   3.553   3.675   8.162 -2.6524 -0.8427 -1.0085
 6860SOL     OW32038   3.939   2.876   1.580  0.3147  0.0718 -0.1974
 6860SOL    HW132039   3.921   2.926   1.501 -4.1062 -3.2275 -1.3329
 6860SOL    HW232040   4.026   2.839   1.562  0.7502  0.4593  1.1133
 6861SOL     OW32041   2.136   1.495   5.613  0.0160  0.3337  0.4967
 6861SOL    HW132042   2.230   1.503   5.596  0.3164  0.8601  2.4050
 6861SOL    HW232043   2.135   1.568   5.675 -1.0028 -0.8576  1.8972
 6862SOL     OW32044   3.605   1.087   3.975  0.2054 -1.6001 -0.2773
 6862SOL    HW132045   3.545   1.161   3.975  1.3271 -0.6737 -1.6593
 6862SOL    HW232046   3.567   1.022   4.033 -1.5801 -0.0461  0.2841
 6863SOL     OW32047   0.358   1.993   3.116  0.4748 -0.6202  0.5022
 6863SOL    HW132048   0.318   1.959   3.036  1.0720 -1.2894  0.4834
 6863SOL    HW232049   0.448   2.013   3.092  0.9378 -2.3040  0.8292
 6864SOL     OW32050   1.696   4.320   7.679  0.1734  0.3953 -0.1112
 6864SOL    HW132051   1.658   4.352   7.597  0.5385  0.5665 -0.2136
 6864SOL    HW232052   1.644   4.369   7.743 -0.0151  4.0592 -3.0575
 6865SOL     OW32053   4.560   3.466   2.926  0.2739  0.4011  0.8055
 6865SOL    HW132054   4.624   3.469   2.998 -0.3897  0.2101  1.3995
 6865SOL    HW232055   4.561   3.372   2.910  0.4443  1.2001 -4.0469
 6866SOL     OW32056   3.427   0.123   6.860 -0.2756 -0.2876 -0.6077
 6866SOL    HW132057   3.384   0.073   6.930  0.7456 -1.7933 -1.0404
 6866SOL    HW232058   3.496   0.060   6.836 -0.1703  0.0963 -1.3102
 6867SOL     OW32059   3.317   3.026   3.674  0.4987  0.5691 -0.7414
 6867SOL    HW132060   3.233   3.059   3.642  0.5570 -1.7575 -3.3023
 6867SOL    HW232061   3.374   3.087   3.627  1.8504 -0.1116  0.0107
 6868SOL     OW32062   2.084   3.923  13.809  0.4578 -0.5734  0.6447
 6868SOL    HW132063   2.154   3.877  13.762  1.3056 -1.4048  2.7242
 6868SOL    HW232064   2.006   3.884  13.769  0.4907 -0.9940  0.9931
 6869SOL     OW32065   1.648   0.189   0.697  0.1461  0.3828 -0.0416
 6869SOL    HW132066   1.605   0.159   0.778 -1.5219  0.7710 -0.7846
 6869SOL    HW232067   1.669   0.102   0.662 -1.5295  1.0945 -2.7622
 6870SOL     OW32068   1.288   3.655  17.615  0.3340  0.0896 -0.1201
 6870SOL    HW132069   1.205   3.681  17.576  1.7540  1.2489 -2.3150
 6870SOL    HW232070   1.251   3.595  17.680  1.3247  1.5796  1.8494
 6871SOL     OW32071   4.697   3.316   8.617 -0.3093 -0.2677 -0.6378
 6871SOL    HW132072   0.004   3.258   8.687 -1.1007  0.1145  0.0333
 6871SOL    HW232073   0.056   3.354   8.590  0.5832 -2.0680 -0.4708
 6872SOL     OW32074   2.778   2.934   3.005  0.1346  0.0039  0.4564
 6872SOL    HW132075   2.707   2.987   3.042  0.6837  2.1261 -1.5724
 6872SOL    HW232076   2.812   2.895   3.085 -1.2494 -1.8646  0.1361
 6873SOL     OW32077   2.903   4.289   8.299  0.2820  0.1884  0.0359
 6873SOL    HW132078   2.936   4.206   8.266 -0.7818 -0.6214  1.0119
 6873SOL    HW232079   2.961   4.304   8.374  0.0240 -2.2267  0.6974
 6874SOL     OW32080   3.061   4.013  11.513  0.2001 -0.0536  0.5566
 6874SOL    HW132081   3.085   3.931  11.470  1.3518  0.2811  0.5795
 6874SOL    HW232082   3.114   4.005  11.591 -1.4484 -2.9902  1.3841
 6875SOL     OW32083   1.679   1.717   4.127 -0.0054 -0.5270 -0.2262
 6875SOL    HW132084   1.620   1.643   4.118  2.0528 -2.1735 -0.3105
 6875SOL    HW232085   1.627   1.774   4.184 -1.4133 -1.1932 -0.8619
 6876SOL     OW32086   1.791   1.299   5.049  0.1473 -0.6301  0.2113
 6876SOL    HW132087   1.878   1.260   5.055 -0.3962 -2.2282 -2.5303
 6876SOL    HW232088   1.746   1.217   5.030 -0.0612 -0.8331  1.6300
 6877SOL     OW32089   2.551   1.091   2.563 -0.2315 -0.6464 -0.3770
 6877SOL    HW132090   2.575   1.163   2.621  1.5027 -0.0656 -1.8077
 6877SOL    HW232091   2.633   1.042   2.579  0.2821  0.0667 -0.8566
 6878SOL     OW32092   3.885   0.114   0.656  0.7238 -0.5089  0.4725
 6878SOL    HW132093   3.833   0.089   0.579 -1.2406 -2.9747  2.5824
 6878SOL    HW232094   3.869   0.208   0.664 -3.2388 -0.9932 -1.4793
 6879SOL     OW32095   4.021   0.286  12.407 -0.7965  0.1074 -0.4626
 6879SOL    HW132096   4.112   0.314  12.405 -0.2832 -1.6351 -1.3946
 6879SOL    HW232097   4.027   0.199  12.368 -0.7550 -0.5000  0.8928
 6880SOL     OW32098   2.791   3.606  12.981 -0.2749  0.3114 -0.0079
 6880SOL    HW132099   2.741   3.683  13.009 -0.0389  0.1415  0.8656
 6880SOL    HW232100   2.716   3.554  12.951  0.3970  0.0648 -1.2364
 6881SOL     OW32101   4.536   0.035   5.066 -0.4906 -0.5442 -0.2415
 6881SOL    HW132102   4.551   0.126   5.042 -4.2674  0.1997  0.1558
 6881SOL    HW232103   4.533   0.059   5.159 -1.2448  0.6374 -0.5726
 6882SOL     OW32104   3.102   3.624   1.717  0.0633  0.1606  0.3464
 6882SOL    HW132105   3.078   3.574   1.639  2.5860 -0.1916 -0.1973
 6882SOL    HW232106   3.106   3.712   1.680 -0.4213  0.3113  0.6499
 6883SOL     OW32107   4.080   4.440   3.972  0.5106  0.2896 -0.0630
 6883SOL    HW132108   4.075   4.509   3.906 -0.5529  2.3480  2.1785
 6883SOL    HW232109   4.051   4.370   3.913 -0.5442  2.6991 -2.4069
 6884SOL     OW32110   1.490   3.629   2.352  0.5338 -0.6896  0.0828
 6884SOL    HW132111   1.545   3.697   2.313  1.1604 -0.9897  0.4420
 6884SOL    HW232112   1.403   3.667   2.341  0.6248 -0.5086 -0.0046
 6885SOL     OW32113   2.602   1.143  15.842 -0.2169  0.0803  0.1639
 6885SOL    HW132114   2.521   1.093  15.831 -0.1486  0.1529 -0.6893
 6885SOL    HW232115   2.660   1.079  15.801  1.2517  2.4923 -1.5136
 6886SOL     OW32116   0.933   0.277   8.126  0.0109 -0.2922  0.1301
 6886SOL    HW132117   0.994   0.233   8.186  1.2383  0.1826 -0.7507
 6886SOL    HW232118   0.928   0.228   8.044 -1.5280  1.2328 -0.6800
 6887SOL     OW32119   2.671   0.596   8.467  0.3993 -0.5059 -0.2611
 6887SOL    HW132120   2.653   0.602   8.561 -1.0675  0.8183 -0.6243
 6887SOL    HW232121   2.615   0.526   8.435  1.1264 -1.0466 -0.3726
 6888SOL     OW32122   1.834   3.386  16.444  0.0001  0.6852 -0.6341
 6888SOL    HW132123   1.775   3.456  16.472 -0.4167 -0.1141  0.4589
 6888SOL    HW232124   1.798   3.368  16.357 -2.3537 -0.2958  0.5517
 6889SOL     OW32125   2.534   1.393   3.300 -0.7361  0.1292  0.2622
 6889SOL    HW132126   2.582   1.322   3.259 -2.0202 -0.3048 -0.4899
 6889SOL    HW232127   2.500   1.339   3.371  0.6875 -2.0660 -0.7329
 6890SOL     OW32128   3.359   0.137   8.464 -0.0602  0.1083  0.1246
 6890SOL    HW132129   3.430   0.079   8.438 -0.1115  0.8854 -1.7080
 6890SOL    HW232130   3.281   0.096   8.426 -0.0086  0.3227 -0.2121
 6891SOL     OW32131   1.051   3.687   8.737 -0.6444  0.3200  0.0971
 6891SOL    HW132132   0.960   3.688   8.707 -0.1334  1.6196 -1.4312
 6891SOL    HW232133   1.051   3.683   8.832 -2.1160 -4.1274 -0.1032
 6892SOL     OW32134   3.124   3.167   7.705 -0.1265 -0.3233  0.2539
 6892SOL    HW132135   3.036   3.197   7.679  0.5156  1.8060  0.5473
 6892SOL    HW232136   3.143   3.099   7.640 -2.8262 -0.4153 -0.4761
 6893SOL     OW32137   0.204   3.417  15.203  0.0461  0.5153  0.1740
 6893SOL    HW132138   0.255   3.496  15.218 -0.4302  0.7735  0.4242
 6893SOL    HW232139   0.184   3.389  15.292  0.9900 -2.6372 -0.5835
 6894SOL     OW32140   1.605   0.322  16.304 -0.4484 -0.3758  0.3325
 6894SOL    HW132141   1.642   0.407  16.277 -0.7843 -0.9083 -1.8158
 6894SOL    HW232142   1.536   0.311  16.239  0.6619  0.9144 -1.0764
 6895SOL     OW32143   0.942   2.918   9.293 -0.7229  0.4264  0.2454
 6895SOL    HW132144   0.915   2.903   9.384  1.3954  0.5011  0.8782
 6895SOL    HW232145   0.999   2.843   9.277 -1.7876 -0.0801 -1.1863
 6896SOL     OW32146   1.140   0.626  15.570  0.2048  0.0992  0.3844
 6896SOL    HW132147   1.229   0.591  15.577 -0.0311 -0.3274  1.3110
 6896SOL    HW232148   1.094   0.542  15.578  0.0623 -0.0160 -1.5961
 6897SOL     OW32149   3.834   3.006   1.357  0.5187 -0.1675 -0.5077
 6897SOL    HW132150   3.877   3.076   1.309 -1.2899 -0.2473 -2.2254
 6897SOL    HW232151   3.803   2.952   1.284  0.2497  0.1353 -0.6144
 6898SOL     OW32152   0.254   3.316  17.614  0.7256  0.6287 -0.2049
 6898SOL    HW132153   0.231   3.349   0.004  0.0573 -0.9759  0.2309
 6898SOL    HW232154   0.208   3.233  17.608 -1.5187  1.7677  1.5106
 6899SOL     OW32155   2.817   3.093   6.326 -0.3221  0.2276 -1.0137
 6899SOL    HW132156   2.897   3.097   6.377 -0.4510  1.3136 -0.8881
 6899SOL    HW232157   2.796   3.187   6.330  2.7248  0.8065  1.0447
 6900SOL     OW32158   1.467   0.478  14.726 -0.2440 -0.3371 -0.3143
 6900SOL    HW132159   1.555   0.470  14.764 -0.7691 -1.1238  0.7518
 6900SOL    HW232160   1.418   0.426  14.790 -0.3400 -1.9260 -1.6651
 6901SOL     OW32161   2.524   2.408   2.078 -0.3524 -0.2695  0.0956
 6901SOL    HW132162   2.611   2.448   2.088 -1.5657  2.1386  0.8959
 6901SOL    HW232163   2.559   2.340   2.021  0.0816  1.0032 -1.1508
 6902SOL     OW32164   3.187   4.539   6.797 -0.1073 -0.0715 -0.1155
 6902SOL    HW132165   3.183   4.479   6.722 -1.9875  0.1619 -0.1870
 6902SOL    HW232166   3.200   4.479   6.871  0.2407  0.5583  0.3311
 6903SOL     OW32167   0.579   0.089   3.178 -0.1322 -0.0918  0.0817
 6903SOL    HW132168   0.669   0.061   3.163  0.1315  1.0594 -0.4777
 6903SOL    HW232169   0.545   0.075   3.089 -0.9234  2.0003  0.0476
 6904SOL     OW32170   1.981   0.710   3.835  0.2292 -0.4519 -0.6566
 6904SOL    HW132171   1.994   0.693   3.742  0.6760  1.0267 -0.8661
 6904SOL    HW232172   2.028   0.639   3.879  0.9915 -1.6238 -3.3641
 6905SOL     OW32173   1.097   3.849   5.673 -0.0286 -0.0412 -0.2917
 6905SOL    HW132174   1.073   3.941   5.660  1.0263  0.2992  0.2019
 6905SOL    HW232175   1.178   3.848   5.722 -0.4782  0.7888  0.4698
 6906SOL     OW32176   3.855   2.375   8.549  0.1817  0.3025  0.3252
 6906SOL    HW132177   3.852   2.461   8.591  0.6151  1.2953 -1.6728
 6906SOL    HW232178   3.798   2.388   8.472  2.2224 -3.1485 -1.7669
 6907SOL     OW32179   2.546   1.749   6.194  0.4246  0.1811  0.0729
 6907SOL    HW132180   2.465   1.697   6.194  1.2727 -1.1380 -1.3760
 6907SOL    HW232181   2.500   1.832   6.181  0.2143  0.3430  1.9335
 6908SOL     OW32182   3.539   3.358   4.725 -0.0160  0.2604 -0.7744
 6908SOL    HW132183   3.578   3.417   4.790  0.5687 -2.0664  0.9778
 6908SOL    HW232184   3.549   3.277   4.776  1.4863  1.2217  0.4841
 6909SOL     OW32185   2.517   0.211   2.965  0.4012  0.0152  0.6968
 6909SOL    HW132186   2.543   0.125   2.932 -0.2857  0.1493 -0.1821
 6909SOL    HW232187   2.502   0.256   2.882 -0.0683 -0.0727  0.7339
 6910SOL     OW32188   1.895   3.828   6.987  0.2857 -0.2348  0.0990
 6910SOL    HW132189   1.917   3.881   6.910  0.8531  1.1590  1.2159
 6910SOL    HW232190   1.933   3.876   7.060  0.0856 -1.1676  0.8103
 6911SOL     OW32191   1.267   3.280   4.004 -0.0269  0.0877 -0.0442
 6911SOL    HW132192   1.257   3.365   3.960  0.4296  0.7695  1.1703
 6911SOL    HW232193   1.175   3.280   4.029  0.1988  0.4905  0.7824
 6912SOL     OW32194   4.017   2.930   7.789  0.1978 -0.0329  0.2060
 6912SOL    HW132195   4.028   3.009   7.842 -0.8539  0.9478 -1.0493
 6912SOL    HW232196   4.030   2.866   7.859 -0.7958  0.3651  0.7471
 6913SOL     OW32197   1.077   2.494  15.701 -0.4842 -0.6536  0.0588
 6913SOL    HW132198   1.166   2.474  15.733  0.4174  2.6995 -0.4189
 6913SOL    HW232199   1.035   2.508  15.785 -0.6476  1.5345 -0.4081
 6914SOL     OW32200   0.316   1.071   7.067 -0.1043 -0.8322 -1.0750
 6914SOL    HW132201   0.393   1.069   7.124 -0.6397 -0.7457 -0.3536
 6914SOL    HW232202   0.306   0.984   7.027 -0.3074 -1.0377 -0.5790
 6915SOL     OW32203   0.108   4.421   5.827  0.5905  0.3893  0.4840
 6915SOL    HW132204   0.131   4.434   5.919 -2.6025  0.3483  1.2946
 6915SOL    HW232205   0.108   4.327   5.811  3.1503  0.1976  1.6880
 6916SOL     OW32206   3.275   2.138   5.604  0.0595  0.3948  0.3483
 6916SOL    HW132207   3.263   2.218   5.554  0.6420  0.4204  0.2546
 6916SOL    HW232208   3.349   2.158   5.661 -0.0568  0.6705  0.3996
 6917SOL     OW32209   2.730   3.659   6.362  0.2219  0.1235  0.0187
 6917SOL    HW132210   2.790   3.732   6.350 -0.7629  0.5821 -2.1887
 6917SOL    HW232211   2.652   3.696   6.403  0.0344  2.0979 -2.0699
 6918SOL     OW32212   4.493   3.857   8.289  0.4704 -0.0752  0.3929
 6918SOL    HW132213   4.409   3.893   8.317 -0.8296 -2.0898 -0.9797
 6918SOL    HW232214   4.504   3.891   8.200 -1.2328 -1.8048 -0.4618
 6919SOL     OW32215   1.552   1.380   4.353 -0.0410  0.2085  0.3355
 6919SOL    HW132216   1.508   1.295   4.348  1.9595 -0.8185  0.4663
 6919SOL    HW232217   1.498   1.414   4.425 -1.4661  1.2385 -1.2191
 6920SOL     OW32218   3.430   2.137   2.608 -0.1557  0.7013  0.0385
 6920SOL    HW132219   3.431   2.208   2.544  0.5151  1.0371  0.4226
 6920SOL    HW232220   3.521   2.109   2.619  0.0375  0.2053 -2.9787
 6921SOL     OW32221   1.863   2.275   3.797  0.4645  0.0137 -0.3027
 6921SOL    HW132222   1.896   2.219   3.867 -1.5633 -1.2133 -0.3493
 6921SOL    HW232223   1.813   2.342   3.843 -0.4225  0.3397 -1.7512
 6922SOL     OW32224   1.530   1.241   2.124 -0.2287 -0.5124 -0.3913
 6922SOL    HW132225   1.455   1.252   2.066 -0.5881  0.1126  0.1823
 6922SOL    HW232226   1.539   1.146   2.127 -2.6414 -0.7516 -0.8152
 6923SOL     OW32227   0.065   2.293   7.240  0.4837 -0.7168  0.2557
 6923SOL    HW132228   0.090   2.295   7.332  1.4006 -0.6077  0.0056
 6923SOL    HW232229   0.138   2.337   7.196  0.3792 -1.9075 -1.1520
 6924SOL     OW32230   2.462   2.700  11.317 -0.0693 -0.0644  0.3758
 6924SOL    HW132231   2.532   2.751  11.278  0.4373  0.6499  2.2344
 6924SOL    HW232232   2.403   2.772  11.340 -1.2760 -0.0626 -2.7696
 6925SOL     OW32233   0.424   3.384   2.739  0.2091  0.6825  0.4410
 6925SOL    HW132234   0.340   3.430   2.733  0.3881  0.4448 -3.7048
 6925SOL    HW232235   0.397   3.296   2.714 -3.0774  1.5491  0.9094
 6926SOL     OW32236   0.491   4.660   8.505  0.2260 -0.8292  0.5066
 6926SOL    HW132237   0.538   4.638   8.425  2.4703  1.2838  1.2468
 6926SOL    HW232238   0.538   4.605   8.568 -1.3016 -1.0612  1.4418
 6927SOL     OW32239   1.443   0.729   0.015  0.8052 -0.0877 -0.3107
 6927SOL    HW132240   1.447   0.633   0.016 -1.5073 -0.1711  0.5838
 6927SOL    HW232241   1.494   0.744  17.632  2.7627 -3.1723  0.3415
 6928SOL     OW32242   4.007   2.159   8.033 -0.4667  0.1483 -0.2206
 6928SOL    HW132243   4.103   2.165   8.033 -0.4538 -0.0073  0.5592
 6928SOL    HW232244   3.999   2.099   8.107 -1.7256 -1.6563 -1.8435
 6929SOL     OW32245   2.580   4.293   3.732  0.0191  0.2622 -0.5612
 6929SOL    HW132246   2.558   4.316   3.823  0.9303 -1.6942  0.1637
 6929SOL    HW232247   2.570   4.198   3.727  3.3612 -0.1644  0.5287
 6930SOL     OW32248   2.778   4.329  11.651 -0.3038 -0.2893 -0.4632
 6930SOL    HW132249   2.849   4.307  11.590  1.3997  0.5335  1.2202
 6930SOL    HW232250   2.812   4.415  11.674  1.1382 -0.9294 -0.1537
 6931SOL     OW32251   4.116   0.349   7.630  0.1805 -0.2671 -0.6269
 6931SOL    HW132252   4.176   0.382   7.564  0.9637 -0.1642  0.1343
 6931SOL    HW232253   4.114   0.435   7.672 -1.6252 -0.3192 -0.5811
 6932SOL     OW32254   2.735   0.509  10.197  0.3679 -0.0586  0.1326
 6932SOL    HW132255   2.679   0.525  10.121  0.9624 -0.3852 -0.3744
 6932SOL    HW232256   2.706   0.425  10.234  0.7766  0.0301  0.6501
 6933SOL     OW32257   3.772   4.716  11.087  0.1249 -0.4125 -0.2288
 6933SOL    HW132258   3.697   0.023  11.037 -0.3771 -1.6664 -0.2399
 6933SOL    HW232259   3.756   4.623  11.073 -0.4542 -0.5231  1.1997
 6934SOL     OW32260   0.868   4.485   9.704 -0.0458 -0.1329 -0.1794
 6934SOL    HW132261   0.776   4.459   9.711 -0.7047  2.8792  1.9782
 6934SOL    HW232262   0.873   4.570   9.748  0.4999 -0.0843 -0.3341
 6935SOL     OW32263   1.422   2.214   8.588 -0.0954 -0.2381 -0.3212
 6935SOL    HW132264   1.327   2.204   8.593 -0.1515 -0.1062 -1.2207
 6935SOL    HW232265   1.427   2.236   8.495  1.3293  0.7298 -0.0338
 6936SOL     OW32266   2.728   0.741   4.581 -0.1155 -0.0682  0.2529
 6936SOL    HW132267   2.758   0.692   4.657  1.1705 -0.3340 -0.4250
 6936SOL    HW232268   2.655   0.793   4.617 -2.0396 -2.1980 -0.5574
 6937SOL     OW32269   3.419   1.840   2.155  0.0987 -0.0765  0.1135
 6937SOL    HW132270   3.404   1.825   2.062  0.0535  0.7362 -0.0096
 6937SOL    HW232271   3.495   1.898   2.148 -0.2114  0.4281  0.9643
 6938SOL     OW32272   0.208   4.677   5.733 -0.2822  0.3337  0.5451
 6938SOL    HW132273   0.173   4.601   5.779  1.4805  0.3132  1.8282
 6938SOL    HW232274   0.184   0.028   5.787  0.7715  0.7395  0.4580
 6939SOL     OW32275   3.939   1.863   1.890 -0.1359 -0.0529  0.1545
 6939SOL    HW132276   3.964   1.930   1.826 -3.0905  0.5719 -0.3112
 6939SOL    HW232277   4.005   1.800   1.862 -0.3591 -0.1874 -0.0537
 6940SOL     OW32278   4.399   3.369   6.749  0.6492  0.1436  0.0907
 6940SOL    HW132279   4.343   3.431   6.703  1.4625  0.0524 -1.0145
 6940SOL    HW232280   4.338   3.309   6.792  0.8370  1.4105  2.1358
 6941SOL     OW32281   4.193   4.624   1.449 -0.1485  0.0724  0.0710
 6941SOL    HW132282   4.205   4.685   1.376 -3.0837  0.0316 -0.4329
 6941SOL    HW232283   4.261   4.560   1.425  0.0228 -0.2935  1.4881
 6942SOL     OW32284   1.800   2.674  10.067 -0.4458  0.0328  0.0198
 6942SOL    HW132285   1.846   2.597  10.101  2.3678  1.9740  0.6510
 6942SOL    HW232286   1.709   2.649  10.084 -0.3660  0.2956  0.8758
 6943SOL     OW32287   3.927   2.765   6.425  0.1388 -0.0968  0.0870
 6943SOL    HW132288   4.017   2.793   6.407  0.8261 -0.6012  2.8238
 6943SOL    HW232289   3.907   2.723   6.341  1.7603  0.4300 -0.5639
 6944SOL     OW32290   1.953   2.390  14.010 -0.1286 -0.3702 -0.3692
 6944SOL    HW132291   1.897   2.454  13.966  2.2547  2.6911  1.0445
 6944SOL    HW232292   1.893   2.316  14.015  1.4419 -1.2576  5.1565
 6945SOL     OW32293   1.018   0.711  14.831 -0.2086 -0.3297  0.6585
 6945SOL    HW132294   1.030   0.759  14.913  0.9983 -1.8515  1.3784
 6945SOL    HW232295   0.985   0.631  14.871 -0.4877 -0.2964  0.4974
 6946SOL     OW32296   1.069   1.856  11.109 -0.4668 -0.5120  0.0688
 6946SOL    HW132297   1.102   1.910  11.181  0.0186 -2.6479  1.4748
 6946SOL    HW232298   1.145   1.799  11.093 -0.4811 -1.7481  4.3075
 6947SOL     OW32299   2.680   0.111   1.946 -0.6703  0.4722 -0.1666
 6947SOL    HW132300   2.619   0.100   1.873 -0.1364 -0.4323 -0.4813
 6947SOL    HW232301   2.730   0.175   1.894 -1.1946  0.0725 -1.1623
 6948SOL     OW32302   2.555   3.630  11.862 -0.7109 -0.1588 -0.0667
 6948SOL    HW132303   2.509   3.711  11.886 -0.0085 -0.1014  1.1281
 6948SOL    HW232304   2.570   3.640  11.768  0.9547 -2.8041 -0.0732
 6949SOL     OW32305   3.434   1.455   5.367  0.2502 -0.3782  0.3596
 6949SOL    HW132306   3.359   1.467   5.426  0.6995  2.0332  0.4158
 6949SOL    HW232307   3.451   1.544   5.338 -2.5719  0.0519  0.0122
 6950SOL     OW32308   2.694   3.995   1.126 -0.3788  0.6107  0.2364
 6950SOL    HW132309   2.679   4.090   1.123  1.3115  0.8897  0.2101
 6950SOL    HW232310   2.776   3.989   1.175 -0.1016  2.8538  0.0806
 6951SOL     OW32311   1.702   2.189  10.547  0.9375 -0.0339 -0.3656
 6951SOL    HW132312   1.774   2.237  10.588  0.2656  0.9058 -0.2873
 6951SOL    HW232313   1.636   2.258  10.538  0.7690 -0.1535 -0.0545
 6952SOL     OW32314   2.891   0.664   8.318 -0.4465 -0.0696  0.2009
 6952SOL    HW132315   2.818   0.624   8.364 -1.0934 -0.5481 -1.2328
 6952SOL    HW232316   2.974   0.625   8.347 -0.8605 -0.4755  0.8320
 6953SOL     OW32317   2.091   1.007   5.255  0.3460  0.3552 -0.5987
 6953SOL    HW132318   2.054   1.081   5.209 -0.8558 -1.1505 -2.0552
 6953SOL    HW232319   2.011   0.954   5.255 -0.1948  1.1533  3.5268
 6954SOL     OW32320   3.859   4.662   3.077  0.4501 -0.4491  0.4546
 6954SOL    HW132321   3.840   4.589   3.136 -1.3542 -0.1467  0.2257
 6954SOL    HW232322   3.925   4.711   3.126 -0.0771  0.4417  0.2660
 6955SOL     OW32323   3.508   0.388   4.192  0.1009  0.0036 -0.5007
 6955SOL    HW132324   3.531   0.422   4.106 -3.2170  1.0255 -1.0095
 6955SOL    HW232325   3.412   0.385   4.197  0.1421  0.3367  0.6354
 6956SOL     OW32326   3.109   1.142   2.283 -0.1737 -0.6372 -0.4615
 6956SOL    HW132327   3.040   1.161   2.346  2.1600  2.8604  1.0184
 6956SOL    HW232328   3.162   1.083   2.337  0.0346 -0.9075 -0.9605
 6957SOL     OW32329   4.480   2.127  10.273 -0.1648  0.1888 -0.4040
 6957SOL    HW132330   4.447   2.091  10.355 -1.4206 -0.1041 -1.0373
 6957SOL    HW232331   4.527   2.048  10.244  1.0752  0.5080  0.7133
 6958SOL     OW32332   4.518   0.735   6.588 -0.2707 -0.4749 -0.3717
 6958SOL    HW132333   4.484   0.734   6.677  0.5090 -0.9126 -0.0791
 6958SOL    HW232334   4.458   0.796   6.545  1.4720  1.2021 -0.4181
 6959SOL     OW32335   3.302   2.745   8.658  0.1082  0.0746 -0.7164
 6959SOL    HW132336   3.224   2.800   8.655 -1.7497 -2.5225 -0.4528
 6959SOL    HW232337   3.348   2.761   8.576  1.3843 -0.3668 -0.0875
 6960SOL     OW32338   1.665   4.595   4.191 -0.4056  0.0161 -0.0224
 6960SOL    HW132339   1.708   4.680   4.184  0.0401 -0.3365 -1.6752
 6960SOL    HW232340   1.650   4.565   4.101 -0.4037  0.1706 -0.0729
 6961SOL     OW32341   3.551   1.470   6.014  0.3181 -0.1786 -0.6714
 6961SOL    HW132342   3.628   1.414   6.029  0.3030  0.0581  0.2708
 6961SOL    HW232343   3.598   1.553   6.013  2.6932 -1.4680  1.0664
 6962SOL     OW32344   3.958   0.152   1.022 -0.5806 -0.2046 -0.1874
 6962SOL    HW132345   3.977   0.188   1.108  0.3021  0.4123 -0.6328
 6962SOL    HW232346   4.038   0.137   0.972 -0.0566  2.8090 -0.2645
 6963SOL     OW32347   4.596   1.734   4.546  0.1185  0.0201  0.0251
 6963SOL    HW132348   4.619   1.642   4.532 -2.2320 -0.7259  0.9812
 6963SOL    HW232349   4.519   1.738   4.489 -1.0496  2.5562  1.8082
 6964SOL     OW32350   0.918   2.601   3.478  0.1118 -0.2745 -0.1013
 6964SOL    HW132351   0.872   2.539   3.535  1.8852  0.7586  2.4991
 6964SOL    HW232352   0.892   2.684   3.519 -1.5017 -1.5263  1.3959
 6965SOL     OW32353   3.241   0.644   9.473 -0.3347  0.6042 -0.0105
 6965SOL    HW132354   3.188   0.700   9.530 -0.4143  1.6553 -1.1249
 6965SOL    HW232355   3.287   0.718   9.434  1.0826 -0.1181  0.2796
 6966SOL     OW32356   0.384   2.689   1.134  0.2887 -0.1090 -0.5571
 6966SOL    HW132357   0.314   2.675   1.198 -1.2584  2.6961 -1.6793
 6966SOL    HW232358   0.366   2.777   1.103 -0.2515 -0.2122 -0.5388
 6967SOL     OW32359   4.186   0.985  14.833  0.0671  0.0175 -0.8654
 6967SOL    HW132360   4.201   0.984  14.928 -0.7342 -0.5017 -0.7446
 6967SOL    HW232361   4.111   1.044  14.824  0.2750  0.1306 -1.8720
 6968SOL     OW32362   1.490   3.631   8.036  0.2429  0.1932  0.1786
 6968SOL    HW132363   1.549   3.660   8.106 -0.5030  3.4099 -0.5345
 6968SOL    HW232364   1.503   3.704   7.975  1.0393  0.4833  0.6887
 6969SOL     OW32365   0.040   1.155   7.000  0.5646 -0.6374 -0.0309
 6969SOL    HW132366   0.120   1.137   7.048  0.8710 -1.2275 -0.7550
 6969SOL    HW232367   0.021   1.071   6.958  0.9146 -0.5193 -0.4154
 6970SOL     OW32368   0.448   4.333  15.645 -0.1514 -0.1701  0.1068
 6970SOL    HW132369   0.357   4.319  15.672 -0.1521 -2.1242 -0.8925
 6970SOL    HW232370   0.470   4.244  15.620 -0.8207 -0.6281  1.1604
 6971SOL     OW32371   0.551   2.959   8.250  0.7050  0.3678  0.4994
 6971SOL    HW132372   0.558   2.896   8.178 -1.2819  0.0554  0.5962
 6971SOL    HW232373   0.581   2.905   8.324  1.1334  0.2700  0.2529
 6972SOL     OW32374   1.866   0.408   7.084 -0.1415 -0.4941 -0.4333
 6972SOL    HW132375   1.825   0.323   7.066 -0.5861 -0.1404 -1.0915
 6972SOL    HW232376   1.891   0.394   7.176 -0.7226  2.3873  0.1655
 6973SOL     OW32377   2.887   3.918   2.367  0.2566 -0.2167  0.2193
 6973SOL    HW132378   2.939   3.938   2.289  0.2805 -0.4741  0.1695
 6973SOL    HW232379   2.880   3.825   2.349 -0.5256 -0.3012  0.9393
 6974SOL     OW32380   0.128   0.556  16.603  0.6276  0.1861  0.6227
 6974SOL    HW132381   0.170   0.630  16.558 -1.6531  0.3510 -1.2216
 6974SOL    HW232382   0.097   0.609  16.676 -0.0352  2.3956 -1.2223
 6975SOL     OW32383   3.321   2.397   3.240 -0.0379  0.1371 -0.0311
 6975SOL    HW132384   3.336   2.312   3.199 -0.0582  0.2624 -0.2969
 6975SOL    HW232385   3.227   2.409   3.251 -0.3581 -1.1258 -1.4348
 6976SOL     OW32386   1.571   4.656  16.197 -1.2591 -1.0869 -0.1937
 6976SOL    HW132387   1.509   4.721  16.230  0.6717  0.0121  1.2541
 6976SOL    HW232388   1.583   4.679  16.104 -1.3289  1.3497  0.3844
 6977SOL     OW32389   3.343   2.133   7.502 -0.5131  0.1500 -0.3770
 6977SOL    HW132390   3.427   2.149   7.458  1.8358  0.4817  4.1745
 6977SOL    HW232391   3.366   2.153   7.593 -1.1423 -0.3531 -0.1097
 6978SOL     OW32392   0.517   2.055  12.212 -0.6163 -1.0775  0.0684
 6978SOL    HW132393   0.455   2.039  12.283 -2.3155  1.0854 -0.9389
 6978SOL    HW232394   0.460   2.090  12.144  1.4848  1.8288 -0.2231
 6979SOL     OW32395   4.061   1.191  13.886 -0.3446 -0.1466  0.8679
 6979SOL    HW132396   4.068   1.096  13.876  0.1482  0.0889 -1.1698
 6979SOL    HW232397   4.046   1.206  13.792  1.0423 -1.0460  0.5053
 6980SOL     OW32398   3.715   4.711   6.094  0.3741 -0.1701 -0.2988
 6980SOL    HW132399   3.807   0.011   6.087  0.6304 -0.3374  2.5643
 6980SOL    HW232400   3.715   4.654   6.171  0.0095  2.0164  1.3180
 6981SOL     OW32401   2.661   2.998  16.873 -0.0894  0.2071  0.1228
 6981SOL    HW132402   2.606   3.057  16.820  0.5052  0.3667 -0.3268
 6981SOL    HW232403   2.597   2.928  16.882  0.8156 -0.4202  1.6928
 6982SOL     OW32404   0.060   3.468  12.517 -0.2993 -0.4695  0.7759
 6982SOL    HW132405   0.030   3.515  12.438 -0.7361  1.0655  1.8562
 6982SOL    HW232406   0.018   3.517  12.588 -0.4959  0.3845  0.0767
 6983SOL     OW32407   2.980   2.994   6.057  0.0870 -0.2665 -0.6629
 6983SOL    HW132408   3.076   2.998   6.054 -0.0232  2.6030 -0.7649
 6983SOL    HW232409   2.961   3.086   6.037  0.9541 -0.3845 -1.9863
 6984SOL     OW32410   1.814   4.666  17.235  0.1138 -0.2603  0.4124
 6984SOL    HW132411   1.880   4.629  17.293 -1.0856 -2.2712  0.5057
 6984SOL    HW232412   1.768   0.007  17.287 -0.5552  1.0188 -1.7424
 6985SOL     OW32413   1.260   3.574   6.943  0.1765  0.2875 -0.5198
 6985SOL    HW132414   1.260   3.603   7.034  0.1249  0.5716 -0.6112
 6985SOL    HW232415   1.177   3.609   6.911 -1.2247 -1.4411  1.1943
 6986SOL     OW32416   2.184   1.594   3.793 -0.5478 -0.9753 -0.1176
 6986SOL    HW132417   2.237   1.617   3.717 -0.8395  2.1158  0.6406
 6986SOL    HW232418   2.093   1.612   3.771 -0.0753  0.7987 -0.6215
 6987SOL     OW32419   3.997   3.874  11.141 -0.1543 -0.7125  0.4114
 6987SOL    HW132420   4.055   3.942  11.104 -1.0619 -0.5098 -0.6662
 6987SOL    HW232421   4.028   3.876  11.231 -2.1578  2.7379  1.0438
 6988SOL     OW32422   1.559   2.430   6.379  0.1390  0.2517  0.0355
 6988SOL    HW132423   1.622   2.361   6.396  1.0857  1.5237  1.6816
 6988SOL    HW232424   1.481   2.382   6.349  0.2457 -0.0865  0.3033
 6989SOL     OW32425   3.445   4.397   2.937 -0.0516  0.8441 -0.4271
 6989SOL    HW132426   3.383   4.427   2.870 -1.8834 -1.8079  0.0508
 6989SOL    HW232427   3.497   4.474   2.957 -1.2845  1.5980 -0.1132
 6990SOL     OW32428   1.198   1.046   4.084  1.1386 -0.5213  0.3467
 6990SOL    HW132429   1.255   1.113   4.046 -0.0466  0.7460  0.7914
 6990SOL    HW232430   1.115   1.093   4.088  0.7743 -1.0038 -1.7110
 6991SOL     OW32431   3.605   1.989   6.157 -0.1185 -0.4933  0.1351
 6991SOL    HW132432   3.563   2.050   6.219 -2.9818 -1.1577 -1.1560
 6991SOL    HW232433   3.573   2.013   6.070  0.3764 -0.4516 -0.0332
 6992SOL     OW32434   2.236   2.654   5.435  0.1047 -0.4383 -0.2617
 6992SOL    HW132435   2.187   2.586   5.389 -0.9628 -0.7411  1.3390
 6992SOL    HW232436   2.284   2.704   5.369  0.2804  1.5195  1.3518
 6993SOL     OW32437   3.846   3.630  11.167 -0.3748 -0.3123  0.4133
 6993SOL    HW132438   3.793   3.677  11.231 -0.9455  0.0197 -0.3019
 6993SOL    HW232439   3.909   3.701  11.158 -0.1912 -0.5606 -0.2763
 6994SOL     OW32440   4.386   3.160   5.735 -0.4382  0.1923  0.2219
 6994SOL    HW132441   4.404   3.081   5.785  0.2391 -1.3270 -2.4255
 6994SOL    HW232442   4.310   3.193   5.784 -0.1611  0.0695  0.7383
 6995SOL     OW32443   3.512   4.008  13.229 -0.1467 -0.4573  0.2778
 6995SOL    HW132444   3.417   4.009  13.242  0.0546  1.0331  1.5953
 6995SOL    HW232445   3.523   3.916  13.205 -0.0863 -0.6872  1.2158
 6996SOL     OW32446   3.842   3.430  16.440  0.0189 -0.2598 -0.0678
 6996SOL    HW132447   3.798   3.390  16.516  1.9323 -3.1130 -0.4313
 6996SOL    HW232448   3.789   3.509  16.433 -0.9637 -0.8266  0.9956
 6997SOL     OW32449   2.581   3.078   7.126 -0.5290 -0.0662  0.1386
 6997SOL    HW132450   2.525   3.068   7.204 -2.2431  1.1037 -0.9495
 6997SOL    HW232451   2.547   3.003   7.077  1.6199 -0.6599 -0.4524
 6998SOL     OW32452   1.512   4.718   7.808  0.2568  0.2760 -0.1243
 6998SOL    HW132453   1.424   0.031   7.812  1.0322  2.5154 -3.7363
 6998SOL    HW232454   1.560   0.075   7.792 -1.5438  1.5241  0.9277
 6999SOL     OW32455   3.221   1.554   4.682  0.7428  0.0987  0.0600
 6999SOL    HW132456   3.304   1.568   4.728 -0.6594  2.1258  1.9634
 6999SOL    HW232457   3.165   1.533   4.757 -0.1975  0.5150 -0.5401
 7000SOL     OW32458   3.491   4.071   9.872  0.0389  0.1431 -0.7947
 7000SOL    HW132459   3.430   4.023   9.815  0.3352 -2.5312  1.0968
 7000SOL    HW232460   3.443   4.151   9.893  3.5814  2.1608 -0.4538
 7001SOL     OW32461   0.445   3.608   1.304  0.1029  0.4235  0.3548
 7001SOL    HW132462   0.370   3.652   1.342 -0.8517  0.6736 -1.8510
 7001SOL    HW232463   0.413   3.618   1.214  1.2184 -0.4877 -0.1558
 7002SOL     OW32464   2.528   2.444   5.011  0.3471  0.1516  0.4413
 7002SOL    HW132465   2.500   2.535   5.019 -0.6326 -0.2333  1.4658
 7002SOL    HW232466   2.620   2.455   4.988 -0.3141  1.1672 -1.7199
 7003SOL     OW32467   0.768   0.497   6.321 -0.2620 -0.3762 -0.0701
 7003SOL    HW132468   0.793   0.405   6.330  2.9392  0.5912  0.7628
 7003SOL    HW232469   0.742   0.501   6.229  1.5022 -0.3280 -0.5662
 7004SOL     OW32470   2.566   3.561   0.975  0.1025 -0.9339 -0.2121
 7004SOL    HW132471   2.503   3.630   0.995 -0.6362 -1.3317 -1.1587
 7004SOL    HW232472   2.559   3.497   1.045 -0.2082 -0.6221  0.0378
 7005SOL     OW32473   4.133   1.140   2.574 -0.0529 -0.0262  0.0671
 7005SOL    HW132474   4.192   1.105   2.640  0.0834  0.4968  0.2207
 7005SOL    HW232475   4.167   1.098   2.495  0.0005 -0.0191  0.0859
 7006SOL     OW32476   2.344   3.452  16.471  0.5177 -0.0962 -0.3451
 7006SOL    HW132477   2.430   3.484  16.445  0.0195  1.1231 -0.5407
 7006SOL    HW232478   2.298   3.505  16.406 -0.2933  0.3285  0.5709
 7007SOL     OW32479   4.465   0.925   3.542  0.3144 -0.1859  0.1012
 7007SOL    HW132480   4.414   1.004   3.557 -0.2965 -0.7663  1.1458
 7007SOL    HW232481   4.540   0.961   3.494  0.5869  0.6530  1.1383
 7008SOL     OW32482   3.708   3.587  11.814  0.1127  0.6041  0.0556
 7008SOL    HW132483   3.755   3.574  11.731 -1.1580  1.4017 -0.7916
 7008SOL    HW232484   3.623   3.610  11.778 -0.5424  0.9110  1.8075
 7009SOL     OW32485   2.450   1.002   9.425  0.3034  0.5595  0.0780
 7009SOL    HW132486   2.367   1.013   9.470 -1.2007 -0.5631 -2.4086
 7009SOL    HW232487   2.441   1.062   9.351 -2.9896  2.0551  1.6847
 7010SOL     OW32488   3.026   3.880   1.641 -0.0869 -0.0528  0.3180
 7010SOL    HW132489   3.078   3.857   1.564 -0.4445  1.5250 -0.4141
 7010SOL    HW232490   2.961   3.941   1.605  1.6523  1.2200 -0.6545
 7011SOL     OW32491   4.119   1.765   2.949  0.1630 -0.4708  0.0840
 7011SOL    HW132492   4.169   1.736   3.026  2.3443 -1.6028 -1.7467
 7011SOL    HW232493   4.187   1.738   2.887 -0.3972  0.7288 -1.0376
 7012SOL     OW32494   4.141   2.047  14.483  0.1803  0.3816  0.2995
 7012SOL    HW132495   4.174   1.961  14.458  0.4917  0.2896  1.0212
 7012SOL    HW232496   4.218   2.103  14.493  0.1439  0.8097 -1.9967
 7013SOL     OW32497   2.937   3.736   4.878  0.4161 -0.0690 -0.2409
 7013SOL    HW132498   2.950   3.779   4.794  0.6786 -0.7582 -0.5515
 7013SOL    HW232499   3.014   3.678   4.878  0.1227 -0.4581 -1.2062
 7014SOL     OW32500   0.530   3.883   5.640 -0.2636  0.4902 -0.1973
 7014SOL    HW132501   0.434   3.879   5.643 -0.1897 -0.4257  0.6403
 7014SOL    HW232502   0.555   3.795   5.611 -1.2292  1.2155 -3.2415
 7015SOL     OW32503   1.013   1.687   5.173 -0.5046 -0.1722 -0.3521
 7015SOL    HW132504   1.022   1.680   5.078 -0.7364 -1.5515 -0.2707
 7015SOL    HW232505   0.918   1.684   5.188 -0.5000 -0.4419 -0.3808
 7016SOL     OW32506   2.207   2.672  13.333  0.0456 -0.9053 -0.4567
 7016SOL    HW132507   2.114   2.666  13.355 -0.4056 -1.3046 -2.4786
 7016SOL    HW232508   2.208   2.617  13.255  0.4277 -0.9966 -0.3837
 7017SOL     OW32509   1.672   4.496   7.227  0.3423 -0.0007  0.0851
 7017SOL    HW132510   1.589   4.531   7.195  0.1114  1.6808  2.5186
 7017SOL    HW232511   1.713   4.575   7.264 -0.2868  0.2269  0.2921
 7018SOL     OW32512   4.192   0.048   1.217  0.1136  0.0730  0.2085
 7018SOL    HW132513   4.174   4.684   1.181 -0.1724 -0.9752  2.9328
 7018SOL    HW232514   4.260   0.073   1.154 -2.0143 -0.7423 -2.4128
 7019SOL     OW32515   4.596   1.988   5.823 -0.0823  0.4285 -0.0226
 7019SOL    HW132516   4.690   1.992   5.842  0.0471 -0.4297 -0.4558
 7019SOL    HW232517   4.571   1.984   5.915 -0.1767  0.2057 -0.0576
 7020SOL     OW32518   1.556   3.853   7.821  0.3230  0.0522  0.3142
 7020SOL    HW132519   1.529   3.914   7.753  0.3710 -1.9098 -1.4430
 7020SOL    HW232520   1.571   3.906   7.899  1.3491 -0.1400  0.2527
 7021SOL     OW32521   3.056   0.938   6.470  0.1901  0.2514 -0.6398
 7021SOL    HW132522   3.020   0.930   6.558  1.6587 -1.3064 -0.1878
 7021SOL    HW232523   3.006   0.876   6.418 -0.6508  1.7819 -1.6625
 7022SOL     OW32524   3.288   0.950  13.449  0.6520  0.3070 -0.3561
 7022SOL    HW132525   3.293   1.043  13.427  0.5834  1.2391  3.5964
 7022SOL    HW232526   3.367   0.915  13.407  1.1452  0.8135  0.1481
 7023SOL     OW32527   0.335   0.750   5.153 -0.1086 -0.3394 -0.0523
 7023SOL    HW132528   0.429   0.731   5.156 -0.0192 -0.0291 -1.0836
 7023SOL    HW232529   0.337   0.803   5.233 -0.2634  2.1380 -1.6954
 7024SOL     OW32530   0.875   1.198   2.529 -0.3609  0.2407  0.4245
 7024SOL    HW132531   0.781   1.183   2.515 -0.2575 -0.2098  0.2133
 7024SOL    HW232532   0.895   1.106   2.544  0.1386  0.4430  1.0269
 7025SOL     OW32533   2.264   1.924   2.152  0.0258 -0.0588 -0.1621
 7025SOL    HW132534   2.247   1.992   2.217 -0.1990 -0.0406 -0.2413
 7025SOL    HW232535   2.225   1.843   2.186  0.4873 -1.2885 -2.5900
 7026SOL     OW32536   0.620   2.875   9.839  0.2944 -0.3431  0.0137
 7026SOL    HW132537   0.576   2.794   9.815 -1.3683  0.5856 -0.0763
 7026SOL    HW232538   0.548   2.926   9.876  0.8650  0.5816 -0.1278
 7027SOL     OW32539   2.867   4.413   4.517 -0.5155  0.3468 -0.1837
 7027SOL    HW132540   2.872   4.493   4.570  2.9716 -1.1877  1.8364
 7027SOL    HW232541   2.928   4.442   4.449 -0.2757  1.0599  0.3311
 7028SOL     OW32542   0.490   3.504   3.407 -0.2634 -0.4748 -0.0651
 7028SOL    HW132543   0.525   3.593   3.402 -0.0565 -0.5391  0.2720
 7028SOL    HW232544   0.411   3.521   3.355  0.3172 -0.6306 -1.0051
 7029SOL     OW32545   3.292   4.189   3.004 -0.5505  0.4529  0.1366
 7029SOL    HW132546   3.285   4.120   2.938 -1.8809 -1.5269  2.3333
 7029SOL    HW232547   3.337   4.264   2.966  1.7710 -1.4223 -0.7868
 7030SOL     OW32548   4.651   2.575  16.982  0.4095 -0.1091 -0.3001
 7030SOL    HW132549   4.608   2.492  16.963 -1.4224  0.7704 -0.0367
 7030SOL    HW232550   4.630   2.629  16.905 -0.3280 -0.3837 -0.2936
 7031SOL     OW32551   3.246   4.084   2.448 -0.1989  0.0043 -0.3484
 7031SOL    HW132552   3.303   4.014   2.477  1.5039  0.9297 -1.4570
 7031SOL    HW232553   3.294   4.143   2.390  0.5046 -0.9407 -0.7283
 7032SOL     OW32554   4.520   3.550   9.386 -0.9180 -0.3709 -0.0343
 7032SOL    HW132555   4.462   3.626   9.377  0.6259  0.7821 -0.3225
 7032SOL    HW232556   4.448   3.487   9.381 -2.7828  1.6836  1.2602
 7033SOL     OW32557   2.423   2.690   4.925  0.1402  0.3197 -0.0038
 7033SOL    HW132558   2.429   2.712   4.832 -0.6299  0.7507  0.0526
 7033SOL    HW232559   2.418   2.777   4.963  0.3115 -0.9096  2.8326
 7034SOL     OW32560   0.173   3.542  17.045  0.0192  0.0982 -0.1431
 7034SOL    HW132561   0.113   3.517  17.115 -0.1121  0.9293  0.0307
 7034SOL    HW232562   0.176   3.637  17.054  0.4711  0.1517 -0.7764
 7035SOL     OW32563   0.345   1.702   3.879 -0.4666  0.3655 -0.2066
 7035SOL    HW132564   0.331   1.638   3.809 -3.1388 -0.5143  1.1152
 7035SOL    HW232565   0.405   1.762   3.836  3.4443 -1.1997  3.0949
 7036SOL     OW32566   1.667   2.802   4.485  0.0603  0.5562  0.0068
 7036SOL    HW132567   1.706   2.844   4.408 -2.2340 -4.0172 -3.6415
 7036SOL    HW232568   1.725   2.726   4.499  0.0460  0.5675  0.1295
 7037SOL     OW32569   2.876   0.634  15.715 -0.4607 -0.1092 -0.5166
 7037SOL    HW132570   2.961   0.655  15.676  0.0245 -0.0502  0.5849
 7037SOL    HW232571   2.910   0.590  15.793  0.8162 -0.9897 -1.5542
 7038SOL     OW32572   0.618   4.609   6.715 -0.3633  0.8568 -0.2418
 7038SOL    HW132573   0.570   4.587   6.635  2.4124  0.7748 -1.8857
 7038SOL    HW232574   0.605   4.704   6.726 -0.5098  0.7772  0.2844
 7039SOL     OW32575   0.775   0.839   6.615 -0.5742 -0.5767  0.5539
 7039SOL    HW132576   0.725   0.917   6.591  2.5606  0.3299 -3.0513
 7039SOL    HW232577   0.852   0.874   6.661 -0.5331 -0.3021  0.2727
 7040SOL     OW32578   3.524   4.080   0.012 -0.2725  0.1279  0.6349
 7040SOL    HW132579   3.485   4.065   0.098  0.1981 -0.8280  0.6837
 7040SOL    HW232580   3.504   3.998  17.664  2.0857 -0.3438  0.4551
 7041SOL     OW32581   0.753   1.023  15.684  0.5640  0.8701  0.0647
 7041SOL    HW132582   0.725   1.113  15.698  2.1470  2.0475 -4.0419
 7041SOL    HW232583   0.668   0.981  15.672  0.6190  1.3409 -2.0322
 7042SOL     OW32584   3.138   0.616   3.600  0.2618 -0.2706  0.1860
 7042SOL    HW132585   3.140   0.610   3.504 -1.7978 -0.8321  0.1624
 7042SOL    HW232586   3.065   0.677   3.605 -1.9457 -2.7969 -0.8478
 7043SOL     OW32587   2.747   1.299   5.149 -0.2215 -0.0904  0.0423
 7043SOL    HW132588   2.660   1.288   5.186 -0.3530  1.7133  0.3025
 7043SOL    HW232589   2.798   1.280   5.228  0.4207 -0.9842 -0.5828
 7044SOL     OW32590   2.524   4.495   3.259  0.4936  0.2817  0.7405
 7044SOL    HW132591   2.492   4.459   3.342  0.2961  0.0839  0.5784
 7044SOL    HW232592   2.532   4.409   3.217 -1.5846  0.5008 -0.1290
 7045SOL     OW32593   4.251   0.867   7.081  0.2753 -0.1802 -0.0871
 7045SOL    HW132594   4.256   0.935   7.148  2.2640 -2.3437  1.9516
 7045SOL    HW232595   4.180   0.898   7.025  0.8648  3.2383  1.0541
 7046SOL     OW32596   1.450   3.426   3.076  0.1397 -0.6996  0.1158
 7046SOL    HW132597   1.545   3.428   3.091  0.4613 -1.0791 -1.9196
 7046SOL    HW232598   1.414   3.496   3.131  1.3615 -0.9884  1.3031
 7047SOL     OW32599   1.116   0.525   2.110 -0.1484 -0.0432  0.0727
 7047SOL    HW132600   1.086   0.472   2.183  0.4652  1.6992  1.5797
 7047SOL    HW232601   1.128   0.462   2.039 -0.9422 -0.4093  0.2678
 7048SOL     OW32602   3.386   4.464   8.851 -0.3521 -0.0983 -0.0244
 7048SOL    HW132603   3.389   4.370   8.835  1.6603 -0.0367 -0.0205
 7048SOL    HW232604   3.479   4.483   8.840 -0.4454 -0.3360 -1.2829
 7049SOL     OW32605   2.321   0.425   7.820 -0.1661 -0.5257 -0.5657
 7049SOL    HW132606   2.393   0.487   7.828  0.7280 -1.6722  0.2644
 7049SOL    HW232607   2.243   0.476   7.842  0.2670 -1.1449  2.3069
 7050SOL     OW32608   3.650   4.305   6.694  0.3815  0.0504 -0.0718
 7050SOL    HW132609   3.605   4.376   6.647  3.3472 -1.5335 -5.3471
 7050SOL    HW232610   3.582   4.269   6.751  0.4595 -2.3615 -1.5082
 7051SOL     OW32611   4.288   2.729   2.507  0.4197 -0.1431 -0.5384
 7051SOL    HW132612   4.298   2.734   2.412 -0.0831 -1.8655 -0.6669
 7051SOL    HW232613   4.278   2.818   2.542 -1.4055 -0.8753  0.7680
 7052SOL     OW32614   1.123   3.199  11.663 -0.2476  0.6606 -0.0524
 7052SOL    HW132615   1.201   3.237  11.704 -0.6108  1.2939  0.0386
 7052SOL    HW232616   1.159   3.209  11.575 -0.5505 -1.4769 -0.4139
 7053SOL     OW32617   3.238   2.298  12.136  0.1304 -0.1090 -0.2727
 7053SOL    HW132618   3.294   2.335  12.204  0.9307  0.1821 -1.0882
 7053SOL    HW232619   3.300   2.287  12.063 -1.0108 -0.1560 -1.2316
 7054SOL     OW32620   3.797   0.276   5.099  0.7010  0.6666 -0.1398
 7054SOL    HW132621   3.818   0.217   5.172 -1.5055 -0.4912 -0.4597
 7054SOL    HW232622   3.714   0.311   5.130 -0.6434 -3.0179  0.3683
 7055SOL     OW32623   2.212   1.332   4.175  0.0796 -0.3281  0.5756
 7055SOL    HW132624   2.250   1.277   4.106 -1.4497  0.9223 -1.2776
 7055SOL    HW232625   2.138   1.379   4.135 -0.0644 -0.7887  0.2926
 7056SOL     OW32626   0.868   3.315   3.082  0.4677  0.5272  0.0708
 7056SOL    HW132627   0.830   3.317   2.994  0.9604 -2.0709 -0.2153
 7056SOL    HW232628   0.797   3.296   3.143  0.4235  0.3587 -0.0325
 7057SOL     OW32629   0.105   1.499   6.554 -0.8306  0.2906  0.2704
 7057SOL    HW132630   0.114   1.580   6.504  0.5728 -1.2123 -1.8995
 7057SOL    HW232631   0.137   1.539   6.635  0.4239 -0.9279  0.3785
 7058SOL     OW32632   2.352   3.185   1.971 -0.3571 -0.4301  0.5911
 7058SOL    HW132633   2.404   3.130   1.913 -1.3502 -0.2572 -0.4446
 7058SOL    HW232634   2.380   3.274   1.950 -1.0397 -0.7215 -1.4747
 7059SOL     OW32635   2.020   2.629   8.417  0.2313  0.3152 -0.1425
 7059SOL    HW132636   2.079   2.562   8.381 -0.3329  0.2008 -0.8686
 7059SOL    HW232637   2.003   2.591   8.503 -0.7561  2.6377  0.6875
 7060SOL     OW32638   3.175   4.386   0.779  0.0606  0.4351  0.3710
 7060SOL    HW132639   3.171   4.371   0.685 -2.0955 -1.0250  0.7016
 7060SOL    HW232640   3.220   4.471   0.781  0.9728 -0.0450 -0.0379
 7061SOL     OW32641   2.859   1.393   2.848  0.4724  0.3069  0.2238
 7061SOL    HW132642   2.933   1.425   2.899  0.0980  1.1796  0.2076
 7061SOL    HW232643   2.874   1.432   2.762  0.1120  0.1802  0.1022
 7062SOL     OW32644   4.399   4.324   8.172 -0.6251 -0.1496  0.1129
 7062SOL    HW132645   4.431   4.260   8.235  1.0142  1.1154  0.5883
 7062SOL    HW232646   4.331   4.361   8.228 -0.6146 -2.4467  1.6231
 7063SOL     OW32647   3.485   2.532  13.301 -0.1722 -0.2949  0.2487
 7063SOL    HW132648   3.482   2.437  13.293  2.7636 -0.3027 -0.7110
 7063SOL    HW232649   3.535   2.551  13.222 -0.6143 -0.1203  0.0115
 7064SOL     OW32650   4.373   0.530  17.600 -0.5223 -0.0151  0.0544
 7064SOL    HW132651   4.356   0.555  17.691  2.1513  0.5705  0.4010
 7064SOL    HW232652   4.293   0.567  17.561  0.4071  0.8301 -1.0764
 7065SOL     OW32653   3.733   0.604   0.427 -0.9748 -0.4616 -0.1510
 7065SOL    HW132654   3.677   0.615   0.350  1.3256 -0.3191 -1.8258
 7065SOL    HW232655   3.679   0.536   0.466 -1.2975 -0.3250 -0.3566
 7066SOL     OW32656   1.935   3.359   4.256 -0.1516  0.2897 -0.0110
 7066SOL    HW132657   2.013   3.306   4.241 -1.4720 -2.2373  1.8403
 7066SOL    HW232658   1.864   3.314   4.211 -0.7230  1.0491  0.1314
 7067SOL     OW32659   1.153   1.177  11.219 -0.4405 -0.4689 -0.3533
 7067SOL    HW132660   1.225   1.190  11.158 -0.2975 -0.7375 -0.2405
 7067SOL    HW232661   1.132   1.269  11.235 -0.6573 -0.4743 -0.6034
 7068SOL     OW32662   1.332   2.110   6.116 -0.6131  0.5011  0.1683
 7068SOL    HW132663   1.356   2.046   6.183 -0.5842  1.0102  0.6487
 7068SOL    HW232664   1.412   2.129   6.068  0.8518 -2.9033  1.2380
 7069SOL     OW32665   4.692   0.472  14.524  0.3853 -0.0614  0.2782
 7069SOL    HW132666   4.714   0.413  14.451  1.7992  1.1990 -0.3033
 7069SOL    HW232667   0.058   0.490  14.551  0.1879  0.3011  0.7017
 7070SOL     OW32668   1.794   2.722  17.052 -0.1535  0.0121 -0.7831
 7070SOL    HW132669   1.722   2.694  16.996 -0.3117 -5.4633  2.1967
 7070SOL    HW232670   1.845   2.777  16.992 -1.8207  2.4144  0.0179
 7071SOL     OW32671   0.550   1.008  14.306 -0.7839  0.6385 -0.4266
 7071SOL    HW132672   0.505   0.932  14.269 -0.0860 -0.3052  0.6541
 7071SOL    HW232673   0.596   1.047  14.232  0.4220 -2.7102 -1.4717
 7072SOL     OW32674   3.326   1.803   3.422  0.1876  0.2058  0.6098
 7072SOL    HW132675   3.397   1.845   3.471 -0.7209  0.9002  1.3575
 7072SOL    HW232676   3.345   1.845   3.338  2.1136  0.2815  1.0840
 7073SOL     OW32677   0.203   0.334  14.094  0.7319 -0.5938 -0.0922
 7073SOL    HW132678   0.162   0.397  14.035 -1.5657 -0.7690  1.3319
 7073SOL    HW232679   0.182   0.250  14.053 -1.7143  0.2189 -0.4736
 7074SOL     OW32680   1.586   4.079   8.481 -0.1625  0.1644 -0.4467
 7074SOL    HW132681   1.569   3.994   8.439 -0.0740 -0.8031  1.4618
 7074SOL    HW232682   1.581   4.049   8.572  1.7577  0.5527 -0.2138
 7075SOL     OW32683   1.940   4.402  16.073  0.6702 -0.0228 -0.4673
 7075SOL    HW132684   1.934   4.317  16.117  1.3947  0.3166  0.2938
 7075SOL    HW232685   1.868   4.383  16.013  0.5678  0.3930 -0.4749
 7076SOL     OW32686   3.931   0.976  17.482  0.0731  0.1699  0.2290
 7076SOL    HW132687   3.948   0.885  17.507 -0.1215 -0.4837 -2.0198
 7076SOL    HW232688   3.952   1.028  17.560  2.2872  0.9181 -0.8399
 7077SOL     OW32689   0.474   4.321  10.982  0.3799  0.0949 -0.0833
 7077SOL    HW132690   0.394   4.365  11.010  1.2673  1.4584  0.3166
 7077SOL    HW232691   0.518   4.302  11.065 -1.7513  0.4278  1.1150
 7078SOL     OW32692   2.316   1.891  14.483  0.1432  0.2268  0.1002
 7078SOL    HW132693   2.400   1.893  14.437 -0.0109 -1.2337 -0.2289
 7078SOL    HW232694   2.269   1.834  14.422  1.4878  1.5242 -2.1539
 7079SOL     OW32695   3.010   3.994   8.780 -0.5565  0.2445  0.3058
 7079SOL    HW132696   2.987   3.995   8.873  1.7639 -0.5192  0.8942
 7079SOL    HW232697   2.978   3.911   8.746 -0.1614  0.0763  0.3413
 7080SOL     OW32698   1.244   4.340  12.152  0.0650 -1.0386  0.2342
 7080SOL    HW132699   1.246   4.435  12.136  0.3750 -0.9617  0.7220
 7080SOL    HW232700   1.237   4.331  12.247 -1.1166 -0.2178  0.2345
 7081SOL     OW32701   1.879   1.553   8.709 -0.6044  0.0214 -0.0149
 7081SOL    HW132702   1.924   1.637   8.710  0.0787 -0.3418 -1.6527
 7081SOL    HW232703   1.910   1.526   8.623 -0.5875 -0.8245  0.2548
 7082SOL     OW32704   1.645   0.929   6.638 -0.2097  0.4448  0.4910
 7082SOL    HW132705   1.712   0.875   6.680  0.3776 -0.6586 -1.8434
 7082SOL    HW232706   1.607   0.871   6.572  1.5172  0.3689 -0.4598
 7083SOL     OW32707   1.912   4.488   1.418 -0.5325  0.2761 -0.0583
 7083SOL    HW132708   2.001   4.501   1.451  0.3674 -0.1328 -2.3110
 7083SOL    HW232709   1.867   4.550   1.475 -3.4227 -1.5786 -0.3702
 7084SOL     OW32710   2.371   2.001   8.422 -0.7304 -0.1579 -0.4122
 7084SOL    HW132711   2.447   1.948   8.446 -0.6372  0.6935  1.1499
 7084SOL    HW232712   2.307   1.931   8.436  0.3691 -0.4167  3.1486
 7085SOL     OW32713   2.202   2.105   7.030 -0.6605  0.4035 -0.0756
 7085SOL    HW132714   2.186   2.055   7.110 -0.0335  1.0585  0.4479
 7085SOL    HW232715   2.291   2.074   7.013 -0.9664 -0.2079 -0.5420
 7086SOL     OW32716   1.074   2.027  10.637  0.4909 -0.7176 -0.0120
 7086SOL    HW132717   1.035   2.039  10.724  0.0674 -1.7295 -0.0611
 7086SOL    HW232718   1.120   2.111  10.634 -1.7685  0.4004 -2.4925
 7087SOL     OW32719   1.218   4.040  15.428 -0.0931 -0.0651  0.2887
 7087SOL    HW132720   1.128   4.030  15.459 -0.7649  0.1149 -1.5819
 7087SOL    HW232721   1.208   4.104  15.357 -0.1705  1.6488  1.8429
 7088SOL     OW32722   4.352   0.582   3.273 -0.1897 -0.5450  0.1931
 7088SOL    HW132723   4.397   0.503   3.242 -0.4883 -2.2539  4.1036
 7088SOL    HW232724   4.365   0.640   3.198  1.7725 -1.1797  0.0219
 7089SOL     OW32725   0.491   3.768  14.941  0.2744  0.2646  0.2055
 7089SOL    HW132726   0.432   3.693  14.938  3.1847 -2.0189  0.0846
 7089SOL    HW232727   0.456   3.821  15.013  3.3525 -0.3236  2.1675
 7090SOL     OW32728   0.020   0.735   9.274 -0.0361  0.0192  0.0018
 7090SOL    HW132729   0.081   0.807   9.286 -0.7291  0.3473  1.5821
 7090SOL    HW232730   4.678   0.779   9.221  1.2734  0.9503 -0.8288
 7091SOL     OW32731   2.754   3.302   3.901 -0.1491  0.5062  0.1488
 7091SOL    HW132732   2.742   3.394   3.879 -1.0799  0.5650  0.9052
 7091SOL    HW232733   2.741   3.269   3.812 -2.7013  1.7983  0.0605
 7092SOL     OW32734   2.006   1.496   6.921  0.0911  0.0931 -0.2124
 7092SOL    HW132735   2.002   1.486   6.826  1.9185  3.1375 -0.6081
 7092SOL    HW232736   2.057   1.421   6.950  1.7370  1.3679  0.1516
 7093SOL     OW32737   2.652   4.210   5.945  0.5521 -0.2622 -0.4115
 7093SOL    HW132738   2.562   4.237   5.928  0.0508 -1.0414  1.0103
 7093SOL    HW232739   2.643   4.142   6.012  0.7395 -0.6058 -0.7384
 7094SOL     OW32740   1.175   3.585  12.553  0.3294 -0.0216  0.2535
 7094SOL    HW132741   1.218   3.514  12.506  1.9369  0.1526  1.4708
 7094SOL    HW232742   1.131   3.531  12.619  1.5725  0.2609  1.3058
 7095SOL     OW32743   3.396   3.150   1.435  0.4971 -0.1245  0.1814
 7095SOL    HW132744   3.390   3.119   1.345 -1.1684 -0.4770  0.4062
 7095SOL    HW232745   3.388   3.064   1.476 -0.0154  0.5261  1.4574
 7096SOL     OW32746   2.692   4.465   8.452 -0.6836 -0.3543 -0.4493
 7096SOL    HW132747   2.783   4.477   8.424  0.1674  0.9538  2.9067
 7096SOL    HW232748   2.708   4.484   8.544  0.1963  0.7477 -0.8275
 7097SOL     OW32749   3.266   0.172   0.700  0.1327  0.2589 -0.2429
 7097SOL    HW132750   3.241   0.145   0.612 -1.6762 -0.3503  0.4654
 7097SOL    HW232751   3.185   0.220   0.714 -0.5256 -0.4039 -1.7971
 7098SOL     OW32752   0.212   3.805   0.092  0.2795 -0.0416  0.5734
 7098SOL    HW132753   0.269   3.873   0.129 -2.1665  2.7585 -0.8334
 7098SOL    HW232754   0.208   3.827  17.696  0.6740 -1.1372  0.2919
 7099SOL     OW32755   0.126   4.057  13.007  0.3929 -0.1874 -0.1481
 7099SOL    HW132756   0.038   4.077  12.976 -0.2514 -0.2196  1.6761
 7099SOL    HW232757   0.109   4.050  13.101 -0.6891 -1.3888 -0.4423
 7100SOL     OW32758   2.932   2.460   0.089  0.5975  0.1404 -0.2832
 7100SOL    HW132759   2.877   2.385   0.064 -2.0769  1.5461  1.3581
 7100SOL    HW232760   2.918   2.464   0.183  3.2217  1.9595  0.0287
 7101SOL     OW32761   1.087   2.667   2.185 -0.0757  0.2977 -0.5774
 7101SOL    HW132762   1.120   2.756   2.193  0.6254  0.0477 -0.6723
 7101SOL    HW232763   0.993   2.664   2.168 -0.2650  1.6980  0.2025
 7102SOL     OW32764   4.479   3.734   2.668  0.0131 -0.4553 -0.0382
 7102SOL    HW132765   4.508   3.765   2.583 -3.7248  0.9188 -0.8458
 7102SOL    HW232766   4.492   3.642   2.644 -4.5026 -1.7691  2.3990
 7103SOL     OW32767   2.747   4.304  13.862  0.2246  0.6212  0.3623
 7103SOL    HW132768   2.686   4.354  13.915 -0.6780  0.3966 -0.4576
 7103SOL    HW232769   2.804   4.275  13.933  0.3490 -2.1657 -0.8784
 7104SOL     OW32770   1.174   4.224   6.986  0.3397  0.4187  0.2113
 7104SOL    HW132771   1.120   4.217   6.907  1.8443  2.5144 -1.0103
 7104SOL    HW232772   1.175   4.130   7.004  0.2083  0.3340 -0.2136
 7105SOL     OW32773   3.074   3.738   7.507 -0.1852 -0.4983  0.5204
 7105SOL    HW132774   3.023   3.658   7.524 -1.0778 -0.3763 -1.5224
 7105SOL    HW232775   3.005   3.800   7.485  1.7963  1.8568  1.0022
 7106SOL     OW32776   1.105   2.226   9.479 -0.3385 -0.7299  0.2458
 7106SOL    HW132777   1.078   2.213   9.569 -1.3485 -1.5392 -0.1740
 7106SOL    HW232778   1.045   2.166   9.434  1.0444  0.1772 -2.8505
 7107SOL     OW32779   4.083   1.017   4.655  0.2079  0.1816 -0.3119
 7107SOL    HW132780   4.130   0.943   4.617  0.4231 -1.6458  3.5173
 7107SOL    HW232781   3.995   0.979   4.657  0.8673 -1.3557 -0.8024
 7108SOL     OW32782   3.139   0.695   3.323  0.5407  0.3187  0.1681
 7108SOL    HW132783   3.182   0.768   3.279 -0.8634 -1.0216 -3.4502
 7108SOL    HW232784   3.052   0.711   3.285  0.8347  0.9681 -0.2206
 7109SOL     OW32785   2.242   4.026   3.304  0.2093 -0.2669 -0.0859
 7109SOL    HW132786   2.334   4.052   3.310 -0.4036  1.9151 -0.1691
 7109SOL    HW232787   2.240   3.969   3.227 -0.2245  1.4289 -1.3274
 7110SOL     OW32788   3.153   3.413   9.703 -0.3947  0.8322  0.1421
 7110SOL    HW132789   3.166   3.500   9.740 -2.2976  2.3702 -2.7756
 7110SOL    HW232790   3.218   3.360   9.748  1.9482  0.4926 -3.6138
 7111SOL     OW32791   3.351   0.098   3.741 -0.1579 -0.0300  0.3083
 7111SOL    HW132792   3.294   0.032   3.781  1.8850 -0.5380  2.3305
 7111SOL    HW232793   3.343   0.082   3.647  2.0093  0.1863  0.0870
 7112SOL     OW32794   1.451   0.446   8.512 -0.5760  0.0950 -0.1064
 7112SOL    HW132795   1.402   0.392   8.573 -1.0563 -0.0145 -0.5923
 7112SOL    HW232796   1.502   0.498   8.574 -0.7818 -0.7177  0.7455
 7113SOL     OW32797   3.766   1.245   4.542  0.4420 -0.1427  0.0266
 7113SOL    HW132798   3.724   1.167   4.578  2.3728 -1.3520 -0.3150
 7113SOL    HW232799   3.840   1.250   4.603  1.5802 -0.4554 -1.3192
 7114SOL     OW32800   2.667   1.167   6.571 -0.4913 -0.8691  0.3814
 7114SOL    HW132801   2.718   1.132   6.644 -0.7962 -0.9258  0.5686
 7114SOL    HW232802   2.687   1.101   6.504  0.5988 -1.7116  1.5504
 7115SOL     OW32803   0.676   1.238  12.372  0.6489 -0.3314  0.1148
 7115SOL    HW132804   0.759   1.190  12.367  0.4631 -0.6634  0.2255
 7115SOL    HW232805   0.610   1.169  12.381  1.0779 -0.6215  1.0815
 7116SOL     OW32806   0.468   0.061   2.925  0.3854  0.4565 -0.1107
 7116SOL    HW132807   0.412   0.025   2.857 -0.4179  0.5788  0.4898
 7116SOL    HW232808   0.558   0.059   2.891  0.6226 -2.0564  0.6858
 7117SOL     OW32809   4.427   4.196   8.994  0.1707 -0.2142 -0.1592
 7117SOL    HW132810   4.421   4.102   9.015 -3.1779  0.0054 -0.2356
 7117SOL    HW232811   4.497   4.227   9.052 -0.5621 -1.5653  1.4590
 7118SOL     OW32812   1.458   1.397   2.831  0.0541  0.2417 -0.2537
 7118SOL    HW132813   1.458   1.326   2.767 -2.8957  0.9508 -1.0403
 7118SOL    HW232814   1.518   1.371   2.901 -0.7798 -2.7363 -0.6378
 7119SOL     OW32815   2.722   0.891  10.156  0.5306 -0.6564  0.0913
 7119SOL    HW132816   2.739   0.967  10.100  0.4342  0.1620  1.1696
 7119SOL    HW232817   2.630   0.867  10.147  0.6613 -0.6181 -1.4362
 7120SOL     OW32818   2.809   0.514   4.338 -0.0756 -0.1354 -0.5374
 7120SOL    HW132819   2.737   0.541   4.282  2.0365  1.2552 -2.5748
 7120SOL    HW232820   2.798   0.567   4.418  2.4697 -2.3477  1.2761
 7121SOL     OW32821   1.234   1.669   6.013 -0.1874  0.4139  0.3073
 7121SOL    HW132822   1.282   1.615   6.075 -0.4498  0.8839  0.9268
 7121SOL    HW232823   1.283   1.651   5.933 -1.0841  0.1598 -0.1932
 7122SOL     OW32824   1.489   1.506   4.134 -0.0116  0.4246 -0.4954
 7122SOL    HW132825   1.507   1.456   4.213  3.1423  0.8181 -0.9667
 7122SOL    HW232826   1.398   1.529   4.155 -0.0586 -0.7681  0.5826
 7123SOL     OW32827   3.349   3.938   9.665  0.1762 -0.0426  0.1019
 7123SOL    HW132828   3.263   3.980   9.665  0.1107 -0.1771 -0.4036
 7123SOL    HW232829   3.387   3.950   9.578 -0.3405 -1.5163 -0.3320
 7124SOL     OW32830   1.875   1.052   7.680  0.1303  0.2205 -0.1151
 7124SOL    HW132831   1.947   1.096   7.724 -1.0021 -1.4608  3.4370
 7124SOL    HW232832   1.883   1.097   7.597 -0.7042  1.1282  0.3025
 7125SOL     OW32833   3.224   0.148  14.255 -0.0871  0.0574 -0.3324
 7125SOL    HW132834   3.174   0.216  14.210  2.8953  1.5833 -1.3604
 7125SOL    HW232835   3.262   0.198  14.327  1.5780  1.9051 -2.4681
 7126SOL     OW32836   1.959   0.139   8.677  0.5582  0.9121  0.2170
 7126SOL    HW132837   1.881   0.151   8.622  0.1137 -1.8175  0.2523
 7126SOL    HW232838   1.940   0.197   8.751 -0.3933 -0.7187  1.2760
 7127SOL     OW32839   1.837   1.552   4.613  0.5321  0.1798 -0.9055
 7127SOL    HW132840   1.847   1.518   4.702 -1.9218  0.0869 -0.6716
 7127SOL    HW232841   1.749   1.585   4.628  0.6261  0.2361 -0.4643
 7128SOL     OW32842   2.038   3.838   2.630 -0.2055  0.2486  0.3403
 7128SOL    HW132843   2.007   3.896   2.561  0.8722 -0.6415 -0.8975
 7128SOL    HW232844   2.063   3.761   2.579  0.2553 -0.7160  1.9811
 7129SOL     OW32845   3.134   0.759   2.849  0.8081  0.4518 -0.0574
 7129SOL    HW132846   3.215   0.710   2.859  1.3057  0.7221 -2.8030
 7129SOL    HW232847   3.125   0.767   2.754  0.7078  2.5573  0.1286
 7130SOL     OW32848   3.200   3.186   5.573  0.0107  0.4708  0.2478
 7130SOL    HW132849   3.220   3.277   5.551  3.2932 -0.4600 -0.5250
 7130SOL    HW232850   3.229   3.181   5.664  0.4051 -1.4344  0.0092
 7131SOL     OW32851   1.558   0.995   6.359 -0.5828 -0.1035 -0.3284
 7131SOL    HW132852   1.538   0.960   6.272 -1.9768  0.9909 -0.4492
 7131SOL    HW232853   1.527   0.921   6.412 -0.1420 -0.4619 -0.5639
 7132SOL     OW32854   3.939   4.534  14.979 -0.4119  0.1660 -0.4831
 7132SOL    HW132855   3.991   4.491  14.911 -2.2702 -1.0530 -1.1309
 7132SOL    HW232856   3.900   4.459  15.024  0.8186  0.2992  0.8243
 7133SOL     OW32857   2.401   1.628   6.469  0.7978  0.4490  0.1311
 7133SOL    HW132858   2.444   1.549   6.437  1.9457  0.6795  1.1227
 7133SOL    HW232859   2.337   1.632   6.398  0.6778 -1.8576  0.1081
 7134SOL     OW32860   0.645   0.956   6.023 -0.0012  0.2250  0.2660
 7134SOL    HW132861   0.562   1.002   6.011 -1.4961 -2.4537  0.2469
 7134SOL    HW232862   0.608   0.869   6.009  0.7024  0.0170 -0.2876
 7135SOL     OW32863   2.305   0.796  15.520 -0.1900 -0.4478 -0.8118
 7135SOL    HW132864   2.240   0.762  15.582  0.3869 -1.7485 -0.9150
 7135SOL    HW232865   2.303   0.739  15.443 -1.0908 -2.4406  0.6838
 7136SOL     OW32866   1.649   2.946   4.723 -0.2758  0.1127  0.3915
 7136SOL    HW132867   1.655   2.894   4.642 -1.0446 -1.8345  1.5649
 7136SOL    HW232868   1.668   3.035   4.694  2.1031 -0.8424 -0.9347
 7137SOL     OW32869   3.418   3.550  16.851  0.2504 -0.4416  0.0295
 7137SOL    HW132870   3.483   3.570  16.919 -0.8099  0.7639  0.6794
 7137SOL    HW232871   3.426   3.455  16.844 -1.3056 -0.5602  0.0030
 7138SOL     OW32872   3.199   4.658   3.881  0.5416 -0.1797  0.5030
 7138SOL    HW132873   3.240   4.572   3.882  2.5654  0.7784  1.4999
 7138SOL    HW232874   3.118   4.623   3.845  0.3785 -0.8310  1.4964
 7139SOL     OW32875   3.995   3.187   7.888  0.5014  0.2131  0.3430
 7139SOL    HW132876   3.934   3.252   7.922  0.2537  0.8593 -1.3161
 7139SOL    HW232877   4.058   3.253   7.858 -0.1671 -0.1693 -1.9110
 7140SOL     OW32878   4.218   3.176  15.979 -0.0508  0.6542  0.0310
 7140SOL    HW132879   4.130   3.150  15.950  0.8531 -0.9695 -1.2652
 7140SOL    HW232880   4.270   3.185  15.899 -1.8052 -1.9960 -1.4110
 7141SOL     OW32881   0.145   3.296   8.036  0.1915  0.3087  0.4655
 7141SOL    HW132882   0.050   3.291   8.021  0.4245 -3.5806  0.4163
 7141SOL    HW232883   0.155   3.385   8.071 -2.9640  0.6172  0.6503
 7142SOL     OW32884   0.102   2.696   2.781 -0.1305  0.1153 -0.6582
 7142SOL    HW132885   0.171   2.724   2.841 -0.7809 -1.6096  0.8871
 7142SOL    HW232886   0.053   2.631   2.830 -0.6167  0.2356 -0.9802
 7143SOL     OW32887   3.082   1.986   4.129  0.0105 -0.1218  0.1915
 7143SOL    HW132888   3.020   2.000   4.200  1.1994 -1.4502  1.5124
 7143SOL    HW232889   3.063   2.041   4.054  0.7260 -1.5411 -1.0402
 7144SOL     OW32890   2.120   1.298  14.594  0.0655 -0.1008 -0.7027
 7144SOL    HW132891   2.173   1.345  14.530  0.2333 -0.7059 -1.0067
 7144SOL    HW232892   2.057   1.368  14.610 -0.2707 -0.9391  1.6886
 7145SOL     OW32893   1.710   1.300  16.053 -0.6043  0.0780 -0.5725
 7145SOL    HW132894   1.786   1.350  16.022 -0.2094 -1.1667 -1.5900
 7145SOL    HW232895   1.644   1.368  16.040  0.7677  1.0964 -2.2470
 7146SOL     OW32896   1.987   0.567   5.209  0.0941  0.5327  0.0363
 7146SOL    HW132897   1.935   0.625   5.153 -0.9954  0.8027  1.3365
 7146SOL    HW232898   1.927   0.492   5.219 -0.3860  0.8511 -0.4642
 7147SOL     OW32899   3.696   2.091   7.488 -0.0411 -0.2240  0.0246
 7147SOL    HW132900   3.679   2.058   7.400  0.1661 -0.1316 -0.0514
 7147SOL    HW232901   3.743   2.173   7.471  0.4994 -0.8038 -1.2932
 7148SOL     OW32902   2.964   2.623  17.497  0.2372  0.1678  0.0554
 7148SOL    HW132903   2.982   2.547  17.551  2.3546  0.9862  0.5065
 7148SOL    HW232904   2.877   2.591  17.475 -0.1410  1.7711 -0.8028
 7149SOL     OW32905   1.479   3.427   7.717  0.4866  0.0086 -0.1027
 7149SOL    HW132906   1.391   3.408   7.750  0.0407  1.2024 -0.5902
 7149SOL    HW232907   1.531   3.401   7.793  1.0408  0.2774 -0.3927
 7150SOL     OW32908   1.938   0.251   7.949 -0.4241  0.4385 -0.2505
 7150SOL    HW132909   1.966   0.286   7.865  2.7848  0.0177  0.6524
 7150SOL    HW232910   2.015   0.207   7.985 -0.5562  0.7340  0.3994
 7151SOL     OW32911   2.721   2.032   5.620  0.1699  0.1810 -0.0639
 7151SOL    HW132912   2.805   1.994   5.592 -1.1590 -1.2006 -2.1846
 7151SOL    HW232913   2.736   2.126   5.621 -0.4111  0.2730 -0.3444
 7152SOL     OW32914   1.156   3.295   9.981  0.6186  0.1687  0.2532
 7152SOL    HW132915   1.072   3.250   9.988  0.7513 -0.5189 -2.5336
 7152SOL    HW232916   1.211   3.219  10.001 -0.0521  0.0144  1.5280
 7153SOL     OW32917   4.019   1.346   1.367 -0.7535  0.3156  0.1632
 7153SOL    HW132918   4.013   1.358   1.272  1.6602  1.1282  0.1173
 7153SOL    HW232919   3.935   1.385   1.392 -1.7053 -1.9240  0.5097
 7154SOL     OW32920   2.257   2.513  14.751 -0.6433 -0.2373  0.3941
 7154SOL    HW132921   2.296   2.463  14.679 -0.7818 -1.8402  1.4347
 7154SOL    HW232922   2.221   2.444  14.807 -0.8242 -1.1293 -0.8235
 7155SOL     OW32923   4.192   4.108  15.210 -0.1210 -0.1294  0.2708
 7155SOL    HW132924   4.251   4.035  15.190  1.3409  0.8375  1.0639
 7155SOL    HW232925   4.228   4.131  15.296  1.3533 -2.0584  0.1847
 7156SOL     OW32926   3.229   3.026  10.740 -0.3211  0.2136 -0.2460
 7156SOL    HW132927   3.290   2.954  10.757  0.6169  0.6939 -1.5786
 7156SOL    HW232928   3.211   3.052  10.830  2.4394  1.1135  0.0501
 7157SOL     OW32929   0.583   4.638   4.678 -0.2799 -0.4634 -0.2155
 7157SOL    HW132930   0.557   4.698   4.608 -1.2193 -1.7327 -0.9636
 7157SOL    HW232931   0.530   4.562   4.656  0.1629 -0.8564  0.0861
 7158SOL     OW32932   3.358   0.463   8.237  0.6231 -0.1645  0.0061
 7158SOL    HW132933   3.399   0.408   8.170  0.2969  1.9374 -1.9190
 7158SOL    HW232934   3.411   0.453   8.316 -1.8365  0.0769  1.6978
 7159SOL     OW32935   3.679   3.775  10.112 -0.0999 -0.3472  0.7540
 7159SOL    HW132936   3.659   3.811  10.198  1.1332  0.6682  0.6196
 7159SOL    HW232937   3.773   3.793  10.114 -0.0263 -0.8993  2.3940
 7160SOL     OW32938   3.118   1.749   2.023 -0.0984  0.1641  0.0185
 7160SOL    HW132939   3.211   1.748   2.004  0.1823 -1.6716  1.5520
 7160SOL    HW232940   3.098   1.843   2.023  0.6002  0.3105 -0.6718
 7161SOL     OW32941   3.826   4.302   2.279  0.2610 -0.3912 -0.1241
 7161SOL    HW132942   3.828   4.397   2.272 -0.6919 -0.4428 -1.1352
 7161SOL    HW232943   3.867   4.305   2.365  2.5993 -0.3295 -1.2405
 7162SOL     OW32944   1.222   0.636  14.681 -0.5623  0.3215  0.8028
 7162SOL    HW132945   1.142   0.666  14.725  0.4648 -0.2080  3.0110
 7162SOL    HW232946   1.207   0.544  14.659 -2.8419  0.6920  0.7698
 7163SOL     OW32947   1.396   0.526  12.314  0.5993 -0.4124 -0.3091
 7163SOL    HW132948   1.371   0.448  12.364 -1.7668  0.8045  0.3834
 7163SOL    HW232949   1.469   0.562  12.365  0.6334 -0.1790 -0.5216
 7164SOL     OW32950   0.387   4.600   6.979 -0.1138  0.2632 -0.1383
 7164SOL    HW132951   0.482   4.598   6.975  0.0150  2.1480  1.9498
 7164SOL    HW232952   0.366   4.660   7.050 -1.3463  0.5128 -0.7152
 7165SOL     OW32953   2.830   3.404   6.914 -0.3269 -0.4512  0.0594
 7165SOL    HW132954   2.839   3.358   6.997  3.7056 -0.4897 -0.3588
 7165SOL    HW232955   2.873   3.486   6.937 -0.1211 -0.6444  0.3565
 7166SOL     OW32956   2.854   1.914   2.272 -0.1834  0.2278 -0.6245
 7166SOL    HW132957   2.758   1.915   2.270 -0.2002 -0.4820 -0.1537
 7166SOL    HW232958   2.872   1.943   2.361  0.6513 -1.6659 -0.1719
 7167SOL     OW32959   2.694   3.367   2.907 -0.4119  0.2580  0.4649
 7167SOL    HW132960   2.746   3.341   2.831  0.9159  1.7121  0.8798
 7167SOL    HW232961   2.621   3.407   2.859  0.7530  2.4816  0.5227
 7168SOL     OW32962   1.371   4.434   3.219  0.3771  0.0258 -0.1183
 7168SOL    HW132963   1.430   4.508   3.204  0.0874 -0.0271 -1.4832
 7168SOL    HW232964   1.288   4.473   3.194 -0.2603 -1.5693 -0.4728
 7169SOL     OW32965   3.527   3.548   6.830 -0.1110  0.2111  0.7431
 7169SOL    HW132966   3.469   3.598   6.887 -1.5671  0.4489 -0.9487
 7169SOL    HW232967   3.468   3.531   6.756  1.6794 -0.6191 -0.5100
 7170SOL     OW32968   1.834   0.033   1.809  0.0418 -0.2952  0.0452
 7170SOL    HW132969   1.799   0.094   1.873  0.5478  0.1572 -0.1067
 7170SOL    HW232970   1.927   0.056   1.811  0.3372 -1.4909  0.5442
 7171SOL     OW32971   4.108   3.943   9.165 -0.1793  0.0890 -0.4342
 7171SOL    HW132972   4.195   3.918   9.196  0.5321  1.7210 -1.1047
 7171SOL    HW232973   4.123   3.982   9.078 -0.1041 -0.9357 -0.8750
 7172SOL     OW32974   2.233   1.457   0.690 -0.2060 -0.0114  0.1204
 7172SOL    HW132975   2.246   1.394   0.619 -0.4067 -0.7408  0.7214
 7172SOL    HW232976   2.152   1.504   0.674 -1.3534 -1.8665  0.4791
 7173SOL     OW32977   3.910   3.469  17.127  0.5626 -0.3912  0.1308
 7173SOL    HW132978   3.841   3.486  17.191  1.4806 -0.9869  1.2913
 7173SOL    HW232979   3.951   3.393  17.171 -0.5663 -0.8423  0.3958
 7174SOL     OW32980   0.897   1.457  12.449  0.0605 -0.5772  0.1235
 7174SOL    HW132981   0.833   1.385  12.453 -0.4214 -0.0471  1.6575
 7174SOL    HW232982   0.872   1.507  12.371  0.2968 -2.1192 -0.9519
 7175SOL     OW32983   3.082   4.000  13.575 -0.1274  0.2168  0.0142
 7175SOL    HW132984   3.175   3.978  13.575 -0.8898 -3.1335 -1.7668
 7175SOL    HW232985   3.073   4.093  13.593  0.1439  0.1264  0.6059
 7176SOL     OW32986   0.677   1.352   9.328 -0.2562  0.0769 -0.3062
 7176SOL    HW132987   0.689   1.257   9.325 -0.8003 -0.0188  0.4745
 7176SOL    HW232988   0.586   1.359   9.358 -0.0139  0.1432  0.4083
 7177SOL     OW32989   0.732   2.440   2.711 -0.0472 -0.2181  0.4725
 7177SOL    HW132990   0.768   2.528   2.726 -0.8641  0.2717 -0.4641
 7177SOL    HW232991   0.639   2.458   2.730 -0.2379 -1.3338  0.5697
 7178SOL     OW32992   2.915   0.317   9.938  0.2612  0.2342 -0.0631
 7178SOL    HW132993   2.979   0.379   9.974 -0.7769  0.4515  1.4284
 7178SOL    HW232994   2.918   0.256  10.012  0.8684 -1.7641 -1.7605
 7179SOL     OW32995   1.009   1.890   6.477  0.2997  0.0314  0.3875
 7179SOL    HW132996   0.934   1.831   6.472  2.4980 -3.0044  3.1546
 7179SOL    HW232997   1.031   1.880   6.570  1.3775 -0.7334  0.0399
 7180SOL     OW32998   2.177   4.478  10.544  0.3662 -0.2826 -0.0666
 7180SOL    HW132999   2.249   4.420  10.519  0.6098 -0.6999  1.6074
 7180SOL    HW233000   2.152   4.517  10.460  0.2419  0.0597  0.1267
 7181SOL     OW33001   0.439   3.316   6.541  0.3997  0.3182 -0.4702
 7181SOL    HW133002   0.413   3.365   6.620  2.2377 -0.1408  0.4202
 7181SOL    HW233003   0.404   3.368   6.469 -1.3278  0.0551  0.1714
 7182SOL     OW33004   2.472   1.654   2.278 -0.4128  0.6253 -0.3420
 7182SOL    HW133005   2.402   1.680   2.339  0.4600  0.3773  0.7550
 7182SOL    HW233006   2.429   1.586   2.226 -1.0440  1.4608 -0.9191
 7183SOL     OW33007   2.361   2.976   3.455 -0.1868 -0.2271 -0.3347
 7183SOL    HW133008   2.329   3.045   3.397  0.0370 -0.5069 -0.7877
 7183SOL    HW233009   2.430   3.030   3.493 -0.2195 -1.9174  2.1065
 7184SOL     OW33010   1.760   3.798   3.770  0.0864  0.3838 -0.4172
 7184SOL    HW133011   1.749   3.729   3.705 -3.3606 -0.7355  1.3480
 7184SOL    HW233012   1.751   3.741   3.846  3.1104 -0.3873 -0.6351
 7185SOL     OW33013   2.616   2.332   1.555  0.2017  0.9646 -0.4276
 7185SOL    HW133014   2.608   2.255   1.498 -0.5193 -0.1886  1.2459
 7185SOL    HW233015   2.547   2.308   1.617 -1.7142  0.9031 -2.5724
 7186SOL     OW33016   3.507   0.890   1.736 -0.0770 -0.8497 -0.2942
 7186SOL    HW133017   3.494   0.980   1.766  1.0785  0.2576 -3.1261
 7186SOL    HW233018   3.480   0.905   1.646 -1.1781 -1.1897 -0.0125
 7187SOL     OW33019   4.683   0.066   6.534 -0.2929 -0.3791  0.0554
 7187SOL    HW133020   4.690   0.111   6.618  0.2769 -1.6736  0.7021
 7187SOL    HW233021   4.666   4.698   6.558 -2.2184 -0.9624 -3.4329
 7188SOL     OW33022   2.828   4.104   3.146 -0.2408 -0.1812 -0.3184
 7188SOL    HW133023   2.795   4.015   3.161 -3.7160  1.1321 -0.1950
 7188SOL    HW233024   2.786   4.142   3.223 -2.4225  0.1792 -1.6906
 7189SOL     OW33025   3.827   4.504   8.941 -0.1512  0.3281  0.3290
 7189SOL    HW133026   3.883   4.435   8.905 -1.1791  0.2897 -1.2255
 7189SOL    HW233027   3.801   4.460   9.022 -1.6415 -0.9356 -0.8211
 7190SOL     OW33028   4.161   4.266  17.239 -0.3224  0.0296 -0.0837
 7190SOL    HW133029   4.244   4.225  17.261 -0.6786  0.6197  2.3125
 7190SOL    HW233030   4.142   4.231  17.152 -0.4313 -0.0192 -0.0401
 7191SOL     OW33031   0.363   0.503   3.699  0.0358  0.4315 -0.1604
 7191SOL    HW133032   0.291   0.524   3.758 -0.4679  1.1354 -1.0310
 7191SOL    HW233033   0.330   0.524   3.612  0.9858  1.7131 -0.2195
 7192SOL     OW33034   3.530   2.249   5.651 -0.2236  0.2422  0.2942
 7192SOL    HW133035   3.566   2.332   5.621  2.4294  0.0851  3.0267
 7192SOL    HW233036   3.593   2.192   5.607  0.5327 -0.7483  2.6450
 7193SOL     OW33037   3.368   0.223   7.204 -1.0168 -0.0063  0.3885
 7193SOL    HW133038   3.463   0.220   7.195 -1.1159 -1.1695 -0.2324
 7193SOL    HW233039   3.344   0.142   7.159  0.1148  0.2516 -0.6806
 7194SOL     OW33040   1.714   4.632   0.897  0.0629 -0.3904  0.3332
 7194SOL    HW133041   1.694   4.538   0.898  0.0198 -0.4033 -1.7596
 7194SOL    HW233042   1.622   4.653   0.880  0.2662  1.0335  1.0845
 7195SOL     OW33043   2.226   2.135   2.346  0.6316 -0.2025 -0.2756
 7195SOL    HW133044   2.282   2.178   2.410  1.8609 -2.8028  0.4095
 7195SOL    HW233045   2.195   2.212   2.299 -1.9159  0.0794  1.8416
 7196SOL     OW33046   3.757   4.181   3.968  0.5218 -0.0718 -0.1397
 7196SOL    HW133047   3.669   4.218   3.969  0.2228 -0.7456 -1.3666
 7196SOL    HW233048   3.809   4.243   3.918  1.7527  1.0834  2.5489
 7197SOL     OW33049   3.296   0.269   2.933 -0.3359  0.2944  0.0788
 7197SOL    HW133050   3.230   0.207   2.962  0.4769 -1.0540 -0.9564
 7197SOL    HW233051   3.288   0.267   2.837  0.9976  0.7914 -0.0525
 7198SOL     OW33052   0.457   2.240   3.388 -0.4118  0.5798  0.3208
 7198SOL    HW133053   0.403   2.258   3.311  1.1264  2.2188 -0.3850
 7198SOL    HW233054   0.405   2.172   3.429 -1.1573  0.7904 -0.2808
 7199SOL     OW33055   0.358   2.854   4.982  0.2491 -0.2556  0.2620
 7199SOL    HW133056   0.390   2.861   5.072  1.6853 -1.9129 -0.1281
 7199SOL    HW233057   0.375   2.764   4.953 -0.6109 -1.0932  2.3492
 7200SOL     OW33058   3.558   3.900   6.852 -0.2419 -0.7515 -0.3898
 7200SOL    HW133059   3.629   3.848   6.814 -0.1561  0.1581 -1.4490
 7200SOL    HW233060   3.564   3.878   6.945 -0.2637  2.0196  0.2545
 7201SOL     OW33061   2.355   3.578   7.663 -0.6302 -0.7856  0.5815
 7201SOL    HW133062   2.348   3.669   7.634  0.0468 -0.9038  0.0297
 7201SOL    HW233063   2.281   3.528   7.630 -0.6509 -0.9073  0.8083
 7202SOL     OW33064   3.107   2.409   3.404  0.2380 -0.6655 -0.7781
 7202SOL    HW133065   3.063   2.460   3.472  0.8229 -0.9524 -0.1736
 7202SOL    HW233066   3.175   2.364   3.455 -2.0825 -1.5097  1.5770
 7203SOL     OW33067   0.996   0.410   1.435 -0.2708 -0.1200  0.0031
 7203SOL    HW133068   1.000   0.455   1.350 -1.9468 -2.1565 -1.1648
 7203SOL    HW233069   1.061   0.461   1.483  1.5948 -0.5425 -2.0550
 7204SOL     OW33070   0.226   0.212   6.339  0.4803 -0.3245  0.3845
 7204SOL    HW133071   0.269   0.136   6.299 -0.4320  0.2530 -1.6565
 7204SOL    HW233072   0.258   0.285   6.286  0.3825  0.0756  0.8725
 7205SOL     OW33073   4.618   4.352   9.433 -0.2890  0.0638 -0.0554
 7205SOL    HW133074   4.695   4.300   9.413  0.6401  1.2349  0.4759
 7205SOL    HW233075   4.638   4.428   9.378  1.4877 -2.2633 -2.5586
 7206SOL     OW33076   2.503   4.122   8.621  0.5769  0.0994 -0.2161
 7206SOL    HW133077   2.500   4.031   8.649 -1.6489 -0.4864 -2.4146
 7206SOL    HW233078   2.588   4.125   8.577  0.7775 -0.4925  0.1323
 7207SOL     OW33079   2.438   3.133   4.565  0.2108  0.4492  0.5080
 7207SOL    HW133080   2.523   3.154   4.526 -0.9803  0.8706 -1.8889
 7207SOL    HW233081   2.376   3.151   4.494 -1.3162 -4.0461  0.7296
 7208SOL     OW33082   4.313   4.152  10.334 -0.2731  0.2465 -0.1515
 7208SOL    HW133083   4.319   4.117  10.245 -0.6084 -1.3203  0.4373
 7208SOL    HW233084   4.384   4.103  10.376 -0.9684 -0.1233  0.5861
 7209SOL     OW33085   3.880   0.767   7.643  0.0399  0.2394  0.4915
 7209SOL    HW133086   3.973   0.784   7.660  0.5673 -0.2145 -1.9775
 7209SOL    HW233087   3.857   0.739   7.732 -2.2374  0.2917 -0.0719
 7210SOL     OW33088   2.087   0.467   3.406  0.1924  0.6409 -0.7055
 7210SOL    HW133089   2.127   0.482   3.320 -0.3504  0.1428 -1.0402
 7210SOL    HW233090   2.151   0.408   3.444  0.3206  2.1875  1.4787
 7211SOL     OW33091   2.151   0.298   6.771  0.0011 -0.4907  0.0087
 7211SOL    HW133092   2.090   0.226   6.785 -1.7096  0.4053 -2.7593
 7211SOL    HW233093   2.098   0.378   6.771 -1.0743 -1.1949  0.0410
 7212SOL     OW33094   1.722   2.954   7.542 -0.6223 -0.3842  0.3234
 7212SOL    HW133095   1.778   2.886   7.579  1.1776  1.5042  1.1179
 7212SOL    HW233096   1.674   2.981   7.620  1.9713  0.7059  1.5477
 7213SOL     OW33097   3.259   4.058   7.706  0.1283 -0.3868  0.1246
 7213SOL    HW133098   3.267   4.060   7.611 -1.2844 -0.1365  0.0099
 7213SOL    HW233099   3.301   3.972   7.713 -0.4725 -0.6051  1.0978
 7214SOL     OW33100   0.399   4.069   5.281  0.1313  0.7070  0.0577
 7214SOL    HW133101   0.489   4.061   5.311  0.0887  1.9502  0.4992
 7214SOL    HW233102   0.354   4.057   5.364 -1.4288 -4.2851 -1.4806
 7215SOL     OW33103   0.848   2.362   2.461 -0.7572  1.0129 -0.5073
 7215SOL    HW133104   0.814   2.356   2.551  0.1169 -0.6154 -0.2727
 7215SOL    HW233105   0.857   2.270   2.437 -1.3929  0.9028 -0.3035
 7216SOL     OW33106   4.293   0.121  14.111  0.4610 -0.3879  0.1361
 7216SOL    HW133107   4.259   0.159  14.192  3.1993  0.2876  0.9312
 7216SOL    HW233108   4.381   0.156  14.109  0.1182  0.3816 -1.5401
 7217SOL     OW33109   1.711   2.046   4.228  0.1259 -0.1389  0.2777
 7217SOL    HW133110   1.687   2.106   4.298  2.9880 -0.5981  1.6317
 7217SOL    HW233111   1.644   1.978   4.232  0.6660 -0.6838 -0.0766
 7218SOL     OW33112   0.749   2.609  14.049  0.0902 -0.0857  0.5496
 7218SOL    HW133113   0.667   2.592  14.096 -0.5410  1.7499  0.0854
 7218SOL    HW233114   0.742   2.701  14.027  1.8783  0.5530  2.6507
 7219SOL     OW33115   3.760   2.397   0.578 -0.1604  0.2939 -0.0373
 7219SOL    HW133116   3.850   2.364   0.584 -0.1127  0.4102 -0.1102
 7219SOL    HW233117   3.716   2.315   0.600  1.1765 -0.8257 -1.4695
 7220SOL     OW33118   1.550   3.254  13.058  0.2900 -0.0809  0.3503
 7220SOL    HW133119   1.528   3.248  12.965  1.1647 -0.1326  0.1503
 7220SOL    HW233120   1.550   3.160  13.079 -0.5061 -0.5588 -1.8403
 7221SOL     OW33121   2.034   3.751  15.613  0.5591  0.1371 -0.1650
 7221SOL    HW133122   2.112   3.801  15.638  1.1179 -0.6038 -0.4419
 7221SOL    HW233123   2.032   3.671  15.665 -3.1003  2.0165  2.6576
 7222SOL     OW33124   2.788   3.398   4.220 -0.7302  0.5142 -0.3547
 7222SOL    HW133125   2.832   3.421   4.138  1.1395 -0.5660  0.3503
 7222SOL    HW233126   2.753   3.479   4.258 -0.9576  0.0172  0.4910
 7223SOL     OW33127   2.549   4.688   1.504 -0.5561 -0.1772  0.1267
 7223SOL    HW133128   2.636   4.653   1.482 -0.9774 -2.1229  1.6035
 7223SOL    HW233129   2.520   4.653   1.588 -2.1831 -0.2432 -0.4732
 7224SOL     OW33130   1.641   2.938  11.157 -0.2475  0.0692  0.3456
 7224SOL    HW133131   1.709   2.903  11.214 -0.9885 -0.2245  1.0391
 7224SOL    HW233132   1.684   3.015  11.118  1.2598 -0.1130  1.6669
 7225SOL     OW33133   2.666   4.267   9.085 -0.0562  0.3729 -0.2828
 7225SOL    HW133134   2.574   4.240   9.080  0.0261 -0.5357  3.1850
 7225SOL    HW233135   2.668   4.360   9.106 -0.2680 -0.1148  1.8697
 7226SOL     OW33136   4.021   3.390   5.590 -0.1358  0.2922 -1.1509
 7226SOL    HW133137   4.080   3.364   5.661 -0.3135  1.2361 -0.6585
 7226SOL    HW233138   4.017   3.313   5.533 -0.3950 -0.2488 -0.4109
 7227SOL     OW33139   3.881   3.323   4.108  0.0218 -0.3977 -0.2119
 7227SOL    HW133140   3.788   3.313   4.088  0.2877  0.9749 -2.0678
 7227SOL    HW233141   3.910   3.244   4.062  0.4760  0.3091 -1.1164
 7228SOL     OW33142   1.665   0.091  17.416 -0.5468  0.3707  0.2528
 7228SOL    HW133143   1.663   0.090  17.511  0.9537  2.9039  0.3139
 7228SOL    HW233144   1.574   0.070  17.396  0.0186 -2.6566  0.8920
 7229SOL     OW33145   3.352   3.538   4.631 -0.0367 -0.3745  0.0115
 7229SOL    HW133146   3.391   3.535   4.544  2.7330 -2.3055  1.3300
 7229SOL    HW233147   3.407   3.470   4.669  0.7971 -0.1072 -0.7225
 7230SOL     OW33148   1.313   1.657  11.141  0.3259 -0.1885 -0.2543
 7230SOL    HW133149   1.394   1.634  11.186  0.7178  2.7289  0.5224
 7230SOL    HW233150   1.342   1.693  11.057 -1.1671 -0.7138 -0.9898
 7231SOL     OW33151   4.254   0.466   6.689  0.1875  0.0753  0.1942
 7231SOL    HW133152   4.252   0.557   6.658  0.5467  0.3589  1.0185
 7231SOL    HW233153   4.190   0.473   6.760  0.9509 -1.7020  1.0285
 7232SOL     OW33154   0.673   0.169  11.750  0.1756  0.3557  0.1316
 7232SOL    HW133155   0.700   0.253  11.787  1.7297 -0.2340  0.3506
 7232SOL    HW233156   0.620   0.129  11.820 -1.1439 -0.0202 -1.0811
 7233SOL     OW33157   1.044   4.078   6.136  0.0392 -0.6130 -0.6979
 7233SOL    HW133158   1.072   4.154   6.085 -0.5864 -0.1426 -0.3293
 7233SOL    HW233159   0.958   4.067   6.096  0.0762 -1.0376 -0.6687
 7234SOL     OW33160   3.290   3.302   5.982  0.3831 -0.2175 -0.4680
 7234SOL    HW133161   3.325   3.217   5.955 -0.7093 -0.4889 -1.0186
 7234SOL    HW233162   3.362   3.325   6.041 -0.0560 -0.6813  0.2457
 7235SOL     OW33163   0.792   1.931   5.220 -0.1329 -0.3190 -0.3978
 7235SOL    HW133164   0.843   1.889   5.289 -0.3705 -0.6986 -0.4543
 7235SOL    HW233165   0.859   1.920   5.153  1.0326  2.2667  0.3462
 7236SOL     OW33166   3.287   1.241   5.939 -1.0963 -0.0580 -0.1709
 7236SOL    HW133167   3.324   1.319   5.979 -1.3693  0.2554 -0.5164
 7236SOL    HW233168   3.321   1.169   5.991 -0.3349 -0.9127 -1.8422
 7237SOL     OW33169   1.175   2.520   1.769  0.1501  0.2410 -0.0053
 7237SOL    HW133170   1.199   2.553   1.855  2.0839  2.2428 -1.3074
 7237SOL    HW233171   1.089   2.485   1.793 -0.5586  0.5907 -1.9532
 7238SOL     OW33172   4.330   0.048   6.070  0.4465  0.0494 -0.0017
 7238SOL    HW133173   4.285   0.120   6.113  1.3353  0.8562 -0.4208
 7238SOL    HW233174   4.269   4.699   6.080  1.3086 -0.7329 -0.3992
 7239SOL     OW33175   4.255   0.143   0.441 -0.1096  0.2715  0.2299
 7239SOL    HW133176   4.212   0.057   0.435 -1.7008  0.9718  1.5163
 7239SOL    HW233177   4.269   0.151   0.536  0.4849  0.6599  0.1060
 7240SOL     OW33178   4.619   2.202  16.078 -0.0108 -0.1939  0.5862
 7240SOL    HW133179   4.636   2.296  16.085 -0.9244  0.1814 -2.2315
 7240SOL    HW233180   4.593   2.200  15.986  0.4624 -2.0883  0.4982
 7241SOL     OW33181   2.276   3.269   1.257  0.7344  0.0087  0.1061
 7241SOL    HW133182   2.249   3.185   1.295  1.2215 -1.9663 -3.9674
 7241SOL    HW233183   2.211   3.296   1.193  1.3567  0.1402 -0.4690
 7242SOL     OW33184   0.030   2.112   4.455 -0.7956  0.1060 -0.0019
 7242SOL    HW133185   4.672   2.062   4.456 -0.3948 -0.5813 -0.8660
 7242SOL    HW233186   0.099   2.046   4.449 -1.1499 -0.0512 -2.3844
 7243SOL     OW33187   2.951   3.828   5.692 -0.4483 -0.2179  0.4659
 7243SOL    HW133188   3.042   3.842   5.721 -0.0869 -1.4637 -0.0865
 7243SOL    HW233189   2.910   3.869   5.768  1.1661 -1.5580  2.0662
 7244SOL     OW33190   4.457   3.208  11.991  0.2731  0.6090 -0.0234
 7244SOL    HW133191   4.417   3.273  11.934 -0.1652  0.6442  0.3207
 7244SOL    HW233192   4.475   3.142  11.924 -0.6218  0.4119 -0.0757
 7245SOL     OW33193   1.663   2.653   8.318 -0.5410 -0.3307 -0.2627
 7245SOL    HW133194   1.727   2.725   8.324  0.9548 -1.7965  1.3480
 7245SOL    HW233195   1.701   2.581   8.368  2.6239  0.7748 -1.0205
 7246SOL     OW33196   1.397   2.163   7.283 -0.3843 -0.1900  0.4655
 7246SOL    HW133197   1.443   2.247   7.282 -0.0777 -0.3825 -0.7134
 7246SOL    HW233198   1.465   2.101   7.256  2.1969  2.7981  0.1595
 7247SOL     OW33199   1.856   3.066   6.989 -0.1896 -0.2055 -0.1169
 7247SOL    HW133200   1.827   3.150   7.026 -0.1148 -0.0458 -0.4232
 7247SOL    HW233201   1.814   3.004   7.049  0.6629  0.9562  1.6618
 7248SOL     OW33202   4.028   3.028  16.325  0.4678  0.0734 -0.1598
 7248SOL    HW133203   3.979   3.108  16.308  0.7751  0.4423  0.7048
 7248SOL    HW233204   4.003   2.979  16.247 -0.0844 -0.3738  0.3025
 7249SOL     OW33205   4.245   1.718   3.943 -0.1470 -0.3957  0.2370
 7249SOL    HW133206   4.324   1.672   3.972  0.9108  0.5232 -1.1718
 7249SOL    HW233207   4.186   1.687   4.011  1.6736 -2.5502  0.8003
 7250SOL     OW33208   2.054   0.631   9.089 -0.1053 -0.0753 -0.4742
 7250SOL    HW133209   2.079   0.581   9.012  1.5301  0.1745 -0.1041
 7250SOL    HW233210   1.961   0.609   9.079 -0.0598 -0.2626 -0.4908
 7251SOL     OW33211   3.651   2.612   8.647  0.1554 -0.3443 -0.5966
 7251SOL    HW133212   3.601   2.667   8.706 -1.2507 -1.5144 -0.7193
 7251SOL    HW233213   3.670   2.540   8.707 -0.0857  1.3980  1.5482
 7252SOL     OW33214   3.335   3.786   4.807  0.0109 -0.5126 -0.1309
 7252SOL    HW133215   3.375   3.832   4.733  0.6004  0.6963  0.9385
 7252SOL    HW233216   3.329   3.701   4.764 -0.4687  0.1790 -1.4355
 7253SOL     OW33217   4.375   3.161  16.628  0.1094 -0.6644 -0.5841
 7253SOL    HW133218   4.303   3.223  16.643 -0.3868 -1.2634 -0.4580
 7253SOL    HW233219   4.321   3.082  16.622  0.4512 -0.9984  0.7472
 7254SOL     OW33220   4.286   1.954  13.257 -0.0246  0.2934  0.7238
 7254SOL    HW133221   4.253   1.912  13.336  0.1310 -1.9393 -0.4213
 7254SOL    HW233222   4.344   2.015  13.302  1.5882  0.9665 -2.2633
 7255SOL     OW33223   2.570   1.366   3.792 -0.7001 -0.2254  0.2556
 7255SOL    HW133224   2.632   1.337   3.725  0.3434 -1.0370  1.5688
 7255SOL    HW233225   2.584   1.460   3.782 -2.2514 -0.1625 -1.3301
 7256SOL     OW33226   1.748   4.658   3.255 -0.1746  0.3143  0.2663
 7256SOL    HW133227   1.795   0.017   3.250  0.7856 -0.2469 -0.0095
 7256SOL    HW233228   1.658   4.673   3.283 -0.4967 -0.0658 -0.5546
 7257SOL     OW33229   4.371   4.145  15.727  0.0590 -0.3848  0.5683
 7257SOL    HW133230   4.456   4.171  15.762  0.5747  0.6402 -1.4489
 7257SOL    HW233231   4.327   4.134  15.812 -1.3432  1.3265  0.0554
 7258SOL     OW33232   4.490   3.847   1.521 -0.3101  0.1267  0.0097
 7258SOL    HW133233   4.482   3.759   1.558  1.2278  0.3448  0.8748
 7258SOL    HW233234   4.412   3.857   1.467  0.8758  0.0713 -1.6963
 7259SOL     OW33235   1.717   3.152   3.102  0.8502 -0.1577 -0.0913
 7259SOL    HW133236   1.743   3.223   3.043 -1.7661  1.0377  0.1604
 7259SOL    HW233237   1.766   3.075   3.072  0.9305  0.0232 -0.4315
 7260SOL     OW33238   3.109   4.640  14.305 -0.1197  0.3213  0.6232
 7260SOL    HW133239   3.143   0.004  14.292 -0.9507  0.3883 -1.0931
 7260SOL    HW233240   3.081   4.642  14.397 -2.4722  2.9037 -0.1722
 7261SOL     OW33241   4.699   1.561   5.930 -0.1556 -0.1729  0.0734
 7261SOL    HW133242   0.047   1.601   5.880  0.1023 -1.7701 -0.8292
 7261SOL    HW233243   4.632   1.574   5.864 -0.1203 -2.3406 -0.3913
 7262SOL     OW33244   0.982   0.034   6.410 -0.4471  0.3120 -0.2422
 7262SOL    HW133245   1.040   0.104   6.382 -2.4091  2.0259 -0.0311
 7262SOL    HW233246   1.038   4.710   6.472 -1.0951  0.7027  0.6533
 7263SOL     OW33247   3.609   0.931  11.119 -0.4418  0.2061  0.0129
 7263SOL    HW133248   3.576   0.848  11.154 -0.1379 -0.1125 -0.4621
 7263SOL    HW233249   3.550   0.992  11.163 -2.3078 -0.1436 -2.0100
 7264SOL     OW33250   0.462   0.963   9.413 -0.8000 -0.0011  0.6833
 7264SOL    HW133251   0.487   1.035   9.356 -1.1711  0.7802  1.4910
 7264SOL    HW233252   0.399   0.920   9.355  0.6581 -0.1712 -0.7573
 7265SOL     OW33253   3.003   0.866   3.719  0.1145  0.0177 -0.4462
 7265SOL    HW133254   3.023   0.957   3.744  1.0407 -0.2312 -0.2920
 7265SOL    HW233255   3.069   0.823   3.773 -1.1744 -1.7409 -0.2879
 7266SOL     OW33256   2.652   1.083   4.289 -0.0844  0.3334  0.0686
 7266SOL    HW133257   2.593   1.009   4.283 -0.5476  0.7553 -0.5289
 7266SOL    HW233258   2.600   1.163   4.296  1.1892  1.1760  0.0292
 7267SOL     OW33259   0.932   2.991   2.598 -0.1880 -0.0953  0.0181
 7267SOL    HW133260   0.924   2.973   2.504  2.6890 -0.3190 -0.2002
 7267SOL    HW233261   0.866   3.060   2.608  1.4045  1.3514  0.5672
 7268SOL     OW33262   1.509   3.262  11.401 -0.1637 -0.1049  0.4202
 7268SOL    HW133263   1.523   3.347  11.443  1.3260 -0.4931  0.7173
 7268SOL    HW233264   1.550   3.200  11.462 -1.6255  1.7026  3.2425
 7269SOL     OW33265   4.199   0.026   5.473  0.1684 -0.5547  0.4671
 7269SOL    HW133266   4.268   0.052   5.534 -0.0599  0.0022  0.4899
 7269SOL    HW233267   4.140   4.712   5.538 -0.0774  1.0518  1.1759
 7270SOL     OW33268   3.534   0.351  13.191 -0.2032 -0.0700 -0.9683
 7270SOL    HW133269   3.448   0.320  13.163  0.1219 -1.1699 -0.7417
 7270SOL    HW233270   3.553   0.286  13.258  0.3744  4.0776  2.8642
 7271SOL     OW33271   1.128   4.153   6.406  0.0618  0.8696 -0.1533
 7271SOL    HW133272   1.108   4.062   6.428 -0.1655  1.1911  0.9810
 7271SOL    HW233273   1.062   4.150   6.336  0.0577 -0.1888 -0.1081
 7272SOL     OW33274   0.357   4.677   3.646  0.1900 -0.3012  0.1036
 7272SOL    HW133275   0.365   4.618   3.572  1.2260  0.9960 -0.8324
 7272SOL    HW233276   0.448   4.706   3.660  0.0770  0.3197 -0.4524
 7273SOL     OW33277   2.704   4.334  15.275  0.1867 -0.0964  0.2809
 7273SOL    HW133278   2.730   4.251  15.316 -0.0718  0.2138  1.0774
 7273SOL    HW233279   2.609   4.343  15.272 -0.0656 -2.3925  1.1566
 7274SOL     OW33280   3.143   4.358   9.110 -0.0309  0.3767 -0.3644
 7274SOL    HW133281   3.176   4.321   9.028  0.1447  0.2208 -0.2245
 7274SOL    HW233282   3.176   4.447   9.096  1.4271 -0.1650 -0.3318
 7275SOL     OW33283   1.433   2.401   8.856  0.0775 -0.1704  0.1841
 7275SOL    HW133284   1.377   2.336   8.813 -2.6362  1.1882  1.6302
 7275SOL    HW233285   1.471   2.441   8.777  1.5769  2.3838  2.1927
 7276SOL     OW33286   0.692   2.155   3.268  0.2716  0.1697  0.7273
 7276SOL    HW133287   0.612   2.198   3.298 -1.9891 -1.5013 -2.9592
 7276SOL    HW233288   0.704   2.187   3.179 -0.9242 -2.7175 -0.4640
 7277SOL     OW33289   1.461   3.695   6.805 -0.4021  0.0774  0.6502
 7277SOL    HW133290   1.420   3.780   6.817  1.0688  1.0985 -1.7304
 7277SOL    HW233291   1.389   3.648   6.848 -0.3508 -2.6150 -2.1869
 7278SOL     OW33292   1.934   4.713   3.005  0.3786  0.5915  0.4166
 7278SOL    HW133293   1.968   4.709   2.916 -2.0662 -0.2844 -0.4600
 7278SOL    HW233294   1.999   0.047   3.045  2.1540 -1.2445  0.2212
 7279SOL     OW33295   1.338   1.906   0.746 -0.4720  0.2646  0.2962
 7279SOL    HW133296   1.279   1.973   0.712  2.0127  1.5482 -1.4321
 7279SOL    HW233297   1.319   1.932   0.836  1.0188 -0.5340  0.8437
 7280SOL     OW33298   3.638   2.846   4.526 -0.1376  0.6784  0.2346
 7280SOL    HW133299   3.631   2.837   4.431  1.3141  2.1871 -0.0101
 7280SOL    HW233300   3.547   2.855   4.556 -0.8132 -0.6075 -1.4196
 7281SOL     OW33301   2.961   4.307  14.081 -0.4901  0.1085 -0.1846
 7281SOL    HW133302   2.930   4.358  14.156  1.5569  0.9277  0.1140
 7281SOL    HW233303   3.054   4.292  14.096  0.0970  2.5513 -1.3695
 7282SOL     OW33304   1.033   4.575   7.947 -0.0085  0.1829 -0.1110
 7282SOL    HW133305   0.957   4.616   7.907  0.5785  0.4905 -0.9129
 7282SOL    HW233306   1.084   4.652   7.972  1.7410 -1.0067  0.0315
 7283SOL     OW33307   0.055   1.219   0.837 -0.0144 -0.3180 -0.0522
 7283SOL    HW133308   0.044   1.257   0.750  1.1242 -2.0931 -0.9886
 7283SOL    HW233309   0.133   1.266   0.866 -1.9478  1.6567  1.9879
 7284SOL     OW33310   0.287   1.957   6.468 -0.0832 -0.1743 -0.1483
 7284SOL    HW133311   0.242   2.037   6.495  0.6736  0.3837 -0.5471
 7284SOL    HW233312   0.218   1.892   6.456  1.0170 -0.7954 -3.0487
 7285SOL     OW33313   1.203   1.940  16.661 -0.3338  0.7553 -0.0130
 7285SOL    HW133314   1.222   1.918  16.752 -0.5214  3.6992  0.7132
 7285SOL    HW233315   1.256   1.869  16.626 -2.8128 -1.9903  1.7562
 7286SOL     OW33316   1.775   0.974   2.039 -0.3594  0.0569 -0.1676
 7286SOL    HW133317   1.852   0.957   2.094  0.3281  0.9045 -0.8596
 7286SOL    HW233318   1.715   0.904   2.063  2.2392 -1.5302  1.6977
 7287SOL     OW33319   2.595   2.225   3.865 -0.2753 -0.2269 -0.6146
 7287SOL    HW133320   2.682   2.265   3.858  0.3692 -1.3864  0.6882
 7287SOL    HW233321   2.556   2.285   3.929 -0.8577  0.5733 -1.7229
 7288SOL     OW33322   2.591   0.235   1.704  0.4488 -0.5098 -0.6380
 7288SOL    HW133323   2.529   0.307   1.716  0.5862 -0.4284 -0.4040
 7288SOL    HW233324   2.573   0.213   1.612  0.4400  1.9487 -1.2283
 7289SOL     OW33325   0.589   0.539   5.284  0.2361 -0.8746 -0.3511
 7289SOL    HW133326   0.683   0.543   5.265  0.3837  0.3179  0.6162
 7289SOL    HW233327   0.574   0.633   5.294  3.2097 -0.3404 -0.8875
 7290SOL     OW33328   0.731   1.809   7.645  0.2052  0.6469 -0.2575
 7290SOL    HW133329   0.652   1.775   7.603 -0.7716  1.3701  0.9675
 7290SOL    HW233330   0.752   1.744   7.712  2.8758  1.1752 -0.5778
 7291SOL     OW33331   4.317   2.135  11.166  0.2377  0.6375  0.1257
 7291SOL    HW133332   4.265   2.213  11.181 -0.9692  0.1189 -1.4481
 7291SOL    HW233333   4.385   2.162  11.228  0.9381  0.8519 -0.7428
 7292SOL     OW33334   4.024   4.591   4.636  0.0554  0.0314 -0.1233
 7292SOL    HW133335   4.087   4.636   4.580  2.7571 -3.2799  0.2953
 7292SOL    HW233336   4.004   4.666   4.692 -0.4052 -0.2943  0.1407
 7293SOL     OW33337   1.535   4.685   8.856 -0.1485 -0.3757  0.6999
 7293SOL    HW133338   1.523   4.608   8.801 -1.2879  0.8584 -0.7746
 7293SOL    HW233339   1.617   4.671   8.904 -0.2525 -0.0563  0.9731
 7294SOL     OW33340   3.204   1.751   5.072 -0.2561 -0.2889 -0.5003
 7294SOL    HW133341   3.212   1.830   5.018 -0.0958 -0.0486 -0.1256
 7294SOL    HW233342   3.183   1.693   4.999  1.9065 -3.3987  1.3849
 7295SOL     OW33343   1.003   1.606   9.714 -0.0301 -0.5030  0.0589
 7295SOL    HW133344   0.937   1.586   9.648  0.7950 -0.1630 -0.8555
 7295SOL    HW233345   1.000   1.700   9.733  2.1531 -0.1518 -1.3864
 7296SOL     OW33346   4.199   3.513  17.559  0.0331  0.2037 -0.5445
 7296SOL    HW133347   4.276   3.458  17.572  0.8341  1.3357 -0.5319
 7296SOL    HW233348   4.135   3.443  17.573 -1.1883  1.4334  0.0197
 7297SOL     OW33349   0.678   0.114   6.561 -0.1826  0.0209 -0.1666
 7297SOL    HW133350   0.588   0.137   6.540  0.4046  2.7075  0.3653
 7297SOL    HW233351   0.717   0.200   6.573 -1.3065  0.4126  0.6469
 7298SOL     OW33352   1.493   2.284  14.168 -0.0784  0.1305  0.2552
 7298SOL    HW133353   1.429   2.223  14.204  1.7497 -1.6849  0.4198
 7298SOL    HW233354   1.559   2.271  14.235  0.0868  0.1636  0.0985
 7299SOL     OW33355   1.587   2.885  13.711 -0.4958  0.2348  0.3628
 7299SOL    HW133356   1.584   2.835  13.792 -0.3705 -0.7871 -0.2678
 7299SOL    HW233357   1.587   2.976  13.740  1.1651  0.5684 -0.6638
 7300SOL     OW33358   0.246   0.052   7.139 -0.9366  0.6095  0.0679
 7300SOL    HW133359   0.155   0.080   7.145 -1.5222 -1.3105  0.2901
 7300SOL    HW233360   0.249   0.003   7.221 -1.3656  1.4221  0.5699
 7301SOL     OW33361   3.790   0.159  15.619 -0.7549 -0.0293 -0.4888
 7301SOL    HW133362   3.703   0.191  15.645 -1.1813 -2.6282  1.3022
 7301SOL    HW233363   3.832   0.233  15.576  1.7701 -1.0062  0.3495
 7302SOL     OW33364   4.719   0.213   8.531 -0.2094  0.3841 -0.4241
 7302SOL    HW133365   0.088   0.195   8.543 -0.3982  1.2705  2.4556
 7302SOL    HW233366   4.686   0.208   8.621  2.2088  0.7148  0.4779
 7303SOL     OW33367   1.798   4.035  14.707  0.3247 -0.2495  0.0552
 7303SOL    HW133368   1.811   4.065  14.797 -0.4817  0.7935 -0.1727
 7303SOL    HW233369   1.849   4.107  14.672 -3.3868  3.8457  3.0682
 7304SOL     OW33370   3.866   3.769   4.205 -0.1157  0.3896 -0.4750
 7304SOL    HW133371   3.916   3.851   4.201 -1.3594  1.1572 -0.1819
 7304SOL    HW233372   3.911   3.725   4.133 -0.3948 -0.5890 -0.0574
 7305SOL     OW33373   3.170   1.659   5.945  0.0199 -0.3790  0.3968
 7305SOL    HW133374   3.202   1.641   6.034  0.9795  2.1916  0.5535
 7305SOL    HW233375   3.103   1.591   5.939 -1.8776  1.7694 -2.6193
 7306SOL     OW33376   4.406   3.087   7.565 -0.0834  0.1909  0.7949
 7306SOL    HW133377   4.456   3.154   7.611 -0.7476  1.8287 -0.8578
 7306SOL    HW233378   4.377   3.034   7.639  3.2253 -1.5564  0.8541
 7307SOL     OW33379   2.271   2.741  13.592 -0.0980 -0.0907  0.1114
 7307SOL    HW133380   2.250   2.834  13.596  0.0377 -0.0630  0.1940
 7307SOL    HW233381   2.262   2.725  13.498 -0.3066 -0.7485  0.2418
 7308SOL     OW33382   3.109   2.302  16.056  0.5902 -0.3169 -0.3050
 7308SOL    HW133383   3.039   2.299  15.991  0.2874 -1.0965  0.0478
 7308SOL    HW233384   3.066   2.351  16.125 -0.0296  0.7189 -1.4334
 7309SOL     OW33385   2.155   4.615   7.238  0.6351  0.8660  0.1939
 7309SOL    HW133386   2.250   4.606   7.243  0.3759 -0.2998  3.0480
 7309SOL    HW233387   2.128   4.528   7.268  3.0706  0.0297 -0.0340
 7310SOL     OW33388   4.252   4.473   3.235 -0.0922 -0.0061 -0.3794
 7310SOL    HW133389   4.160   4.449   3.249 -0.4536  1.6914  0.1117
 7310SOL    HW233390   4.270   4.542   3.298  1.4139 -1.1483  0.4435
 7311SOL     OW33391   2.384   3.063   9.242  0.0194  0.2367  0.5199
 7311SOL    HW133392   2.294   3.076   9.269  0.5659  0.1500  2.3825
 7311SOL    HW233393   2.418   3.146   9.209 -3.3751  0.7679 -1.5528
 7312SOL     OW33394   0.417   0.176   6.532 -0.1769  0.0179  0.1237
 7312SOL    HW133395   0.346   0.181   6.467  0.8742 -0.0542 -1.0186
 7312SOL    HW233396   0.364   0.199   6.609  0.0415 -0.1502  0.3241
 7313SOL     OW33397   4.533   2.920   5.723  0.1834 -0.5430  0.0758
 7313SOL    HW133398   4.536   2.834   5.765  0.5721 -0.5630  0.0063
 7313SOL    HW233399   4.572   2.898   5.638  2.0339 -1.2790  1.1121
 7314SOL     OW33400   0.899   0.698   3.940 -0.7817  0.0666 -0.1879
 7314SOL    HW133401   0.937   0.730   4.022 -0.9355  1.3451 -0.6265
 7314SOL    HW233402   0.806   0.715   3.954 -0.6180  0.0613  0.9578
 7315SOL     OW33403   0.009   1.121  15.811  0.0557  0.0165 -0.1037
 7315SOL    HW133404   4.675   1.083  15.878 -0.9708  2.1310  0.1889
 7315SOL    HW233405   4.684   1.198  15.783  0.8663  0.9239  1.0226
 7316SOL     OW33406   2.552   1.896   8.879  0.1475  0.0702  0.3991
 7316SOL    HW133407   2.526   1.939   8.960  1.5627  1.5398  0.0651
 7316SOL    HW233408   2.563   1.810   8.920 -1.9543 -1.5285 -2.3436
 7317SOL     OW33409   0.407   0.888   4.629  0.0035  0.0917  0.0349
 7317SOL    HW133410   0.470   0.949   4.593  1.0879 -0.4419  1.0045
 7317SOL    HW233411   0.423   0.801   4.592  0.8968  0.7446 -1.0867
 7318SOL     OW33412   1.869   2.380   2.439  0.1679 -0.0960 -0.3423
 7318SOL    HW133413   1.831   2.314   2.380  2.0947  0.8751 -2.6613
 7318SOL    HW233414   1.794   2.427   2.476 -0.6543 -0.5270 -1.4460
 7319SOL     OW33415   2.613   1.811   4.993 -0.2321  0.5560  0.3773
 7319SOL    HW133416   2.708   1.806   4.987 -0.1622  1.8535  0.4031
 7319SOL    HW233417   2.609   1.888   5.050  0.2384 -0.0512  1.2332
 7320SOL     OW33418   4.566   3.366   9.164  0.5145 -0.1360 -0.3473
 7320SOL    HW133419   4.520   3.445   9.136  1.9190  1.1900  1.0575
 7320SOL    HW233420   4.654   3.403   9.160  0.1811  0.5925 -0.8724
 7321SOL     OW33421   3.799   4.301   7.364 -0.3034 -1.0051  0.1158
 7321SOL    HW133422   3.743   4.276   7.291  1.7114  1.7286 -2.3675
 7321SOL    HW233423   3.860   4.358   7.317  0.3420 -0.1514  2.0101
 7322SOL     OW33424   0.562   1.529   1.860  0.3410 -0.4378 -0.6819
 7322SOL    HW133425   0.589   1.619   1.876 -1.1394  0.2643 -2.1846
 7322SOL    HW233426   0.590   1.488   1.942  3.7950  0.1915 -1.5232
 7323SOL     OW33427   3.775   2.060   4.912 -0.3045  0.0346  0.6240
 7323SOL    HW133428   3.727   2.114   4.975 -2.4648 -1.3645  0.1651
 7323SOL    HW233429   3.851   2.019   4.953 -0.9140 -1.8598 -0.1594
 7324SOL     OW33430   1.176   2.583   1.257  0.2534 -0.1885  0.4644
 7324SOL    HW133431   1.135   2.545   1.335  0.1183  0.3155  0.6383
 7324SOL    HW233432   1.199   2.667   1.297 -2.1446  0.6785 -0.0166
 7325SOL     OW33433   0.044   3.359  16.455 -0.9605 -0.5973  0.1769
 7325SOL    HW133434   4.708   3.347  16.529 -0.5440  0.4564  0.6909
 7325SOL    HW233435   0.045   3.455  16.454 -0.9837 -0.5949  0.5084
 7326SOL     OW33436   2.845   4.486   6.170  0.0915  0.2292  0.3212
 7326SOL    HW133437   2.870   4.431   6.245  0.4594  1.7564  1.3262
 7326SOL    HW233438   2.767   4.443   6.137  0.0250  0.0822  0.6720
 7327SOL     OW33439   2.727   2.316   2.885  0.0526 -0.1180 -0.0603
 7327SOL    HW133440   2.659   2.294   2.949  0.1269 -0.2492 -0.0256
 7327SOL    HW233441   2.788   2.362   2.942 -0.8160  1.5520 -0.4777
 7328SOL     OW33442   2.779   0.291  13.153 -0.3480 -0.7664 -0.2317
 7328SOL    HW133443   2.688   0.284  13.183  0.1243 -1.5303  1.0186
 7328SOL    HW233444   2.816   0.243  13.228 -2.8988 -1.0546  0.8528
 7329SOL     OW33445   1.019   3.193   4.770 -0.2953 -0.4317 -0.5133
 7329SOL    HW133446   1.091   3.158   4.824 -1.1415  0.4774  1.2168
 7329SOL    HW233447   0.946   3.139   4.802  0.5946 -1.7024 -0.6277
 7330SOL     OW33448   3.297   3.646   0.525  0.4533 -0.3920 -0.4801
 7330SOL    HW133449   3.389   3.637   0.550 -0.0772  1.2231  1.9916
 7330SOL    HW233450   3.293   3.627   0.431  1.1980  0.4690 -0.6910
 7331SOL     OW33451   3.113   0.511   6.606  0.0341  0.1305  0.1588
 7331SOL    HW133452   3.060   0.443   6.564  0.3425 -0.6532  1.0538
 7331SOL    HW233453   3.178   0.458   6.652 -0.5311 -2.6685 -2.2484
 7332SOL     OW33454   4.202   0.233  14.349  0.5275 -0.2968 -0.1538
 7332SOL    HW133455   4.199   0.318  14.392 -2.0157  0.7813 -2.4192
 7332SOL    HW233456   4.280   0.191  14.384 -0.2694 -2.2660 -0.7119
 7333SOL     OW33457   4.234   1.754   0.541  0.6341  0.0100  0.1436
 7333SOL    HW133458   4.288   1.826   0.575  0.9406 -0.4439  0.6147
 7333SOL    HW233459   4.199   1.715   0.621  1.6057 -0.2374  0.4499
 7334SOL     OW33460   3.436   0.230  12.544 -0.0296  0.2025 -0.4005
 7334SOL    HW133461   3.442   0.224  12.448  0.0926 -1.5399 -0.2796
 7334SOL    HW233462   3.355   0.179  12.542 -1.0778  1.8857 -1.0708
 7335SOL     OW33463   0.329   3.763   7.169 -0.0923 -0.4593  0.1523
 7335SOL    HW133464   0.392   3.718   7.112 -0.4322 -0.6483 -0.0739
 7335SOL    HW233465   0.248   3.713   7.163  0.7688 -2.0636  2.0381
 7336SOL     OW33466   4.394   2.623   2.746  0.3899 -0.1776  0.0995
 7336SOL    HW133467   4.334   2.639   2.819 -0.0110 -0.4824 -0.1624
 7336SOL    HW233468   4.353   2.682   2.684  2.1581  1.1902  0.2386
 7337SOL     OW33469   1.785   0.904   3.772  0.1997  0.0019 -0.5061
 7337SOL    HW133470   1.708   0.875   3.821  0.3413 -2.0184 -1.4887
 7337SOL    HW233471   1.842   0.829   3.787 -0.3189 -0.2502  0.1722
 7338SOL     OW33472   0.367   3.170  15.423 -0.2077 -0.1228  0.2740
 7338SOL    HW133473   0.389   3.184  15.331 -1.5755  2.5872  0.3550
 7338SOL    HW233474   0.277   3.199  15.442 -1.2514 -1.5933 -2.4555
 7339SOL     OW33475   4.239   0.908  12.105  0.2429  0.3212 -0.1538
 7339SOL    HW133476   4.172   0.965  12.069  0.5369 -0.1812 -1.5087
 7339SOL    HW233477   4.296   0.973  12.146  0.3339  1.0214 -1.3971
 7340SOL     OW33478   2.656   3.695   6.044  0.0566 -0.0803 -0.2574
 7340SOL    HW133479   2.592   3.748   6.092  1.4929 -0.9116  2.5876
 7340SOL    HW233480   2.612   3.686   5.959 -1.9148  0.3623  0.7248
 7341SOL     OW33481   1.513   0.889   5.514 -0.3986 -0.2407  0.1000
 7341SOL    HW133482   1.562   0.956   5.467  2.3938 -0.9733  1.9586
 7341SOL    HW233483   1.520   0.816   5.452 -3.7890 -0.9793  0.5819
 7342SOL     OW33484   3.993   0.842  13.960  0.7594  0.4909  0.7221
 7342SOL    HW133485   3.918   0.811  14.010 -0.7771  2.8090 -0.1379
 7342SOL    HW233486   4.059   0.830  14.028 -0.0034 -0.5405  1.2744
 7343SOL     OW33487   1.240   4.517   4.366 -0.5261 -0.2969 -0.0334
 7343SOL    HW133488   1.334   4.507   4.379 -0.7055  0.7308  2.0776
 7343SOL    HW233489   1.237   4.487   4.275  0.5844 -1.1470  0.2017
 7344SOL     OW33490   2.026   0.838   2.549  0.7619  0.5142  0.3333
 7344SOL    HW133491   2.007   0.744   2.545 -1.4370  0.9818 -0.1267
 7344SOL    HW233492   1.950   0.863   2.601 -0.1023 -3.6309  1.0115
 7345SOL     OW33493   4.331   0.942   0.692  0.1881 -0.1691 -0.5180
 7345SOL    HW133494   4.370   0.870   0.741  0.9092  0.7883  0.3325
 7345SOL    HW233495   4.297   0.991   0.767  0.0935  0.3325 -0.8820
 7346SOL     OW33496   1.526   0.646   3.681 -0.2626 -0.2478 -0.0199
 7346SOL    HW133497   1.529   0.600   3.765  0.6654  1.8895  1.1037
 7346SOL    HW233498   1.447   0.699   3.674  0.9794  1.5073 -0.6236
 7347SOL     OW33499   4.508   3.084  11.734  0.1419  0.3752 -0.0133
 7347SOL    HW133500   4.525   3.088  11.640  3.7762  2.0117  0.7195
 7347SOL    HW233501   4.434   3.024  11.742  0.3206  0.4093  1.8739
 7348SOL     OW33502   4.457   3.097  17.561 -0.0574  0.2023  1.3889
 7348SOL    HW133503   4.411   3.060  17.637  0.3646 -0.4347  1.3250
 7348SOL    HW233504   4.546   3.066  17.574  1.1793  2.4809 -1.5105
 7349SOL     OW33505   1.844   2.565   3.163  0.4601  0.1406  0.2165
 7349SOL    HW133506   1.900   2.601   3.233  0.5848  0.5738 -0.1041
 7349SOL    HW233507   1.866   2.474   3.180  0.9489  0.1682 -0.2675
 7350SOL     OW33508   2.139   2.307   1.059  0.0211  0.7241 -0.9998
 7350SOL    HW133509   2.069   2.266   1.010 -1.1978  4.0506 -2.0380
 7350SOL    HW233510   2.169   2.377   1.001 -2.0107  1.3662 -1.2713
 7351SOL     OW33511   0.886   3.716   6.095  0.9068 -0.5412  0.4486
 7351SOL    HW133512   0.980   3.703   6.081  1.0382  0.1623  0.6407
 7351SOL    HW233513   0.870   3.673   6.179 -0.5411 -0.6321  0.1130
 7352SOL     OW33514   0.333   0.332   6.833  0.0004  0.6119 -0.6306
 7352SOL    HW133515   0.427   0.340   6.843 -0.1389 -0.0489  1.2112
 7352SOL    HW233516   0.301   0.394   6.899 -1.3179 -1.6462  0.8444
 7353SOL     OW33517   3.141   2.085   8.299  0.7018  0.4254 -0.0269
 7353SOL    HW133518   3.079   2.077   8.372 -0.0538  1.6134 -0.5238
 7353SOL    HW233519   3.226   2.097   8.340  1.1592  2.7158 -1.6305
 7354SOL     OW33520   0.255   2.693   5.270  0.4160  0.0346 -0.3635
 7354SOL    HW133521   0.298   2.620   5.315  1.4669  0.9029  0.0514
 7354SOL    HW233522   0.332   2.723   5.222  0.7032  0.1126  0.1460
 7355SOL     OW33523   4.372   1.048   8.556  0.6766 -0.4145  0.0696
 7355SOL    HW133524   4.320   1.016   8.629 -0.9015  1.6966 -0.1294
 7355SOL    HW233525   4.399   0.967   8.513  2.6226 -0.7643  1.9752
 7356SOL     OW33526   1.820   3.276   3.965  0.9766  0.0521  0.1913
 7356SOL    HW133527   1.864   3.205   3.917  0.8541  1.0302 -1.3826
 7356SOL    HW233528   1.777   3.224   4.033 -2.0871 -1.7843 -3.1357
 7357SOL     OW33529   1.002   0.297   9.893 -1.0738  0.0978  0.6799
 7357SOL    HW133530   1.060   0.371   9.879 -1.0154 -0.0431  0.1737
 7357SOL    HW233531   1.037   0.275   9.979 -0.6956 -0.3467  0.4109
 7358SOL     OW33532   0.724   2.446   1.259 -0.2071 -0.1741  0.4526
 7358SOL    HW133533   0.756   2.511   1.321 -3.3706  0.6308  1.2324
 7358SOL    HW233534   0.798   2.385   1.245  0.3201  0.3171  1.1220
 7359SOL     OW33535   2.486   1.237  14.574 -0.2840  0.2528  0.7129
 7359SOL    HW133536   2.502   1.328  14.597 -1.0211  0.5892 -0.0812
 7359SOL    HW233537   2.569   1.197  14.598 -0.6541  0.6047  2.5470
 7360SOL     OW33538   2.746   2.028   7.114 -0.2895 -0.7203 -0.3858
 7360SOL    HW133539   2.818   1.997   7.168 -0.1235 -0.8934 -0.7037
 7360SOL    HW233540   2.800   2.089   7.063  0.6658  0.1320  1.6745
 7361SOL     OW33541   1.293   2.219   6.862 -0.1000 -0.1907  0.4445
 7361SOL    HW133542   1.313   2.127   6.842  0.0621 -0.3723  1.4052
 7361SOL    HW233543   1.377   2.230   6.908 -0.1939 -0.5813  0.7116
 7362SOL     OW33544   0.432   2.244   5.571 -0.1118 -0.2268  0.0913
 7362SOL    HW133545   0.493   2.190   5.621  0.8754  1.0743  0.2686
 7362SOL    HW233546   0.384   2.179   5.519  0.2447 -1.6579  1.5737
 7363SOL     OW33547   2.848   0.972   5.225  0.7447  0.4202 -0.5154
 7363SOL    HW133548   2.837   1.035   5.296  1.0037 -0.2471  0.1146
 7363SOL    HW233549   2.846   1.032   5.151 -0.5522 -0.9708 -1.6165
 7364SOL     OW33550   0.168   2.927   9.970  0.1271  0.0468  0.1899
 7364SOL    HW133551   0.148   2.853   9.912 -0.6716 -0.0767  0.6179
 7364SOL    HW233552   0.122   2.904  10.051  1.7942  2.7842  1.9052
 7365SOL     OW33553   3.666   1.119   3.470 -0.3385  0.1712  0.4166
 7365SOL    HW133554   3.616   1.199   3.451  0.6595  1.0851  1.7205
 7365SOL    HW233555   3.604   1.066   3.521  0.7422  1.4168  3.0020
 7366SOL     OW33556   1.057   0.850   3.753  0.2805  0.3362  0.3008
 7366SOL    HW133557   1.010   0.786   3.806 -1.4542  0.9924 -0.4584
 7366SOL    HW233558   1.006   0.929   3.769  1.5816  1.2303  0.0068
 7367SOL     OW33559   2.141   4.237  16.603  0.2688  0.2786 -0.3014
 7367SOL    HW133560   2.089   4.237  16.523 -0.6677 -1.2206  0.2956
 7367SOL    HW233561   2.163   4.330  16.608 -0.5797  0.5706 -2.0273
 7368SOL     OW33562   2.436   1.234   9.665 -0.7705 -0.4480 -0.1843
 7368SOL    HW133563   2.500   1.232   9.736 -0.0808  1.2423 -0.7569
 7368SOL    HW233564   2.487   1.189   9.597 -0.4647  1.0359 -0.9436
 7369SOL     OW33565   0.212   1.945  14.290  0.2840  0.3409 -0.3408
 7369SOL    HW133566   0.151   1.893  14.239  0.0536  0.3257 -0.0512
 7369SOL    HW233567   0.169   1.937  14.375  2.0112  0.3454  0.5422
 7370SOL     OW33568   3.892   0.345   9.798 -0.5158 -0.8744 -0.2117
 7370SOL    HW133569   3.848   0.430   9.798  0.0891 -0.5589  0.5797
 7370SOL    HW233570   3.904   0.330   9.704  0.9720  1.8172 -0.4549
 7371SOL     OW33571   4.496   0.333   4.942  0.0648 -0.6226 -0.1084
 7371SOL    HW133572   4.488   0.428   4.949 -0.8113 -0.6174 -1.1814
 7371SOL    HW233573   4.565   0.327   4.876 -0.5433 -0.4633 -0.7540
 7372SOL     OW33574   0.648   3.716   7.489  0.1909  0.4267  0.0174
 7372SOL    HW133575   0.703   3.794   7.489  0.7832  0.0116 -1.0124
 7372SOL    HW233576   0.631   3.709   7.583  1.1429  0.3255  0.1867
 7373SOL     OW33577   4.132   2.620  13.196 -0.5104  0.4463  0.0781
 7373SOL    HW133578   4.169   2.685  13.256 -0.8955  1.6784 -1.0043
 7373SOL    HW233579   4.060   2.676  13.166  1.7722  2.6866 -1.2939
 7374SOL     OW33580   2.833   0.952   4.438  0.3753  0.0866 -0.3654
 7374SOL    HW133581   2.795   0.877   4.483 -0.4542 -1.3805 -3.4811
 7374SOL    HW233582   2.761   0.979   4.381  1.5871 -0.2249 -2.0397
 7375SOL     OW33583   2.598   4.492   7.586  0.0903  0.6608  0.6858
 7375SOL    HW133584   2.505   4.513   7.595  0.3368  2.2016 -0.4362
 7375SOL    HW233585   2.595   4.396   7.594  1.1973  0.5767  0.0046
 7376SOL     OW33586   1.635   3.140   7.168  0.4954 -0.4202  0.0453
 7376SOL    HW133587   1.669   3.050   7.162  1.8877  0.0876  0.4671
 7376SOL    HW233588   1.716   3.191   7.171  0.3407 -0.2982  2.1666
 7377SOL     OW33589   4.166   2.473   5.508 -0.4049  0.1168  0.5876
 7377SOL    HW133590   4.244   2.418   5.516 -1.9065 -1.8248  1.9825
 7377SOL    HW233591   4.113   2.431   5.439 -1.9959  1.9849  0.6763
 7378SOL     OW33592   2.556   3.382   8.828 -0.7079  0.2609  0.4860
 7378SOL    HW133593   2.475   3.354   8.871 -1.6250  1.7180 -0.2890
 7378SOL    HW233594   2.532   3.378   8.736 -0.4746  2.9808  0.2801
 7379SOL     OW33595   4.562   1.292   5.126 -0.5325  0.7589 -0.1467
 7379SOL    HW133596   4.641   1.281   5.179 -0.5373  0.1279 -0.2646
 7379SOL    HW233597   4.532   1.201   5.121  1.5779  0.1878 -1.9158
 7380SOL     OW33598   4.064   2.888   0.482 -0.2579 -0.0255 -0.4222
 7380SOL    HW133599   4.128   2.826   0.447 -1.5395 -2.1477  0.9518
 7380SOL    HW233600   4.035   2.842   0.561  1.6101 -1.7562 -0.7450
 7381SOL     OW33601   3.738   0.649  17.056  0.2928 -0.3973  0.2872
 7381SOL    HW133602   3.683   0.570  17.050 -1.2921  0.6384  1.0183
 7381SOL    HW233603   3.807   0.611  17.111 -0.6082  0.8319  2.2880
 7382SOL     OW33604   1.105   2.395   2.242 -0.4152  0.3521  0.3038
 7382SOL    HW133605   1.139   2.481   2.214 -1.7562  0.2051 -1.7842
 7382SOL    HW233606   1.035   2.416   2.303 -1.7039 -0.5605 -0.8627
 7383SOL     OW33607   3.821   1.059   7.626 -0.0363 -0.0193  0.0573
 7383SOL    HW133608   3.877   0.996   7.671 -0.4308  0.2937  0.9851
 7383SOL    HW233609   3.839   1.135   7.681 -1.6558  1.2735 -1.2197
 7384SOL     OW33610   2.189   2.980   0.744  0.3013  0.1050 -0.0130
 7384SOL    HW133611   2.214   3.057   0.692  0.1269 -0.6828 -1.2672
 7384SOL    HW233612   2.117   3.003   0.803 -0.6457 -3.2640  0.1423
 7385SOL     OW33613   1.667   4.497   0.033 -0.1144  0.5910  0.0405
 7385SOL    HW133614   1.612   4.446   0.093 -1.6452  1.1159 -0.9089
 7385SOL    HW233615   1.715   4.422  17.695  0.1943  1.6288 -1.7326
 7386SOL     OW33616   4.473   1.920   3.908 -0.2323  0.1149  0.4190
 7386SOL    HW133617   4.400   1.858   3.912  1.7807 -2.2231  0.9482
 7386SOL    HW233618   4.460   1.955   3.819 -0.1960  0.1524  0.4283
 7387SOL     OW33619   0.626   2.294   8.656 -0.2594  0.1818  0.6319
 7387SOL    HW133620   0.682   2.285   8.733 -1.3728 -1.7599  1.2091
 7387SOL    HW233621   0.671   2.350   8.592  2.2069  0.0546  2.2403
 7388SOL     OW33622   2.732   2.228  12.284 -0.2840  0.0756  0.0627
 7388SOL    HW133623   2.817   2.265  12.258 -1.3589  2.4906  0.0064
 7388SOL    HW233624   2.750   2.197  12.372 -2.3757 -1.6187 -0.1242
 7389SOL     OW33625   3.980   1.495   7.483  0.4997  0.0942  0.1795
 7389SOL    HW133626   3.956   1.417   7.432  2.4546 -1.6446  1.9298
 7389SOL    HW233627   4.075   1.484   7.490  0.1598 -2.7489  0.4421
 7390SOL     OW33628   2.918   4.511   3.441  0.0037 -0.4396 -0.1696
 7390SOL    HW133629   2.847   4.568   3.474  1.1985  0.7127  0.4295
 7390SOL    HW233630   2.877   4.462   3.370  0.3431  1.3402 -1.6200
 7391SOL     OW33631   0.931   4.002  12.984 -0.0605  0.0975  0.2693
 7391SOL    HW133632   0.906   4.091  13.009  0.1110  0.3445 -0.4459
 7391SOL    HW233633   0.897   3.958  13.062 -0.3928  1.1002  0.6923
 7392SOL     OW33634   1.757   3.524   8.640 -0.1500  0.2335 -0.3888
 7392SOL    HW133635   1.828   3.517   8.576 -1.0395 -4.9800 -0.8338
 7392SOL    HW233636   1.752   3.617   8.662  0.2993  0.4180 -1.0665
 7393SOL     OW33637   3.233   2.447   1.384  0.1116 -0.1775  0.2035
 7393SOL    HW133638   3.274   2.411   1.305  0.6848 -0.9330  0.8436
 7393SOL    HW233639   3.207   2.534   1.354 -0.5060 -0.1722  0.7586
 7394SOL     OW33640   2.320   0.172   1.934 -0.1957  0.0084 -0.1506
 7394SOL    HW133641   2.327   0.190   2.028 -0.8620  0.2162 -0.1366
 7394SOL    HW233642   2.360   0.250   1.898 -1.0541  0.4443 -0.1719
 7395SOL     OW33643   4.479   1.345   5.544 -0.8263 -0.1240 -0.4663
 7395SOL    HW133644   4.470   1.427   5.494  1.2015 -1.1718 -2.5233
 7395SOL    HW233645   4.452   1.279   5.481 -1.4647  0.5441 -0.9020
 7396SOL     OW33646   2.606   4.633   5.993 -0.2198 -0.0608  0.5322
 7396SOL    HW133647   2.616   4.662   6.084  0.0360 -1.0026  0.8077
 7396SOL    HW233648   2.697   4.628   5.966 -0.1279  0.5516  0.7256
 7397SOL     OW33649   2.370   4.490  14.871  0.6044 -0.0743 -0.3225
 7397SOL    HW133650   2.452   4.501  14.821  1.7546  0.0293  1.5906
 7397SOL    HW233651   2.335   4.411  14.829 -0.6687  0.6273 -0.5691
 7398SOL     OW33652   2.508   0.019   8.649 -0.1127  0.2751 -0.5546
 7398SOL    HW133653   2.422   0.049   8.620  0.4121  1.7470 -0.5963
 7398SOL    HW233654   2.545   0.100   8.685 -0.4782  0.0854  0.2565
 7399SOL     OW33655   1.464   3.738   6.317  0.2312 -0.1541  0.6747
 7399SOL    HW133656   1.472   3.829   6.346  1.5709 -0.9200  2.6897
 7399SOL    HW233657   1.494   3.696   6.397  1.3575 -2.6559 -1.0729
 7400SOL     OW33658   2.428   4.159   9.041  0.1341  0.0205  0.0625
 7400SOL    HW133659   2.360   4.141   9.105  1.1021 -0.1202  1.0467
 7400SOL    HW233660   2.383   4.150   8.957  0.6827  0.8022 -0.3130
 7401SOL     OW33661   1.713   4.405   5.248 -0.1182 -0.4820 -1.0037
 7401SOL    HW133662   1.640   4.374   5.301  0.0477  0.3354 -0.3012
 7401SOL    HW233663   1.696   4.499   5.244 -3.1577 -0.8623  3.3170
 7402SOL     OW33664   0.347   3.206   5.672 -0.3366 -0.2971  0.3288
 7402SOL    HW133665   0.291   3.200   5.749 -0.4260 -0.1650  0.2734
 7402SOL    HW233666   0.294   3.183   5.596  2.2870 -2.0629 -0.9814
 7403SOL     OW33667   2.708   1.574   5.955  0.5834  0.1367 -0.2742
 7403SOL    HW133668   2.759   1.639   5.909 -0.3977  1.2635  0.2251
 7403SOL    HW233669   2.740   1.583   6.045  1.6679 -0.2568 -0.6281
 7404SOL     OW33670   2.472   0.225  11.898 -0.1817 -0.2883  0.3895
 7404SOL    HW133671   2.552   0.216  11.845 -0.8281 -1.8004 -0.3159
 7404SOL    HW233672   2.488   0.314  11.929  2.5331  0.2417 -2.4305
 7405SOL     OW33673   2.512   2.608   2.465  0.5321  0.8083  0.1172
 7405SOL    HW133674   2.419   2.610   2.443  0.7479  2.4720 -0.6205
 7405SOL    HW233675   2.510   2.565   2.551 -0.6388  0.0458 -0.2974
 7406SOL     OW33676   4.114   4.686  14.446 -0.4959 -0.6190 -0.1262
 7406SOL    HW133677   4.110   4.678  14.542 -0.3494  0.7034 -0.0107
 7406SOL    HW233678   4.196   0.007  14.427 -1.2747  0.6814 -0.4897
 7407SOL     OW33679   3.729   4.171   5.803  0.8598 -0.0107 -0.5976
 7407SOL    HW133680   3.778   4.209   5.730  0.7238  0.0890 -0.6377
 7407SOL    HW233681   3.654   4.226   5.827  0.1552 -1.0545 -0.3901
 7408SOL     OW33682   0.380   4.242   5.774 -0.5049  0.6934  0.3980
 7408SOL    HW133683   0.289   4.229   5.748  0.1983  0.5325 -2.0384
 7408SOL    HW233684   0.377   4.194   5.857  3.5752 -1.2592 -0.5533
 7409SOL     OW33685   0.203   3.800   4.766  0.3689  0.5820 -0.1202
 7409SOL    HW133686   0.249   3.717   4.765  0.8346  0.8317  0.6151
 7409SOL    HW233687   0.208   3.821   4.673  0.7974  2.4476  0.3224
 7410SOL     OW33688   0.358   4.041  11.882 -0.5671 -0.0188 -0.1912
 7410SOL    HW133689   0.398   4.108  11.938  0.8632  0.4387 -1.7464
 7410SOL    HW233690   0.310   3.994  11.950 -0.1037  1.9279  1.4963
 7411SOL     OW33691   2.871   1.759   5.462 -0.1582 -0.0625 -0.3195
 7411SOL    HW133692   2.923   1.756   5.542 -1.0398  1.5102  0.3065
 7411SOL    HW233693   2.906   1.842   5.428 -1.4821  1.2283  1.5306
 7412SOL     OW33694   4.698   3.217   2.628  0.4741  0.0019  0.0833
 7412SOL    HW133695   0.010   3.301   2.600 -0.3944  0.6968  1.1046
 7412SOL    HW233696   4.701   3.164   2.548 -1.8615  1.2054 -0.7979
 7413SOL     OW33697   3.250   3.980  12.976  0.3002  0.3245  0.2908
 7413SOL    HW133698   3.232   4.013  13.065 -2.0893 -1.8099  0.6147
 7413SOL    HW233699   3.261   4.065  12.934 -0.6596 -1.3086 -3.2006
 7414SOL     OW33700   2.836   1.257  16.557 -0.3844 -0.2087  0.3844
 7414SOL    HW133701   2.760   1.274  16.612 -0.6310 -1.5341  0.4564
 7414SOL    HW233702   2.874   1.183  16.605  1.4292  2.1137  2.5383
 7415SOL     OW33703   2.733   1.875   3.601  0.4060  0.0381  0.2254
 7415SOL    HW133704   2.793   1.934   3.555 -1.0971  1.1701 -0.2807
 7415SOL    HW233705   2.701   1.833   3.522 -0.1712 -0.3902  0.6902
 7416SOL     OW33706   3.528   2.554   3.757 -0.2344 -0.3338 -0.5095
 7416SOL    HW133707   3.513   2.560   3.663 -3.0169  4.0800  0.2058
 7416SOL    HW233708   3.483   2.636   3.780 -0.5053  0.2594 -3.2411
 7417SOL     OW33709   3.850   2.099  16.940 -0.4115 -0.3256 -0.1144
 7417SOL    HW133710   3.866   2.005  16.948 -1.1003 -0.5926 -1.8288
 7417SOL    HW233711   3.841   2.125  17.032  0.7113 -0.1930 -0.0526
 7418SOL     OW33712   4.259   0.747  15.053  0.2189  0.0659 -0.3099
 7418SOL    HW133713   4.164   0.759  15.053 -0.0516 -2.1313 -1.7773
 7418SOL    HW233714   4.285   0.837  15.075 -2.2060  0.4673  1.0024
 7419SOL     OW33715   0.383   2.047  13.105  0.3142  0.5993 -0.3607
 7419SOL    HW133716   0.348   1.963  13.135  2.0418  0.6568  1.8216
 7419SOL    HW233717   0.320   2.085  13.044  0.4132  0.3196 -0.6368
 7420SOL     OW33718   3.915   4.683  15.991  0.0061 -0.1464  0.2462
 7420SOL    HW133719   3.998   4.640  16.011  1.3210  1.5981 -1.4025
 7420SOL    HW233720   3.914   0.011  16.071  1.3603 -1.8330  1.3529
 7421SOL     OW33721   1.012   2.695  12.867  0.6524 -0.1785 -0.3195
 7421SOL    HW133722   0.948   2.740  12.812  0.8388 -0.4231 -0.7353
 7421SOL    HW233723   1.094   2.723  12.825 -1.1761 -0.9003 -4.3011
 7422SOL     OW33724   1.466   4.432   0.521 -0.1856 -0.5011  0.2244
 7422SOL    HW133725   1.478   4.509   0.467  0.4207  0.1175  1.2341
 7422SOL    HW233726   1.384   4.400   0.485  0.0568 -0.1862 -0.5950
 7423SOL     OW33727   0.734   1.868   6.252  0.1922  0.0513  0.4170
 7423SOL    HW133728   0.747   1.962   6.261 -2.2394  0.4689 -0.5726
 7423SOL    HW233729   0.639   1.864   6.241  0.1618  0.1860  0.6383
 7424SOL     OW33730   3.420   3.825  17.657  0.1552 -0.0747  0.2859
 7424SOL    HW133731   3.457   3.794  17.574  0.6452 -0.2829  0.5877
 7424SOL    HW233732   3.444   3.756   0.021 -1.2205  0.1028  1.0284
 7425SOL     OW33733   3.976   1.221  16.438 -0.7827 -0.5849  0.6518
 7425SOL    HW133734   3.967   1.145  16.380  0.6991  0.8462 -1.4597
 7425SOL    HW233735   3.931   1.290  16.391 -1.6667 -2.2625 -0.9753
 7426SOL     OW33736   2.148   3.922  15.172  0.5023  0.2341 -0.4499
 7426SOL    HW133737   2.144   3.977  15.094 -1.5895  0.5416 -0.1458
 7426SOL    HW233738   2.085   3.970  15.226  0.7291  1.6849 -1.4707
 7427SOL     OW33739   2.047   2.316   7.020 -0.0888  0.3022 -0.2456
 7427SOL    HW133740   2.118   2.253   7.014 -0.7716 -0.5913  0.8481
 7427SOL    HW233741   2.085   2.381   6.960 -0.4569  1.1242  0.4033
 7428SOL     OW33742   2.266   0.259  10.729 -0.4752 -0.1212 -0.0176
 7428SOL    HW133743   2.288   0.177  10.773  1.2972  1.3314  1.8019
 7428SOL    HW233744   2.173   0.273  10.747 -0.6733 -1.0856 -0.2927
 7429SOL     OW33745   2.821   1.866   9.201  0.7168  0.1521  0.3948
 7429SOL    HW133746   2.817   1.775   9.172 -2.9826  0.6192 -0.5641
 7429SOL    HW233747   2.885   1.898   9.138 -1.5672  1.3929 -1.3187
 7430SOL     OW33748   0.481   2.899   2.796 -0.0051  0.0479  0.4585
 7430SOL    HW133749   0.553   2.922   2.855  0.4739 -0.7323  0.1843
 7430SOL    HW233750   0.525   2.840   2.734 -1.6676 -0.3826 -0.3024
 7431SOL     OW33751   3.069   1.552   2.960 -0.1629 -0.2090 -0.3351
 7431SOL    HW133752   3.122   1.630   2.942 -1.6732  0.8081 -0.4000
 7431SOL    HW233753   3.138   1.492   2.988  0.4014 -0.4246 -2.2085
 7432SOL     OW33754   2.828   2.657   8.521  0.8166  0.0755  0.1907
 7432SOL    HW133755   2.798   2.567   8.510 -2.1106  1.2814 -1.5957
 7432SOL    HW233756   2.753   2.699   8.562 -0.3772 -0.6871 -1.2304
 7433SOL     OW33757   4.608   4.017   6.122 -0.0138 -0.0176  0.2900
 7433SOL    HW133758   4.682   4.072   6.148  1.7728 -3.6300  2.8876
 7433SOL    HW233759   4.613   3.958   6.198 -0.3251 -1.2964 -0.6784
 7434SOL     OW33760   1.869   0.152   6.712 -0.4028 -0.6031 -0.2247
 7434SOL    HW133761   1.823   0.136   6.794 -1.1073  1.3894 -0.2384
 7434SOL    HW233762   1.819   0.228   6.681 -0.8610 -0.7005  0.2786
 7435SOL     OW33763   0.540   4.291   5.503 -0.3804  0.6577  0.5137
 7435SOL    HW133764   0.483   4.364   5.478  1.3157  1.0846 -2.0479
 7435SOL    HW233765   0.483   4.260   5.574 -2.6260  0.6701 -1.2939
 7436SOL     OW33766   1.280   2.083   2.479 -0.9291 -0.6541 -0.7383
 7436SOL    HW133767   1.213   2.070   2.412 -0.7158  1.5934 -1.3953
 7436SOL    HW233768   1.300   2.176   2.470 -0.3178 -0.6858  0.2651
 7437SOL     OW33769   0.684   0.524   6.069 -0.5120 -0.1798 -0.2625
 7437SOL    HW133770   0.629   0.461   6.022 -0.6920 -0.5650  0.4690
 7437SOL    HW233771   0.654   0.605   6.027  0.3036 -0.2170 -0.9330
 7438SOL     OW33772   2.762   0.994   2.680 -0.3263  0.3592  0.0147
 7438SOL    HW133773   2.756   0.900   2.698  2.4587  0.2804  0.5018
 7438SOL    HW233774   2.736   1.023   2.767  1.2589  0.4550  0.4618
 7439SOL     OW33775   2.911   1.891   7.537  0.1869 -0.1873 -0.5986
 7439SOL    HW133776   2.877   1.917   7.452 -1.0188 -1.4688 -0.5095
 7439SOL    HW233777   2.825   1.871   7.574  0.2869 -1.9644 -1.3256
 7440SOL     OW33778   2.437   1.715   2.970 -1.4696 -0.2802 -0.2590
 7440SOL    HW133779   2.356   1.668   2.954 -0.7618 -1.9067  1.0070
 7440SOL    HW233780   2.444   1.680   3.058 -0.4055 -0.5295 -0.4385
 7441SOL     OW33781   1.595   0.047   4.514  0.3977 -0.6734 -0.0697
 7441SOL    HW133782   1.538   4.709   4.467  0.7928  1.7907 -3.8376
 7441SOL    HW233783   1.528   0.096   4.561  0.3561 -1.4471  0.6764
 7442SOL     OW33784   0.982   2.932   0.924  0.8025  0.2337 -0.0225
 7442SOL    HW133785   0.917   2.957   0.990  0.5305 -0.4510 -0.0268
 7442SOL    HW233786   1.053   2.992   0.944  2.9590 -2.6110  0.8108
 7443SOL     OW33787   4.192   2.852   6.339  0.5472 -0.0650  0.1725
 7443SOL    HW133788   4.262   2.871   6.276  0.0839 -0.2018 -0.3870
 7443SOL    HW233789   4.133   2.924   6.317  2.4470  0.8301 -1.9833
 7444SOL     OW33790   1.670   2.808   5.718  0.0789 -0.1938  0.0217
 7444SOL    HW133791   1.633   2.832   5.803  1.5165 -2.2521  1.2469
 7444SOL    HW233792   1.759   2.840   5.730  0.2505 -0.3221 -0.9196
 7445SOL     OW33793   1.972   4.482   4.633  0.1298  0.4683 -0.2826
 7445SOL    HW133794   1.952   4.530   4.553 -2.5652 -2.3720 -1.2788
 7445SOL    HW233795   2.051   4.518   4.674  0.1541 -1.7476  1.6058
 7446SOL     OW33796   1.469   4.199  12.317 -0.1080 -0.6908  0.5434
 7446SOL    HW133797   1.526   4.139  12.269 -0.2527 -1.2183  1.0350
 7446SOL    HW233798   1.383   4.190  12.275 -0.1545 -0.9297  0.6898
 7447SOL     OW33799   3.966   3.780  16.245  0.2684  0.2151 -0.6915
 7447SOL    HW133800   4.015   3.703  16.273  0.2323 -0.1795 -1.7145
 7447SOL    HW233801   3.936   3.805  16.332  0.0674 -1.2784 -0.3474
 7448SOL     OW33802   1.136   2.355   8.464 -0.7282 -0.1810 -0.0249
 7448SOL    HW133803   1.136   2.282   8.401 -0.1880  0.2277 -0.5080
 7448SOL    HW233804   1.192   2.417   8.415  0.7557  0.2523  2.2233
 7449SOL     OW33805   3.268   4.331   0.503  0.4042 -0.4488  0.4930
 7449SOL    HW133806   3.244   4.239   0.492 -1.6178  0.1454 -0.1311
 7449SOL    HW233807   3.359   4.308   0.482  0.0405 -0.9083 -0.6025
 7450SOL     OW33808   4.709   4.333  16.997 -0.1882  0.2825 -0.3531
 7450SOL    HW133809   0.044   4.346  16.923 -0.0704  2.1174  0.0627
 7450SOL    HW233810   0.042   4.275  17.047 -3.1896 -1.7365  0.7327
 7451SOL     OW33811   3.169   3.194   4.186  0.7008 -0.3946  0.0990
 7451SOL    HW133812   3.203   3.129   4.124 -1.6162 -1.2862 -0.2196
 7451SOL    HW233813   3.234   3.259   4.159  1.0628 -0.1484  1.6162
 7452SOL     OW33814   4.164   3.321  16.655 -0.1626 -0.3176 -0.3187
 7452SOL    HW133815   4.128   3.410  16.657  0.0097 -0.1688 -2.7977
 7452SOL    HW233816   4.086   3.267  16.652  0.4965 -1.2529 -0.7302
 7453SOL     OW33817   1.190   1.908  12.777 -0.2448  0.3382 -0.5578
 7453SOL    HW133818   1.137   1.854  12.718 -1.2861 -0.2153  0.8754
 7453SOL    HW233819   1.259   1.941  12.721  1.2221 -1.1973  0.3340
 7454SOL     OW33820   2.972   3.985   7.728  0.1363  0.1929 -0.1664
 7454SOL    HW133821   3.066   3.986   7.710  0.3572 -0.2691  0.9860
 7454SOL    HW233822   2.954   4.078   7.739  0.0376  0.2245 -0.6009
 7455SOL     OW33823   1.004   4.288   2.044 -0.0689 -0.0190  0.1266
 7455SOL    HW133824   0.963   4.233   1.978 -1.6299 -0.2212  1.2559
 7455SOL    HW233825   1.039   4.223   2.106  1.7946  0.2289 -0.6553
 7456SOL     OW33826   3.755   1.969   9.596  0.2974  0.1814 -0.5669
 7456SOL    HW133827   3.677   1.926   9.561 -0.2790  1.0562 -0.3511
 7456SOL    HW233828   3.709   2.012   9.668  0.0249  0.8913 -1.1701
 7457SOL     OW33829   4.387   4.344   3.858  0.0784 -0.2152 -0.2215
 7457SOL    HW133830   4.373   4.375   3.948  1.3470  1.5226 -0.6238
 7457SOL    HW233831   4.477   4.312   3.857 -1.0845 -3.6057  1.5417
 7458SOL     OW33832   3.441   4.261  13.151  0.2637  0.7753 -0.0851
 7458SOL    HW133833   3.415   4.296  13.236  2.4978 -3.2534  2.3112
 7458SOL    HW233834   3.471   4.172  13.172 -1.0030  0.7042  1.3784
 7459SOL     OW33835   0.667   2.380   8.156  0.1564  0.3023 -0.5110
 7459SOL    HW133836   0.582   2.374   8.112 -1.2176  1.1114  2.0566
 7459SOL    HW233837   0.733   2.397   8.089  0.7191  1.6325  0.3846
 7460SOL     OW33838   2.626   1.722   5.652  0.1605 -0.5576  0.3309
 7460SOL    HW133839   2.712   1.709   5.693 -1.0464 -1.2457  2.6679
 7460SOL    HW233840   2.642   1.783   5.581 -0.5263  0.6718  1.2319
 7461SOL     OW33841   4.210   4.012   5.617 -0.1410  0.0509  1.0000
 7461SOL    HW133842   4.243   4.061   5.541  0.8960 -0.2488  1.2555
 7461SOL    HW233843   4.221   4.078   5.686 -2.0112 -0.6218  1.9635
 7462SOL     OW33844   3.728   3.792   3.823 -0.2760  0.1185  0.1176
 7462SOL    HW133845   3.660   3.731   3.795 -0.0616 -1.1872  2.4186
 7462SOL    HW233846   3.673   3.868   3.845 -1.2108 -0.4877 -0.1410
 7463SOL     OW33847   2.614   0.861  15.470  0.0662  0.9285 -0.6714
 7463SOL    HW133848   2.655   0.775  15.472  0.0425  0.9417  0.7992
 7463SOL    HW233849   2.541   0.842  15.411  0.1838 -2.6290  0.3347
 7464SOL     OW33850   0.856   3.143  11.740  0.2155  0.3941 -0.0496
 7464SOL    HW133851   0.817   3.125  11.825 -0.7231  1.8244 -0.1706
 7464SOL    HW233852   0.951   3.136  11.749  0.1459  0.1771  0.4800
 7465SOL     OW33853   0.609   1.563   2.746  0.5954  0.2707 -0.1533
 7465SOL    HW133854   0.516   1.558   2.770 -0.5379  1.0289 -4.2973
 7465SOL    HW233855   0.639   1.473   2.733  2.0654  0.6960  0.3877
 7466SOL     OW33856   3.964   1.043   7.047  0.3628  0.3181 -0.9043
 7466SOL    HW133857   4.006   1.115   7.093  2.0178 -0.3781 -1.2966
 7466SOL    HW233858   3.877   1.071   7.074  0.6886 -1.0379  1.5198
 7467SOL     OW33859   3.230   2.886   3.357 -0.5453  0.1251 -0.8541
 7467SOL    HW133860   3.184   2.829   3.420 -4.1400  2.1483 -1.6608
 7467SOL    HW233861   3.194   2.969   3.387 -0.9207  0.1308 -1.3194
 7468SOL     OW33862   4.564   3.421   4.996 -0.4620 -0.0713  0.6629
 7468SOL    HW133863   4.509   3.345   5.015  2.6090 -3.0722 -2.3715
 7468SOL    HW233864   4.496   3.488   4.992  0.1231  0.3688 -1.8706
 7469SOL     OW33865   3.224   4.267   6.168  0.0906 -0.2620  0.6246
 7469SOL    HW133866   3.157   4.203   6.193  0.2711 -1.1162 -1.0661
 7469SOL    HW233867   3.176   4.308   6.096  2.4869 -0.2909 -0.9874
 7470SOL     OW33868   3.306   3.200  13.334  0.2171  0.0671  0.0237
 7470SOL    HW133869   3.219   3.233  13.314  0.2563 -0.3528 -0.8379
 7470SOL    HW233870   3.350   3.203  13.249 -1.7177 -0.9901 -1.0099
 7471SOL     OW33871   3.930   2.439   2.929  0.6765 -0.2233 -0.3624
 7471SOL    HW133872   3.941   2.504   2.999 -1.2063 -1.6582  1.2605
 7471SOL    HW233873   4.020   2.406   2.924  1.5679  2.1424 -0.0134
 7472SOL     OW33874   2.436   4.223   2.489  0.2735  0.4230 -0.1470
 7472SOL    HW133875   2.365   4.274   2.449 -0.2349 -0.9641 -1.0366
 7472SOL    HW233876   2.427   4.144   2.436  1.2963 -0.2756  0.7402
 7473SOL     OW33877   2.119   2.833  17.261 -0.3413  0.3249  0.5463
 7473SOL    HW133878   2.121   2.912  17.207 -0.4178  1.1078  1.6946
 7473SOL    HW233879   2.144   2.861  17.349 -0.3043  2.5266 -0.1699
 7474SOL     OW33880   1.051   2.530   5.818 -0.3971 -0.0983 -0.2184
 7474SOL    HW133881   1.134   2.492   5.789 -0.0251 -0.2147  1.0134
 7474SOL    HW233882   1.076   2.618   5.846 -0.0977 -0.0330 -0.6801
 7475SOL     OW33883   3.083   1.441   8.353 -0.3232  0.3257  0.2625
 7475SOL    HW133884   3.031   1.485   8.285 -2.0787 -0.7643  0.8981
 7475SOL    HW233885   3.032   1.360   8.348 -1.6384  0.9372  3.9541
 7476SOL     OW33886   1.337   1.760  12.969 -0.0376  0.4269 -0.2143
 7476SOL    HW133887   1.273   1.717  13.026 -1.0603  1.8856 -0.2458
 7476SOL    HW233888   1.290   1.813  12.905  1.1661 -1.3042 -2.5340
 7477SOL     OW33889   1.135   1.859   5.705 -0.4238  0.1932 -0.1387
 7477SOL    HW133890   1.230   1.867   5.720 -0.9061 -0.5273  3.1910
 7477SOL    HW233891   1.134   1.768   5.674  0.4802  0.6078 -1.4173
 7478SOL     OW33892   1.732   2.394   3.431 -0.0680  0.2209  0.0934
 7478SOL    HW133893   1.796   2.462   3.454  0.7347 -0.2650 -0.6721
 7478SOL    HW233894   1.649   2.437   3.451 -0.4357  0.0592 -1.0750
 7479SOL     OW33895   1.966   4.633   8.331  0.9384  0.3077 -0.1911
 7479SOL    HW133896   1.913   4.587   8.396 -0.2054 -0.3660 -1.5738
 7479SOL    HW233897   1.933   4.722   8.347 -1.3634 -0.6521  0.4310
 7480SOL     OW33898   3.078   3.617   6.062 -0.6978  0.1897 -0.1859
 7480SOL    HW133899   3.162   3.659   6.082 -0.1036 -0.4756 -1.2804
 7480SOL    HW233900   3.055   3.581   6.148 -0.3297  2.2397  0.7808
 7481SOL     OW33901   1.004   3.566  17.544 -0.0269  0.0334 -0.2520
 7481SOL    HW133902   1.052   3.535  17.620 -1.3964  0.4443  0.7682
 7481SOL    HW233903   1.052   3.511  17.482 -1.0869 -1.6390  0.4133
 7482SOL     OW33904   4.551   3.587  16.867  0.7480  0.2384 -0.1092
 7482SOL    HW133905   4.528   3.618  16.954 -0.8309  0.6007 -0.6648
 7482SOL    HW233906   4.475   3.613  16.816 -0.4103 -0.6219  1.2034
 7483SOL     OW33907   4.245   3.561   3.711  0.4112 -0.2914 -0.1838
 7483SOL    HW133908   4.237   3.657   3.708  0.8234 -0.2416  0.4266
 7483SOL    HW233909   4.189   3.548   3.788  1.1788 -1.2013  0.2133
 7484SOL     OW33910   1.198   2.823   1.641 -0.0188  0.1957 -0.4198
 7484SOL    HW133911   1.168   2.756   1.703  5.2867 -2.0189 -0.2846
 7484SOL    HW233912   1.271   2.869   1.682  0.2236 -0.5163 -0.0514
 7485SOL     OW33913   2.138   1.687   8.946 -0.4665  0.1407 -0.4917
 7485SOL    HW133914   2.114   1.618   8.884  2.0703 -2.0871  1.0157
 7485SOL    HW233915   2.176   1.755   8.890  0.1001  0.6685  0.5295
 7486SOL     OW33916   4.549   1.086   6.635 -0.4655  0.1236 -0.2553
 7486SOL    HW133917   4.529   1.086   6.541 -1.9050  0.1800  0.0396
 7486SOL    HW233918   4.592   1.169   6.652  0.7683 -0.2883 -1.3951
 7487SOL     OW33919   3.223   1.565  11.907 -0.4433 -0.0987  0.0005
 7487SOL    HW133920   3.147   1.526  11.863  0.2921 -1.6791  0.1260
 7487SOL    HW233921   3.244   1.504  11.977 -2.8440 -0.9264 -0.0262
 7488SOL     OW33922   2.702   4.599   8.971  0.4207 -0.5671 -0.1555
 7488SOL    HW133923   2.769   4.570   9.034 -0.3537  2.3368  1.9647
 7488SOL    HW233924   2.633   4.598   9.037  1.0634  1.9493  0.5429
 7489SOL     OW33925   2.772   3.326   4.923 -0.0882 -0.3643  0.4209
 7489SOL    HW133926   2.748   3.309   5.014  0.8943 -1.1736  0.5229
 7489SOL    HW233927   2.861   3.292   4.919 -0.0542 -0.3003  0.6504
 7490SOL     OW33928   0.400   0.038  15.804 -0.0975 -0.0910  0.0111
 7490SOL    HW133929   0.423   0.082  15.886 -1.1696  1.2128 -0.3652
 7490SOL    HW233930   0.369   4.680  15.842 -2.2423 -0.3066 -2.2245
 7491SOL     OW33931   2.725   3.560   3.889  0.2503 -0.0406  0.7500
 7491SOL    HW133932   2.769   3.611   3.821  0.2246  1.4383  1.8426
 7491SOL    HW233933   2.651   3.621   3.897  1.0873  1.0558  0.1481
 7492SOL     OW33934   0.087   2.318  10.140  0.0242 -0.3734  0.3989
 7492SOL    HW133935   0.030   2.278  10.075  2.8996 -0.3458 -2.1029
 7492SOL    HW233936   0.158   2.255  10.137  0.3043  0.0732 -2.0047
 7493SOL     OW33937   1.853   0.642   6.563  0.1208 -0.0690 -0.1964
 7493SOL    HW133938   1.905   0.618   6.486 -0.2744 -1.7016  0.0328
 7493SOL    HW233939   1.899   0.712   6.609 -0.1003  0.3384 -0.6045
 7494SOL     OW33940   2.171   2.274   1.809  0.3198 -0.1613 -0.0561
 7494SOL    HW133941   2.146   2.226   1.888  4.4055 -2.4123 -0.1882
 7494SOL    HW233942   2.086   2.263   1.766 -0.2848  3.4959  0.1867
 7495SOL     OW33943   2.099   2.857   5.207  0.8187 -0.0203  0.8456
 7495SOL    HW133944   2.106   2.932   5.148  3.0224  1.1062  2.5432
 7495SOL    HW233945   2.082   2.902   5.290 -1.5826 -0.3870  0.5742
 7496SOL     OW33946   1.973   1.329   7.979 -0.0781  0.3735 -0.0819
 7496SOL    HW133947   1.926   1.350   8.060 -0.1710  2.8680 -0.7720
 7496SOL    HW233948   2.036   1.401   7.983 -0.4542  0.6235  1.1908
 7497SOL     OW33949   2.954   3.446  12.730  0.4175 -0.3299 -0.5329
 7497SOL    HW133950   2.945   3.423  12.823  0.8860 -0.1328 -0.4389
 7497SOL    HW233951   2.862   3.471  12.722  0.2685 -0.6457  0.1087
 7498SOL     OW33952   1.701   3.952   2.351  0.5756 -0.0993  0.4007
 7498SOL    HW133953   1.720   3.915   2.437  0.3299  0.2173  0.5923
 7498SOL    HW233954   1.726   3.882   2.290  0.9465 -0.3303  0.8116
 7499SOL     OW33955   0.436   2.155  10.639  0.1657  0.3459  0.1222
 7499SOL    HW133956   0.400   2.244  10.633  0.4289  0.3560 -1.4689
 7499SOL    HW233957   0.356   2.118  10.676 -0.1382  1.4972  0.6374
 7500SOL     OW33958   0.021   0.983  12.108 -0.0840 -0.2965 -0.3793
 7500SOL    HW133959   0.017   0.954  12.199  1.9919 -0.3583 -0.3182
 7500SOL    HW233960   4.694   1.063  12.119  1.9528  1.1495 -1.4639
 7501SOL     OW33961   2.686   4.257   7.901 -0.7066 -0.6022  0.4968
 7501SOL    HW133962   2.616   4.202   7.935 -1.9067 -0.2524 -1.4247
 7501SOL    HW233963   2.678   4.315   7.977 -0.3822  1.1034 -0.7684
 7502SOL     OW33964   2.108   0.380   4.358 -0.1609 -0.2040  0.4273
 7502SOL    HW133965   2.082   0.452   4.416  0.4860  0.4628 -0.1086
 7502SOL    HW233966   2.138   0.431   4.284  0.8151  0.2392  1.1336
 7503SOL     OW33967   1.279   4.134  12.580 -0.4314 -0.0210 -0.4999
 7503SOL    HW133968   1.347   4.139  12.647  0.2981 -0.7034 -1.1881
 7503SOL    HW233969   1.292   4.043  12.552 -2.0515  0.2802 -2.2063
 7504SOL     OW33970   3.862   0.254   3.637 -0.2697 -0.2300  0.2161
 7504SOL    HW133971   3.843   0.198   3.561  2.5049 -0.5099 -0.2911
 7504SOL    HW233972   3.802   0.221   3.704  0.9024 -1.0077  0.8812
 7505SOL     OW33973   1.563   3.085  12.821 -0.3749 -0.1222 -0.5728
 7505SOL    HW133974   1.562   3.059  12.913  0.9454 -0.0087 -0.5201
 7505SOL    HW233975   1.560   2.999  12.780 -2.0936 -1.5842  2.5535
 7506SOL     OW33976   4.665   4.010  17.153  0.2982  0.1483 -1.0337
 7506SOL    HW133977   4.636   3.965  17.233 -1.2608  1.6951 -0.7261
 7506SOL    HW233978   4.578   4.033  17.121  0.7101  1.2079 -1.3800
 7507SOL     OW33979   0.285   0.442   6.173 -0.6037  0.2522  0.1382
 7507SOL    HW133980   0.303   0.471   6.084 -0.1905 -1.2026 -0.2451
 7507SOL    HW233981   0.207   0.492   6.199  0.0592  0.7537  1.1641
 7508SOL     OW33982   0.883   1.675   4.072 -0.2907  0.2938 -0.0564
 7508SOL    HW133983   0.879   1.734   3.997  0.6534 -0.2983 -0.5777
 7508SOL    HW233984   0.969   1.700   4.107 -0.6131 -1.0291  1.6658
 7509SOL     OW33985   2.544   2.895   6.702  0.1841  0.6147  0.4023
 7509SOL    HW133986   2.462   2.926   6.662 -0.9731 -2.2817  0.5310
 7509SOL    HW233987   2.582   2.872   6.617 -1.0235  0.5035 -0.1179
 7510SOL     OW33988   3.027   2.379   1.569 -0.4041  0.2925  0.0067
 7510SOL    HW133989   3.097   2.391   1.504 -0.0473  0.7278  0.4660
 7510SOL    HW233990   2.997   2.470   1.578  1.7508  0.8550  1.4679
 7511SOL     OW33991   3.426   1.637  11.738  0.1706 -0.0029 -0.7591
 7511SOL    HW133992   3.376   1.707  11.696  0.1760  1.6252  1.9600
 7511SOL    HW233993   3.360   1.616  11.804 -1.4971  0.9765 -2.1009
 7512SOL     OW33994   3.930   3.853   4.588  0.2271  0.4588  0.4047
 7512SOL    HW133995   4.001   3.844   4.651 -0.4315  0.3637  1.1243
 7512SOL    HW233996   3.856   3.859   4.648  0.6557  0.2407  0.9466
 7513SOL     OW33997   2.286   4.240   7.306  0.0030  0.2207  0.1908
 7513SOL    HW133998   2.342   4.162   7.312  1.6135  1.4946  1.7074
 7513SOL    HW233999   2.350   4.285   7.250  0.7418 -0.7292  0.2644
 7514SOL     OW34000   2.160   0.644  16.340 -0.1278 -0.4502  0.1408
 7514SOL    HW134001   2.131   0.578  16.402 -1.1705 -0.1543 -0.0360
 7514SOL    HW234002   2.162   0.721  16.396 -2.5037  1.3326 -2.2118
 7515SOL     OW34003   2.128   2.934   0.002 -0.0884 -0.5392  0.1175
 7515SOL    HW134004   2.050   2.896  17.660  0.9029 -1.8492 -0.5814
 7515SOL    HW234005   2.137   2.886   0.085 -0.5803 -0.5632  0.1537
 7516SOL     OW34006   3.790   0.839   9.651 -0.0134  0.4241  0.4949
 7516SOL    HW134007   3.830   0.894   9.583 -2.4551  0.1170 -1.2060
 7516SOL    HW234008   3.714   0.891   9.678 -0.4772  1.4378 -2.6397
 7517SOL     OW34009   4.137   1.297   7.956  0.3431  0.7805 -0.2117
 7517SOL    HW134010   4.118   1.338   8.040 -0.1929 -1.1400  0.5916
 7517SOL    HW234011   4.186   1.368   7.913  2.0417 -0.4143 -0.2173
 7518SOL     OW34012   2.046   4.619   3.269 -0.3317  0.4414  0.3481
 7518SOL    HW134013   2.056   4.709   3.240 -0.0412  0.7171  1.3064
 7518SOL    HW234014   1.964   4.597   3.225 -0.5421 -1.6965  1.8173
 7519SOL     OW34015   4.426   1.753   8.034  0.3863 -0.1050  0.0174
 7519SOL    HW134016   4.464   1.709   8.110 -0.8203  0.5074  0.9749
 7519SOL    HW234017   4.500   1.746   7.973 -0.3429 -0.9685 -0.7614
 7520SOL     OW34018   0.587   2.223   4.943 -0.7461 -0.0914 -0.3357
 7520SOL    HW134019   0.529   2.170   4.889  0.0481 -2.7547  1.4278
 7520SOL    HW234020   0.544   2.237   5.027 -1.2339 -0.4861 -0.5264
 7521SOL     OW34021   1.055   3.787   9.057  0.1047 -0.4547 -0.0913
 7521SOL    HW134022   0.964   3.783   9.089 -0.0940 -0.5541 -0.6744
 7521SOL    HW234023   1.105   3.758   9.134  3.1079  1.8487 -1.1711
 7522SOL     OW34024   2.865   4.518   6.693  0.0996  0.6655 -0.9827
 7522SOL    HW134025   2.942   4.559   6.655 -0.2445  0.8475 -1.4762
 7522SOL    HW234026   2.892   4.474   6.774  0.2872 -1.0072 -1.9412
 7523SOL     OW34027   2.295   2.590   4.303 -0.0614  0.1008 -0.6887
 7523SOL    HW134028   2.273   2.498   4.318  1.1115 -0.2634 -1.2171
 7523SOL    HW234029   2.236   2.625   4.370 -0.6715 -0.5195 -0.8974
 7524SOL     OW34030   0.520   2.490   9.415 -0.2443 -0.4557 -0.0090
 7524SOL    HW134031   0.563   2.561   9.367  0.2457  0.2152  1.4401
 7524SOL    HW234032   0.566   2.506   9.497  0.9210  2.0095 -1.1501
 7525SOL     OW34033   3.805   4.433   6.876  0.1725  0.4251  0.2629
 7525SOL    HW134034   3.865   4.359   6.881  0.6155  0.7359 -0.4249
 7525SOL    HW234035   3.719   4.407   6.845  1.2175 -2.2872 -0.3703
 7526SOL     OW34036   1.249   3.974   7.575 -0.6452 -0.0175  0.5611
 7526SOL    HW134037   1.170   4.012   7.612 -0.3095 -0.5669  1.8637
 7526SOL    HW234038   1.224   3.974   7.482  2.0847 -1.2969 -0.1919
 7527SOL     OW34039   2.835   0.248   6.768  0.3899 -0.0523  0.4061
 7527SOL    HW134040   2.766   0.275   6.708 -0.5509  0.5826  1.7917
 7527SOL    HW234041   2.796   0.173   6.812  1.4095  0.4560  2.1778
 7528SOL     OW34042   4.647   0.011   3.284 -0.3473 -0.3033  0.8845
 7528SOL    HW134043   4.645   0.038   3.376 -2.8638  1.9327  0.2001
 7528SOL    HW234044   4.713   4.667   3.297 -0.6028 -0.8656 -0.7145
 7529SOL     OW34045   2.327   1.879  17.203 -0.4692 -0.0729  0.1743
 7529SOL    HW134046   2.381   1.917  17.134 -1.1641  0.7446  0.0882
 7529SOL    HW234047   2.251   1.855  17.150 -0.6081  0.8750 -0.0522
 7530SOL     OW34048   0.030   0.452   7.571 -0.0602  0.5245 -0.7174
 7530SOL    HW134049   0.038   0.497   7.487  0.2107  0.0018 -0.9764
 7530SOL    HW234050   4.669   0.482   7.604 -1.2866 -1.0072 -2.4622
 7531SOL     OW34051   3.420   4.492  13.987  0.1022  0.2476  0.1937
 7531SOL    HW134052   3.409   4.569  14.043  1.5117  0.5365  0.0612
 7531SOL    HW234053   3.343   4.441  14.016 -0.4166  0.9490  0.0514
 7532SOL     OW34054   2.645   4.482   5.172 -0.2432 -0.2532 -0.1625
 7532SOL    HW134055   2.687   4.431   5.103  1.8128  0.1598  0.8008
 7532SOL    HW234056   2.556   4.490   5.138  0.4851 -1.1874 -2.2723
 7533SOL     OW34057   2.885   1.998  10.751 -0.3299  0.0792 -0.6992
 7533SOL    HW134058   2.977   2.021  10.764 -0.7790  1.2069  0.5391
 7533SOL    HW234059   2.885   1.922  10.693  1.9218 -0.9950  0.7168
 7534SOL     OW34060   0.460   1.683  10.828  0.2683 -0.2892 -0.5771
 7534SOL    HW134061   0.380   1.716  10.868  0.2692  0.9097 -1.5314
 7534SOL    HW234062   0.523   1.694  10.899  0.3339  1.2006 -0.8572
 7535SOL     OW34063   2.242   3.290  16.661  0.0813 -0.4324  0.3134
 7535SOL    HW134064   2.291   3.335  16.593 -1.1314  0.6664  0.1629
 7535SOL    HW234065   2.167   3.266  16.606  1.0504  0.6013 -1.4239
 7536SOL     OW34066   3.042   0.958   3.429 -0.8704 -0.3073  0.5754
 7536SOL    HW134067   2.982   0.901   3.381  2.8965 -1.4944 -2.6952
 7536SOL    HW234068   3.022   0.934   3.519  0.4400 -2.9429  0.1579
 7537SOL     OW34069   1.216   3.307   7.409 -0.2462 -0.2685 -0.0263
 7537SOL    HW134070   1.174   3.368   7.349 -1.8164 -0.4138  0.9027
 7537SOL    HW234071   1.250   3.375   7.467  1.6194 -0.3068 -1.1045
 7538SOL     OW34072   0.296   2.407   3.876 -0.0916 -0.7986 -0.2954
 7538SOL    HW134073   0.307   2.423   3.969  0.2184  0.6706 -0.5878
 7538SOL    HW234074   0.340   2.322   3.873  2.6436  0.6769 -2.1381
 7539SOL     OW34075   0.155   4.688  11.070 -0.5684 -0.3316 -0.5299
 7539SOL    HW134076   0.157   0.002  10.982 -1.6775 -1.7112 -1.1495
 7539SOL    HW234077   0.205   4.613  11.040  0.8162  0.0884  0.7429
 7540SOL     OW34078   0.819   0.765   3.126 -0.0389  0.1260 -0.2396
 7540SOL    HW134079   0.732   0.726   3.137 -0.6870  1.5751 -0.2850
 7540SOL    HW234080   0.796   0.858   3.121  1.3181  0.4086 -1.1952
 7541SOL     OW34081   3.993   2.382   0.309 -0.5465  0.1911  0.4148
 7541SOL    HW134082   4.085   2.357   0.303 -1.0449 -1.3808 -0.7023
 7541SOL    HW234083   3.979   2.398   0.402 -0.1733 -1.3166  0.7304
 7542SOL     OW34084   1.078   4.328  15.407  0.2552 -0.4536 -0.2614
 7542SOL    HW134085   1.094   4.422  15.396 -0.4406 -0.2439  0.5822
 7542SOL    HW234086   1.168   4.298  15.415  1.2934  2.8827  0.3125
 7543SOL     OW34087   3.739   3.154   2.413  0.1958  0.2042 -0.0727
 7543SOL    HW134088   3.742   3.195   2.500  1.1205  1.1275 -0.5406
 7543SOL    HW234089   3.693   3.215   2.355 -1.6302 -1.6268 -0.5300
 7544SOL     OW34090   0.785   1.881  10.781  0.3954 -0.4277 -0.4286
 7544SOL    HW134091   0.865   1.930  10.796 -1.4606  2.7772 -0.9455
 7544SOL    HW234092   0.735   1.941  10.726 -2.2105 -1.8400  0.3866
 7545SOL     OW34093   0.753   0.521   3.395 -0.3171 -0.0231  0.3827
 7545SOL    HW134094   0.830   0.556   3.350 -0.5574 -2.2207 -1.7029
 7545SOL    HW234095   0.741   0.589   3.462 -1.0629 -0.9775  1.2081
 7546SOL     OW34096   1.261   4.646   6.234 -0.4162  0.3080  0.0694
 7546SOL    HW134097   1.289   4.571   6.287  3.0983  0.5540 -1.4602
 7546SOL    HW234098   1.172   4.666   6.264 -0.0764  0.0038  1.2670
 7547SOL     OW34099   2.178   2.404   8.345 -0.4681 -0.2086  0.3056
 7547SOL    HW134100   2.230   2.369   8.417 -0.1492 -2.6409 -1.1155
 7547SOL    HW234101   2.240   2.394   8.272  0.1130 -0.5927  0.8579
 7548SOL     OW34102   2.051   1.787   4.081 -0.2617 -0.4435 -0.0400
 7548SOL    HW134103   2.111   1.824   4.017  1.8633 -1.5192  1.2992
 7548SOL    HW234104   1.968   1.818   4.046 -1.0735 -1.4216  1.0067
 7549SOL     OW34105   1.909   2.782   5.478  0.1067  0.6767 -0.2272
 7549SOL    HW134106   1.887   2.691   5.456  1.0281  0.3055  0.3489
 7549SOL    HW234107   1.991   2.773   5.528 -0.7032 -0.7645  0.8519
 7550SOL     OW34108   2.516   3.018   8.599  0.2561 -0.0427  0.2357
 7550SOL    HW134109   2.427   2.983   8.600  0.6346 -1.0772 -2.3971
 7550SOL    HW234110   2.557   2.932   8.594  0.1971 -0.1604  1.7801
 7551SOL     OW34111   2.044   3.468   3.930 -0.5256 -0.2031 -0.1729
 7551SOL    HW134112   1.978   3.468   3.861 -0.8407  0.3195  0.1223
 7551SOL    HW234113   2.036   3.555   3.971 -0.3657  0.2865 -1.1975
 7552SOL     OW34114   0.511   2.986   4.322  0.6543  0.0965 -0.2351
 7552SOL    HW134115   0.525   2.905   4.274  1.2975 -0.6739  1.2906
 7552SOL    HW234116   0.422   2.970   4.355  1.0527  0.5951  1.0822
 7553SOL     OW34117   2.458   1.896  10.085  0.4671 -1.0053  0.2060
 7553SOL    HW134118   2.539   1.947  10.076 -0.2684  0.3653  1.2837
 7553SOL    HW234119   2.442   1.894   9.991  0.7941  0.5080  0.1148
 7554SOL     OW34120   1.057   0.069   8.660 -0.2372  0.4111  0.2569
 7554SOL    HW134121   1.101   4.718   8.700 -1.8420 -0.9439 -0.5302
 7554SOL    HW234122   1.130   0.098   8.604  0.2151  2.2292  1.7849
 7555SOL     OW34123   0.769   3.097   4.421 -0.1950  0.3241  0.7751
 7555SOL    HW134124   0.804   3.032   4.483 -1.0350 -0.7714  0.1182
 7555SOL    HW234125   0.693   3.046   4.394  0.5166  0.3883 -1.2804
 7556SOL     OW34126   4.657   2.232  12.066  0.6361  0.3776 -0.1236
 7556SOL    HW134127   4.638   2.260  11.976 -0.7950 -0.6643 -0.1352
 7556SOL    HW234128   0.020   2.191  12.070 -0.3848 -1.9626 -2.0398
 7557SOL     OW34129   3.215   1.902   9.216  0.5184 -0.0226  0.4466
 7557SOL    HW134130   3.223   1.816   9.258 -0.4082 -1.1324 -1.6888
 7557SOL    HW234131   3.253   1.966   9.277 -0.5217 -0.2497  1.3433
 7558SOL     OW34132   3.972   0.677  11.380  0.2735  0.3270  0.2265
 7558SOL    HW134133   4.005   0.592  11.350  0.9916  1.0687 -1.0956
 7558SOL    HW234134   3.948   0.724  11.300  1.8392  0.0056 -0.4337
 7559SOL     OW34135   4.363   0.348   3.553 -0.6494  0.1594 -0.1008
 7559SOL    HW134136   4.277   0.368   3.518 -0.9265  0.8320  0.9726
 7559SOL    HW234137   4.387   0.272   3.500  1.3138  0.9326 -0.3187
 7560SOL     OW34138   3.162   2.855  16.342 -0.0095  0.4559 -0.6461
 7560SOL    HW134139   3.154   2.821  16.252 -0.2845 -1.9398  0.2907
 7560SOL    HW234140   3.193   2.945  16.332  0.0765  0.4045 -0.8606
 7561SOL     OW34141   1.297   3.372   1.546 -0.4101 -0.2658  0.1022
 7561SOL    HW134142   1.243   3.293   1.555  1.5969 -1.6329  0.1936
 7561SOL    HW234143   1.238   3.448   1.549  0.7329  0.6651 -1.1616
 7562SOL     OW34144   3.987   1.551   0.853 -0.1525  0.4682  0.1994
 7562SOL    HW134145   4.012   1.643   0.853  3.0478 -0.4030  2.9605
 7562SOL    HW234146   3.926   1.542   0.781  0.9078  1.0822 -0.7711
 7563SOL     OW34147   3.756   0.477   0.153  0.5763  0.0787 -0.5421
 7563SOL    HW134148   3.788   0.437   0.072  0.3015 -3.1315  0.9049
 7563SOL    HW234149   3.683   0.417   0.170  1.7392 -1.3913 -0.6757
 7564SOL     OW34150   4.446   2.639  11.214 -0.5875 -0.0127 -0.9614
 7564SOL    HW134151   4.361   2.596  11.218  0.2472 -1.7410 -1.5310
 7564SOL    HW234152   4.423   2.717  11.162 -0.3623  0.2331 -0.6904
 7565SOL     OW34153   0.715   3.132   8.561  0.0301 -0.2990 -0.7989
 7565SOL    HW134154   0.753   3.112   8.647 -0.7430  1.2183 -0.1140
 7565SOL    HW234155   0.681   3.045   8.540  1.2984 -1.0079  0.0090
 7566SOL     OW34156   1.402   3.057   7.459 -0.2424 -0.1941  0.1095
 7566SOL    HW134157   1.485   3.101   7.438 -1.0815  0.7500 -1.1973
 7566SOL    HW234158   1.342   3.130   7.476 -1.1754 -1.0296  0.4081
 7567SOL     OW34159   4.257   4.162  15.483  0.3950 -0.0902 -0.1873
 7567SOL    HW134160   4.210   4.082  15.506  0.0718  0.2368  0.2786
 7567SOL    HW234161   4.323   4.165  15.552 -0.4130  1.0643  0.5329
 7568SOL     OW34162   1.772   1.695  16.743 -0.0890 -0.3883 -0.0221
 7568SOL    HW134163   1.717   1.769  16.769  1.0541  1.2174 -2.2168
 7568SOL    HW234164   1.859   1.719  16.775 -1.1145  0.0966  2.4263
 7569SOL     OW34165   3.211   2.857   0.944  0.2383 -0.4558  0.0693
 7569SOL    HW134166   3.307   2.862   0.951  0.0298  0.2501  2.3670
 7569SOL    HW234167   3.197   2.952   0.944  1.8555 -0.2119 -1.0345
 7570SOL     OW34168   3.640   1.065   5.829 -0.5700  0.3635  0.3548
 7570SOL    HW134169   3.625   0.971   5.816 -0.2907  0.1394  1.6015
 7570SOL    HW234170   3.651   1.070   5.924  2.1737 -0.8059  0.1092
 7571SOL     OW34171   3.673   2.531  10.244  0.1198  0.7080  0.1544
 7571SOL    HW134172   3.755   2.531  10.292  0.9035  0.6546 -1.1784
 7571SOL    HW234173   3.636   2.614  10.274  1.1747  1.2520 -0.0420
 7572SOL     OW34174   0.110   4.531   3.327  0.3183  0.2755 -0.4555
 7572SOL    HW134175   0.172   4.578   3.382 -0.3717 -2.4296  2.6156
 7572SOL    HW234176   0.160   4.455   3.301  1.5600  0.8669  0.1986
 7573SOL     OW34177   1.739   2.608  13.840  0.5000 -0.8844  0.5447
 7573SOL    HW134178   1.715   2.668  13.911 -0.2558 -3.5632  2.5573
 7573SOL    HW234179   1.697   2.524  13.857 -0.3373 -0.5468  0.1296
 7574SOL     OW34180   3.012   0.383   1.318 -0.0371  0.3778  0.3324
 7574SOL    HW134181   3.095   0.363   1.275  0.3835  0.8905  0.9016
 7574SOL    HW234182   2.993   0.474   1.295 -0.6942  0.0680 -0.3736
 7575SOL     OW34183   4.074   1.819   3.430 -0.3385 -0.3321  0.4649
 7575SOL    HW134184   4.096   1.911   3.443 -1.3555  0.0638 -0.5650
 7575SOL    HW234185   4.115   1.780   3.507  0.8018  2.6278  1.3549
 7576SOL     OW34186   1.758   1.728   0.366  0.0684  0.2357  0.0496
 7576SOL    HW134187   1.793   1.667   0.301  0.1508 -0.9014  1.1617
 7576SOL    HW234188   1.791   1.815   0.342  2.8412 -0.9496 -0.3975
 7577SOL     OW34189   1.093   1.422   9.352 -0.0360 -0.0753  0.7609
 7577SOL    HW134190   1.158   1.417   9.423  0.8491  4.5341  0.2877
 7577SOL    HW234191   1.088   1.515   9.332 -0.6691  0.0298  1.4132
 7578SOL     OW34192   2.174   0.701  10.729  0.1567 -0.0052 -0.0668
 7578SOL    HW134193   2.199   0.609  10.744  1.7282  0.4267 -0.0056
 7578SOL    HW234194   2.259   0.744  10.743 -0.6928  1.5184  0.3874
 7579SOL     OW34195   2.563   4.296  12.559 -0.5525  0.1395 -0.1900
 7579SOL    HW134196   2.596   4.350  12.631 -0.8521 -1.3655  1.0721
 7579SOL    HW234197   2.495   4.360  12.540 -1.6504 -0.8950  0.2469
 7580SOL     OW34198   1.892   3.489   5.912 -0.3415  0.0234 -0.5296
 7580SOL    HW134199   1.885   3.403   5.953 -0.4988  0.7480  0.9511
 7580SOL    HW234200   1.827   3.533   5.966  2.5240  1.3181  1.8530
 7581SOL     OW34201   2.969   0.452  10.417  0.3650 -0.4083  0.2118
 7581SOL    HW134202   2.988   0.450  10.323  0.8106  0.2124  0.2933
 7581SOL    HW234203   2.959   0.358  10.430 -1.0436 -0.5764 -1.8885
 7582SOL     OW34204   3.045   0.464  16.109 -0.3273  0.4790 -0.3772
 7582SOL    HW134205   3.109   0.522  16.151  1.7116 -1.9168 -0.2093
 7582SOL    HW234206   3.081   0.460  16.020 -0.8021 -0.0784 -0.5437
 7583SOL     OW34207   0.371   2.083   4.837  0.3683  0.0543  0.1565
 7583SOL    HW134208   0.289   2.131   4.852 -0.0033 -1.0838  1.8069
 7583SOL    HW234209   0.352   2.005   4.890  0.4294 -0.1118 -0.0650
 7584SOL     OW34210   1.579   2.873  16.271  0.5345  0.0036 -0.0671
 7584SOL    HW134211   1.645   2.850  16.337  0.5820  1.6253  0.4436
 7584SOL    HW234212   1.626   2.935  16.216  0.8455  0.9817  1.3070
 7585SOL     OW34213   2.625   1.989   5.224 -0.0617  0.0595 -0.3493
 7585SOL    HW134214   2.626   2.084   5.213 -0.9945 -0.2230 -2.8199
 7585SOL    HW234215   2.713   1.973   5.260  0.1867  1.0825 -0.5194
 7586SOL     OW34216   1.647   1.715   3.467  0.1131  0.1583 -0.0864
 7586SOL    HW134217   1.651   1.728   3.372 -1.3074 -0.1792 -0.1887
 7586SOL    HW234218   1.727   1.666   3.482 -0.5597 -0.9773 -0.1802
 7587SOL     OW34219   3.630   0.457   3.598 -0.0471 -0.1517 -0.2407
 7587SOL    HW134220   3.672   0.466   3.513 -1.7603  0.0112 -1.0741
 7587SOL    HW234221   3.537   0.447   3.577  0.1739  0.8220 -1.6821
 7588SOL     OW34222   0.810   3.932   3.986  0.4099  0.5243 -0.1077
 7588SOL    HW134223   0.868   4.007   3.996  2.7019 -1.2065 -0.5868
 7588SOL    HW234224   0.728   3.962   4.026  0.4692  1.0514 -0.3852
 7589SOL     OW34225   4.089   2.400   6.361 -0.2405 -0.2907  0.2082
 7589SOL    HW134226   4.103   2.317   6.408  2.5916  1.1673  1.9442
 7589SOL    HW234227   4.086   2.462   6.434  1.5106  0.2046 -0.1379
 7590SOL     OW34228   4.306   3.922   7.600 -0.3950 -0.6754 -0.6562
 7590SOL    HW134229   4.375   3.930   7.665 -1.3086 -0.5950  0.3054
 7590SOL    HW234230   4.316   4.004   7.553  3.4676 -0.8433 -0.0817
 7591SOL     OW34231   1.731   3.721   2.999 -0.2149  0.0684 -0.0382
 7591SOL    HW134232   1.660   3.767   3.045  1.1593  0.3402  1.7849
 7591SOL    HW234233   1.740   3.644   3.055 -0.8516  0.0384  0.0281
 7592SOL     OW34234   2.433   1.893   9.808  0.1395  0.2835  0.0011
 7592SOL    HW134235   2.388   1.940   9.738 -3.5545 -2.6572  0.3761
 7592SOL    HW234236   2.449   1.804   9.774  0.7611  0.5080 -0.2932
 7593SOL     OW34237   0.450   4.434   4.563  0.7601  0.7945  0.2668
 7593SOL    HW134238   0.414   4.404   4.647  1.6245 -1.0663 -0.0341
 7593SOL    HW234239   0.477   4.358   4.511 -0.3639  0.3562  0.3252
 7594SOL     OW34240   4.366   3.269   2.659 -0.3251  0.0389 -0.4845
 7594SOL    HW134241   4.309   3.294   2.586 -1.1255 -1.2331 -0.2963
 7594SOL    HW234242   4.308   3.204   2.699 -3.6424  0.2507 -4.9042
 7595SOL     OW34243   3.529   0.171   6.128 -0.1489 -0.3248 -0.2270
 7595SOL    HW134244   3.596   0.104   6.114  1.6371  1.4560 -0.1614
 7595SOL    HW234245   3.468   0.123   6.071 -0.2045 -0.3553 -0.1418
 7596SOL     OW34246   0.612   1.214   6.274 -0.0166 -0.6930 -0.3205
 7596SOL    HW134247   0.520   1.189   6.270 -0.3156  0.2799  0.5002
 7596SOL    HW234248   0.609   1.310   6.273  1.0006 -0.6852 -3.1545
 7597SOL     OW34249   2.211   0.641   6.657  0.0117 -0.3175  0.0912
 7597SOL    HW134250   2.176   0.669   6.573  1.3024 -1.3755 -0.8062
 7597SOL    HW234251   2.135   0.608   6.704  0.3935 -0.1011  0.8572
 7598SOL     OW34252   3.530   3.452  15.735 -0.3735  0.3572 -0.5133
 7598SOL    HW134253   3.616   3.471  15.697 -0.3463 -0.4443 -0.8547
 7598SOL    HW234254   3.566   3.415  15.816  0.4110  2.0705 -0.0814
 7599SOL     OW34255   1.961   0.345   2.887  0.2354 -0.4905  0.4977
 7599SOL    HW134256   1.872   0.317   2.909  0.2724 -1.9383 -1.2045
 7599SOL    HW234257   2.001   0.263   2.860  0.1500 -0.5059  0.4190
 7600SOL     OW34258   1.936   1.249  15.230  0.2334  0.1236  0.3803
 7600SOL    HW134259   1.950   1.338  15.198  0.7879 -0.3205 -0.6148
 7600SOL    HW234260   2.025   1.214  15.240  0.2066 -0.2215 -0.5936
 7601SOL     OW34261   3.662   4.629   7.617  0.1405 -0.7408  0.1055
 7601SOL    HW134262   3.718   4.647   7.541 -0.0254 -0.3239  0.0790
 7601SOL    HW234263   3.614   4.712   7.613  1.4469  0.0343  0.4688
 7602SOL     OW34264   0.740   3.289  16.994 -0.1107  0.0591 -0.5185
 7602SOL    HW134265   0.805   3.337  16.942  0.7960 -1.2343 -0.5736
 7602SOL    HW234266   0.699   3.366  17.034  0.1587 -0.0004 -0.1279
 7603SOL     OW34267   4.333   3.002   7.844  0.1431  0.2594  0.0508
 7603SOL    HW134268   4.255   2.962   7.883  1.7282  1.4141  4.3491
 7603SOL    HW234269   4.381   3.027   7.923 -0.7092  0.0304  0.6445
 7604SOL     OW34270   1.067   0.211   1.625  0.3197 -0.0073  0.1361
 7604SOL    HW134271   0.981   0.173   1.607 -0.5136  1.1064  1.7795
 7604SOL    HW234272   1.045   0.298   1.590  1.1855 -0.2293 -0.9439
 7605SOL     OW34273   3.640   2.094  14.037 -0.1425  0.6855 -0.6421
 7605SOL    HW134274   3.566   2.133  13.990 -0.4657 -0.3579 -1.0037
 7605SOL    HW234275   3.589   2.042  14.098  0.5051 -1.6140 -2.0410
 7606SOL     OW34276   1.877   1.995   8.691  0.2724 -0.3912 -0.6819
 7606SOL    HW134277   1.788   1.960   8.693  1.4327 -3.3555 -1.1584
 7606SOL    HW234278   1.933   1.917   8.689 -2.2844 -2.2833  0.9987
 7607SOL     OW34279   0.055   3.666   5.110 -0.6580 -0.0957  0.0445
 7607SOL    HW134280   0.113   3.613   5.054  0.9106  0.2381  1.3666
 7607SOL    HW234281   0.124   3.700   5.167  0.4701 -0.6260 -0.9795
 7608SOL     OW34282   1.601   2.626   5.514 -0.2737 -0.2475 -0.0073
 7608SOL    HW134283   1.683   2.602   5.470  0.1836 -0.8665  1.1847
 7608SOL    HW234284   1.628   2.692   5.577  0.6926  0.5563 -1.2577
 7609SOL     OW34285   3.000   0.965  13.126 -0.2355 -0.3604 -0.7288
 7609SOL    HW134286   3.058   0.889  13.125  0.9589  0.5468 -0.1755
 7609SOL    HW234287   2.919   0.920  13.101 -2.1030  1.8782  1.2442
 7610SOL     OW34288   3.547   3.503   9.699 -0.2176 -0.4090  0.0274
 7610SOL    HW134289   3.599   3.551   9.764 -0.1556 -0.0503 -0.2887
 7610SOL    HW234290   3.468   3.555   9.705 -0.4345 -1.0877  2.7531
 7611SOL     OW34291   3.723   4.167   4.293  0.1928 -0.0376  0.3397
 7611SOL    HW134292   3.754   4.092   4.243  0.4365 -0.4947  1.1704
 7611SOL    HW234293   3.778   4.154   4.371  1.1172 -0.5315 -0.4010
 7612SOL     OW34294   0.833   1.809   7.343 -0.1997 -0.5422  0.3947
 7612SOL    HW134295   0.839   1.858   7.262  1.8053 -0.8461  0.3592
 7612SOL    HW234296   0.744   1.832   7.371  0.2018  0.0726  1.1574
 7613SOL     OW34297   1.810   4.145   5.188  0.7432  0.3843  0.1401
 7613SOL    HW134298   1.756   4.216   5.224  0.4827 -0.4528  1.4197
 7613SOL    HW234299   1.885   4.184   5.144  0.5468  0.4859 -0.1042
 7614SOL     OW34300   0.676   3.709   8.057  0.4006  0.2598  0.1509
 7614SOL    HW134301   0.681   3.640   8.123 -0.8790  2.1156  2.1835
 7614SOL    HW234302   0.681   3.791   8.107  4.2083  0.0676  0.1353
 7615SOL     OW34303   3.028   0.040   1.805 -0.8348 -0.0407  0.0925
 7615SOL    HW134304   3.123   0.055   1.808 -1.4213  2.8899  3.0194
 7615SOL    HW234305   2.990   0.118   1.845 -1.5272 -0.2566 -0.1546
 7616SOL     OW34306   4.473   0.572  16.741 -0.1718  0.5842  0.3737
 7616SOL    HW134307   4.487   0.496  16.797 -1.3706 -1.4936 -2.1444
 7616SOL    HW234308   4.560   0.611  16.740 -0.4156  1.1326 -0.3212
 7617SOL     OW34309   1.861   3.345  12.701  0.7820 -0.0367 -0.3332
 7617SOL    HW134310   1.795   3.369  12.637  0.5062 -0.5570 -0.2405
 7617SOL    HW234311   1.816   3.363  12.784 -1.2072  1.0555 -1.6443
 7618SOL     OW34312   3.205   3.239  12.940 -0.8629  0.5861 -0.1051
 7618SOL    HW134313   3.271   3.225  13.008  0.1407 -0.2409 -1.2514
 7618SOL    HW234314   3.260   3.264  12.865  1.5523 -0.9765  1.1570
 7619SOL     OW34315   2.569   4.518   9.214 -0.0829  0.0579  0.1086
 7619SOL    HW134316   2.485   4.473   9.229 -0.2684 -0.3920 -2.2938
 7619SOL    HW234317   2.564   4.592   9.274 -0.7355 -1.8954  2.4682
 7620SOL     OW34318   3.308   2.047  17.038  0.4369 -0.4119 -0.1695
 7620SOL    HW134319   3.274   2.081  16.955  0.0887  0.7311  0.4355
 7620SOL    HW234320   3.307   2.117  17.104 -1.6803 -0.0612 -0.5600
 7621SOL     OW34321   2.757   3.208   3.625  0.1632 -0.0779  0.5614
 7621SOL    HW134322   2.826   3.201   3.558  0.5145  0.7577  0.8386
 7621SOL    HW234323   2.754   3.116   3.653  1.9472 -0.7913 -1.5669
 7622SOL     OW34324   2.806   2.544  14.617 -0.0722 -0.4959  0.0893
 7622SOL    HW134325   2.726   2.565  14.569 -0.3084  0.3630  0.8463
 7622SOL    HW234326   2.830   2.636  14.630 -1.3793 -0.2015  0.4222
 7623SOL     OW34327   0.131   3.514   4.492 -0.1620 -0.1510  0.3013
 7623SOL    HW134328   0.060   3.489   4.550  0.2507  1.6518  1.5938
 7623SOL    HW234329   0.075   3.536   4.418  3.0663  1.1293 -1.7755
 7624SOL     OW34330   3.345   0.297   7.621  0.1480 -0.4287 -0.3406
 7624SOL    HW134331   3.426   0.344   7.641 -0.2558  0.2047 -0.2351
 7624SOL    HW234332   3.292   0.326   7.694  0.4281 -1.6275  0.3504
 7625SOL     OW34333   2.672   4.220   5.271  0.2621 -0.4032 -0.1720
 7625SOL    HW134334   2.656   4.315   5.268  1.0499 -0.2262  0.9117
 7625SOL    HW234335   2.743   4.213   5.207  2.2329  0.4929  1.9073
 7626SOL     OW34336   2.667   0.067  10.956  0.1017 -0.0034 -1.0271
 7626SOL    HW134337   2.700   0.108  11.037 -0.0593 -2.7788  0.4283
 7626SOL    HW234338   2.739   0.014  10.924 -0.7783 -0.9423 -1.4399
 7627SOL     OW34339   0.166   3.490   8.533  0.6865  0.6689  0.2636
 7627SOL    HW134340   0.156   3.550   8.459 -0.8072 -1.1147 -0.9705
 7627SOL    HW234341   0.254   3.505   8.567  0.4922 -0.6830  1.3300
 7628SOL     OW34342   3.362   2.932   4.537 -0.0571  0.1665 -0.2817
 7628SOL    HW134343   3.355   3.025   4.517  2.3464 -0.0791 -2.3000
 7628SOL    HW234344   3.271   2.912   4.513  0.5931 -3.6539  0.3895
 7629SOL     OW34345   4.290   2.137   4.344  0.0092  0.0294  0.2553
 7629SOL    HW134346   4.197   2.129   4.323  0.7202 -1.1250 -2.4226
 7629SOL    HW234347   4.292   2.233   4.350  1.6468 -0.0222  0.5454
 7630SOL     OW34348   3.285   1.037   9.901 -0.1414 -0.1142 -0.3453
 7630SOL    HW134349   3.242   1.072   9.979 -2.0684  0.9254 -1.8692
 7630SOL    HW234350   3.215   0.982   9.868 -2.2035  1.1932  1.8387
 7631SOL     OW34351   0.264   2.014   9.167  0.0320  0.4976  0.5612
 7631SOL    HW134352   0.207   2.054   9.234  0.5032  1.5729  0.3280
 7631SOL    HW234353   0.201   1.954   9.128 -0.8160  0.4283  2.0234
 7632SOL     OW34354   4.127   2.048   3.026 -0.0369  0.4074  0.3704
 7632SOL    HW134355   4.067   2.065   3.099 -0.7038 -2.2237  0.4529
 7632SOL    HW234356   4.110   1.954   3.016  1.0428  0.2907 -0.3915
 7633SOL     OW34357   3.919   2.531  10.360  0.1145 -0.4671 -0.1134
 7633SOL    HW134358   3.987   2.505  10.299  1.2668  0.7060  0.6689
 7633SOL    HW234359   3.965   2.563  10.438  0.2270 -1.1213  0.0817
 7634SOL     OW34360   0.798   4.312  13.022  0.9147  0.4779 -0.4495
 7634SOL    HW134361   0.769   4.375  13.089 -1.3711  0.7391 -1.6794
 7634SOL    HW234362   0.740   4.333  12.949 -1.3506 -0.3302  1.1127
 7635SOL     OW34363   1.261   4.413   6.394  0.4978  0.2185  0.8436
 7635SOL    HW134364   1.356   4.419   6.405  0.8461 -2.2862 -0.8150
 7635SOL    HW234365   1.241   4.327   6.358 -0.0620  0.8308 -0.3109
 7636SOL     OW34366   1.746   1.317  10.144  0.2821  0.0024 -0.1909
 7636SOL    HW134367   1.780   1.297  10.057  3.4818 -1.2524  1.3394
 7636SOL    HW234368   1.793   1.262  10.207  0.5352  0.6613  0.1980
 7637SOL     OW34369   0.612   3.348   8.858  0.8113  0.8427 -0.1303
 7637SOL    HW134370   0.559   3.409   8.909 -0.7907 -1.4387  0.9486
 7637SOL    HW234371   0.542   3.298   8.817 -0.6784  1.8885  1.1735
 7638SOL     OW34372   2.918   0.520   1.572 -0.6904  0.3190 -0.0181
 7638SOL    HW134373   2.953   0.607   1.594 -0.7680  0.4754 -0.5128
 7638SOL    HW234374   2.895   0.537   1.480  2.4632  1.3941 -0.5933
 7639SOL     OW34375   1.029   0.038  14.045  0.4136  0.6813  0.5121
 7639SOL    HW134376   1.026   4.700  14.118 -0.2107  0.3655  0.2179
 7639SOL    HW234377   1.095   4.722  13.989  0.4511  1.3141  0.1170
 7640SOL     OW34378   0.394   4.486  13.303 -0.9940  0.1587  0.0127
 7640SOL    HW134379   0.431   4.565  13.265 -2.9881  1.3288  0.5175
 7640SOL    HW234380   0.453   4.468  13.377 -0.6754  1.9157  0.1689
 7641SOL     OW34381   2.647   0.741  14.460  0.1351 -0.0488 -0.0294
 7641SOL    HW134382   2.730   0.698  14.438  0.0551  0.1710 -0.7581
 7641SOL    HW234383   2.672   0.817  14.407  0.4944  0.0860  0.3353
 7642SOL     OW34384   0.194   1.222   6.035 -0.4460  0.2146 -0.5608
 7642SOL    HW134385   0.137   1.163   6.085 -0.0016  1.6252  1.6410
 7642SOL    HW234386   0.254   1.258   6.101 -1.5165  1.5896 -0.3270
 7643SOL     OW34387   2.309   2.972  16.729 -0.2941 -0.1241 -0.4066
 7643SOL    HW134388   2.216   2.957  16.747 -1.0700  5.2961 -0.1212
 7643SOL    HW234389   2.336   2.962  16.821  0.9712  0.5116 -0.7186
 7644SOL     OW34390   3.672   4.509   4.314 -0.5793  0.4053 -0.3805
 7644SOL    HW134391   3.579   4.525   4.329 -0.9780  0.0187 -2.5154
 7644SOL    HW234392   3.712   4.517   4.401  1.2436 -2.4143 -0.9504
 7645SOL     OW34393   1.618   0.941   9.067 -0.4002  0.0061  0.0643
 7645SOL    HW134394   1.572   0.986   9.138 -0.7435 -0.3793  0.0844
 7645SOL    HW234395   1.604   0.998   8.991  0.8519  2.2224  1.4948
 7646SOL     OW34396   2.390   3.658   8.523  0.5334 -0.2692 -0.6135
 7646SOL    HW134397   2.342   3.575   8.513  1.2556 -0.8359  0.6754
 7646SOL    HW234398   2.459   3.647   8.458 -0.0741  0.2828 -1.3554
 7647SOL     OW34399   4.589   2.305   7.588 -0.3143 -0.3698  0.1348
 7647SOL    HW134400   4.507   2.295   7.541 -0.5775 -1.1744  0.7588
 7647SOL    HW234401   4.558   2.318   7.678 -1.1935  0.8394 -0.3459
 7648SOL     OW34402   3.168   4.463   2.274 -0.1008 -0.3620  0.1549
 7648SOL    HW134403   3.236   4.396   2.281 -0.9197 -1.3959 -1.8535
 7648SOL    HW234404   3.218   4.545   2.279  1.8834 -1.5092 -0.8151
 7649SOL     OW34405   1.696   2.701   4.873  0.4488  0.6805  0.3682
 7649SOL    HW134406   1.738   2.787   4.880  0.2154  0.5782  2.8527
 7649SOL    HW234407   1.734   2.671   4.790  1.6182  0.9202  0.8141
 7650SOL     OW34408   2.173   1.597   5.173 -0.0597  0.0103 -0.1679
 7650SOL    HW134409   2.207   1.512   5.144  2.6416  1.1405 -0.3400
 7650SOL    HW234410   2.248   1.654   5.189 -0.4531  0.6240 -0.5155
 7651SOL     OW34411   2.610   0.551   1.212 -0.3224 -0.0015 -0.0128
 7651SOL    HW134412   2.639   0.527   1.124  1.2085  2.6577 -0.2204
 7651SOL    HW234413   2.522   0.511   1.212  0.1707 -1.0707  0.9969
 7652SOL     OW34414   1.591   4.201   8.836  0.2858  0.3312 -0.0548
 7652SOL    HW134415   1.631   4.195   8.923 -1.1112 -1.3849  0.4741
 7652SOL    HW234416   1.536   4.123   8.828  2.1219 -1.3432  3.4611
 7653SOL     OW34417   2.704   4.274   3.991  0.3862  0.5763 -0.1297
 7653SOL    HW134418   2.779   4.224   3.960  1.7495  1.8566  1.1263
 7653SOL    HW234419   2.733   4.273   4.083  0.5963  0.4052 -0.1973
 7654SOL     OW34420   2.960   4.653  16.176  0.4851  0.7321  0.9407
 7654SOL    HW134421   2.989   4.607  16.255 -1.6814 -0.0147  1.3181
 7654SOL    HW234422   2.961   0.022  16.199 -0.8518  1.5488 -2.3922
 7655SOL     OW34423   4.677   2.145   3.893 -0.0838  0.2858 -0.3419
 7655SOL    HW134424   4.605   2.084   3.907  1.8249 -2.0266 -0.7050
 7655SOL    HW234425   4.632   2.218   3.935 -0.0253  0.3172 -0.3337
 7656SOL     OW34426   4.142   0.188   4.397  0.5875 -0.5009 -0.3551
 7656SOL    HW134427   4.093   0.213   4.319  1.3149  1.0921 -0.3132
 7656SOL    HW234428   4.143   0.093   4.398 -1.8541 -0.5220  0.2837
 7657SOL     OW34429   3.486   3.456   2.590  0.6035 -0.3993 -0.7159
 7657SOL    HW134430   3.524   3.525   2.535 -0.0314 -0.1784 -0.8705
 7657SOL    HW234431   3.565   3.405   2.612  0.9942  0.2735 -0.5524
 7658SOL     OW34432   2.796   1.274   5.983 -0.2939 -0.0688 -0.8803
 7658SOL    HW134433   2.758   1.360   5.964 -0.1607 -0.0975 -1.2914
 7658SOL    HW234434   2.758   1.257   6.069  0.4466  0.8499 -0.3809
 7659SOL     OW34435   1.875   4.632   9.309  0.4235  0.2781  0.3768
 7659SOL    HW134436   1.891   4.551   9.261 -0.4586 -1.1136  2.4423
 7659SOL    HW234437   1.806   4.618   9.373 -1.5110  0.0426 -1.7386
 7660SOL     OW34438   1.980   4.105  14.970  0.2522 -0.3927 -0.0458
 7660SOL    HW134439   1.896   4.145  14.992 -0.0166 -1.3799  0.7019
 7660SOL    HW234440   2.034   4.173  15.010 -0.6183 -1.3615  2.7778
 7661SOL     OW34441   0.499   3.869  15.189 -0.4172 -0.9123  0.1117
 7661SOL    HW134442   0.539   3.955  15.176 -1.7666 -0.1054  1.2625
 7661SOL    HW234443   0.533   3.844  15.275 -0.7330  0.4527  0.6253
 7662SOL     OW34444   1.583   0.604   6.923  0.0300 -0.1999  0.0642
 7662SOL    HW134445   1.570   0.576   7.013 -3.4220  0.6622 -0.1522
 7662SOL    HW234446   1.564   0.697   6.935  1.2796  0.3450 -2.2014
 7663SOL     OW34447   4.083   3.451   9.706  0.0691  0.4919  0.1130
 7663SOL    HW134448   4.025   3.387   9.665  1.3406 -1.2099  0.9644
 7663SOL    HW234449   4.030   3.457   9.785  0.7571 -1.2946  0.6986
 7664SOL     OW34450   4.000   4.402  13.055 -0.2261 -0.2485  0.1449
 7664SOL    HW134451   3.956   4.375  13.136 -0.3846 -0.7384 -0.1065
 7664SOL    HW234452   3.963   4.335  12.998  0.4714 -0.6783  0.2017
 7665SOL     OW34453   4.083   3.737   8.740 -0.6765  0.2992  0.0913
 7665SOL    HW134454   4.058   3.723   8.832 -0.4540  2.9478  0.5481
 7665SOL    HW234455   4.176   3.757   8.751 -0.2035 -0.3833 -2.6863
 7666SOL     OW34456   1.396   0.173   2.524 -0.4300 -0.5458 -0.2409
 7666SOL    HW134457   1.402   0.190   2.430  0.1695  0.8750  0.0420
 7666SOL    HW234458   1.388   0.078   2.520  2.9484 -0.9191  1.9045
 7667SOL     OW34459   1.433   4.131   2.974  0.1336 -0.2249 -0.1851
 7667SOL    HW134460   1.460   4.068   2.907 -0.2600  0.1534 -0.6874
 7667SOL    HW234461   1.347   4.162   2.945  0.2273 -0.3278 -0.5699
 7668SOL     OW34462   2.009   2.504   2.649 -0.0615 -0.2616 -0.5189
 7668SOL    HW134463   1.968   2.466   2.572 -0.1598  0.9770 -1.0749
 7668SOL    HW234464   1.975   2.593   2.652  0.1193 -0.1417 -2.0568
 7669SOL     OW34465   4.455   3.878  17.634  0.7345 -0.0558 -0.6215
 7669SOL    HW134466   4.512   3.849   0.009 -2.7701 -0.9706  1.7945
 7669SOL    HW234467   4.519   3.906  17.568  0.5819  1.7610  0.0083
 7670SOL     OW34468   4.517   4.274   1.579  0.1606 -0.3648 -0.3800
 7670SOL    HW134469   4.529   4.195   1.632 -0.5728 -0.7684 -0.8118
 7670SOL    HW234470   4.516   4.340   1.649  0.0087  0.7222 -1.4203
 7671SOL     OW34471   1.915   0.153   3.297  0.5359  0.3758  0.2518
 7671SOL    HW134472   1.978   0.175   3.228  0.7412  0.0383  0.3291
 7671SOL    HW234473   1.842   0.213   3.283 -0.0541 -1.2653 -3.6692
 7672SOL     OW34474   4.119   1.437  17.143 -0.1299  0.3637 -0.1944
 7672SOL    HW134475   4.116   1.425  17.048  2.2319  1.5998 -0.4310
 7672SOL    HW234476   4.025   1.423  17.155 -0.1325  0.3209 -0.2676
 7673SOL     OW34477   4.535   4.619   3.570  0.1333 -0.5047  0.0264
 7673SOL    HW134478   4.561   4.665   3.650 -1.3103 -1.2138  0.8866
 7673SOL    HW234479   4.604   4.552   3.565  0.1865 -0.5594  1.5213
 7674SOL     OW34480   1.394   0.095  12.308 -0.3044 -0.0107 -0.0299
 7674SOL    HW134481   1.486   0.070  12.321  0.3886  2.3410 -0.4871
 7674SOL    HW234482   1.392   0.170  12.367  1.0034 -0.9898  1.2790
 7675SOL     OW34483   4.496   4.256  14.528  0.0018  0.7587  0.2444
 7675SOL    HW134484   4.516   4.336  14.576 -0.7001  0.1265  1.5850
 7675SOL    HW234485   4.462   4.293  14.446  1.9238  1.2663 -0.3095
 7676SOL     OW34486   0.334   4.348   7.138 -0.1440 -0.1929  0.3416
 7676SOL    HW134487   0.357   4.428   7.091  0.5058 -0.8053 -0.3728
 7676SOL    HW234488   0.303   4.381   7.223  0.5757  0.6890  0.2628
 7677SOL     OW34489   3.942   0.005   2.528  0.0585 -0.4455  0.7932
 7677SOL    HW134490   3.887   0.071   2.488 -0.4692 -0.7447  1.0249
 7677SOL    HW234491   3.995   0.056   2.590 -0.6901  2.4927 -1.0003
 7678SOL     OW34492   3.832   2.857   8.701 -0.3302  0.4438 -0.3514
 7678SOL    HW134493   3.807   2.801   8.628 -1.0317 -0.2129  0.3972
 7678SOL    HW234494   3.746   2.885   8.731  0.6234  3.0015  0.0095
 7679SOL     OW34495   2.243   1.457   9.190 -0.4459  0.3809  0.3044
 7679SOL    HW134496   2.326   1.484   9.230  1.1145 -2.1382 -1.2738
 7679SOL    HW234497   2.255   1.362   9.182  0.7261  0.7901 -2.6810
 7680SOL     OW34498   1.494   3.183  10.867  0.6156 -0.3297 -0.3851
 7680SOL    HW134499   1.562   3.134  10.820  0.5819  0.3244 -1.1170
 7680SOL    HW234500   1.540   3.267  10.866 -0.0321  0.0317  0.7770
 7681SOL     OW34501   3.321   4.215  12.641 -0.1800  0.1799  0.0470
 7681SOL    HW134502   3.263   4.270  12.693  0.0415  0.7888 -0.3449
 7681SOL    HW234503   3.403   4.214  12.691  0.5712  2.7443 -1.1041
 7682SOL     OW34504   2.152   1.876   6.244  0.2080  0.5204  0.6781
 7682SOL    HW134505   2.124   1.949   6.301  0.7929 -1.1452  3.1039
 7682SOL    HW234506   2.245   1.891   6.229  0.3428 -1.2099 -0.1372
 7683SOL     OW34507   4.288   2.328  16.438 -0.0102 -0.1880  0.1513
 7683SOL    HW134508   4.293   2.277  16.357  1.7542  0.4004 -0.1155
 7683SOL    HW234509   4.274   2.411  16.393 -2.6257  0.1573  1.6075
 7684SOL     OW34510   2.447   2.786  12.020  0.2014  0.6325 -0.8075
 7684SOL    HW134511   2.436   2.702  11.975 -0.7528 -0.3376  1.2533
 7684SOL    HW234512   2.477   2.839  11.946  2.1156  0.8476  0.1334
 7685SOL     OW34513   2.281   4.207  11.180 -0.1040 -0.2143  0.0091
 7685SOL    HW134514   2.299   4.261  11.257  0.1422 -0.3225  0.0292
 7685SOL    HW234515   2.251   4.265  11.110 -0.0195 -0.0541  0.1037
 7686SOL     OW34516   2.722   2.850  14.594 -0.3294  0.2900 -0.5963
 7686SOL    HW134517   2.760   2.886  14.514  0.4241  0.3240 -0.2207
 7686SOL    HW234518   2.642   2.807  14.561  0.1741  0.1360 -1.6071
 7687SOL     OW34519   2.293   0.665  10.375 -0.2347 -0.4669  0.5593
 7687SOL    HW134520   2.331   0.595  10.429  0.3807 -0.5697 -0.0192
 7687SOL    HW234521   2.250   0.713  10.446 -1.2100 -0.0458 -0.3173
 7688SOL     OW34522   1.956   1.266   7.178 -0.5027 -0.0429 -0.5471
 7688SOL    HW134523   2.019   1.270   7.106  1.0599 -2.1879  0.7174
 7688SOL    HW234524   1.878   1.255   7.123 -0.4424 -1.4517 -0.3479
 7689SOL     OW34525   1.509   1.152   5.870  0.3143 -0.4302  0.6672
 7689SOL    HW134526   1.498   1.227   5.929 -0.6260 -0.4395  0.5035
 7689SOL    HW234527   1.496   1.194   5.785  0.4906 -1.9699 -0.1162
 7690SOL     OW34528   2.760   3.497   3.347 -0.0008 -0.3696  0.3722
 7690SOL    HW134529   2.831   3.548   3.387  0.1172  0.6517 -1.1623
 7690SOL    HW234530   2.811   3.419   3.324 -0.2218 -0.3952 -0.0399
 7691SOL     OW34531   1.856   1.663   6.654  0.1543  0.3055  0.3574
 7691SOL    HW134532   1.840   1.586   6.599 -2.7860  1.6993 -0.7263
 7691SOL    HW234533   1.832   1.739   6.601 -0.8977 -0.8732 -0.8434
 7692SOL     OW34534   2.760   0.151   7.959 -0.1978  0.1026  0.1247
 7692SOL    HW134535   2.735   0.076   7.906  0.8262  0.2823 -0.6093
 7692SOL    HW234536   2.849   0.125   7.981 -0.4708  0.3201  1.5284
 7693SOL     OW34537   4.458   0.613   4.830 -0.0756  0.0713  0.1337
 7693SOL    HW134538   4.412   0.571   4.758 -0.5349  3.8629 -1.8192
 7693SOL    HW234539   4.398   0.594   4.903 -0.1905  1.5979  0.4384
 7694SOL     OW34540   2.040   4.226   3.551  0.5271  0.2117  0.1346
 7694SOL    HW134541   2.026   4.318   3.528 -1.4514 -0.3024 -0.7573
 7694SOL    HW234542   2.077   4.224   3.639  0.4514 -1.1013  0.1417
 7695SOL     OW34543   2.459   2.845   2.181 -0.9232 -0.2910  0.7847
 7695SOL    HW134544   2.508   2.888   2.110 -2.1205 -1.8118 -0.9612
 7695SOL    HW234545   2.528   2.801   2.230  1.7563  1.8700 -1.0274
 7696SOL     OW34546   2.896   0.394  17.178  0.8266 -0.3640  0.0651
 7696SOL    HW134547   2.865   0.463  17.120  0.5939 -1.1389 -0.7321
 7696SOL    HW234548   2.843   0.412  17.255 -0.0785 -2.6430 -0.0116
 7697SOL     OW34549   0.670   4.415   6.881 -0.6480  0.3888 -0.3446
 7697SOL    HW134550   0.633   4.330   6.856 -3.2042  0.2576  3.9773
 7697SOL    HW234551   0.648   4.469   6.805 -1.9421  0.2701 -0.0556
 7698SOL     OW34552   1.036   0.977  12.133 -0.0836  0.2531  0.4839
 7698SOL    HW134553   0.999   0.917  12.068  1.0745 -0.3779  0.4028
 7698SOL    HW234554   1.044   1.058  12.082 -0.1353 -1.8743 -2.9343
 7699SOL     OW34555   2.645   1.295   2.042  0.0756 -0.4870 -0.4475
 7699SOL    HW134556   2.737   1.323   2.047  0.4098 -2.0482  2.1058
 7699SOL    HW234557   2.648   1.257   1.954  1.5844  0.7204 -0.9271
 7700SOL     OW34558   0.318   1.469   5.041  0.4322  0.2266 -0.3055
 7700SOL    HW134559   0.261   1.397   5.014 -0.8412  0.8228  0.7861
 7700SOL    HW234560   0.401   1.423   5.040  0.5565  0.4103  0.8783
 7701SOL     OW34561   0.532   4.207   2.681 -0.0462  0.4453  0.5251
 7701SOL    HW134562   0.464   4.190   2.616 -0.5589  1.5164  0.7876
 7701SOL    HW234563   0.565   4.295   2.665  0.5085  0.3992  1.4053
 7702SOL     OW34564   3.682   2.797  10.871  0.3155 -0.0437 -0.3575
 7702SOL    HW134565   3.686   2.854  10.794  2.1634  0.7234  0.3243
 7702SOL    HW234566   3.750   2.736  10.841 -0.2831 -0.0985 -1.6406
 7703SOL     OW34567   3.095   4.241   7.551 -0.0697  0.5544  0.1657
 7703SOL    HW134568   3.057   4.246   7.639 -1.2079  1.6953 -0.4046
 7703SOL    HW234569   3.141   4.325   7.552 -0.7976  0.9562 -0.3232
 7704SOL     OW34570   0.957   0.079   9.758 -0.0137  0.0373 -0.2991
 7704SOL    HW134571   0.973   0.156   9.813  0.6531 -0.9410  0.8688
 7704SOL    HW234572   0.863   0.077   9.739 -0.1183  1.8701  0.0359
 7705SOL     OW34573   1.381   4.337   8.069 -0.4887 -0.2425 -0.2900
 7705SOL    HW134574   1.424   4.393   8.134  0.6010 -0.6154 -0.6738
 7705SOL    HW234575   1.433   4.350   7.989 -0.1747 -1.8406 -0.3655
 7706SOL     OW34576   3.655   2.881   5.636 -0.4299  0.0363  0.9937
 7706SOL    HW134577   3.736   2.843   5.602  0.1184  0.0982  2.2337
 7706SOL    HW234578   3.688   2.937   5.706 -3.6401 -0.1981  2.6685
 7707SOL     OW34579   1.709   1.932   8.959 -0.1923 -0.1829 -0.2924
 7707SOL    HW134580   1.693   1.841   8.984  1.1016  0.2750  2.1927
 7707SOL    HW234581   1.691   1.937   8.865 -0.1393 -2.8907 -0.4286
 7708SOL     OW34582   4.087   3.863  16.693  0.6100  0.4932  0.1786
 7708SOL    HW134583   4.181   3.860  16.712  1.3206  0.3994 -3.4260
 7708SOL    HW234584   4.086   3.882  16.599  0.2638 -2.0167 -0.2979
 7709SOL     OW34585   2.870   1.588   9.121  0.9691 -0.2204  0.0170
 7709SOL    HW134586   2.921   1.602   9.200 -1.8299  1.7604  1.4846
 7709SOL    HW234587   2.843   1.500   9.146  0.8198 -0.0350  0.4972
 7710SOL     OW34588   3.545   2.928   8.158  0.2961  0.6475  0.1832
 7710SOL    HW134589   3.497   3.000   8.199  1.5349  1.4681  0.1914
 7710SOL    HW234590   3.557   2.980   8.079 -4.0800 -0.0122 -0.9167
 7711SOL     OW34591   3.975   0.947  13.709 -0.4690  0.5063 -0.0773
 7711SOL    HW134592   3.973   0.894  13.789 -2.2389  2.5266  1.2110
 7711SOL    HW234593   4.042   0.896  13.663  0.9481  0.9230  1.5070
 7712SOL     OW34594   4.072   3.407   2.766 -0.3699 -0.5587 -0.1808
 7712SOL    HW134595   4.068   3.393   2.671  0.8804  1.4979 -0.5292
 7712SOL    HW234596   4.149   3.463   2.771 -0.7888 -0.1116  1.2123
 7713SOL     OW34597   3.866   3.262   8.300  0.7469  0.1574  0.0872
 7713SOL    HW134598   3.832   3.323   8.365  1.4720  2.2409 -1.4968
 7713SOL    HW234599   3.846   3.302   8.216  0.2942 -1.2013 -0.4490
 7714SOL     OW34600   3.235   2.645  10.317 -0.3461  0.5079  0.1204
 7714SOL    HW134601   3.256   2.596  10.397 -1.5373  1.7453  1.1892
 7714SOL    HW234602   3.200   2.729  10.347 -1.0870  0.7326 -1.3868
 7715SOL     OW34603   2.901   1.521   2.609  0.0328 -0.6534 -0.7184
 7715SOL    HW134604   2.987   1.523   2.567  0.2807  0.0618 -0.1588
 7715SOL    HW234605   2.837   1.532   2.538  1.4590 -0.5924 -1.9971
 7716SOL     OW34606   0.127   4.062   8.267  0.8225 -0.0992 -0.2120
 7716SOL    HW134607   0.105   4.155   8.272  2.5209  0.4439 -2.9911
 7716SOL    HW234608   0.049   4.032   8.313  0.1472  3.3759  0.8793
 7717SOL     OW34609   3.936   4.007  16.086  0.6932  0.1628 -0.1514
 7717SOL    HW134610   3.844   4.000  16.115  0.9881 -1.6164  0.3678
 7717SOL    HW234611   3.957   3.923  16.126 -0.7432  0.8776  2.1303
 7718SOL     OW34612   1.843   3.280  13.010 -0.6180  0.6478 -0.3966
 7718SOL    HW134613   1.751   3.292  13.030  0.1560 -0.3141  3.7328
 7718SOL    HW234614   1.880   3.368  13.010  0.0162  0.3874 -0.1404
 7719SOL     OW34615   2.025   3.559   7.013 -0.0309  0.1661 -0.0398
 7719SOL    HW134616   2.001   3.499   6.943  0.4155  3.2424 -2.8520
 7719SOL    HW234617   2.034   3.642   6.965  2.6472 -0.9072 -1.4059
 7720SOL     OW34618   4.513   0.600  10.045 -0.4130  0.5563  0.4022
 7720SOL    HW134619   4.456   0.677  10.044  0.2730  1.0460 -0.7944
 7720SOL    HW234620   4.593   0.642  10.076 -2.2304  2.9458  1.8437
 7721SOL     OW34621   4.017   1.500   7.140  0.1392  0.3728  0.1078
 7721SOL    HW134622   4.063   1.578   7.111  0.1611 -0.9173 -3.3220
 7721SOL    HW234623   3.927   1.529   7.149 -0.3662 -0.9014 -0.9066
 7722SOL     OW34624   3.712   2.422   2.113 -0.1536 -0.2504 -0.4848
 7722SOL    HW134625   3.633   2.464   2.078 -0.2352 -0.1151 -0.1371
 7722SOL    HW234626   3.676   2.352   2.168  1.0007  1.6345  2.6697
 7723SOL     OW34627   0.579   2.564   3.367 -0.2418 -0.4347 -0.8382
 7723SOL    HW134628   0.625   2.558   3.283 -2.1981 -0.1464 -1.9347
 7723SOL    HW234629   0.589   2.484   3.418  0.7909  0.6298  0.6578
 7724SOL     OW34630   0.266   0.054   4.783 -0.5201 -0.1813 -0.4638
 7724SOL    HW134631   0.185   0.106   4.782 -1.1351 -1.1157  0.4471
 7724SOL    HW234632   0.273   0.030   4.691 -2.4108 -1.7734 -0.2029
 7725SOL     OW34633   1.864   1.334  13.254 -0.3903 -0.1944 -0.7178
 7725SOL    HW134634   1.823   1.378  13.328  0.4488 -1.9480  0.7700
 7725SOL    HW234635   1.917   1.406  13.219  1.2092 -0.9736  0.1286
 7726SOL     OW34636   4.615   4.324   2.512  0.8021  0.2303  0.2359
 7726SOL    HW134637   4.635   4.403   2.562  0.8536 -0.5381  1.4245
 7726SOL    HW234638   4.553   4.360   2.447 -0.1589 -2.6500 -0.4271
 7727SOL     OW34639   2.978   3.091  15.999  0.7020  0.6166 -0.6014
 7727SOL    HW134640   2.895   3.108  16.044 -0.2061 -3.2518 -0.7637
 7727SOL    HW234641   2.958   3.017  15.941 -0.2824  0.9251 -0.6572
 7728SOL     OW34642   3.922   2.159  10.758 -0.2742 -0.2758 -0.3373
 7728SOL    HW134643   3.852   2.147  10.693  1.1759 -3.9879 -1.1977
 7728SOL    HW234644   3.882   2.215  10.824 -0.6852 -1.9924  0.8569
 7729SOL     OW34645   1.292   0.611   2.454  0.6429  0.0130 -0.9437
 7729SOL    HW134646   1.365   0.576   2.505  2.0631  2.5694 -1.2305
 7729SOL    HW234647   1.340   0.661   2.389  1.4693  0.5395  0.0637
 7730SOL     OW34648   4.361   3.563   2.358  0.2367 -0.1811  0.1287
 7730SOL    HW134649   4.445   3.581   2.317  0.5932 -4.3751 -0.9389
 7730SOL    HW234650   4.311   3.514   2.294 -2.0254 -0.5557  2.1772
 7731SOL     OW34651   1.130   0.432   4.074  0.1130 -0.3183  0.6604
 7731SOL    HW134652   1.113   0.472   3.989 -0.1260  1.5704  1.6020
 7731SOL    HW234653   1.040   0.442   4.106  0.2729 -0.4345  1.1365
 7732SOL     OW34654   0.257   2.036   1.280  0.7500 -0.0019  0.1750
 7732SOL    HW134655   0.274   2.039   1.375 -1.3129 -0.8162  0.5648
 7732SOL    HW234656   0.345   2.066   1.258  0.1591  0.8651 -0.9653
 7733SOL     OW34657   2.771   4.627   2.404  0.4674 -0.4747 -0.4330
 7733SOL    HW134658   2.748   4.660   2.317  0.3848 -0.3737 -0.3733
 7733SOL    HW234659   2.738   4.538   2.394 -1.5173  0.2217 -0.1963
 7734SOL     OW34660   2.922   2.602   9.546 -0.2947 -0.6110 -0.4788
 7734SOL    HW134661   2.911   2.681   9.493 -0.7216 -0.9479 -0.8942
 7734SOL    HW234662   2.831   2.572   9.544 -1.1714  2.0199 -1.2415
 7735SOL     OW34663   3.445   3.498   4.376  0.0973 -0.2489 -0.2728
 7735SOL    HW134664   3.496   3.546   4.309 -1.1604  0.9689 -0.3574
 7735SOL    HW234665   3.496   3.417   4.372 -0.5163 -0.6785  0.7380
 7736SOL     OW34666   4.429   0.232   2.013  0.4398  0.4020 -0.2783
 7736SOL    HW134667   4.404   0.324   2.015 -0.8294  0.0544  0.1534
 7736SOL    HW234668   4.491   0.222   1.941  0.7796  0.2222  0.0419
 7737SOL     OW34669   0.953   1.314  13.099 -0.3813  0.2746 -0.6286
 7737SOL    HW134670   0.964   1.219  13.109 -2.1495  0.4622  3.3979
 7737SOL    HW234671   0.982   1.343  13.186  0.2273  2.2295 -1.4863
 7738SOL     OW34672   0.301   3.371  13.841 -0.0345 -0.4007  0.0759
 7738SOL    HW134673   0.232   3.332  13.788 -1.8194 -0.9712  2.7900
 7738SOL    HW234674   0.295   3.317  13.920  1.8344 -0.9007 -0.1290
 7739SOL     OW34675   0.959   1.645   2.887 -0.8736 -0.1181 -0.4306
 7739SOL    HW134676   1.039   1.598   2.912 -0.1872 -0.8776 -3.9770
 7739SOL    HW234677   0.901   1.569   2.877  0.8772 -1.6964  1.1796
 7740SOL     OW34678   4.241   2.359   2.097  0.2167  0.1729 -0.3492
 7740SOL    HW134679   4.156   2.402   2.108  1.3131  2.3760 -0.5163
 7740SOL    HW234680   4.213   2.267   2.095 -0.9178  0.5375 -1.3844
 7741SOL     OW34681   0.314   0.120   4.073  0.7235 -0.3704 -0.0720
 7741SOL    HW134682   0.254   0.061   4.027 -0.0954  0.0996  0.4010
 7741SOL    HW234683   0.389   0.114   4.014  0.4787 -1.5277 -0.2744
 7742SOL     OW34684   4.363   0.926   5.881  0.3109 -0.1228 -0.2901
 7742SOL    HW134685   4.332   1.013   5.854  3.0109  1.4239  1.6209
 7742SOL    HW234686   4.456   0.949   5.880  0.0455  1.0301  0.7378
 7743SOL     OW34687   0.337   4.325   5.180  0.8647  0.3903  0.0479
 7743SOL    HW134688   0.362   4.233   5.188  0.4054  0.2728  0.1040
 7743SOL    HW234689   0.423   4.366   5.194  0.5646  1.2031 -0.5213
 7744SOL     OW34690   0.389   1.040   6.005  0.7632 -0.2013  0.0128
 7744SOL    HW134691   0.356   0.977   6.069  0.1524  1.2872  1.1817
 7744SOL    HW234692   0.311   1.093   5.989  0.7938  0.6213  2.5804
 7745SOL     OW34693   2.572   3.047   9.460 -0.2014  0.1009  0.0970
 7745SOL    HW134694   2.522   2.985   9.514  1.8881 -0.9650  0.7982
 7745SOL    HW234695   2.519   3.057   9.381 -2.7880 -2.4505  1.4978
 7746SOL     OW34696   3.140   2.062   4.437  0.0883  0.4735  0.1569
 7746SOL    HW134697   3.150   1.970   4.461  1.7866  0.3645 -0.9699
 7746SOL    HW234698   3.051   2.080   4.408  1.1588  2.1795 -2.0626
 7747SOL     OW34699   3.183   1.010   5.489 -0.0941 -0.0283 -0.0632
 7747SOL    HW134700   3.249   1.057   5.437 -0.5710  0.2763 -0.3870
 7747SOL    HW234701   3.234   0.966   5.557 -1.6957 -0.7284  0.6589
 7748SOL     OW34702   4.147   1.560   4.156 -0.6641 -0.2283  0.5326
 7748SOL    HW134703   4.098   1.480   4.171 -0.6376 -0.7396 -2.1242
 7748SOL    HW234704   4.148   1.604   4.241 -0.3788  0.1896  0.3121
 7749SOL     OW34705   3.137   2.669   4.873  0.4462 -0.8200  0.1152
 7749SOL    HW134706   3.134   2.638   4.783 -0.5573  0.9144 -0.4499
 7749SOL    HW234707   3.167   2.759   4.860 -0.3786 -0.1377  2.8242
 7750SOL     OW34708   0.178   0.106   6.888  0.0619  0.2253 -0.1937
 7750SOL    HW134709   0.203   0.089   6.979  0.4590  0.9340 -0.1696
 7750SOL    HW234710   0.240   0.177   6.871  2.1563 -0.8935  2.8512
 7751SOL     OW34711   3.996   2.685   7.144  0.6613 -0.1458 -0.5599
 7751SOL    HW134712   4.092   2.685   7.136  0.5311  0.2971 -2.2439
 7751SOL    HW234713   3.978   2.678   7.237 -0.5301 -0.7754 -0.8365
 7752SOL     OW34714   1.218   3.974  10.180 -0.4509 -0.1484  0.6676
 7752SOL    HW134715   1.131   4.009  10.159 -0.4215  0.4749  1.5614
 7752SOL    HW234716   1.259   4.054  10.214 -0.8101  1.2537 -2.1208
 7753SOL     OW34717   3.027   2.655   1.565 -0.2863  0.3862  0.5903
 7753SOL    HW134718   3.109   2.669   1.517 -0.4789 -3.0016 -0.7270
 7753SOL    HW234719   2.975   2.732   1.541  0.2097  0.2644 -0.9251
 7754SOL     OW34720   0.899   0.878   5.542 -0.0835 -0.2908  0.2940
 7754SOL    HW134721   0.965   0.809   5.541 -1.2738 -1.3795 -1.3979
 7754SOL    HW234722   0.938   0.926   5.615 -1.6989 -0.6669  1.3973
 7755SOL     OW34723   3.258   2.341   9.189 -0.6678 -0.4928  0.1207
 7755SOL    HW134724   3.292   2.252   9.188 -1.5875 -0.8376 -0.1131
 7755SOL    HW234725   3.257   2.361   9.283 -0.6368  3.6491 -0.7243
 7756SOL     OW34726   4.029   3.469   4.945  0.4206 -0.4993 -0.2543
 7756SOL    HW134727   4.044   3.534   5.014 -0.5764  0.1270 -0.6226
 7756SOL    HW234728   3.934   3.469   4.930  0.1568  1.6410  1.3827
 7757SOL     OW34729   3.229   1.784   7.224  0.1500 -0.2509 -0.4650
 7757SOL    HW134730   3.264   1.810   7.310 -2.2739  2.9052 -0.4177
 7757SOL    HW234731   3.171   1.714   7.253 -0.4026  0.0843 -0.7690
 7758SOL     OW34732   4.228   1.403   5.847  0.0322 -0.1134 -0.2743
 7758SOL    HW134733   4.137   1.432   5.841  0.1963  0.6577  1.0428
 7758SOL    HW234734   4.226   1.310   5.824  0.9816 -0.1249 -0.3343
 7759SOL     OW34735   1.056   3.206   7.118  0.0245  0.0839 -1.0664
 7759SOL    HW134736   1.139   3.168   7.147  1.0960  2.8043 -0.6114
 7759SOL    HW234737   1.046   3.179   7.027 -0.7838 -1.4241 -0.5286
 7760SOL     OW34738   3.535   4.012   9.452 -0.2388  0.0418 -0.1662
 7760SOL    HW134739   3.461   4.019   9.392 -1.6880 -1.9526  1.3707
 7760SOL    HW234740   3.594   4.076   9.413  1.1114 -0.2337  1.4028
 7761SOL     OW34741   0.395   2.731   4.211  0.0329 -0.1758  0.3696
 7761SOL    HW134742   0.405   2.646   4.170 -0.0556  0.0889 -0.1959
 7761SOL    HW234743   0.388   2.791   4.137 -0.4960  1.0764  1.4229
 7762SOL     OW34744   4.525   4.576   4.503 -0.4825 -0.1884 -0.2251
 7762SOL    HW134745   4.541   4.506   4.440 -1.5880 -0.4160 -0.2644
 7762SOL    HW234746   4.501   4.641   4.436  1.4775 -1.5881 -2.2845
 7763SOL     OW34747   2.676   2.108  11.255  0.3113 -0.6208  0.4370
 7763SOL    HW134748   2.689   2.193  11.297 -0.1374  0.2803 -1.2512
 7763SOL    HW234749   2.719   2.115  11.170  2.0111  1.3736  1.4629
 7764SOL     OW34750   4.706   2.306   5.676 -0.0050 -0.1293 -0.2961
 7764SOL    HW134751   0.016   2.229   5.631 -2.1455 -0.5623 -1.1955
 7764SOL    HW234752   0.029   2.388   5.659  0.5928 -0.6141 -0.9664
 7765SOL     OW34753   0.324   0.048   6.135  0.1815 -0.8440 -0.1764
 7765SOL    HW134754   0.252   0.051   6.072  0.5602  0.9230 -0.5305
 7765SOL    HW234755   0.393   0.079   6.077  0.6920  0.0428  0.8826
 7766SOL     OW34756   0.735   0.852  12.015  0.6650 -0.5400  0.0306
 7766SOL    HW134757   0.744   0.824  12.106  1.6919  0.0696  0.1118
 7766SOL    HW234758   0.676   0.782  11.987  1.2811 -0.5767 -1.1874
 7767SOL     OW34759   3.921   1.834  17.561  0.0338  0.4216  0.2726
 7767SOL    HW134760   3.894   1.920  17.594 -0.0392 -0.1044  1.6135
 7767SOL    HW234761   4.012   1.830  17.592 -0.0767 -2.2581  0.2257
 7768SOL     OW34762   0.482   4.175   3.441 -0.6024 -0.0233 -0.1380
 7768SOL    HW134763   0.472   4.093   3.392  0.2020 -1.4797  2.1778
 7768SOL    HW234764   0.559   4.153   3.494 -0.7445 -2.2540 -0.8670
 7769SOL     OW34765   3.147   3.721   2.280 -0.0337  0.6941  0.1781
 7769SOL    HW134766   3.093   3.646   2.255  0.4408 -0.5286  2.8359
 7769SOL    HW234767   3.108   3.784   2.220  0.5987 -0.4739 -1.4685
 7770SOL     OW34768   1.509   3.495   2.779  0.0592  0.2996 -0.2637
 7770SOL    HW134769   1.521   3.460   2.866 -0.1580  1.1636  0.1199
 7770SOL    HW234770   1.414   3.505   2.783  0.2797  2.3407  0.1455
 7771SOL     OW34771   1.965   3.553  11.605  0.2282 -0.4625 -0.4906
 7771SOL    HW134772   1.938   3.607  11.531 -1.4921 -1.3464 -0.4985
 7771SOL    HW234773   2.057   3.542  11.581 -0.1362 -1.9410 -1.1702
 7772SOL     OW34774   4.209   3.655   2.570 -0.3880  0.3100 -0.2315
 7772SOL    HW134775   4.127   3.679   2.527 -0.1256 -0.4915 -1.1734
 7772SOL    HW234776   4.257   3.607   2.503  0.1837  0.2831  0.1982
 7773SOL     OW34777   2.813   4.036   1.504  0.3652 -0.3317 -0.0638
 7773SOL    HW134778   2.729   4.080   1.505 -0.2979 -1.5616 -0.8189
 7773SOL    HW234779   2.869   4.110   1.483 -0.8456  0.8673  0.9876
 7774SOL     OW34780   0.874   0.827   2.853  0.5227 -0.5352  0.2576
 7774SOL    HW134781   0.855   0.830   2.947  0.8681 -2.3161  0.3910
 7774SOL    HW234782   0.941   0.759   2.845 -0.3179 -1.5484  1.9545
 7775SOL     OW34783   3.651   4.536  14.890 -0.3432  0.8731 -0.0592
 7775SOL    HW134784   3.606   4.483  14.956  1.0919  1.7155  1.6177
 7775SOL    HW234785   3.745   4.529  14.906 -0.6002  0.0473  1.0856
 7776SOL     OW34786   0.030   4.476  10.820 -0.4892 -0.3934  0.3270
 7776SOL    HW134787   0.051   4.496  10.911  0.9072  0.3581 -0.1583
 7776SOL    HW234788   4.704   4.395  10.835 -1.5842  0.4184  1.0313
 7777SOL     OW34789   0.760   2.862  12.865  0.3121 -0.0727  0.3133
 7777SOL    HW134790   0.779   2.911  12.945  0.4929  0.1434  0.1377
 7777SOL    HW234791   0.708   2.922  12.812  0.4430 -0.9596 -0.8097
 7778SOL     OW34792   1.876   1.814   6.368  0.2891  0.1000  0.9795
 7778SOL    HW134793   1.835   1.891   6.329  0.5918 -1.2436 -2.0601
 7778SOL    HW234794   1.966   1.841   6.385  1.1469 -1.9375 -0.2458
 7779SOL     OW34795   1.513   3.240   5.783  0.2055  0.3614 -0.1891
 7779SOL    HW134796   1.461   3.189   5.845 -0.0882 -0.3105 -0.9846
 7779SOL    HW234797   1.598   3.246   5.827 -0.4690 -1.9325  1.4474
 7780SOL     OW34798   4.274   0.499  14.350 -0.1435  0.7525  0.7156
 7780SOL    HW134799   4.360   0.468  14.377  0.3855  1.2777 -0.3755
 7780SOL    HW234800   4.286   0.512  14.256 -3.5157  0.2041  0.2024
 7781SOL     OW34801   0.924   4.442   6.027 -0.0645  0.4062 -0.8192
 7781SOL    HW134802   0.954   4.366   5.977  0.1171 -0.6274  0.8434
 7781SOL    HW234803   0.938   4.505   5.957  1.2118  1.5612  0.4624
 7782SOL     OW34804   1.688   0.584  14.482  0.1644 -0.1371  0.2842
 7782SOL    HW134805   1.745   0.627  14.545 -2.0906  1.9009  0.9256
 7782SOL    HW234806   1.611   0.593  14.538 -0.2451 -0.0440 -0.2955
 7783SOL     OW34807   1.320   2.532   2.893 -0.3654 -0.2572 -0.7273
 7783SOL    HW134808   1.237   2.539   2.846 -1.3106  0.7787  1.1111
 7783SOL    HW234809   1.288   2.492   2.974 -0.5259 -0.1137 -0.7209
 7784SOL     OW34810   2.469   0.468   0.890 -0.3305 -0.2348  0.2811
 7784SOL    HW134811   2.475   0.410   0.814  2.5993 -1.1243  1.1946
 7784SOL    HW234812   2.562   0.490   0.894 -0.5016  0.0566  2.6536
 7785SOL     OW34813   0.112   0.712   1.312  0.2455 -0.3134  0.5735
 7785SOL    HW134814   0.144   0.750   1.394  0.7852 -1.8840  1.0938
 7785SOL    HW234815   0.017   0.715   1.317  0.3304  1.3678  0.9945
 7786SOL     OW34816   2.271   0.247   3.433 -0.0126 -0.1577 -0.0484
 7786SOL    HW134817   2.334   0.235   3.362 -0.9423 -1.4039 -0.6602
 7786SOL    HW234818   2.271   0.155   3.460 -0.0396  0.3820  1.8619
 7787SOL     OW34819   0.186   3.981   7.292 -0.0190  0.4259 -0.2360
 7787SOL    HW134820   0.255   4.031   7.335  1.8619 -0.5681 -2.0867
 7787SOL    HW234821   0.233   3.912   7.245 -0.1739 -0.8948  1.5563
 7788SOL     OW34822   2.997   0.774   1.716 -0.0884  0.1364 -0.1019
 7788SOL    HW134823   2.977   0.803   1.805  0.0258  0.6789 -0.2522
 7788SOL    HW234824   3.084   0.737   1.727 -0.5677 -1.3846 -1.4316
 7789SOL     OW34825   3.675   4.197   9.340 -0.1689 -0.4419  0.2488
 7789SOL    HW134826   3.751   4.145   9.315  0.9263  1.4552 -0.3498
 7789SOL    HW234827   3.702   4.247   9.417 -0.0034  0.1390 -0.1816
 7790SOL     OW34828   4.689   2.195   9.936 -0.0470  0.5034 -0.1563
 7790SOL    HW134829   4.692   2.100   9.944 -0.3275  0.7003  2.2847
 7790SOL    HW234830   4.595   2.208   9.924  0.1586  1.1318 -1.0310
 7791SOL     OW34831   3.773   2.142   4.156  0.3893  0.3729 -0.3952
 7791SOL    HW134832   3.866   2.128   4.143  0.4822  1.7004 -1.2521
 7791SOL    HW234833   3.729   2.132   4.071  0.0749 -0.5218 -0.1235
 7792SOL     OW34834   0.453   1.699   6.579  0.4970  0.5841 -0.1164
 7792SOL    HW134835   0.484   1.641   6.509  0.4922 -1.9239  1.9533
 7792SOL    HW234836   0.461   1.779   6.528 -1.9225  1.6487  1.2102
 7793SOL     OW34837   3.445   2.010  16.414 -0.2961 -0.2929 -0.0166
 7793SOL    HW134838   3.424   2.052  16.498  1.0225 -0.3791  0.3465
 7793SOL    HW234839   3.394   2.066  16.355 -0.2707  1.2187  1.4005
 7794SOL     OW34840   3.239   1.657   8.992 -0.3115  0.2450 -0.2457
 7794SOL    HW134841   3.172   1.724   8.983 -1.0689 -0.6286 -1.0451
 7794SOL    HW234842   3.237   1.633   9.085 -2.1212  1.6590  0.0865
 7795SOL     OW34843   3.492   0.572   0.262 -0.2331 -0.1738 -0.0936
 7795SOL    HW134844   3.438   0.647   0.240 -1.0142  0.0895  2.8278
 7795SOL    HW234845   3.482   0.531   0.176 -3.0832  1.3547 -0.4783
 7796SOL     OW34846   4.472   1.520  13.448 -0.6739 -0.1432  0.0146
 7796SOL    HW134847   4.378   1.527  13.463 -0.6986  0.1181 -0.2493
 7796SOL    HW234848   4.469   1.424  13.445 -1.9764 -0.1657  1.8846
 7797SOL     OW34849   0.967   3.254   7.765 -0.3680 -0.2744 -0.6481
 7797SOL    HW134850   0.889   3.202   7.784 -0.5264 -0.2939 -1.3506
 7797SOL    HW234851   0.963   3.263   7.670 -1.0894  1.9688 -0.3914
 7798SOL     OW34852   1.288   2.976   5.798 -0.0866  0.0859  0.1284
 7798SOL    HW134853   1.321   3.009   5.882  0.4468 -1.5552  0.5663
 7798SOL    HW234854   1.318   2.885   5.789 -0.1491 -0.3044  3.7433
 7799SOL     OW34855   3.970   1.440  11.747 -0.1857  0.3893  0.0265
 7799SOL    HW134856   4.025   1.368  11.777 -0.1507 -0.2062 -1.4547
 7799SOL    HW234857   3.982   1.510  11.811 -1.8117 -0.1516  0.9433
 7800SOL     OW34858   0.474   2.503   6.565 -0.3342 -0.3907 -0.7323
 7800SOL    HW134859   0.473   2.597   6.547  0.9578 -0.4515 -1.1221
 7800SOL    HW234860   0.525   2.497   6.645 -3.1860  3.7220  1.4148
 7801SOL     OW34861   3.810   2.020  10.509 -0.2204  0.2203  0.2862
 7801SOL    HW134862   3.731   1.977  10.541  0.7335 -1.8300 -0.0876
 7801SOL    HW234863   3.787   2.043  10.419  0.0861  0.6111  0.3055
 7802SOL     OW34864   0.732   1.573   4.285  0.5007 -0.0206 -0.1859
 7802SOL    HW134865   0.757   1.624   4.208  1.7070 -0.5565 -0.1452
 7802SOL    HW234866   0.822   1.564   4.317 -0.3086 -0.6977  1.9287
 7803SOL     OW34867   4.719   3.014   2.360  0.1908 -0.3574 -0.6553
 7803SOL    HW134868   0.017   3.052   2.274 -2.7633  0.6456 -0.9949
 7803SOL    HW234869   4.639   2.967   2.338  0.1336  0.0287 -1.2866
 7804SOL     OW34870   2.834   0.087   8.820 -0.0282  0.3424  0.2681
 7804SOL    HW134871   2.785   0.135   8.752 -0.1214 -1.1723 -0.7336
 7804SOL    HW234872   2.765   0.050   8.875  0.5591 -1.5908 -0.3102
 7805SOL     OW34873   1.071   3.242  17.270 -0.4504 -0.0367  0.1065
 7805SOL    HW134874   1.120   3.322  17.289 -1.7168  0.7416  0.0654
 7805SOL    HW234875   1.076   3.241  17.175 -1.5153  1.3995  0.0441
 7806SOL     OW34876   3.179   4.321   4.519 -0.0008  0.3923  0.6695
 7806SOL    HW134877   3.239   4.344   4.448 -0.0110  0.4894  0.6929
 7806SOL    HW234878   3.190   4.391   4.583 -1.7271  1.9549 -0.7434
 7807SOL     OW34879   2.755   1.142  11.956  0.1016 -0.3020 -0.0548
 7807SOL    HW134880   2.687   1.095  11.908  0.7187 -1.3041  0.0525
 7807SOL    HW234881   2.819   1.074  11.981  1.7403  1.8869  1.6831
 7808SOL     OW34882   4.252   0.428  10.309  0.6055 -0.4298  0.2369
 7808SOL    HW134883   4.291   0.515  10.315 -2.5629  1.1199 -1.5096
 7808SOL    HW234884   4.160   0.439  10.332  0.1047 -3.7581 -0.1998
 7809SOL     OW34885   4.479   4.471  11.143  0.0650 -0.1181  0.4798
 7809SOL    HW134886   4.432   4.462  11.060 -0.7281 -0.7669  1.0019
 7809SOL    HW234887   4.502   4.380  11.158 -1.4694 -0.8338 -1.4298
 7810SOL     OW34888   0.178   2.946   1.277  0.4126 -0.1580 -0.1598
 7810SOL    HW134889   0.232   2.961   1.200  0.5130  0.3686  0.0123
 7810SOL    HW234890   0.239   2.960   1.349 -0.2792  0.3952  0.3194
 7811SOL     OW34891   3.323   0.431   7.387  0.4447 -0.2624 -0.1993
 7811SOL    HW134892   3.315   0.394   7.475  4.3647 -4.0571 -1.4415
 7811SOL    HW234893   3.338   0.355   7.330 -0.1283 -0.4361 -0.1235
 7812SOL     OW34894   0.005   3.953   6.827  0.3753  0.2344 -0.5240
 7812SOL    HW134895   0.077   3.891   6.838  0.2153  0.5809  2.3146
 7812SOL    HW234896   0.042   4.008   6.896  0.7831  0.0490 -0.5924
 7813SOL     OW34897   4.484   1.706   6.287 -0.4013 -0.1342 -0.2824
 7813SOL    HW134898   4.417   1.666   6.231  0.2937 -0.7362 -0.6972
 7813SOL    HW234899   4.560   1.656   6.256 -1.1359 -2.9083  2.4609
 7814SOL     OW34900   0.834   2.687   2.715  0.2617 -0.6633  0.6155
 7814SOL    HW134901   0.870   2.703   2.628 -0.2387  1.3425  0.7723
 7814SOL    HW234902   0.759   2.747   2.708 -0.3979 -1.5082  0.4532
 7815SOL     OW34903   2.901   2.488  13.206 -0.3375  0.1931 -0.5806
 7815SOL    HW134904   2.961   2.562  13.206 -1.0097  0.7447 -0.4878
 7815SOL    HW234905   2.862   2.505  13.120 -2.4403  1.6469  0.6325
 7816SOL     OW34906   1.846   1.930  10.308 -0.6071 -0.2481 -0.0158
 7816SOL    HW134907   1.850   1.890  10.221 -1.4505 -1.0575  0.3316
 7816SOL    HW234908   1.855   1.852  10.363  0.9218 -0.8628 -1.1259
 7817SOL     OW34909   1.860   4.430   8.723 -0.6036 -0.2781  0.5950
 7817SOL    HW134910   1.859   4.341   8.759 -2.0705  0.2064  1.6986
 7817SOL    HW234911   1.931   4.475   8.769 -0.4798 -1.8172  1.9256
 7818SOL     OW34912   2.227   3.032   7.901 -0.2254 -0.0149  0.0959
 7818SOL    HW134913   2.281   3.110   7.920  0.0544  0.4735 -2.7129
 7818SOL    HW234914   2.273   2.972   7.960 -2.4630 -2.9647 -1.1885
 7819SOL     OW34915   3.082   3.137   3.619  0.0233  0.9006 -0.2739
 7819SOL    HW134916   3.055   3.227   3.636  0.4965  1.6690 -3.5367
 7819SOL    HW234917   3.014   3.097   3.565 -0.3939  0.1074  0.8490
 7820SOL     OW34918   4.535   3.172   9.817  0.3919  0.1823  0.2972
 7820SOL    HW134919   4.501   3.170   9.728  0.3782 -0.8490  0.3219
 7820SOL    HW234920   4.502   3.088   9.851 -0.8832  0.6898  0.3027
 7821SOL     OW34921   4.574   4.425   2.906  0.2765 -0.1046  0.2322
 7821SOL    HW134922   4.620   4.477   2.840 -1.6139  0.5545 -0.5543
 7821SOL    HW234923   4.651   4.371   2.924  0.8616  0.6049 -0.1539
 7822SOL     OW34924   3.695   1.946   1.719 -0.8849 -0.0564  0.0946
 7822SOL    HW134925   3.718   2.010   1.786  1.6331 -0.9223  0.0461
 7822SOL    HW234926   3.655   1.877   1.771 -1.6190 -0.6897 -1.2915
 7823SOL     OW34927   4.649   4.001   5.575 -0.4250  0.1158  0.4241
 7823SOL    HW134928   4.589   3.939   5.618  1.9716 -1.8694  0.9336
 7823SOL    HW234929   4.629   3.996   5.482 -1.5363  0.2026  0.6592
 7824SOL     OW34930   2.885   2.930   4.870 -0.0793 -0.5910  0.1128
 7824SOL    HW134931   2.850   2.842   4.886  1.3844 -0.6601  3.0004
 7824SOL    HW234932   2.811   2.942   4.812  1.6187 -1.0766 -2.1359
 7825SOL     OW34933   2.748   2.757   3.467 -0.3239 -0.0638 -0.3443
 7825SOL    HW134934   2.758   2.801   3.552  1.6946 -2.0537  0.4417
 7825SOL    HW234935   2.652   2.757   3.469 -0.3111  0.7948  0.3404
 7826SOL     OW34936   4.487   2.462  12.116  0.2038 -0.1830  0.2037
 7826SOL    HW134937   4.409   2.419  12.081  2.5360 -0.4199 -4.8134
 7826SOL    HW234938   4.542   2.388  12.141  0.0816 -0.3766 -0.1012
 7827SOL     OW34939   0.728   4.047   5.739  0.4425 -0.1677 -0.6911
 7827SOL    HW134940   0.699   4.137   5.722 -1.0828 -0.3751  0.7698
 7827SOL    HW234941   0.656   3.999   5.697  0.9501  0.7725 -2.6272
 7828SOL     OW34942   3.103   0.037   1.504  0.1416  0.0886  0.7942
 7828SOL    HW134943   3.123   0.129   1.487  1.6622 -0.2325  0.8391
 7828SOL    HW234944   3.075   0.048   1.595 -1.8328 -2.0110  0.4517
 7829SOL     OW34945   0.518   1.419   4.208 -0.4905 -0.0589 -0.3928
 7829SOL    HW134946   0.466   1.492   4.174  0.4404  1.1441  0.7997
 7829SOL    HW234947   0.600   1.465   4.229 -0.3078  0.0935 -1.4376
 7830SOL     OW34948   4.244   3.190   6.847  0.2330 -0.3373 -0.8537
 7830SOL    HW134949   4.294   3.140   6.911  0.4888  1.3536  0.2475
 7830SOL    HW234950   4.176   3.125   6.829 -2.5346  2.0916  0.9043
 7831SOL     OW34951   4.679   4.475   1.672 -0.9015 -0.3957  0.1795
 7831SOL    HW134952   4.663   4.546   1.734 -1.2790  0.7615 -1.2508
 7831SOL    HW234953   4.700   4.403   1.732 -2.1753  1.0627  2.3843
 7832SOL     OW34954   1.005   3.292   4.077  0.3338 -0.3492 -0.2784
 7832SOL    HW134955   0.994   3.269   4.169  3.6640  2.3398  0.7602
 7832SOL    HW234956   0.941   3.233   4.036 -0.1212  0.0392 -0.1149
 7833SOL     OW34957   4.238   2.964   8.263  0.1833 -0.2044  0.0155
 7833SOL    HW134958   4.190   2.936   8.185  0.8578 -1.0029 -0.0981
 7833SOL    HW234959   4.172   2.956   8.332 -0.0946 -1.6891 -0.4410
 7834SOL     OW34960   1.785   3.040   8.512 -0.2054  0.2671  0.2083
 7834SOL    HW134961   1.731   2.988   8.453 -0.2351 -0.1628  0.6174
 7834SOL    HW234962   1.770   3.128   8.476 -0.8857  0.4380  0.9031
 7835SOL     OW34963   1.098   0.343   2.330  0.0894 -0.1226 -0.5515
 7835SOL    HW134964   1.063   0.254   2.324 -1.1641  0.5320 -2.6584
 7835SOL    HW234965   1.192   0.329   2.314  0.6006  3.0000 -0.2235
 7836SOL     OW34966   2.225   3.692   8.087  0.2725 -0.2505  0.3353
 7836SOL    HW134967   2.163   3.698   8.014  0.7694  1.4013  0.0212
 7836SOL    HW234968   2.307   3.669   8.042  0.7893  0.4263  0.9276
 7837SOL     OW34969   0.975   4.185  13.480  1.0722 -0.1251  0.1964
 7837SOL    HW134970   1.039   4.242  13.525  0.8322  0.7632 -0.5955
 7837SOL    HW234971   0.915   4.246  13.437  0.9868 -1.1023 -1.0363
 7838SOL     OW34972   1.647   3.406   2.540  0.1313 -0.2302 -0.8017
 7838SOL    HW134973   1.607   3.452   2.614  0.2393 -1.5805  0.0933
 7838SOL    HW234974   1.739   3.397   2.565 -0.1775 -0.1054  0.3695
 7839SOL     OW34975   1.378   1.317   0.955  0.0251 -0.0552 -0.1800
 7839SOL    HW134976   1.413   1.406   0.964  0.1437 -0.1893  0.7078
 7839SOL    HW234977   1.288   1.334   0.981 -0.5724 -0.4433 -2.0006
 7840SOL     OW34978   3.879   0.706   8.989  0.4648 -0.0880 -0.3762
 7840SOL    HW134979   3.859   0.657   9.069  2.7315 -2.4183 -1.2465
 7840SOL    HW234980   3.824   0.655   8.929  1.3293 -1.0263 -0.3632
 7841SOL     OW34981   2.468   3.769   9.980  0.0288 -0.3107  0.2500
 7841SOL    HW134982   2.556   3.732   9.979  1.2525  2.5666 -0.7029
 7841SOL    HW234983   2.466   3.831   9.907 -0.4631 -0.3259  0.2495
 7842SOL     OW34984   3.099   3.492  12.996 -0.3190 -0.1028  0.3257
 7842SOL    HW134985   3.105   3.483  13.092  1.4818 -2.3725  0.0167
 7842SOL    HW234986   3.172   3.438  12.964 -0.5076 -2.0643  3.2214
 7843SOL     OW34987   2.699   0.594   9.895  0.3965 -0.2788  0.5413
 7843SOL    HW134988   2.607   0.618   9.908  0.8807  0.8331  1.9373
 7843SOL    HW234989   2.682   0.502   9.873 -0.6566  0.2320 -0.7741
 7844SOL     OW34990   1.253   4.629   5.688  0.0156 -0.0049 -0.3819
 7844SOL    HW134991   1.255   4.602   5.780  0.5874  0.0406 -0.3819
 7844SOL    HW234992   1.158   4.645   5.683  0.0292 -0.3409 -1.5939
 7845SOL     OW34993   1.892   3.376   5.491 -0.3733  0.4793 -0.2617
 7845SOL    HW134994   1.805   3.359   5.528 -0.1433  0.4423  0.2581
 7845SOL    HW234995   1.879   3.457   5.441  1.4522  0.2781 -1.0497
 7846SOL     OW34996   0.292   4.536   5.490 -0.4396 -0.0899 -0.0937
 7846SOL    HW134997   0.278   4.583   5.408  0.9059 -1.0490 -0.8759
 7846SOL    HW234998   0.271   4.602   5.556  0.1621 -0.0883  0.0963
 7847SOL     OW34999   3.975   1.188   6.015 -0.4816 -0.3611  0.0431
 7847SOL    HW135000   3.987   1.131   5.938  0.8236  0.5656 -0.4450
 7847SOL    HW235001   4.056   1.170   6.062 -0.5785 -0.2886  0.2369
 7848SOL     OW35002   2.220   0.623  10.119 -0.2500  0.6036 -0.1664
 7848SOL    HW135003   2.164   0.546  10.118  2.4337 -1.3862  0.5032
 7848SOL    HW235004   2.238   0.636  10.212  0.9076 -1.3449 -0.1020
 7849SOL     OW35005   3.804   0.057   2.821  0.2468 -0.0850 -0.2318
 7849SOL    HW135006   3.802   0.062   2.916 -1.9005  0.1782 -0.3023
 7849SOL    HW235007   3.783   0.145   2.790 -0.2117  1.0337  3.3438
 7850SOL     OW35008   0.601   3.648   6.452 -0.1230 -0.6779  0.1640
 7850SOL    HW135009   0.520   3.605   6.425 -0.0232 -0.5937 -0.2562
 7850SOL    HW235010   0.593   3.742   6.466  0.1880 -0.8357  1.4396
 7851SOL     OW35011   1.157   2.709   3.295  0.6131 -0.2977  0.0277
 7851SOL    HW135012   1.215   2.687   3.222  1.6211 -1.1132  1.0777
 7851SOL    HW235013   1.081   2.713   3.236  0.4916 -1.3742  0.1084
 7852SOL     OW35014   2.166   0.115  10.269 -0.2334 -0.4151 -0.2491
 7852SOL    HW135015   2.135   0.025  10.270 -0.0545 -0.4760 -0.1121
 7852SOL    HW235016   2.213   0.116  10.353  2.2958  1.9094 -1.6866
 7853SOL     OW35017   4.510   3.764   6.802  0.0973  0.2584  0.2848
 7853SOL    HW135018   4.563   3.833   6.843 -2.9753  2.1868  1.0198
 7853SOL    HW235019   4.559   3.689   6.836 -1.2053 -0.2275  1.0986
 7854SOL     OW35020   1.768   0.715  10.791  0.3877 -0.1478 -0.1038
 7854SOL    HW135021   1.718   0.772  10.733 -1.5756  1.0986  2.7929
 7854SOL    HW235022   1.825   0.784  10.826  0.7302 -0.5968  0.2213
 7855SOL     OW35023   4.707   1.644  12.127 -0.6472 -0.2709 -0.2016
 7855SOL    HW135024   4.638   1.697  12.166  1.0498  0.9811  1.1071
 7855SOL    HW235025   0.028   1.612  12.205  1.3420 -0.4520 -1.4305
 7856SOL     OW35026   0.255   1.004   7.403 -0.1648 -0.0808 -0.4389
 7856SOL    HW135027   0.214   1.009   7.317 -0.0804  2.8146 -0.3116
 7856SOL    HW235028   0.196   0.947   7.451  1.7705 -1.2895  0.5074
 7857SOL     OW35029   0.377   3.944   1.067 -0.4898  0.3122  0.2573
 7857SOL    HW135030   0.370   3.967   0.975  0.0190 -0.7558 -0.0404
 7857SOL    HW235031   0.471   3.943   1.081 -0.4924 -2.4228  0.0893
 7858SOL     OW35032   3.621   1.862   0.671  0.4754 -0.2115  0.0965
 7858SOL    HW135033   3.704   1.868   0.622 -1.0759  0.8969 -2.4366
 7858SOL    HW235034   3.598   1.770   0.658  1.9772 -0.6180  0.3527
 7859SOL     OW35035   0.884   2.116   7.327  0.6347 -0.2553 -0.0677
 7859SOL    HW135036   0.913   2.064   7.402  0.7962 -2.4801 -1.6766
 7859SOL    HW235037   0.969   2.132   7.285  1.2917  0.2404  1.4423
 7860SOL     OW35038   2.787   3.602   3.076  0.0296 -0.1832  0.2457
 7860SOL    HW135039   2.760   3.523   3.029  3.0551 -1.7947  1.2383
 7860SOL    HW235040   2.777   3.573   3.166 -0.7770 -0.6143  0.0114
 7861SOL     OW35041   4.543   3.356  15.756 -0.0588 -0.0373  0.1142
 7861SOL    HW135042   4.606   3.284  15.752 -0.2509 -0.2647  1.3399
 7861SOL    HW235043   4.560   3.389  15.844  1.2308 -1.4618  0.3952
 7862SOL     OW35044   0.749   3.121   8.934 -0.1874  0.3345  0.2501
 7862SOL    HW135045   0.716   3.211   8.925  0.5520  0.5571 -0.2048
 7862SOL    HW235046   0.829   3.134   8.985 -0.9564  0.5626  1.4167
 7863SOL     OW35047   3.485   3.877   8.119  0.2799  0.0846  0.0514
 7863SOL    HW135048   3.490   3.941   8.190 -0.4381  1.0586 -0.7694
 7863SOL    HW235049   3.397   3.899   8.089 -0.4095  0.0302  1.9986
 7864SOL     OW35050   3.226   3.335   6.273 -0.3532  0.8891  0.8494
 7864SOL    HW135051   3.215   3.344   6.178 -2.7361 -0.4229  1.0070
 7864SOL    HW235052   3.153   3.391   6.301  0.3100  0.9317  2.4722
 7865SOL     OW35053   1.960   3.144   8.267  0.7123 -0.3018 -0.3796
 7865SOL    HW135054   1.881   3.160   8.318  0.7773  0.1463 -0.4186
 7865SOL    HW235055   1.920   3.124   8.182 -0.9913 -1.1545  0.6297
 7866SOL     OW35056   0.298   2.724   8.141 -0.0425 -0.0967  0.1281
 7866SOL    HW135057   0.291   2.801   8.085  2.0161  0.4234  0.6001
 7866SOL    HW235058   0.370   2.671   8.108  0.2061  0.1792  0.2238
 7867SOL     OW35059   1.447   0.608   4.752  0.2367 -0.1997  0.3464
 7867SOL    HW135060   1.371   0.568   4.709  1.5775 -2.4630  0.0980
 7867SOL    HW235061   1.476   0.669   4.684  0.0809  0.6159  1.0145
 7868SOL     OW35062   0.266   4.030   4.548 -0.2275 -0.1168  0.1863
 7868SOL    HW135063   0.181   4.049   4.509  0.5278  0.5989 -1.1214
 7868SOL    HW235064   0.302   3.981   4.474  0.9249  1.5205 -0.3602
 7869SOL     OW35065   1.297   3.003   4.068  0.3004 -0.5325 -0.2936
 7869SOL    HW135066   1.293   3.098   4.060  0.0877 -0.1739  3.9676
 7869SOL    HW235067   1.354   2.979   3.995 -0.1141 -0.1206 -0.7482
 7870SOL     OW35068   4.111   1.068   2.880 -0.3296 -0.6995 -0.2721
 7870SOL    HW135069   4.107   0.979   2.843  2.1354 -0.7164 -0.4685
 7870SOL    HW235070   4.016   1.076   2.892  0.2454  1.6576  2.5010
 7871SOL     OW35071   2.711   0.203   0.808 -0.0040 -0.1526  0.1181
 7871SOL    HW135072   2.673   0.140   0.747  0.2738 -0.2044 -0.0052
 7871SOL    HW235073   2.683   0.178   0.896 -1.3615 -1.0088 -0.5695
 7872SOL     OW35074   0.897   1.631  11.063  0.0752  0.2396 -0.0289
 7872SOL    HW135075   0.951   1.710  11.064  0.4991 -0.0394 -0.7553
 7872SOL    HW235076   0.812   1.674  11.058  0.6997  1.4415 -0.2249
 7873SOL     OW35077   4.066   0.722   0.234 -0.2222  0.1928 -0.4151
 7873SOL    HW135078   4.026   0.640   0.265 -0.5137 -0.0007 -1.3096
 7873SOL    HW235079   4.126   0.736   0.307  0.1182  1.0097 -0.8547
 7874SOL     OW35080   3.738   0.710   8.243 -0.1266  0.1634 -0.1258
 7874SOL    HW135081   3.731   0.793   8.195 -2.8807 -0.9131 -1.6219
 7874SOL    HW235082   3.674   0.720   8.314  2.0240  0.7356  1.7051
 7875SOL     OW35083   0.074   2.546   3.869 -0.2064  0.0361 -0.0060
 7875SOL    HW135084   0.158   2.501   3.865  1.5604  3.5597 -1.9517
 7875SOL    HW235085   0.013   2.472   3.867  0.2240 -0.3540  1.1913
 7876SOL     OW35086   2.306   2.027   9.382  0.1462  0.0136 -0.1411
 7876SOL    HW135087   2.392   2.056   9.411 -0.7257  0.9260  1.5101
 7876SOL    HW235088   2.295   1.960   9.450  1.7126 -0.2605 -0.1546
 7877SOL     OW35089   0.723   3.655   0.639  0.0007  0.2099  0.5423
 7877SOL    HW135090   0.701   3.595   0.711 -0.2475  1.0024  1.1257
 7877SOL    HW235091   0.816   3.633   0.639 -0.3255 -1.1322 -0.3499
 7878SOL     OW35092   1.128   2.697   9.301  0.3857 -0.6692  0.3881
 7878SOL    HW135093   1.186   2.713   9.227  1.4907 -0.3227  1.3192
 7878SOL    HW235094   1.169   2.751   9.368 -1.7951  2.4141 -0.7960
 7879SOL     OW35095   3.016   1.917   9.037 -0.1175 -0.7046  0.4499
 7879SOL    HW135096   3.034   2.003   8.998 -0.2993 -1.7150 -1.8851
 7879SOL    HW235097   3.086   1.903   9.100  0.7301  0.3664 -0.2553
 7880SOL     OW35098   2.572   1.599   3.623 -0.5993  0.3366  0.1588
 7880SOL    HW135099   2.501   1.547   3.585  0.6876 -0.7259 -0.7863
 7880SOL    HW235100   2.626   1.612   3.545  2.2879 -0.9668  1.9303
 7881SOL     OW35101   2.870   2.075   3.484  0.5381 -0.0764  0.0202
 7881SOL    HW135102   2.800   2.132   3.515  0.0461  0.1501 -1.5176
 7881SOL    HW235103   2.925   2.126   3.425 -0.4642 -0.2693 -1.0894
 7882SOL     OW35104   1.278   0.168   1.778 -0.1125  0.5575 -0.2700
 7882SOL    HW135105   1.200   0.176   1.723 -0.0162 -1.8032 -0.7424
 7882SOL    HW235106   1.353   0.134   1.730 -0.2623 -2.1772  1.4357
 7883SOL     OW35107   2.558   1.723   9.324  0.0168  0.2357 -0.2594
 7883SOL    HW135108   2.516   1.657   9.268  1.4102  1.1775 -2.4076
 7883SOL    HW235109   2.629   1.671   9.363  0.1371  0.2760 -0.4218
 7884SOL     OW35110   2.504   4.037  11.116  0.0729 -1.1501 -0.1892
 7884SOL    HW135111   2.429   4.090  11.142 -0.9612 -1.9008 -1.6133
 7884SOL    HW235112   2.573   4.071  11.173 -2.3025  1.4451  1.1011
 7885SOL     OW35113   1.948   1.350  15.864  0.1345  0.4505 -0.0604
 7885SOL    HW135114   2.025   1.327  15.812 -0.6372 -0.6164 -0.7487
 7885SOL    HW235115   1.893   1.380  15.791  0.1418 -0.1098 -0.2948
 7886SOL     OW35116   2.632   3.732   5.296 -0.4921 -0.3635 -0.3803
 7886SOL    HW135117   2.577   3.753   5.221 -0.1341 -1.5698 -0.9921
 7886SOL    HW235118   2.563   3.716   5.360 -1.2684  0.8702 -0.9113
 7887SOL     OW35119   4.604   2.564   8.887 -0.0363  0.3505 -0.0236
 7887SOL    HW135120   4.656   2.514   8.824 -1.9886  1.0524 -2.2078
 7887SOL    HW235121   4.648   2.647   8.904 -0.0075  0.7105 -1.8342
 7888SOL     OW35122   1.870   0.352   4.176 -0.0988 -0.5046  0.1410
 7888SOL    HW135123   1.846   0.444   4.173  0.3469 -0.5102 -3.5704
 7888SOL    HW235124   1.947   0.346   4.232  1.1674  0.5166 -1.4795
 7889SOL     OW35125   1.171   0.560   2.849 -0.1810 -0.0382 -0.0137
 7889SOL    HW135126   1.134   0.610   2.921  0.9431  0.5458  0.1589
 7889SOL    HW235127   1.177   0.612   2.768 -3.3232 -0.1057 -0.2940
 7890SOL     OW35128   0.113   4.471  14.347 -0.3373  0.0814  0.3510
 7890SOL    HW135129   0.110   4.376  14.358  0.2018 -0.0903 -0.8719
 7890SOL    HW235130   0.195   4.488  14.394  0.4573 -1.4729 -0.4437
 7891SOL     OW35131   1.049   2.650  10.970 -0.3071 -0.0750  0.2633
 7891SOL    HW135132   1.092   2.734  10.983 -0.5026 -0.0692  0.8620
 7891SOL    HW235133   1.132   2.604  10.979 -1.1348 -1.4491  0.9655
 7892SOL     OW35134   0.881   1.371   8.066 -0.0427  0.4987 -0.0237
 7892SOL    HW135135   0.918   1.440   8.122 -2.5546 -0.7439  3.1647
 7892SOL    HW235136   0.921   1.389   7.982  0.7124 -2.4980 -0.3093
 7893SOL     OW35137   3.791   4.714  10.219 -0.1303  0.5395  0.2723
 7893SOL    HW135138   3.839   0.073  10.222 -0.8440  0.8857  1.9311
 7893SOL    HW235139   3.712   0.016  10.267  0.7031  0.3449  1.7360
 7894SOL     OW35140   2.750   1.078  10.907 -0.1255 -0.1132 -0.0994
 7894SOL    HW135141   2.723   1.061  10.817  0.1933  1.8119 -0.5650
 7894SOL    HW235142   2.745   0.990  10.943 -1.5164 -0.5021 -1.2508
 7895SOL     OW35143   2.343   0.936   6.498  0.6498  0.1620  0.2716
 7895SOL    HW135144   2.253   0.936   6.465 -0.4032 -0.4341  3.1866
 7895SOL    HW235145   2.349   1.031   6.509 -0.1971  0.2536 -0.0720
 7896SOL     OW35146   0.628   4.465   8.681 -0.5056  0.1949 -0.0269
 7896SOL    HW135147   0.643   4.378   8.719 -1.1564  0.9245  1.9103
 7896SOL    HW235148   0.658   4.530   8.745  0.7231 -2.7829  2.4119
 7897SOL     OW35149   4.135   3.212  12.275  0.5512 -0.1284 -0.4272
 7897SOL    HW135150   4.159   3.212  12.368 -0.3391  0.4841 -0.1956
 7897SOL    HW235151   4.179   3.292  12.246 -1.3582  0.4561 -1.7734
 7898SOL     OW35152   3.397   2.670   5.156 -0.1941  0.3562 -0.2428
 7898SOL    HW135153   3.405   2.616   5.234 -1.2951  2.4499  1.3288
 7898SOL    HW235154   3.395   2.605   5.086  1.2991 -1.5607  1.5021
 7899SOL     OW35155   2.131   3.150  10.263  0.3256 -0.0145  0.4774
 7899SOL    HW135156   2.098   3.239  10.251 -0.2718 -0.0583  1.6975
 7899SOL    HW235157   2.122   3.114  10.175 -0.4363  2.3618 -0.4038
 7900SOL     OW35158   0.551   2.880   8.535 -0.3093  0.1749  0.4040
 7900SOL    HW135159   0.510   2.845   8.615  1.5305 -1.8933  0.4535
 7900SOL    HW235160   0.624   2.823   8.510 -0.2733 -0.0782  1.0761
 7901SOL     OW35161   2.032   0.017   2.483 -0.4723 -0.3891  0.3495
 7901SOL    HW135162   2.091   0.069   2.429  0.5472 -0.0579  1.7876
 7901SOL    HW235163   2.006   0.079   2.551 -1.0284  2.0748 -2.1173
 7902SOL     OW35164   3.509   2.533   4.338  0.5923  0.2367 -0.0077
 7902SOL    HW135165   3.444   2.602   4.325  1.6546  0.9512 -1.5585
 7902SOL    HW235166   3.487   2.457   4.284 -3.1114 -0.9445  3.1431
 7903SOL     OW35167   1.485   2.650   3.191  0.1061  0.2638 -0.3342
 7903SOL    HW135168   1.555   2.711   3.167 -0.4666  0.1409 -2.3133
 7903SOL    HW235169   1.419   2.664   3.123  1.2928  1.6688 -1.1955
 7904SOL     OW35170   2.212   3.583   3.638  0.2218 -0.6396 -0.6995
 7904SOL    HW135171   2.124   3.550   3.657  0.4161 -0.9712 -0.3695
 7904SOL    HW235172   2.215   3.669   3.680 -0.1506 -1.1734  0.4130
 7905SOL     OW35173   0.423   1.091   5.059 -0.4626 -0.2351 -0.1202
 7905SOL    HW135174   0.439   0.997   5.060 -0.5178 -0.2506 -2.2383
 7905SOL    HW235175   0.504   1.125   5.021  0.0413 -1.0551  0.2126
 7906SOL     OW35176   3.607   3.519   3.173 -0.3546 -0.1373  0.1454
 7906SOL    HW135177   3.606   3.526   3.077 -1.1642 -2.1629  0.0062
 7906SOL    HW235178   3.669   3.447   3.185  1.7332  1.9260  1.7408
 7907SOL     OW35179   0.322   1.626   4.130  0.2902 -0.4559 -0.3557
 7907SOL    HW135180   0.298   1.647   4.040 -1.1137 -0.0015  0.1142
 7907SOL    HW235181   0.342   1.716   4.157  0.4896 -0.3059 -0.9910
 7908SOL     OW35182   2.023   4.291   0.081 -0.2035 -0.2071 -0.0546
 7908SOL    HW135183   1.982   4.304   0.166 -0.4184 -2.8661  0.2417
 7908SOL    HW235184   2.072   4.210   0.095 -2.7626 -2.0381 -1.7441
 7909SOL     OW35185   2.826   2.254   0.616  0.2570  0.3939  0.1637
 7909SOL    HW135186   2.841   2.308   0.693 -0.2668 -2.0910  1.9834
 7909SOL    HW235187   2.877   2.178   0.642 -1.0579 -0.1904  1.0098
 7910SOL     OW35188   3.038   4.222   8.632  0.2160  0.0745  0.4462
 7910SOL    HW135189   3.019   4.138   8.674  1.1420  0.0928  0.9044
 7910SOL    HW235190   2.995   4.280   8.694 -0.5297 -0.9795  0.8984
 7911SOL     OW35191   1.195   3.180   3.709  0.0774  0.0605  0.2199
 7911SOL    HW135192   1.222   3.184   3.618 -2.4067  0.0130 -0.5155
 7911SOL    HW235193   1.264   3.121   3.739  0.2370  1.2715  2.2781
 7912SOL     OW35194   0.039   1.896  14.976 -0.5615 -0.0911 -0.1622
 7912SOL    HW135195   4.691   1.894  15.040 -0.0200 -0.9289  0.4177
 7912SOL    HW235196   0.106   1.919  15.040 -0.0775 -1.4286 -0.1829
 7913SOL     OW35197   3.807   0.013  14.499  0.2929 -0.0237 -0.1768
 7913SOL    HW135198   3.842   0.076  14.436 -1.4664 -0.0107 -1.1320
 7913SOL    HW235199   3.719   0.046  14.520 -0.2779 -0.3131 -2.1065
 7914SOL     OW35200   3.537   0.814   7.268 -0.3944 -0.3577  0.1459
 7914SOL    HW135201   3.627   0.824   7.299 -0.6881 -0.0336  0.9018
 7914SOL    HW235202   3.497   0.816   7.355 -3.4247  1.6966 -1.3033
 7915SOL     OW35203   2.162   1.597  11.467  0.1232 -0.3231 -0.3578
 7915SOL    HW135204   2.157   1.570  11.376  3.4148 -0.7221 -0.4369
 7915SOL    HW235205   2.237   1.656  11.454 -0.4876  0.3518 -0.8105
 7916SOL     OW35206   3.113   4.265   8.025  0.7100  0.0162 -0.1551
 7916SOL    HW135207   3.053   4.245   7.954 -0.1030  0.2453  0.4686
 7916SOL    HW235208   3.052   4.300   8.090  2.7281  1.9830  0.6530
 7917SOL     OW35209   0.747   1.885   3.327  0.4937 -0.1964  0.3783
 7917SOL    HW135210   0.805   1.867   3.253  0.7572  0.7959  0.3480
 7917SOL    HW235211   0.720   1.976   3.312 -0.5544 -0.4292  0.8261
 7918SOL     OW35212   1.557   0.799  12.211 -0.1895 -0.7714 -0.4997
 7918SOL    HW135213   1.519   0.804  12.123 -0.7150  0.7332 -0.1880
 7918SOL    HW235214   1.507   0.728  12.251  0.0722 -1.3011 -1.1087
 7919SOL     OW35215   4.178   2.861  13.342  0.1360  0.3965 -0.1174
 7919SOL    HW135216   4.101   2.917  13.344  0.9307  1.5020 -0.1860
 7919SOL    HW235217   4.233   2.903  13.275 -0.6727  1.7833  0.1069
 7920SOL     OW35218   4.490   4.232   7.330  0.1169 -0.1501 -0.2673
 7920SOL    HW135219   4.558   4.170   7.358  0.1995 -0.3816 -0.9691
 7920SOL    HW235220   4.468   4.184   7.250 -2.4314 -0.6754  0.7311
 7921SOL     OW35221   2.885   3.263   9.981  0.0896 -0.1120 -0.6358
 7921SOL    HW135222   2.844   3.177   9.970  2.0085 -0.9845 -1.0580
 7921SOL    HW235223   2.935   3.239  10.060 -1.6081 -0.2732  0.3998
 7922SOL     OW35224   0.113   3.220   8.854  0.0352  0.0330 -0.1627
 7922SOL    HW135225   0.113   3.274   8.933  2.2480 -2.6251  1.6502
 7922SOL    HW235226   0.188   3.249   8.802 -1.5985  2.6764 -1.0408
 7923SOL     OW35227   2.700   3.815   8.855 -0.0644  0.3774  0.5012
 7923SOL    HW135228   2.776   3.806   8.798 -1.5904  0.4783 -1.5516
 7923SOL    HW235229   2.702   3.910   8.864  0.0814  0.2306  2.0221
 7924SOL     OW35230   1.515   4.401   9.522  0.1960 -0.5337  0.0844
 7924SOL    HW135231   1.518   4.377   9.429  1.0479 -2.8348  0.7169
 7924SOL    HW235232   1.490   4.494   9.521 -0.4754 -0.7241 -0.7114
 7925SOL     OW35233   1.902   2.224   8.868 -0.4036  0.1055 -0.0386
 7925SOL    HW135234   1.938   2.156   8.925 -4.9671 -1.4432  0.9915
 7925SOL    HW235235   1.873   2.170   8.795  0.5206 -0.9567  0.3786
 7926SOL     OW35236   2.463   2.778   9.910 -0.4521  0.5671 -0.0882
 7926SOL    HW135237   2.495   2.837   9.978  0.6021 -0.1572  0.0426
 7926SOL    HW235238   2.445   2.695   9.956  0.4015  0.8000  0.6669
 7927SOL     OW35239   2.029   0.176   5.746 -0.1786 -0.2205  0.4706
 7927SOL    HW135240   2.022   0.088   5.783  0.8336  0.1174  1.4812
 7927SOL    HW235241   1.989   0.222   5.821 -1.0914  1.0863 -0.8130
 7928SOL     OW35242   2.973   3.596   9.273  0.5772  0.2072 -0.2368
 7928SOL    HW135243   2.963   3.681   9.316 -0.5729  0.1627 -0.4093
 7928SOL    HW235244   2.901   3.597   9.210  1.0542 -1.9717 -0.8218
 7929SOL     OW35245   2.207   4.686   6.812  0.6209  0.1047 -0.6309
 7929SOL    HW135246   2.117   4.655   6.802 -0.4332  2.0630  2.8297
 7929SOL    HW235247   2.259   4.605   6.813 -0.0141 -0.2883 -0.0278
 7930SOL     OW35248   0.281   1.798  13.132  0.4467  0.3981  0.0526
 7930SOL    HW135249   0.334   1.729  13.092 -1.0840 -2.0958  2.2923
 7930SOL    HW235250   0.192   1.780  13.101  0.9499 -0.4019 -0.9422
 7931SOL     OW35251   3.834   1.128  12.705 -0.0550  0.2225  0.5361
 7931SOL    HW135252   3.780   1.185  12.759  2.1193  0.9105  1.9606
 7931SOL    HW235253   3.866   1.178  12.630 -2.5059  1.2215  0.1422
 7932SOL     OW35254   1.131   3.241  14.416 -0.5532 -0.2023 -0.1409
 7932SOL    HW135255   1.220   3.256  14.384 -0.2270 -0.7256  0.5278
 7932SOL    HW235256   1.075   3.285  14.353 -1.3141 -1.1769 -0.1374
 7933SOL     OW35257   2.074   2.946   9.150  0.3520 -0.5051  0.0537
 7933SOL    HW135258   2.051   2.857   9.123 -1.5050  0.4175 -1.3809
 7933SOL    HW235259   2.108   2.972   9.064  0.3299 -2.5642 -0.5984
 7934SOL     OW35260   1.033   2.850  15.188 -0.6180 -0.0575 -0.2666
 7934SOL    HW135261   1.031   2.782  15.121 -0.4432 -1.2440  0.9339
 7934SOL    HW235262   1.127   2.845  15.205 -1.0490 -1.1508  1.7035
 7935SOL     OW35263   3.554   4.450   2.032  0.5564 -0.1797 -0.2025
 7935SOL    HW135264   3.481   4.488   1.983  0.0903  0.8696  1.3056
 7935SOL    HW235265   3.547   4.355   2.016 -1.6008 -0.0895  0.1968
 7936SOL     OW35266   0.883   3.656  10.420  0.5582 -0.5510 -0.1847
 7936SOL    HW135267   0.962   3.684  10.374  0.7646 -0.5130  0.2023
 7936SOL    HW235268   0.923   3.622  10.500  0.8269  1.4543  0.5147
 7937SOL     OW35269   0.296   4.324   3.276  0.1871 -0.1750 -0.4073
 7937SOL    HW135270   0.362   4.304   3.342 -1.6594 -0.7281  1.2645
 7937SOL    HW235271   0.282   4.232   3.255 -1.1184 -0.0308 -0.1899
 7938SOL     OW35272   2.035   4.288   0.487 -0.3339  0.1138  0.0168
 7938SOL    HW135273   2.033   4.378   0.520  1.4499  0.4567 -0.8127
 7938SOL    HW235274   1.969   4.294   0.419 -0.1772  1.1262 -0.0456
 7939SOL     OW35275   0.906   1.214   8.283  0.2512 -0.1824  0.4641
 7939SOL    HW135276   0.908   1.244   8.193  3.0196 -0.3993  0.4447
 7939SOL    HW235277   0.965   1.276   8.328  0.3067 -0.2684  0.5097
 7940SOL     OW35278   2.151   1.769   3.155  0.2261 -0.0268  0.4644
 7940SOL    HW135279   2.163   1.820   3.235  0.9910  1.3254 -0.5238
 7940SOL    HW235280   2.147   1.681   3.192  0.7230 -0.2184  0.0664
 7941SOL     OW35281   2.650   0.007   4.527  0.5439 -0.0131  0.3060
 7941SOL    HW135282   2.601   0.060   4.590 -2.1098  0.4888 -2.2102
 7941SOL    HW235283   2.716   0.068   4.494 -0.0122  0.3773 -0.0763
 7942SOL     OW35284   2.581   2.068   9.469  0.0922 -0.2850 -0.0904
 7942SOL    HW135285   2.582   1.982   9.510  0.6061  0.4105  1.3364
 7942SOL    HW235286   2.592   2.126   9.544  1.6946 -0.1337 -0.4321
 7943SOL     OW35287   0.101   4.126  15.919  0.6603 -0.1557  0.1519
 7943SOL    HW135288   0.062   4.113  15.832 -0.4019  0.8307  0.4743
 7943SOL    HW235289   0.022   4.104  15.969 -0.4015 -0.1389 -1.5265
 7944SOL     OW35290   1.276   3.353  12.451 -0.7716 -0.3911  0.3583
 7944SOL    HW135291   1.312   3.304  12.377  0.8001  0.9598  0.2509
 7944SOL    HW235292   1.335   3.334  12.524  1.1008  0.7575 -0.8743
 7945SOL     OW35293   4.451   1.269   4.398  0.5170  0.6834 -0.5515
 7945SOL    HW135294   4.508   1.211   4.449  3.0185  1.7900 -2.0476
 7945SOL    HW235295   4.455   1.222   4.315  1.8711  0.5977 -0.4434
 7946SOL     OW35296   2.118   1.762   4.785 -0.7737  0.8224 -0.7194
 7946SOL    HW135297   2.056   1.811   4.839  0.9303  0.4040  1.6507
 7946SOL    HW235298   2.198   1.802   4.821 -0.5010  1.7293 -2.3458
 7947SOL     OW35299   1.444   1.799   2.436 -0.0699 -0.6871 -0.7025
 7947SOL    HW135300   1.372   1.764   2.489  2.4394 -0.6925  2.7114
 7947SOL    HW235301   1.463   1.717   2.391  1.1649 -1.7473  1.7772
 7948SOL     OW35302   3.895   1.611  16.901  0.1601  0.4873 -0.0066
 7948SOL    HW135303   3.954   1.535  16.905  0.0947  0.4025 -0.8203
 7948SOL    HW235304   3.959   1.677  16.874  0.2135 -0.3327 -1.8760
 7949SOL     OW35305   2.930   2.099   5.821 -0.0825  0.4374  0.0764
 7949SOL    HW135306   2.838   2.113   5.799 -0.7058 -0.7699  1.9683
 7949SOL    HW235307   2.919   2.042   5.897  2.3366 -0.8123 -0.4995
 7950SOL     OW35308   1.106   1.337   3.684  0.2543  0.3535  0.2622
 7950SOL    HW135309   1.054   1.328   3.764 -0.3541 -0.7117 -0.2539
 7950SOL    HW235310   1.083   1.418   3.638 -2.0720  1.0484  2.6158
 7951SOL     OW35311   1.801   4.078   6.157 -0.4961  0.0081 -0.1690
 7951SOL    HW135312   1.879   4.022   6.159 -0.4830  0.0783  1.1689
 7951SOL    HW235313   1.761   4.070   6.244 -1.6979  0.6663 -0.6625
 7952SOL     OW35314   1.500   2.076  15.330 -0.4732 -0.2820 -0.3873
 7952SOL    HW135315   1.592   2.052  15.341 -0.2639  0.7010  0.0477
 7952SOL    HW235316   1.497   2.159  15.378 -0.6165 -1.4425  1.6147
 7953SOL     OW35317   0.877   1.361   5.220 -0.2837  0.2289  0.2810
 7953SOL    HW135318   0.867   1.410   5.139 -0.2574 -3.1970 -1.8065
 7953SOL    HW235319   0.949   1.298   5.213 -0.8894 -0.5317  0.8793
 7954SOL     OW35320   2.331   1.634   8.431  0.5840 -0.1168 -0.0206
 7954SOL    HW135321   2.326   1.678   8.346  3.6205  0.3025  0.0240
 7954SOL    HW235322   2.285   1.692   8.491 -1.5724 -0.8382 -0.9841
 7955SOL     OW35323   2.290   1.370   8.026 -0.7778  0.1111 -0.2157
 7955SOL    HW135324   2.249   1.309   8.088  0.0887 -0.1338  0.1170
 7955SOL    HW235325   2.350   1.307   7.987  3.4130  4.4121 -0.7771
 7956SOL     OW35326   4.200   2.571   4.674 -0.3374 -0.4430  0.0554
 7956SOL    HW135327   4.284   2.546   4.636  0.7898  2.1041  0.8751
 7956SOL    HW235328   4.227   2.660   4.695  1.6847 -0.8113 -1.0287
 7957SOL     OW35329   3.278   0.991  15.364  0.0904 -0.6969 -0.4664
 7957SOL    HW135330   3.240   0.915  15.409 -0.2118  0.9607  2.0460
 7957SOL    HW235331   3.278   1.051  15.438  1.4230 -1.9503  0.5471
 7958SOL     OW35332   4.593   0.622   8.827 -0.6151  0.3327 -0.1653
 7958SOL    HW135333   4.650   0.617   8.904  0.4200 -1.4152 -1.0471
 7958SOL    HW235334   4.646   0.576   8.762 -0.0178  0.5831  0.1466
 7959SOL     OW35335   3.571   0.728   4.379 -0.0260 -0.1189 -0.3247
 7959SOL    HW135336   3.522   0.745   4.460 -1.1883  0.2887 -1.1276
 7959SOL    HW235337   3.556   0.635   4.367 -0.8349 -0.2552  1.6271
 7960SOL     OW35338   3.922   3.381   8.604 -0.1434 -0.0609  0.5473
 7960SOL    HW135339   3.859   3.311   8.618  0.8602 -1.0663  0.0441
 7960SOL    HW235340   3.862   3.456   8.604 -0.4894 -0.3447  1.2028
 7961SOL     OW35341   4.177   3.692  16.436  0.0252  0.0983  0.2606
 7961SOL    HW135342   4.215   3.754  16.373 -0.4565  1.7501  1.5766
 7961SOL    HW235343   4.237   3.619  16.425 -0.2033  0.0587 -0.7733
 7962SOL     OW35344   0.972   2.070   8.017  0.2411 -0.1597 -0.4439
 7962SOL    HW135345   1.016   2.034   8.094  2.3633  2.9670 -0.1915
 7962SOL    HW235346   0.880   2.053   8.039  0.1255 -0.2458 -0.9920
 7963SOL     OW35347   0.473   2.051   6.782  0.0878 -0.8043  0.2051
 7963SOL    HW135348   0.454   2.013   6.868 -0.2135 -1.0631  0.0194
 7963SOL    HW235349   0.399   2.111   6.769  0.6824 -0.1228 -0.0500
 7964SOL     OW35350   1.751   2.880  13.254  0.3716 -0.1382  0.2728
 7964SOL    HW135351   1.807   2.803  13.240  0.0000 -0.5314  0.9321
 7964SOL    HW235352   1.763   2.900  13.347 -1.5710  0.9728  0.2937
 7965SOL     OW35353   0.383   2.061   8.023  0.8561  0.2420 -0.4666
 7965SOL    HW135354   0.422   1.977   8.048  0.4197  0.7516  1.8800
 7965SOL    HW235355   0.331   2.045   7.944 -1.8413 -0.1973  1.3938
 7966SOL     OW35356   2.199   1.031  16.287 -0.0662 -0.5479 -0.6481
 7966SOL    HW135357   2.256   1.038  16.363 -1.9119 -2.5620  0.9394
 7966SOL    HW235358   2.200   1.121  16.255 -1.3635 -0.2398  0.1994
 7967SOL     OW35359   0.104   2.265   3.675  0.0791  0.3736  0.2440
 7967SOL    HW135360   0.165   2.315   3.728 -1.4272  2.7200 -0.2291
 7967SOL    HW235361   0.067   2.215   3.748  1.5698 -0.1009  0.6682
 7968SOL     OW35362   0.989   1.280   4.109  0.5181  0.0176  0.3460
 7968SOL    HW135363   0.916   1.281   4.047  0.7578 -0.8429  0.0491
 7968SOL    HW235364   0.932   1.247   4.178 -0.2322  0.4345 -0.0662
 7969SOL     OW35365   2.225   4.184   9.225  0.3830 -0.2844 -0.3540
 7969SOL    HW135366   2.157   4.238   9.265 -0.4708 -1.0372 -0.7939
 7969SOL    HW235367   2.178   4.101   9.225  1.8160 -1.0882 -0.9907
 7970SOL     OW35368   4.599   3.148   5.988  0.5525 -0.4060 -0.1665
 7970SOL    HW135369   4.508   3.144   5.957 -0.7758 -0.6319  3.8010
 7970SOL    HW235370   4.653   3.080   5.949 -0.3137 -0.9381 -0.4410
 7971SOL     OW35371   4.112   4.425   8.391  0.0117 -0.2043  0.0465
 7971SOL    HW135372   4.102   4.332   8.375  2.8748 -0.6847  0.9554
 7971SOL    HW235373   4.029   4.437   8.437  0.0504 -0.7730  0.2559
 7972SOL     OW35374   2.941   1.652   2.178  0.2727  0.7917  1.3506
 7972SOL    HW135375   2.885   1.730   2.177 -1.6147 -0.5523  0.7446
 7972SOL    HW235376   3.011   1.681   2.119  1.7750 -0.6528  2.4171
 7973SOL     OW35377   4.608   2.284   8.589  0.3886  0.6145 -0.5445
 7973SOL    HW135378   4.515   2.264   8.582  1.0101 -2.5060 -0.0177
 7973SOL    HW235379   4.629   2.267   8.681 -1.2800  0.9630 -0.1000
 7974SOL     OW35380   4.430   3.808   9.353 -0.4452  0.2288 -0.0635
 7974SOL    HW135381   4.505   3.865   9.367 -0.3239 -0.3257  1.5535
 7974SOL    HW235382   4.399   3.787   9.442  0.4732  0.2064  0.2456
 7975SOL     OW35383   0.496   0.629   2.451  0.7959 -0.1465  0.8663
 7975SOL    HW135384   0.494   0.661   2.361  2.2020  0.7824  1.1564
 7975SOL    HW235385   0.591   0.630   2.462  1.2097 -1.4035 -2.6508
 7976SOL     OW35386   3.347   4.440  17.490 -0.0015 -0.0491  0.1626
 7976SOL    HW135387   3.276   4.377  17.484 -0.2128  0.0259  2.0686
 7976SOL    HW235388   3.312   4.529  17.488 -0.8654 -0.4138 -0.7069
 7977SOL     OW35389   4.191   0.511  16.249  0.3123  0.2680 -0.2252
 7977SOL    HW135390   4.203   0.601  16.280 -0.4547  1.0119 -2.0265
 7977SOL    HW235391   4.099   0.490  16.267  0.6919  0.3400  1.7028
 7978SOL     OW35392   2.052   1.891   9.291 -0.3163 -0.4377  0.5095
 7978SOL    HW135393   2.055   1.797   9.276  0.4638 -0.0955 -1.5143
 7978SOL    HW235394   2.143   1.914   9.270 -0.4809  0.4057  0.7028
 7979SOL     OW35395   0.205   0.188   3.747 -0.3423  0.0609  0.4877
 7979SOL    HW135396   0.281   0.140   3.715 -0.5609 -0.8482  1.3442
 7979SOL    HW235397   0.247   0.272   3.770 -3.0957  1.0428  1.9806
 7980SOL     OW35398   3.606   3.370   6.613 -0.2117  0.1403 -0.4258
 7980SOL    HW135399   3.666   3.438   6.582 -0.9779  0.7987 -0.4465
 7980SOL    HW235400   3.627   3.374   6.706 -0.7278 -2.6114 -0.1958
 7981SOL     OW35401   3.484   4.363   5.828  0.6281 -0.4986  0.3210
 7981SOL    HW135402   3.420   4.383   5.759 -0.5763 -3.1034  0.6971
 7981SOL    HW235403   3.523   4.450   5.832 -0.5104  0.0994 -1.6501
 7982SOL     OW35404   4.692   0.282   4.761  0.1601 -0.2693 -0.2728
 7982SOL    HW135405   4.695   0.192   4.730  0.9541  0.6216 -2.7924
 7982SOL    HW235406   0.051   0.327   4.746  0.3165 -1.1538 -2.0189
 7983SOL     OW35407   3.896   3.712   2.500  0.3999  0.0831 -1.0564
 7983SOL    HW135408   3.911   3.722   2.594 -2.9906  2.1329 -0.7753
 7983SOL    HW235409   3.896   3.804   2.476  0.4024  0.7312  1.5016
 7984SOL     OW35410   0.974   2.854   5.089  0.1133  0.3025 -0.2722
 7984SOL    HW135411   0.961   2.835   5.182 -1.8843 -1.1401 -0.8491
 7984SOL    HW235412   1.066   2.828   5.083  0.1534  0.3572  0.0583
 7985SOL     OW35413   2.197   0.732   2.351 -0.2914 -0.0843  0.6264
 7985SOL    HW135414   2.157   0.772   2.275 -0.1483 -0.2368  0.4703
 7985SOL    HW235415   2.146   0.779   2.417  0.1222  0.5799  0.4661
 7986SOL     OW35416   2.285   1.754   6.972 -0.1713 -0.4000  0.5672
 7986SOL    HW135417   2.226   1.712   7.034 -2.0350  1.2685 -0.0726
 7986SOL    HW235418   2.223   1.786   6.907  1.6014  1.5431 -0.1730
 7987SOL     OW35419   3.841   2.188   7.817 -0.1347  0.3850  0.2386
 7987SOL    HW135420   3.854   2.280   7.797 -0.0950  0.7070  1.7577
 7987SOL    HW235421   3.906   2.169   7.884 -0.9696 -2.0704  0.3706
 7988SOL     OW35422   1.225   2.553   4.102  0.2950 -0.1137 -0.2805
 7988SOL    HW135423   1.183   2.615   4.162  0.4749  0.2931 -0.5730
 7988SOL    HW235424   1.314   2.576   4.129  0.2480  0.3748 -0.5516
 7989SOL     OW35425   1.827   4.679   7.854 -0.3072 -0.1759 -0.1440
 7989SOL    HW135426   1.797   4.651   7.940  0.1775  1.5273  0.5768
 7989SOL    HW235427   1.906   0.004   7.878  0.3048 -1.1556 -0.1992
 7990SOL     OW35428   0.987   1.275   3.277  0.0147 -0.4210 -0.1947
 7990SOL    HW135429   1.063   1.320   3.313  0.2078  1.2414 -2.7055
 7990SOL    HW235430   0.977   1.333   3.202  0.5990 -0.2856 -0.1692
 7991SOL     OW35431   0.692   0.857   7.133 -0.1395  0.5927 -0.0121
 7991SOL    HW135432   0.695   0.899   7.047 -1.2909  1.8138  0.5606
 7991SOL    HW235433   0.600   0.834   7.137 -0.4988  1.6423 -2.1494
 7992SOL     OW35434   0.030   2.966  17.305  0.7226 -0.5450  0.4210
 7992SOL    HW135435   0.090   2.897  17.276 -1.5896 -2.4530  0.1073
 7992SOL    HW235436   4.673   2.921  17.281  0.6201  0.3886 -0.9459
 7993SOL     OW35437   0.128   4.080   6.193 -0.0465 -0.2492  0.4841
 7993SOL    HW135438   0.209   4.033   6.210  1.1069  1.0743 -1.3915
 7993SOL    HW235439   0.166   4.156   6.148 -0.1938 -0.1215  0.5755
 7994SOL     OW35440   1.074   3.185   6.013 -0.1215 -0.3488 -0.0215
 7994SOL    HW135441   1.137   3.256   6.000 -0.9420 -0.0330 -2.2692
 7994SOL    HW235442   0.995   3.236   5.993 -1.0650 -2.4957 -1.7279
 7995SOL     OW35443   2.004   2.773  12.270 -0.4257 -0.3193  0.2620
 7995SOL    HW135444   2.020   2.859  12.231 -0.1903 -0.1656  0.6955
 7995SOL    HW235445   2.006   2.718  12.192 -2.9531 -0.4746  0.3036
 7996SOL     OW35446   1.987   2.323   3.182  0.1143 -0.2267  0.1371
 7996SOL    HW135447   1.922   2.256   3.161  2.3151 -1.7386 -1.8787
 7996SOL    HW235448   2.070   2.274   3.191  0.2088  0.1120  1.1678
 7997SOL     OW35449   0.750   3.348  13.572 -0.4109 -0.1549 -0.5283
 7997SOL    HW135450   0.670   3.388  13.537 -1.4559 -2.1663 -0.4545
 7997SOL    HW235451   0.805   3.425  13.591 -2.4430  0.8734  1.2954
 7998SOL     OW35452   0.971   2.009   9.354 -0.1231  0.7144 -0.4398
 7998SOL    HW135453   1.039   1.968   9.301 -0.3370  0.7510 -0.7406
 7998SOL    HW235454   0.891   1.997   9.303 -0.5200  3.3574 -0.4656
 7999SOL     OW35455   4.498   3.167   4.508 -0.3961  0.1539  0.1241
 7999SOL    HW135456   4.485   3.258   4.536  0.4994  0.1394  0.5913
 7999SOL    HW235457   4.465   3.167   4.419  0.2700  0.7085 -0.1161
 8000SOL     OW35458   3.869   3.756   9.442 -0.1483  0.0657 -0.1095
 8000SOL    HW135459   3.831   3.798   9.365 -1.3276 -0.6248  0.0876
 8000SOL    HW235460   3.912   3.682   9.400 -0.7693 -0.3351 -0.0498
 8001SOL     OW35461   1.016   1.572   6.343 -0.5175 -0.2494  0.2999
 8001SOL    HW135462   0.940   1.562   6.285 -0.6850  1.1327  0.2668
 8001SOL    HW235463   1.047   1.483   6.359  1.1102  0.3514  0.4925
 8002SOL     OW35464   0.473   1.928  14.306 -0.1607 -0.2919  0.3172
 8002SOL    HW135465   0.470   1.994  14.237 -0.5355 -1.0051 -0.3515
 8002SOL    HW235466   0.380   1.937  14.326 -0.4441 -0.2542 -1.0237
 8003SOL     OW35467   1.331   3.446   9.584 -0.5448  0.2656 -0.4026
 8003SOL    HW135468   1.415   3.469   9.546 -0.5730 -0.8658 -1.1567
 8003SOL    HW235469   1.356   3.371   9.639  2.2289  3.2600  2.4452
 8004SOL     OW35470   1.821   1.514   4.890  0.2787 -0.3488 -0.2363
 8004SOL    HW135471   1.916   1.501   4.892  0.4153  1.1114  3.1610
 8004SOL    HW235472   1.792   1.428   4.920  0.0594  0.9904  3.4028
 8005SOL     OW35473   3.018   4.269  11.508 -0.1296  0.2266 -0.0746
 8005SOL    HW135474   3.093   4.280  11.448  0.2367  0.0131  0.3487
 8005SOL    HW235475   3.016   4.174  11.508  0.9534  0.1955  0.4974
 8006SOL     OW35476   0.788   4.387   6.310 -0.2836 -0.0538 -0.1379
 8006SOL    HW135477   0.788   4.473   6.351  0.8890 -0.4060  0.6281
 8006SOL    HW235478   0.837   4.416   6.233 -1.5501 -0.9577 -1.2894
 8007SOL     OW35479   3.984   3.041  14.642  0.5466 -0.0117 -0.1328
 8007SOL    HW135480   3.981   3.112  14.578 -0.6730 -0.6282 -0.7563
 8007SOL    HW235481   4.079   3.034  14.656  0.3885 -2.4119 -0.3453
 8008SOL     OW35482   0.518   4.541  16.749  0.5721  0.5582 -0.8038
 8008SOL    HW135483   0.601   4.495  16.765  0.5693  0.3451 -1.4216
 8008SOL    HW235484   0.459   4.467  16.738  1.5997 -0.1312 -1.7130
 8009SOL     OW35485   1.563   4.359   4.602  0.7043  0.2297 -0.3973
 8009SOL    HW135486   1.497   4.385   4.666  1.2183 -1.1072  0.6611
 8009SOL    HW235487   1.615   4.300   4.657  2.1410  3.4281  1.7012
 8010SOL     OW35488   1.877   3.980   4.077 -0.0577 -0.4043  0.3478
 8010SOL    HW135489   1.793   4.023   4.090 -0.8553 -1.5435 -1.0776
 8010SOL    HW235490   1.927   4.062   4.074 -0.8918  0.0360 -1.3022
 8011SOL     OW35491   4.681   0.174   6.280  0.6173 -0.1711  0.4310
 8011SOL    HW135492   0.052   0.182   6.291  0.4277  1.0358  1.1095
 8011SOL    HW235493   4.658   0.116   6.353 -1.0180  2.2347  1.7861
 8012SOL     OW35494   3.854   2.231   4.713  0.9523 -0.1010 -0.4707
 8012SOL    HW135495   3.930   2.188   4.672  2.2825 -0.1785  2.0651
 8012SOL    HW235496   3.828   2.152   4.760  4.9745 -0.2423  1.5418
 8013SOL     OW35497   3.165   4.525   8.514 -0.2687  0.3932  0.8671
 8013SOL    HW135498   3.128   4.537   8.601 -0.8226  1.5573  0.4803
 8013SOL    HW235499   3.253   4.561   8.520 -0.2419  0.7233 -1.5011
 8014SOL     OW35500   2.358   1.140   8.717 -0.5497  0.2325 -0.5632
 8014SOL    HW135501   2.350   1.152   8.622  0.4611 -1.9832 -0.9297
 8014SOL    HW235502   2.281   1.088   8.743 -0.1786 -0.0303  0.0052
 8015SOL     OW35503   2.739   4.649   3.577  0.2823  0.7713  0.3699
 8015SOL    HW135504   2.724   0.006   3.528  0.1797  2.2017  2.7158
 8015SOL    HW235505   2.705   4.689   3.658  0.2574  2.4474 -0.4755
 8016SOL     OW35506   1.065   4.354   8.941 -0.3313 -0.2093  0.4775
 8016SOL    HW135507   1.012   4.382   9.015 -0.5119  2.5765 -0.7050
 8016SOL    HW235508   1.047   4.261   8.957 -0.1438 -0.6409 -1.7299
 8017SOL     OW35509   4.487   2.785   7.624  0.2255 -0.4154 -0.4114
 8017SOL    HW135510   4.392   2.776   7.620  0.1445  0.4822 -0.5709
 8017SOL    HW235511   4.515   2.820   7.539 -0.7170  0.4578 -0.3558
 8018SOL     OW35512   4.113   3.047   0.009 -0.0458 -0.4221  0.8965
 8018SOL    HW135513   4.179   2.979   0.019 -0.3854 -1.0288 -1.0070
 8018SOL    HW235514   4.075   3.052   0.096  1.1483 -0.0614  1.3949
 8019SOL     OW35515   2.748   4.176  11.857  0.2275  0.4180  0.9677
 8019SOL    HW135516   2.656   4.197  11.868 -0.4230 -2.0906  0.3201
 8019SOL    HW235517   2.764   4.232  11.781 -1.8206  1.7432  1.5462
 8020SOL     OW35518   3.379   0.375   4.722  0.7888 -0.1721  1.2161
 8020SOL    HW135519   3.366   0.444   4.657  1.1955 -0.0447  1.2733
 8020SOL    HW235520   3.470   0.386   4.749  1.5531 -0.8747 -1.0576
 8021SOL     OW35521   0.242   4.422  11.054  0.0527  0.1199 -0.5762
 8021SOL    HW135522   0.250   4.455  11.144  0.1096 -1.5750  0.0432
 8021SOL    HW235523   0.193   4.341  11.071  0.3611  0.0512 -0.0031
 8022SOL     OW35524   1.679   2.336   8.298  0.4561  1.0548 -0.2064
 8022SOL    HW135525   1.717   2.310   8.382 -1.5482  2.7088  1.1841
 8022SOL    HW235526   1.760   2.324   8.248 -0.3292  0.4724 -1.3320
 8023SOL     OW35527   0.191   4.578   6.462  0.4309  0.0885 -0.0375
 8023SOL    HW135528   0.180   4.559   6.369 -0.7253 -1.3664  0.3958
 8023SOL    HW235529   0.119   4.639   6.476 -1.8220 -2.2174 -1.6806
 8024SOL     OW35530   1.945   3.494  15.302  0.0861  0.0484  0.0509
 8024SOL    HW135531   2.014   3.561  15.294  2.7679 -2.6823  0.1478
 8024SOL    HW235532   1.973   3.430  15.236  0.8122  1.6593 -1.2205
 8025SOL     OW35533   1.576   3.525   6.012 -0.5083 -0.6492 -0.9583
 8025SOL    HW135534   1.485   3.552   6.018  0.1151  1.4942 -1.0492
 8025SOL    HW235535   1.632   3.603   6.018  0.3213 -1.2614 -0.6276
 8026SOL     OW35536   3.467   3.271   4.218 -0.2589 -0.0176 -0.2768
 8026SOL    HW135537   3.543   3.256   4.162 -1.4915 -0.6524 -1.7528
 8026SOL    HW235538   3.437   3.345   4.165 -1.3787  1.9139  3.0155
 8027SOL     OW35539   1.949   2.606   7.161  0.0127  0.1284 -0.1787
 8027SOL    HW135540   1.920   2.644   7.244 -1.1010 -0.7793 -0.1508
 8027SOL    HW235541   1.867   2.588   7.115 -0.3130  2.5682 -0.5862
 8028SOL     OW35542   1.429   3.015  10.571  0.2818  0.0400  0.7095
 8028SOL    HW135543   1.506   3.030  10.627  1.3859  1.9947 -1.3046
 8028SOL    HW235544   1.430   3.095  10.517  0.7052 -1.5041 -1.5922
 8029SOL     OW35545   3.576   0.063   5.709  0.1728  0.4426 -0.3009
 8029SOL    HW135546   3.510   0.113   5.756 -0.4765 -0.5660 -0.1437
 8029SOL    HW235547   3.580   0.122   5.633 -0.3295 -1.3665 -1.7310
 8030SOL     OW35548   2.833   2.380   8.514  0.0377  0.3195 -0.1209
 8030SOL    HW135549   2.892   2.305   8.515 -1.1068 -0.5638  0.7559
 8030SOL    HW235550   2.778   2.350   8.587  0.3410 -0.9080 -0.4038
 8031SOL     OW35551   4.327   2.984   5.509  0.3389 -0.2076  0.0639
 8031SOL    HW135552   4.388   3.007   5.579  0.5462 -0.1635 -0.1329
 8031SOL    HW235553   4.316   3.066   5.461 -0.8365 -0.4409 -0.0699
 8032SOL     OW35554   3.196   2.592   8.425  0.1767 -0.0463  0.2069
 8032SOL    HW135555   3.254   2.666   8.443  0.2966 -1.0666  4.0398
 8032SOL    HW235556   3.187   2.551   8.511  0.0319 -1.3156 -0.4159
 8033SOL     OW35557   1.493   1.092   4.751  0.2663  0.4385  0.0304
 8033SOL    HW135558   1.417   1.144   4.725 -0.6319 -0.9995 -0.1871
 8033SOL    HW235559   1.557   1.146   4.705  1.3231  0.9731  2.1296
 8034SOL     OW35560   4.430   1.889   4.358  0.2615 -0.5624 -0.0428
 8034SOL    HW135561   4.393   1.977   4.348  0.0347 -0.5658  0.7945
 8034SOL    HW235562   4.481   1.883   4.277  1.0643 -2.0412  0.5608
 8035SOL     OW35563   1.320   3.024   0.647  0.0394  0.0172 -0.0795
 8035SOL    HW135564   1.356   3.058   0.729 -0.8287  0.1880  0.2400
 8035SOL    HW235565   1.394   3.033   0.587 -0.7505  2.2413 -0.7597
 8036SOL     OW35566   2.742   0.954   7.998  0.1515  0.1939 -0.4829
 8036SOL    HW135567   2.704   0.949   7.910  0.3908 -0.2871 -0.5575
 8036SOL    HW235568   2.779   0.867   8.010 -0.1197 -0.0918 -1.6777
 8037SOL     OW35569   0.575   0.460   7.458 -0.2061 -0.4727  0.2347
 8037SOL    HW135570   0.623   0.476   7.539  0.0436  2.6004 -0.5457
 8037SOL    HW235571   0.648   0.453   7.396  0.2317 -1.6715  0.8751
 8038SOL     OW35572   0.110   0.892  13.801  0.9179  0.2502  0.4311
 8038SOL    HW135573   0.027   0.888  13.849  1.0199 -1.2095  0.4960
 8038SOL    HW235574   0.130   0.985  13.804  0.5882  0.2974  1.2071
 8039SOL     OW35575   3.281   1.510   6.500  0.4888  0.3889  0.1612
 8039SOL    HW135576   3.291   1.473   6.588 -3.7318  0.6575  0.7653
 8039SOL    HW235577   3.306   1.433   6.449  0.6286  0.1344  0.6086
 8040SOL     OW35578   2.109   1.215   7.769  0.3244  0.0788  0.1432
 8040SOL    HW135579   2.156   1.156   7.828  0.6355  1.0082  0.8299
 8040SOL    HW235580   2.052   1.261   7.831  0.4297  0.2033  0.1480
 8041SOL     OW35581   4.033   4.320   1.044  0.2718  0.1369  0.3642
 8041SOL    HW135582   3.950   4.365   1.033  0.2105 -0.0342  0.1355
 8041SOL    HW235583   4.009   4.248   1.102  2.3328 -1.0403 -0.2119
 8042SOL     OW35584   2.584   2.644   4.671  0.3845 -0.0563 -0.5417
 8042SOL    HW135585   2.633   2.618   4.593  1.4043  1.3239 -0.3583
 8042SOL    HW235586   2.546   2.725   4.636 -0.7251  0.7257  2.4380
 8043SOL     OW35587   2.517   2.645  13.071  0.2680  0.6500  0.0455
 8043SOL    HW135588   2.539   2.566  13.121 -0.6097  0.1271 -0.4096
 8043SOL    HW235589   2.549   2.619  12.985 -0.6452  1.0730 -0.4157
 8044SOL     OW35590   3.146   2.296   8.093 -0.3435 -0.4893 -0.8085
 8044SOL    HW135591   3.095   2.368   8.131 -1.1039 -2.0658  1.1500
 8044SOL    HW235592   3.156   2.238   8.169 -1.6734 -0.9588 -0.9884
 8045SOL     OW35593   1.784   3.295   8.433 -0.0336  0.1739 -0.6448
 8045SOL    HW135594   1.710   3.327   8.381 -0.7110 -0.4786 -0.0818
 8045SOL    HW235595   1.832   3.376   8.448 -1.7280  1.4562 -2.1316
 8046SOL     OW35596   2.929   4.318   0.526  0.3558 -0.1254  0.0191
 8046SOL    HW135597   2.915   4.304   0.433  0.5434 -0.4500  0.0380
 8046SOL    HW235598   2.865   4.261   0.569  0.1887  0.7379  0.9036
 8047SOL     OW35599   3.838   2.746   5.510 -0.0639  0.2396  0.3243
 8047SOL    HW135600   3.841   2.664   5.463 -1.2353  1.1051 -1.2663
 8047SOL    HW235601   3.930   2.770   5.517  0.2762 -1.7719  2.8601
 8048SOL     OW35602   3.063   0.721   4.984  0.1886 -0.1486  1.1214
 8048SOL    HW135603   3.094   0.767   5.062 -1.1683  1.6991  0.5686
 8048SOL    HW235604   3.045   0.795   4.925 -1.3882 -1.3741  0.0728
 8049SOL     OW35605   1.752   4.618   0.296  1.0838 -0.5685 -0.1881
 8049SOL    HW135606   1.659   4.639   0.287  1.1286 -0.5100 -0.4996
 8049SOL    HW235607   1.762   4.558   0.222 -0.2317 -0.8415 -0.1505
 8050SOL     OW35608   2.229   3.585   7.199 -0.2915 -0.0462  0.1787
 8050SOL    HW135609   2.157   3.584   7.136  0.1911  1.6292 -0.3920
 8050SOL    HW235610   2.233   3.679   7.217 -1.9237 -0.2557  1.6529
 8051SOL     OW35611   2.723   0.750   2.358 -0.1913  0.5213 -0.0193
 8051SOL    HW135612   2.744   0.837   2.324 -0.7867 -0.2765 -2.4652
 8051SOL    HW235613   2.628   0.748   2.371 -0.1669  0.1938  0.1323
 8052SOL     OW35614   0.033   3.339  12.212 -0.1833 -0.2206  0.0597
 8052SOL    HW135615   4.670   3.300  12.211 -0.3012  0.0208  0.5768
 8052SOL    HW235616   0.016   3.432  12.230 -1.1391 -0.3381 -0.2362
 8053SOL     OW35617   1.955   2.904   9.992 -0.0034 -0.0311 -0.3878
 8053SOL    HW135618   1.909   2.826  10.023 -1.2002  0.6203 -0.5132
 8053SOL    HW235619   1.886   2.966   9.968 -0.2950 -0.1904  0.0413
 8054SOL     OW35620   4.560   4.028   6.617 -0.1067  0.3486  0.2709
 8054SOL    HW135621   4.613   4.044   6.539 -1.1644  0.7728 -0.3692
 8054SOL    HW235622   4.630   4.011   6.680  2.2933 -1.6749 -2.9686
 8055SOL     OW35623   0.259   3.320  14.659  0.3035  0.7325  0.4734
 8055SOL    HW135624   0.177   3.295  14.616  1.3558 -1.5993 -0.1725
 8055SOL    HW235625   0.317   3.339  14.585  0.6640 -0.1404  0.5337
 8056SOL     OW35626   0.620   2.580   6.792 -0.0635  0.3532  0.1434
 8056SOL    HW135627   0.712   2.557   6.800 -0.7393 -2.0171  1.0216
 8056SOL    HW235628   0.578   2.528   6.861 -0.8581 -0.4397 -0.9219
 8057SOL     OW35629   3.626   4.287   8.831 -0.3952  0.1410  0.3067
 8057SOL    HW135630   3.578   4.235   8.896 -0.1116  1.3635  1.4782
 8057SOL    HW235631   3.640   4.221   8.763  2.3211 -1.2004  2.1720
 8058SOL     OW35632   4.334   3.764  10.699  0.1018 -0.2941  0.0790
 8058SOL    HW135633   4.289   3.697  10.648  0.7374  0.9564 -2.1425
 8058SOL    HW235634   4.262   3.826  10.711 -0.5264 -0.8198 -0.9637
 8059SOL     OW35635   1.246   4.350   5.658 -0.1148 -0.1902 -0.6419
 8059SOL    HW135636   1.232   4.444   5.667 -0.5527 -0.2715 -0.4752
 8059SOL    HW235637   1.341   4.345   5.672  0.3960  3.6137 -2.8075
 8060SOL     OW35638   0.030   2.584   8.509 -0.4418 -0.1719  0.2247
 8060SOL    HW135639   0.086   2.648   8.465  3.1382 -2.8922  0.8577
 8060SOL    HW235640   0.089   2.515   8.539 -1.9606 -1.0654  1.1361
 8061SOL     OW35641   3.571   2.248   0.921 -0.3080  0.6019  0.5457
 8061SOL    HW135642   3.548   2.256   1.014 -0.2404  0.1768  0.6009
 8061SOL    HW235643   3.578   2.341   0.899  1.8190  0.3183  0.0369
 8062SOL     OW35644   0.163   1.307   7.378 -1.3172  0.9551  0.0302
 8062SOL    HW135645   0.130   1.218   7.386  2.0979 -0.0677  2.4138
 8062SOL    HW235646   0.160   1.340   7.467 -0.1304  1.8246 -0.2479
 8063SOL     OW35647   3.788   4.446   1.041  0.5985 -0.3231  0.0758
 8063SOL    HW135648   3.778   4.527   0.992  1.5565  0.3529  1.0029
 8063SOL    HW235649   3.744   4.470   1.122 -0.2422  0.1336 -0.5191
 8064SOL     OW35650   1.804   3.375   6.529 -0.1552  0.2954 -0.1175
 8064SOL    HW135651   1.738   3.401   6.465  0.1194 -1.2747 -1.0453
 8064SOL    HW235652   1.774   3.428   6.603 -0.6051  0.8310 -0.6840
 8065SOL     OW35653   0.247   3.189  13.329 -0.1596  0.2056 -0.0647
 8065SOL    HW135654   0.196   3.204  13.250 -0.3106  1.9777  0.3755
 8065SOL    HW235655   0.201   3.245  13.392 -0.7654 -0.5283  0.1557
 8066SOL     OW35656   2.358   1.785   9.525  0.2242  0.0139 -0.1093
 8066SOL    HW135657   2.411   1.766   9.448  1.5389  2.5684  0.1543
 8066SOL    HW235658   2.377   1.707   9.578  1.7614 -0.8054 -1.8937
 8067SOL     OW35659   2.682   4.371   2.393  0.0239  0.0950 -0.5118
 8067SOL    HW135660   2.731   4.300   2.351  1.3417 -0.9723  2.8310
 8067SOL    HW235661   2.724   4.369   2.479 -0.2596  4.0100 -0.3246
 8068SOL     OW35662   4.634   0.083  10.072  0.1034  0.2295 -0.9479
 8068SOL    HW135663   4.672   0.165  10.041  1.3777 -0.5089 -1.3117
 8068SOL    HW235664   4.700   0.020  10.045  0.5176  0.9159 -1.5569
 8069SOL     OW35665   4.291   3.527   7.091  0.0495 -0.5637  0.4906
 8069SOL    HW135666   4.262   3.436   7.088 -0.1863 -0.4543 -0.3073
 8069SOL    HW235667   4.269   3.551   7.181  2.0719  3.0304  0.0348
 8070SOL     OW35668   4.379   4.165   4.926 -0.6410 -0.2519 -0.2981
 8070SOL    HW135669   4.437   4.103   4.881  1.1325  0.2798  1.2332
 8070SOL    HW235670   4.296   4.124   4.902 -0.0340 -2.4773  1.3614
 8071SOL     OW35671   4.365   0.798   3.080  0.1009 -0.0388 -0.6393
 8071SOL    HW135672   4.273   0.825   3.085  0.1202  0.1512 -1.3368
 8071SOL    HW235673   4.409   0.883   3.085 -0.1227  0.0525 -0.1840
 8072SOL     OW35674   0.942   0.958   4.503 -0.3483  0.1278 -0.0320
 8072SOL    HW135675   1.009   0.891   4.518 -0.1714  0.0400 -1.1521
 8072SOL    HW235676   0.857   0.914   4.502  0.3863 -1.2834 -2.8493
 8073SOL     OW35677   0.970   1.187  10.433 -0.1945  0.3652 -0.2142
 8073SOL    HW135678   0.960   1.095  10.409  1.7060 -0.1195  0.8879
 8073SOL    HW235679   0.908   1.230  10.374  0.1514  1.8200  0.4622
 8074SOL     OW35680   1.657   3.280   2.229  0.7675  0.3119 -0.2853
 8074SOL    HW135681   1.645   3.214   2.161  2.0119 -1.1885  0.9270
 8074SOL    HW235682   1.718   3.231   2.285  0.1673 -0.1787 -0.0614
 8075SOL     OW35683   1.968   2.408   4.680 -0.1255  0.1218  0.1356
 8075SOL    HW135684   1.980   2.321   4.719 -2.1905 -0.7750 -1.2386
 8075SOL    HW235685   1.897   2.377   4.624 -2.1601 -0.0259  2.8208
 8076SOL     OW35686   0.417   4.309   3.693 -0.0615 -0.1669 -0.9375
 8076SOL    HW135687   0.501   4.313   3.646 -0.2292  1.7942 -1.0833
 8076SOL    HW235688   0.384   4.233   3.645  0.9440  0.4525 -2.6202
 8077SOL     OW35689   3.055   1.397   5.935  0.2467 -0.0789  0.5105
 8077SOL    HW135690   2.976   1.359   5.973  0.4442 -0.5380  0.4580
 8077SOL    HW235691   3.110   1.322   5.914 -0.9286 -0.8036  0.0444
 8078SOL     OW35692   0.105   1.089   3.784 -0.0329 -0.1337 -0.0661
 8078SOL    HW135693   0.177   1.068   3.844 -0.6470  1.2415  1.1407
 8078SOL    HW235694   0.086   0.999   3.756  1.1982 -0.8157  1.2827
 8079SOL     OW35695   1.207   3.580   5.224  0.0884  0.2534  0.0063
 8079SOL    HW135696   1.178   3.620   5.142 -2.0201  1.2353  1.2448
 8079SOL    HW235697   1.279   3.635   5.255  1.8690 -1.5387 -0.9457
 8080SOL     OW35698   0.460   1.540   3.478  0.2818 -0.5171  0.1137
 8080SOL    HW135699   0.417   1.571   3.399 -0.8897 -0.4636  0.7686
 8080SOL    HW235700   0.549   1.533   3.443 -0.6153 -1.4899 -1.9459
 8081SOL     OW35701   2.503   2.005   2.041  0.2065  0.5464 -0.1046
 8081SOL    HW135702   2.421   1.987   2.086 -0.1017 -1.4892 -1.5119
 8081SOL    HW235703   2.568   1.968   2.100 -0.6922 -1.7934 -0.5757
 8082SOL     OW35704   0.223   2.736  17.203  0.2661  0.5801 -0.0826
 8082SOL    HW135705   0.283   2.683  17.257  0.1508  0.4746 -0.0584
 8082SOL    HW235706   0.194   2.663  17.149  1.0395  1.1913 -1.3185
 8083SOL     OW35707   2.926   3.158  16.381 -0.1477 -0.9913  0.0371
 8083SOL    HW135708   2.852   3.164  16.442 -0.0957 -3.0668  0.2804
 8083SOL    HW235709   2.963   3.247  16.382  1.5582 -1.7332  1.8751
 8084SOL     OW35710   4.499   2.657   9.491 -0.1041 -0.5535  0.0690
 8084SOL    HW135711   4.511   2.661   9.396  0.1521  1.0822  0.1700
 8084SOL    HW235712   4.457   2.571   9.497  0.4794 -0.9217 -1.0869
 8085SOL     OW35713   2.975   0.096   2.802 -0.0169 -0.5260 -0.3035
 8085SOL    HW135714   2.936   0.011   2.781  0.2890 -0.1920 -2.1419
 8085SOL    HW235715   2.953   0.146   2.723 -0.2561  0.9423  0.6764
 8086SOL     OW35716   0.285   0.039   2.208  0.2034 -0.2209 -0.1468
 8086SOL    HW135717   0.252   0.065   2.122  0.5427  1.9582  0.3699
 8086SOL    HW235718   0.373   0.012   2.181  0.6266  0.1169  0.8766
 8087SOL     OW35719   1.786   1.074   2.954 -0.6395 -0.1682  0.2232
 8087SOL    HW135720   1.866   1.028   2.977 -1.0154 -0.0251  1.8062
 8087SOL    HW235721   1.719   1.011   2.982 -0.8022 -0.1909 -0.2173
 8088SOL     OW35722   1.275   2.082   7.509  0.0752  0.2283 -0.1951
 8088SOL    HW135723   1.324   2.032   7.574 -0.0284  2.1565  1.3767
 8088SOL    HW235724   1.335   2.098   7.436  2.1091 -0.3443  1.3611
 8089SOL     OW35725   4.200   0.930   2.401 -0.0564  0.1600 -1.0864
 8089SOL    HW135726   4.273   0.872   2.420 -1.0960 -0.2731  1.5944
 8089SOL    HW235727   4.185   0.921   2.307 -0.4768 -0.7557 -0.9255
 8090SOL     OW35728   2.702   1.826  15.100 -0.4075 -0.0436  0.2979
 8090SOL    HW135729   2.780   1.880  15.111 -0.6798  0.5137 -0.4856
 8090SOL    HW235730   2.685   1.828  15.006 -1.5303  0.9107  0.5224
 8091SOL     OW35731   0.121   1.864   4.026 -0.1514  0.1748  0.2166
 8091SOL    HW135732   0.176   1.933   4.064 -1.6464  2.1219 -1.1203
 8091SOL    HW235733   0.183   1.822   3.967 -0.3939 -1.4364  1.1237
 8092SOL     OW35734   4.184   1.871  16.655 -0.0470 -0.1716 -0.8512
 8092SOL    HW135735   4.231   1.863  16.572  1.4336 -1.7160  0.1319
 8092SOL    HW235736   4.144   1.957  16.643  0.2194  0.0902  0.0929
 8093SOL     OW35737   2.322   0.753   3.186 -0.0717  0.1274 -0.1180
 8093SOL    HW135738   2.265   0.769   3.111  0.9478  1.4243 -0.6355
 8093SOL    HW235739   2.373   0.674   3.166  0.1278  0.4201 -0.7708
 8094SOL     OW35740   0.333   0.255  11.724  0.1116 -0.0384  0.2145
 8094SOL    HW135741   0.321   0.319  11.794 -0.6836 -0.7724  0.7457
 8094SOL    HW235742   0.429   0.255  11.720  0.1344  1.5024  1.1635
 8095SOL     OW35743   0.567   3.491  10.984  0.0321 -0.1398 -0.4627
 8095SOL    HW135744   0.609   3.478  10.899  1.8200 -0.4430  0.4641
 8095SOL    HW235745   0.597   3.579  11.009  1.7431 -0.7707 -0.2597
 8096SOL     OW35746   1.870   3.194   1.972 -0.1819  0.5843  0.4489
 8096SOL    HW135747   1.897   3.182   2.063  1.8161 -0.6856 -0.3043
 8096SOL    HW235748   1.951   3.170   1.927  0.8937  1.6467  1.7935
 8097SOL     OW35749   2.978   4.572   3.759 -0.2729  0.1839 -0.2901
 8097SOL    HW135750   2.951   4.592   3.669  0.0429  0.0800 -0.4044
 8097SOL    HW235751   2.898   4.582   3.812 -0.0324 -0.2813  0.1619
 8098SOL     OW35752   0.279   3.743   4.508  0.4601  0.6351  0.2193
 8098SOL    HW135753   0.237   3.659   4.492 -1.7252  1.1236  3.3725
 8098SOL    HW235754   0.311   3.760   4.419 -2.1309  1.4244 -0.5468
 8099SOL     OW35755   2.601   2.837   7.617 -0.7606 -0.1999  0.5080
 8099SOL    HW135756   2.562   2.924   7.604  1.0237  1.0301  3.4024
 8099SOL    HW235757   2.685   2.862   7.655  0.2321  0.1414 -1.9285
 8100SOL     OW35758   3.939   3.339   6.501  0.4845 -0.1761  1.0846
 8100SOL    HW135759   3.896   3.256   6.481  0.6657 -0.5514  2.2877
 8100SOL    HW235760   4.031   3.320   6.482 -0.1435 -1.2797 -0.8075
 8101SOL     OW35761   1.456   0.334  11.085 -0.4050  0.3024 -0.6322
 8101SOL    HW135762   1.456   0.334  11.181  0.3063 -0.5657 -0.6326
 8101SOL    HW235763   1.462   0.429  11.075 -0.8049  0.2827 -1.0531
 8102SOL     OW35764   3.042   4.682   6.569 -0.0588  0.4461  0.6834
 8102SOL    HW135765   2.995   4.706   6.490  0.2063  0.7601  0.6191
 8102SOL    HW235766   3.134   4.701   6.547  0.0623  0.0371  0.8444
 8103SOL     OW35767   0.785   0.055   8.640  0.1999 -0.1050  0.4167
 8103SOL    HW135768   0.878   0.066   8.621  0.6443  0.1030  2.7650
 8103SOL    HW235769   0.758   0.146   8.652  0.8108  0.4263 -2.2751
 8104SOL     OW35770   2.190   1.756   7.500 -0.3488 -0.1728 -0.6294
 8104SOL    HW135771   2.252   1.691   7.533 -0.6831 -0.6886 -1.0177
 8104SOL    HW235772   2.218   1.830   7.555  1.4487 -1.7148  0.5278
 8105SOL     OW35773   2.703   4.548   3.929 -0.4174  0.7118 -0.5031
 8105SOL    HW135774   2.692   4.454   3.941 -0.2849  0.7359 -0.1880
 8105SOL    HW235775   2.615   4.573   3.957  0.8028  1.8516  2.3580
 8106SOL     OW35776   0.605   2.193   3.009 -0.0332 -0.0032 -0.0863
 8106SOL    HW135777   0.526   2.233   2.972  0.1354  1.3979  1.0509
 8106SOL    HW235778   0.649   2.165   2.929 -1.1640  0.2388 -0.7924
 8107SOL     OW35779   3.106   4.172   3.911 -0.3841  0.2691  0.5460
 8107SOL    HW135780   3.174   4.185   3.845 -0.5774 -0.7910  0.1461
 8107SOL    HW235781   3.070   4.086   3.891 -0.7726  0.1896  1.5728
 8108SOL     OW35782   1.579   4.451   7.923  0.4005 -0.0141 -1.0260
 8108SOL    HW135783   1.631   4.493   7.991  2.0826 -0.2425 -2.1820
 8108SOL    HW235784   1.542   4.529   7.882  1.4809  1.4097  0.7221
 8109SOL     OW35785   1.174   3.479   6.490 -0.4787  0.0816 -0.6917
 8109SOL    HW135786   1.216   3.462   6.575  1.5911  0.3724 -1.6621
 8109SOL    HW235787   1.206   3.403   6.441  1.0822  0.5017 -0.3341
 8110SOL     OW35788   3.268   3.996   6.436  0.6261  0.0542  0.3405
 8110SOL    HW135789   3.263   4.066   6.372  0.8542 -1.1683 -1.0310
 8110SOL    HW235790   3.294   4.026   6.523 -1.7961  2.6987  0.1388
 8111SOL     OW35791   1.676   1.013   8.637 -0.4004  0.3793 -0.5635
 8111SOL    HW135792   1.688   1.068   8.714 -2.9201 -1.9629  1.4666
 8111SOL    HW235793   1.712   1.076   8.574  0.3142  1.7695  1.2475
 8112SOL     OW35794   3.880   2.496   4.069 -0.2444 -0.2818  0.5591
 8112SOL    HW135795   3.906   2.572   4.122  1.4110 -0.8339  0.5631
 8112SOL    HW235796   3.864   2.438   4.143 -0.6018  0.2301  0.8787
 8113SOL     OW35797   2.228   1.541   3.303 -0.0273 -0.8982 -0.9183
 8113SOL    HW135798   2.234   1.452   3.267  0.9276  0.0535 -3.1055
 8113SOL    HW235799   2.261   1.532   3.393  1.5326  0.5979 -1.3485
 8114SOL     OW35800   3.475   4.117   9.001 -0.2692 -0.2324  0.0807
 8114SOL    HW135801   3.514   4.052   9.058  0.7090 -2.3366 -2.9782
 8114SOL    HW235802   3.383   4.125   9.028 -0.2289  1.3298 -0.2066
 8115SOL     OW35803   2.939   1.692   8.226 -0.3275 -0.1734 -0.2344
 8115SOL    HW135804   2.851   1.693   8.188 -0.7700 -1.6895  0.7352
 8115SOL    HW235805   2.921   1.702   8.319  1.4660  1.5721 -0.0723
 8116SOL     OW35806   0.327   3.886   5.078 -0.4840 -0.1633  0.5669
 8116SOL    HW135807   0.296   3.964   5.125  2.6081  0.9680  0.7031
 8116SOL    HW235808   0.268   3.821   5.118 -0.0194 -0.9881 -0.1100
 8117SOL     OW35809   4.213   1.242   6.713 -0.4068  0.2943 -0.3400
 8117SOL    HW135810   4.123   1.276   6.719 -1.2016 -2.4993  3.3947
 8117SOL    HW235811   4.237   1.289   6.633 -0.1340 -0.0515 -0.4570
 8118SOL     OW35812   3.006   2.214   3.919 -1.1586 -0.1631 -0.4176
 8118SOL    HW135813   2.966   2.157   3.854  0.3516 -1.2110 -0.4331
 8118SOL    HW235814   2.980   2.303   3.895 -1.2899 -0.1255 -0.1367
 8119SOL     OW35815   2.022   2.029  15.355 -0.2488 -0.5635 -0.3196
 8119SOL    HW135816   2.103   2.026  15.305 -1.0762  3.6441 -1.9571
 8119SOL    HW235817   1.993   1.939  15.340 -0.4723 -0.0342 -3.0032
 8120SOL     OW35818   2.405   3.143   8.893 -0.0731 -0.2206 -0.4027
 8120SOL    HW135819   2.343   3.189   8.837 -2.0452  0.2541  2.1880
 8120SOL    HW235820   2.362   3.058   8.898 -2.2857  0.8456 -1.3686
 8121SOL     OW35821   1.702   0.990   3.314 -0.5869  0.1781 -0.3130
 8121SOL    HW135822   1.615   0.953   3.325 -0.9054  1.2537  0.7767
 8121SOL    HW235823   1.721   0.969   3.223  0.7214 -0.5709  0.1241
 8122SOL     OW35824   0.392   3.766   8.926  0.1437  0.2663  0.4938
 8122SOL    HW135825   0.330   3.834   8.899  0.5287  0.5362  0.2944
 8122SOL    HW235826   0.452   3.755   8.852  0.6419  0.8442  0.8170
 8123SOL     OW35827   2.416   0.062   2.567  0.1394  0.4288  0.0618
 8123SOL    HW135828   2.365   0.060   2.486  0.1310  2.1157  0.0151
 8123SOL    HW235829   2.458   4.700   2.568 -0.4893  0.1097 -0.3440
 8124SOL     OW35830   2.959   0.176  10.465  0.6783  0.1915 -0.5429
 8124SOL    HW135831   2.907   0.178  10.546 -0.1966 -0.5261 -1.0795
 8124SOL    HW235832   3.011   0.097  10.481 -0.1692 -0.1385  0.6079
 8125SOL     OW35833   0.333   3.361   4.066 -0.2539 -0.3567 -0.1991
 8125SOL    HW135834   0.370   3.442   4.102 -0.4076  0.0911 -1.0515
 8125SOL    HW235835   0.397   3.303   4.108 -0.1325 -1.0166 -1.3080
 8126SOL     OW35836   4.467   0.023   7.938  0.3609  0.1204  0.4046
 8126SOL    HW135837   4.462   4.652   7.925 -1.0660  0.3638 -0.8067
 8126SOL    HW235838   4.381   0.057   7.916  0.0568 -1.0040 -0.1739
 8127SOL     OW35839   3.160   0.002  13.268 -0.2600 -0.5171  0.2210
 8127SOL    HW135840   3.076   0.048  13.268  0.4276  0.7392  0.4263
 8127SOL    HW235841   3.152   4.673  13.347  1.6621  0.0855  0.8015
 8128SOL     OW35842   3.816   3.026   5.809  0.2536 -0.1297 -0.4152
 8128SOL    HW135843   3.837   3.118   5.818  1.2465  0.0793 -4.6099
 8128SOL    HW235844   3.893   3.004   5.756  1.0528  0.9025  0.3314
 8129SOL     OW35845   3.264   3.384   7.767  0.0700  0.4547 -0.2862
 8129SOL    HW135846   3.230   3.299   7.739  0.2297  0.1085  0.5901
 8129SOL    HW235847   3.344   3.390   7.714  0.4970 -1.8610  0.1245
 8130SOL     OW35848   3.725   0.999   8.255 -0.1531 -0.4243  0.0977
 8130SOL    HW135849   3.787   1.047   8.309  0.2209  1.1563 -1.7290
 8130SOL    HW235850   3.658   1.001   8.323 -0.0284  1.4371  0.1846
 8131SOL     OW35851   0.936   0.677   6.152  0.2028  0.1153  0.0740
 8131SOL    HW135852   0.912   0.711   6.066 -0.2253 -0.4339 -0.0301
 8131SOL    HW235853   0.849   0.642   6.174  1.1174 -1.9985  0.3126
 8132SOL     OW35854   1.623   4.500   3.931 -0.5518 -0.4390 -0.2938
 8132SOL    HW135855   1.635   4.565   3.861 -1.4240 -0.1227 -0.1536
 8132SOL    HW235856   1.663   4.419   3.898  0.9739  1.0330 -2.0349
 8133SOL     OW35857   1.457   3.564  17.410  0.4933  0.2390 -0.3420
 8133SOL    HW135858   1.425   3.638  17.461  1.8595  0.1614  0.6356
 8133SOL    HW235859   1.533   3.603  17.365  1.1305 -0.2472  0.3107
 8134SOL     OW35860   3.301   1.223   8.495 -0.3690 -0.1415 -0.1376
 8134SOL    HW135861   3.207   1.220   8.478 -0.6364 -1.1705  1.5047
 8134SOL    HW235862   3.302   1.225   8.591  1.4482 -1.5060 -0.1246
 8135SOL     OW35863   2.380   3.872   2.680 -0.0371 -0.2503 -0.0820
 8135SOL    HW135864   2.349   3.789   2.646  1.7080 -1.7255  1.9601
 8135SOL    HW235865   2.451   3.901   2.623 -0.2201  0.0792 -0.1480
 8136SOL     OW35866   2.209   2.894  13.938  0.0051 -0.0327  0.3286
 8136SOL    HW135867   2.132   2.937  13.976 -0.4580 -1.7752  1.3163
 8136SOL    HW235868   2.284   2.920  13.991 -0.2052  0.5790  0.3314
 8137SOL     OW35869   1.785   2.444   7.643 -0.0744  0.3131  0.2919
 8137SOL    HW135870   1.815   2.485   7.562 -2.3623  1.2856 -0.0780
 8137SOL    HW235871   1.741   2.520   7.680  0.4377  1.6871 -1.9126
 8138SOL     OW35872   1.846   0.594   2.199 -0.1064  0.0200 -0.1912
 8138SOL    HW135873   1.771   0.645   2.170 -0.0155 -0.5960 -1.5131
 8138SOL    HW235874   1.913   0.659   2.180  1.3639 -1.1418  0.9881
 8139SOL     OW35875   2.623   0.387  17.041 -0.0526 -0.6444 -0.0609
 8139SOL    HW135876   2.688   0.320  17.022 -0.3236 -0.3587 -1.9750
 8139SOL    HW235877   2.545   0.336  17.062 -0.8581  1.1624  1.3098
 8140SOL     OW35878   1.245   1.197   2.900  0.2231 -0.0558  0.1080
 8140SOL    HW135879   1.298   1.124   2.867  1.8537  0.7676  0.9038
 8140SOL    HW235880   1.159   1.172   2.865 -0.1027 -0.4654  1.1864
 8141SOL     OW35881   3.968   3.663   5.644 -0.0542 -0.2955 -1.2068
 8141SOL    HW135882   4.051   3.692   5.606 -0.8461  2.1226 -1.1076
 8141SOL    HW235883   3.975   3.569   5.630  1.7369  0.0052 -2.3182
 8142SOL     OW35884   3.107   3.765   8.020  0.0639 -0.2214 -0.5618
 8142SOL    HW135885   3.077   3.719   8.098  1.0350 -2.5350 -1.5498
 8142SOL    HW235886   3.095   3.695   7.955 -0.6824  1.8617 -2.7018
 8143SOL     OW35887   2.716   4.138   0.546  0.1546  0.0717  0.1669
 8143SOL    HW135888   2.629   4.102   0.560  2.1229 -4.1202  1.9062
 8143SOL    HW235889   2.718   4.153   0.452  1.5722  2.5465  0.6102
 8144SOL     OW35890   4.068   1.159  15.086 -0.2643 -0.2495 -0.0991
 8144SOL    HW135891   4.068   1.171  14.991 -1.3326  2.1215  0.2166
 8144SOL    HW235892   3.976   1.138  15.103 -0.4674  0.6414 -0.1284
 8145SOL     OW35893   2.072   4.016   7.485 -0.5227 -0.7056 -0.6620
 8145SOL    HW135894   2.095   4.105   7.515 -2.3615  0.7657 -3.6830
 8145SOL    HW235895   1.991   4.006   7.534 -0.9620 -0.5489 -1.3628
 8146SOL     OW35896   1.430   4.549  17.581  0.1797  0.2556 -0.2269
 8146SOL    HW135897   1.445   4.534  17.487 -0.4600 -0.3868 -0.2287
 8146SOL    HW235898   1.518   4.529  17.610 -0.4144  1.0069  2.0590
 8147SOL     OW35899   0.782   2.148   6.217 -0.3624 -0.4561  0.1867
 8147SOL    HW135900   0.712   2.199   6.258  1.3619  1.5400  0.6476
 8147SOL    HW235901   0.861   2.195   6.242  0.7532 -2.3038  0.1516
 8148SOL     OW35902   4.101   2.566   6.562  0.3352 -0.3383  0.8401
 8148SOL    HW135903   4.095   2.582   6.656  0.9621 -2.5377  1.2716
 8148SOL    HW235904   4.027   2.619   6.534  0.5654  0.2006  1.2491
 8149SOL     OW35905   2.780   1.683  16.167  0.2169  0.1055  0.1454
 8149SOL    HW135906   2.859   1.673  16.114  1.0101  2.6078  0.8652
 8149SOL    HW235907   2.744   1.762  16.127 -1.6212 -0.7520  0.0831
 8150SOL     OW35908   3.475   2.752   3.410 -0.7126  0.2858  0.4745
 8150SOL    HW135909   3.393   2.801   3.406 -0.9362 -0.0554  0.8818
 8150SOL    HW235910   3.459   2.662   3.439  0.2967  0.1028  0.4647
 8151SOL     OW35911   1.808   4.412  16.437 -0.5142  0.5261 -0.1681
 8151SOL    HW135912   1.797   4.500  16.401 -3.9940 -0.8946 -2.5440
 8151SOL    HW235913   1.902   4.427  16.449 -0.6510  1.1616  0.1376
 8152SOL     OW35914   1.744   0.026  17.679 -0.4807 -0.4782 -0.4389
 8152SOL    HW135915   1.836   0.024  17.653  0.4282  1.3860  2.6708
 8152SOL    HW235916   1.717   4.659  17.695  1.3902 -1.1707 -1.2337
 8153SOL     OW35917   3.898   0.344   2.245  0.0873 -0.1099  0.4510
 8153SOL    HW135918   3.970   0.292   2.283  1.0197  1.1444  0.3724
 8153SOL    HW235919   3.834   0.296   2.298  0.3396  0.6710  1.4661
 8154SOL     OW35920   2.152   1.309   8.830  0.1630 -0.3263  0.2245
 8154SOL    HW135921   2.202   1.257   8.893  1.2466 -1.6222 -1.6949
 8154SOL    HW235922   2.117   1.242   8.770  1.0199 -0.8195  0.2709
 8155SOL     OW35923   3.263   0.430  11.368  0.2215 -0.3724  0.4410
 8155SOL    HW135924   3.278   0.524  11.357 -1.8083 -0.1135 -0.1458
 8155SOL    HW235925   3.348   0.406  11.330  1.2666  1.0871  1.8506
 8156SOL     OW35926   0.172   1.114   2.847  0.2076  0.5394  0.1610
 8156SOL    HW135927   0.228   1.070   2.912  0.2166 -3.1012 -2.3186
 8156SOL    HW235928   0.232   1.177   2.808  2.0441  0.5046  2.8783
 8157SOL     OW35929   3.509   1.843  15.789  0.3353  0.2471  0.1170
 8157SOL    HW135930   3.577   1.903  15.817  0.1124 -0.1364  1.4862
 8157SOL    HW235931   3.531   1.852  15.696 -2.4879  0.2687 -0.5539
 8158SOL     OW35932   4.123   1.967  10.762  0.0688 -0.3215 -0.2495
 8158SOL    HW135933   4.117   1.923  10.846 -1.5962 -0.7681 -0.6083
 8158SOL    HW235934   4.048   2.026  10.766  0.2020 -0.3258  2.0135
 8159SOL     OW35935   0.991   3.696   5.412 -0.7595 -0.5207 -0.0550
 8159SOL    HW135936   0.925   3.693   5.343 -2.5356  0.1652  1.6176
 8159SOL    HW235937   1.056   3.747   5.364 -1.0964 -1.6448 -1.7149
 8160SOL     OW35938   0.233   1.953   0.241  0.0594 -0.2523  0.3883
 8160SOL    HW135939   0.152   1.903   0.255  0.2203  0.1804  2.9009
 8160SOL    HW235940   0.290   1.886   0.205 -0.4993  0.0073 -0.9866
 8161SOL     OW35941   1.460   2.440   3.723 -0.0444 -0.0077 -0.3219
 8161SOL    HW135942   1.482   2.467   3.634 -0.8643  1.1481 -0.1630
 8161SOL    HW235943   1.370   2.470   3.728  0.3718  1.3356 -0.8312
 8162SOL     OW35944   3.684   3.847   9.621  0.5769 -0.3285 -0.4954
 8162SOL    HW135945   3.756   3.825   9.562  0.0738  0.0434 -1.2350
 8162SOL    HW235946   3.624   3.887   9.558  0.2366  0.6195  0.4171
 8163SOL     OW35947   0.045   2.715   5.076  0.1236 -0.5605 -0.0889
 8163SOL    HW135948   4.722   2.680   5.151 -1.8937 -1.1604 -1.6260
 8163SOL    HW235949   0.123   2.745   5.123 -0.5694 -0.0943  0.7519
 8164SOL     OW35950   4.441   0.253  12.641  0.8510  0.0350  0.1487
 8164SOL    HW135951   4.509   0.300  12.593  0.4541 -1.0095 -1.4376
 8164SOL    HW235952   4.466   0.261  12.733  1.4121 -1.1603  0.0906
 8165SOL     OW35953   1.335   3.395   4.962  0.0834  0.2585  0.2121
 8165SOL    HW135954   1.323   3.357   4.876  0.6197  1.8653 -0.5762
 8165SOL    HW235955   1.280   3.474   4.960 -0.1249  0.1004 -0.1565
 8166SOL     OW35956   2.773   0.738   3.605  0.0130 -0.6835  0.4496
 8166SOL    HW135957   2.851   0.773   3.649  1.9704 -1.8594 -2.0917
 8166SOL    HW235958   2.725   0.697   3.677 -1.8324  0.3851 -0.1610
 8167SOL     OW35959   3.543   0.085  10.944  0.4541  0.2431  0.0446
 8167SOL    HW135960   3.482   0.159  10.941  0.8033  0.4831 -1.3172
 8167SOL    HW235961   3.484   0.010  10.941  0.3222  0.3252  0.7375
 8168SOL     OW35962   2.755   2.951   9.963  0.5121  0.4761  0.5072
 8168SOL    HW135963   2.793   2.864   9.962  0.6598  0.5432  0.0976
 8168SOL    HW235964   2.739   2.959  10.057  0.8410  0.7737  0.5412
 8169SOL     OW35965   0.296   4.666   4.534  0.6337 -0.1522  0.1448
 8169SOL    HW135966   0.334   4.586   4.497 -0.4668 -0.1488 -0.9946
 8169SOL    HW235967   0.212   4.635   4.565  1.5376 -0.7282  2.0119
 8170SOL     OW35968   0.118   2.295   4.277 -0.1574 -0.1366  0.9465
 8170SOL    HW135969   0.049   2.285   4.213 -1.5331  4.1812  1.7365
 8170SOL    HW235970   0.088   2.229   4.340 -1.1204 -1.8109 -1.2849
 8171SOL     OW35971   3.091   4.040   6.158 -0.4966 -0.2317  0.0670
 8171SOL    HW135972   3.057   3.972   6.217  0.8766 -2.7845 -2.1195
 8171SOL    HW235973   3.047   4.009   6.079 -0.8681 -1.7351  0.8670
 8172SOL     OW35974   2.937   4.182   9.155 -0.0873 -0.1024 -0.2387
 8172SOL    HW135975   2.856   4.225   9.128  0.5449  1.4250  0.2567
 8172SOL    HW235976   3.005   4.247   9.134 -1.1330  0.7230 -1.0907
 8173SOL     OW35977   1.184   0.330   3.108  0.1105  0.9354 -0.1403
 8173SOL    HW135978   1.106   0.365   3.151 -0.2836 -0.3312  0.1776
 8173SOL    HW235979   1.149   0.332   3.020 -0.3410 -0.2398  0.0097
 8174SOL     OW35980   4.028   4.006   2.290 -0.3652  0.1810 -0.1003
 8174SOL    HW135981   4.103   3.949   2.308  0.9468  1.7367 -0.6422
 8174SOL    HW235982   4.072   4.080   2.249 -2.0902  1.1321 -0.2601
 8175SOL     OW35983   0.258   3.072  15.686  0.4175 -0.3999  1.1450
 8175SOL    HW135984   0.283   3.065  15.593 -3.6895 -0.8159  0.0713
 8175SOL    HW235985   0.343   3.055  15.725 -0.2763 -0.4241  2.6226
 8176SOL     OW35986   3.128   3.899   4.238 -0.0894 -0.3689  0.0816
 8176SOL    HW135987   3.173   3.864   4.314  2.2106  1.4717 -0.4418
 8176SOL    HW235988   3.079   3.822   4.208 -0.7785 -1.2494  3.5589
 8177SOL     OW35989   2.457   3.861   8.700  0.1554 -0.4481 -0.2658
 8177SOL    HW135990   2.542   3.844   8.739 -0.2911  0.5852  1.1735
 8177SOL    HW235991   2.434   3.779   8.657  0.3950  1.3913 -3.8603
 8178SOL     OW35992   2.259   4.113   1.548 -1.0863  0.0201 -0.2653
 8178SOL    HW135993   2.166   4.136   1.560 -1.2336 -1.1845  0.8221
 8178SOL    HW235994   2.282   4.148   1.461  0.7347 -0.0805  0.1822
 8179SOL     OW35995   1.350   0.011   0.088  0.0462  0.0474  0.6597
 8179SOL    HW135996   1.277   0.071   0.107 -0.5152 -0.2901 -0.3928
 8179SOL    HW235997   1.322   4.692   0.007  0.7454  0.7112  0.0747
 8180SOL     OW35998   3.660   1.302   6.873 -0.0918 -0.1183  0.2103
 8180SOL    HW135999   3.621   1.257   6.798 -0.4804  0.4501  0.0689
 8180SOL    HW236000   3.615   1.258   6.945 -1.1179  1.8681  0.7864
 8181SOL     OW36001   1.048   2.490   1.037  0.4827  0.1493 -0.2413
 8181SOL    HW136002   1.081   2.504   1.125  1.3898 -0.7241 -0.4400
 8181SOL    HW236003   1.019   2.577   1.010  0.1357  0.3130  0.6644
 8182SOL     OW36004   4.630   3.509   4.346 -0.4865  0.4339  0.5881
 8182SOL    HW136005   4.656   3.593   4.308 -1.7535  0.8525  0.6555
 8182SOL    HW236006   4.619   3.456   4.267 -0.7036  1.6455 -0.2026
 8183SOL     OW36007   1.553   0.127   8.616 -0.2333 -0.1969  0.8617
 8183SOL    HW136008   1.568   0.210   8.661 -0.1076  0.4875 -0.4125
 8183SOL    HW236009   1.554   0.069   8.692 -0.4512 -0.4199  0.6946
 8184SOL     OW36010   3.957   2.125  16.654  0.0625  0.1104 -0.7727
 8184SOL    HW136011   4.052   2.124  16.638 -0.1833 -0.9965 -2.1877
 8184SOL    HW236012   3.948   2.093  16.743  0.4918 -0.8205 -1.0578
 8185SOL     OW36013   4.661   4.290   3.905 -0.0075 -0.1390  0.1211
 8185SOL    HW136014   0.025   4.308   3.871 -0.8877  4.0192  0.1762
 8185SOL    HW236015   4.681   4.200   3.932 -0.3681 -0.9329 -2.2266
 8186SOL     OW36016   3.689   2.020   7.206 -0.0095  0.4601  0.0150
 8186SOL    HW136017   3.670   2.057   7.120 -0.0895 -1.2266 -0.6922
 8186SOL    HW236018   3.612   1.964   7.206 -1.2302  2.1367  1.6379
 8187SOL     OW36019   3.778   4.075   0.617 -0.3342 -0.1878 -0.3072
 8187SOL    HW136020   3.799   4.141   0.550  0.8445  0.2476  0.4768
 8187SOL    HW236021   3.723   4.127   0.676 -0.3213 -1.6286  0.9740
 8188SOL     OW36022   1.861   0.605   2.850  0.5592  0.4434  0.3461
 8188SOL    HW136023   1.886   0.515   2.875 -0.0258  0.8587  2.3915
 8188SOL    HW236024   1.938   0.658   2.871  1.5238  0.2521 -2.6842
 8189SOL     OW36025   3.782   0.428   7.864 -0.0170 -0.2668 -0.3503
 8189SOL    HW136026   3.819   0.516   7.871 -3.2231  1.0085  0.5347
 8189SOL    HW236027   3.731   0.425   7.945 -0.6527 -0.6121 -0.7619
 8190SOL     OW36028   3.618   2.607   4.023  0.0601  0.1032 -0.1843
 8190SOL    HW136029   3.698   2.556   4.011  0.3975  0.3894  0.9077
 8190SOL    HW236030   3.586   2.612   3.933  2.4645  2.1130 -0.9519
 8191SOL     OW36031   2.367   1.425   6.912  0.3392 -0.0429 -0.2480
 8191SOL    HW136032   2.405   1.490   6.853 -0.3421 -0.5294 -1.2231
 8191SOL    HW236033   2.402   1.461   6.993 -1.0560 -1.2182  0.8975
 8192SOL     OW36034   0.296   4.021   9.654  0.1990  0.0077  0.2685
 8192SOL    HW136035   0.344   4.031   9.736 -0.3104  2.0135  0.3132
 8192SOL    HW236036   0.229   4.087   9.669  0.4722  0.5816 -0.9885
 8193SOL     OW36037   2.943   0.173   1.153 -0.3290  0.3398  0.3156
 8193SOL    HW136038   2.993   0.191   1.074 -0.6032  0.6635  0.2159
 8193SOL    HW236039   2.954   0.250   1.209  1.0815  0.1584  0.2873
 8194SOL     OW36040   4.673   1.735   7.853 -0.0376 -0.0144  0.2894
 8194SOL    HW136041   4.699   1.671   7.787  0.8558 -0.0555  0.6845
 8194SOL    HW236042   0.031   1.755   7.898  1.1217 -2.1815 -0.8504
 8195SOL     OW36043   4.376   3.134   9.511 -0.1929  0.1016  0.0816
 8195SOL    HW136044   4.360   3.039   9.506 -0.3811  0.1277  0.1794
 8195SOL    HW236045   4.433   3.148   9.436 -1.1298 -0.8961 -0.8210
 8196SOL     OW36046   0.743   2.683   5.929  0.0364  0.6272  0.1714
 8196SOL    HW136047   0.676   2.623   5.961  0.0795  0.9161  0.8021
 8196SOL    HW236048   0.808   2.689   6.000  0.3260 -0.1963 -0.0215
 8197SOL     OW36049   2.666   0.245   9.085 -0.5450 -0.0439 -0.7526
 8197SOL    HW136050   2.630   0.293   9.159 -1.3558 -0.6263 -0.7632
 8197SOL    HW236051   2.714   0.189   9.146 -0.5649  0.6849 -0.0741
 8198SOL     OW36052   0.510   0.154   7.446 -0.1344 -0.8548  1.2002
 8198SOL    HW136053   0.506   0.082   7.384  1.0383 -0.1456  0.3004
 8198SOL    HW236054   0.463   0.225   7.403  0.5247 -2.3393 -1.9484
 8199SOL     OW36055   2.235   2.454  11.511  0.1767 -0.1422  0.4376
 8199SOL    HW136056   2.233   2.414  11.598  0.3449  0.3072  0.6495
 8199SOL    HW236057   2.269   2.541  11.531  1.5652 -0.6848  0.4207
 8200SOL     OW36058   3.559   3.091   7.369  0.5673  0.3213 -0.3797
 8200SOL    HW136059   3.572   2.997   7.381  0.7991  0.4962  0.7037
 8200SOL    HW236060   3.621   3.101   7.297  1.5870  1.3065  0.6390
 8201SOL     OW36061   0.648   4.623   1.424  0.0183  0.5320 -0.5355
 8201SOL    HW136062   0.575   4.683   1.440  1.3456  2.1289 -0.4613
 8201SOL    HW236063   0.670   4.653   1.336 -0.6329  0.8772 -0.5886
 8202SOL     OW36064   1.116   1.630   8.807 -0.0569  0.1179  0.0623
 8202SOL    HW136065   1.069   1.547   8.794 -0.6657  0.1464  2.1007
 8202SOL    HW236066   1.172   1.636   8.730 -1.3352  0.4400 -0.8477
 8203SOL     OW36067   2.739   0.931  15.699 -0.0637 -0.2618  1.2599
 8203SOL    HW136068   2.830   0.914  15.674 -0.1978 -0.4526  0.8923
 8203SOL    HW236069   2.694   0.880  15.632  2.3619  0.7991 -1.1753
 8204SOL     OW36070   2.542   4.167   4.819 -0.2062 -0.1961  0.5331
 8204SOL    HW136071   2.628   4.125   4.819  0.7439  1.7290  0.5594
 8204SOL    HW236072   2.570   4.243   4.767  2.5246 -0.9347  0.9108
 8205SOL     OW36073   1.132   2.962   6.358  0.3506  0.4354 -0.5556
 8205SOL    HW136074   1.063   2.988   6.297 -1.0402  0.2400  0.9332
 8205SOL    HW236075   1.076   2.946   6.434  0.3474  0.5094 -0.5422
 8206SOL     OW36076   4.105   4.411   5.954  0.1069  0.2158  0.2182
 8206SOL    HW136077   4.142   4.327   5.928 -0.2945  0.2341 -0.4173
 8206SOL    HW236078   4.182   4.463   5.933  0.4183 -0.5743 -0.5671
 8207SOL     OW36079   1.248   1.205  17.125 -0.4056 -0.3233 -0.2004
 8207SOL    HW136080   1.269   1.172  17.212  1.5344 -2.1247 -1.3370
 8207SOL    HW236081   1.154   1.189  17.122 -0.4755 -0.1774  1.1038
 8208SOL     OW36082   4.066   2.958   4.455 -0.4029  0.0015 -0.6664
 8208SOL    HW136083   4.113   2.950   4.538  1.0820  0.3947 -1.4567
 8208SOL    HW236084   3.985   3.004   4.475 -0.8140 -1.4529  1.0283
 8209SOL     OW36085   2.398   4.200  14.752 -0.3116 -0.1538 -0.3665
 8209SOL    HW136086   2.450   4.140  14.806  1.8056  1.3046 -0.7518
 8209SOL    HW236087   2.472   4.239  14.706  0.7350  2.3687  3.4210
 8210SOL     OW36088   0.007   1.841   6.389 -0.2927  0.0987 -0.6057
 8210SOL    HW136089   0.021   1.896   6.312  0.1458  1.6961  0.5989
 8210SOL    HW236090   4.676   1.767   6.362  1.1634 -1.5269  0.9483
 8211SOL     OW36091   1.658   2.128  12.817 -0.2252  0.0172  0.7318
 8211SOL    HW136092   1.647   2.095  12.906 -1.7883  0.9015  0.8776
 8211SOL    HW236093   1.735   2.088  12.777 -0.4587 -0.3702  0.6614
 8212SOL     OW36094   3.168   2.435   3.798  0.1376 -0.3649 -0.9288
 8212SOL    HW136095   3.184   2.378   3.873  1.7392  1.9435  0.4642
 8212SOL    HW236096   3.193   2.520   3.834 -0.4363  0.3798 -2.2588
 8213SOL     OW36097   2.701   4.673   7.790  0.2700 -0.1994 -0.3004
 8213SOL    HW136098   2.616   4.711   7.767  0.2513 -0.2517 -0.3166
 8213SOL    HW236099   2.691   4.588   7.747 -1.3029 -0.1292 -0.0746
 8214SOL     OW36100   4.578   1.953   9.924 -0.2338 -0.3865 -0.0616
 8214SOL    HW136101   4.636   1.878   9.914  0.8385  0.6827 -1.8568
 8214SOL    HW236102   4.489   1.916   9.928  0.4304 -1.8284  1.4527
 8215SOL     OW36103   4.233   0.128   0.918  0.3598  0.4078 -0.1381
 8215SOL    HW136104   4.246   0.203   0.860 -1.4766  0.8872  0.0798
 8215SOL    HW236105   4.326   0.104   0.923  0.5817  0.9336 -1.6580
 8216SOL     OW36106   0.124   2.195   0.322 -0.2964 -0.1521 -0.2667
 8216SOL    HW136107   0.166   2.122   0.277 -0.3374 -0.8292  0.7740
 8216SOL    HW236108   0.054   2.211   0.258  0.0012  0.2859 -0.4797
 8217SOL     OW36109   3.227   0.468   1.829 -0.7887  0.3488 -0.1591
 8217SOL    HW136110   3.243   0.562   1.823  0.9111  0.1302  0.9261
 8217SOL    HW236111   3.297   0.450   1.892 -2.8277 -0.3368  1.9255
 8218SOL     OW36112   3.300   2.734   0.692 -0.0156  0.2248  0.5529
 8218SOL    HW136113   3.272   2.795   0.760 -0.0056  0.8805 -0.0372
 8218SOL    HW236114   3.223   2.681   0.670 -1.2149  2.7049 -1.2461
 8219SOL     OW36115   3.314   1.650  15.848  0.5573 -0.3597 -0.0058
 8219SOL    HW136116   3.345   1.597  15.921  1.1541  1.3654  1.0153
 8219SOL    HW236117   3.390   1.708  15.837  1.2824 -1.4889 -0.9302
 8220SOL     OW36118   3.180   4.124   5.802  0.1736  0.4592 -0.4098
 8220SOL    HW136119   3.213   4.081   5.723  3.3145  2.1895 -0.0532
 8220SOL    HW236120   3.225   4.080   5.873 -0.5290 -0.2582 -0.4105
 8221SOL     OW36121   4.272   2.097  13.979  0.6944 -0.4559  0.1270
 8221SOL    HW136122   4.334   2.035  14.017 -1.1437 -1.0018  2.2307
 8221SOL    HW236123   4.195   2.042  13.992 -0.8516  2.1257  1.8143
 8222SOL     OW36124   0.078   0.878   7.163  0.2557 -0.3711  0.3039
 8222SOL    HW136125   0.011   0.940   7.135  0.5002  0.3640  1.3574
 8222SOL    HW236126   0.045   0.797   7.124  1.4498 -0.5211 -0.3928
 8223SOL     OW36127   0.995   0.588  11.854  0.0014  0.3915  0.2445
 8223SOL    HW136128   1.029   0.675  11.833 -0.1049 -0.0854 -1.8818
 8223SOL    HW236129   1.014   0.589  11.948  0.2873 -0.8071  0.1984
 8224SOL     OW36130   1.517   2.331   3.205 -0.6303 -0.3717  1.1980
 8224SOL    HW136131   1.431   2.367   3.185  0.3079 -0.4917 -3.0606
 8224SOL    HW236132   1.561   2.416   3.211  2.1001 -1.7548  0.7165
 8225SOL     OW36133   3.576   1.917   7.835 -0.0358 -0.0212  0.1280
 8225SOL    HW136134   3.670   1.910   7.818 -0.3696 -2.0845 -0.9719
 8225SOL    HW236135   3.547   1.995   7.787  0.4437 -0.2182 -0.4790
 8226SOL     OW36136   2.655   0.802   8.692 -0.3288 -0.7858  0.4420
 8226SOL    HW136137   2.698   0.873   8.739 -0.8191  0.0336 -0.3442
 8226SOL    HW236138   2.698   0.825   8.610 -0.0312  0.4756  0.9515
 8227SOL     OW36139   1.313   3.596  11.356  0.2194  0.1918 -0.3983
 8227SOL    HW136140   1.340   3.611  11.265 -4.1861  2.5085 -1.3121
 8227SOL    HW236141   1.396   3.574  11.399  0.2530  0.8736 -0.1134
 8228SOL     OW36142   3.099   1.221   4.067 -0.2275 -0.1689 -0.2370
 8228SOL    HW136143   3.009   1.227   4.101 -0.6672  0.4531 -1.5112
 8228SOL    HW236144   3.129   1.311   4.082  0.1842  0.1968 -3.3555
 8229SOL     OW36145   2.228   3.204  12.776 -0.1323 -0.6307  0.0801
 8229SOL    HW136146   2.284   3.269  12.820 -0.3473 -0.5105  0.1804
 8229SOL    HW236147   2.299   3.177  12.718 -0.4548 -2.4100  0.5277
 8230SOL     OW36148   2.102   0.083   7.657  0.8256  0.3376  0.0974
 8230SOL    HW136149   2.080   0.176   7.663 -1.3486 -0.0289 -1.9079
 8230SOL    HW236150   2.131   0.061   7.745 -1.9100  0.1255  0.9527
 8231SOL     OW36151   3.484   4.154   4.439 -0.1055 -0.2788  0.8988
 8231SOL    HW136152   3.451   4.137   4.351 -1.7143  0.1017  1.4347
 8231SOL    HW236153   3.566   4.193   4.405 -0.8888 -1.3142 -2.1961
 8232SOL     OW36154   3.015   2.590   6.751  0.7429 -0.3257 -0.3732
 8232SOL    HW136155   3.070   2.553   6.820 -1.9110  0.1031  1.9665
 8232SOL    HW236156   3.035   2.527   6.682 -0.3851 -0.1255 -0.8983
 8233SOL     OW36157   1.574   0.864  16.288 -0.3129  0.2583 -0.5166
 8233SOL    HW136158   1.521   0.879  16.367  0.5081  1.3360 -0.1746
 8233SOL    HW236159   1.664   0.862  16.319 -0.5593  0.6399  0.2294
 8234SOL     OW36160   0.186   4.582  15.924 -0.1841 -0.0173 -0.0007
 8234SOL    HW136161   0.252   4.526  15.964  0.8617  0.6847 -0.7597
 8234SOL    HW236162   0.139   4.633  15.991 -1.4196 -0.5384 -0.4569
 8235SOL     OW36163   3.013   0.326   2.003  0.1645  0.0386  0.1557
 8235SOL    HW136164   3.093   0.367   1.972  0.4702 -0.2554  0.5393
 8235SOL    HW236165   2.948   0.341   1.935 -1.2380 -1.5355  1.1403
 8236SOL     OW36166   3.074   2.897   3.813 -0.2438  0.5760  0.3290
 8236SOL    HW136167   3.050   2.956   3.742  0.9479  1.2805  0.5013
 8236SOL    HW236168   3.060   2.954   3.889 -0.3647  3.8503 -2.1461
 8237SOL     OW36169   1.797   3.961   2.837  0.1699 -0.0920  0.4901
 8237SOL    HW136170   1.852   4.032   2.867 -0.6969  0.7131  0.1752
 8237SOL    HW236171   1.814   3.899   2.908 -1.6003  1.0500  1.9005
 8238SOL     OW36172   4.120   1.505   5.432 -0.3196 -0.0807  0.2550
 8238SOL    HW136173   4.175   1.481   5.358  1.7934  2.8917  0.8423
 8238SOL    HW236174   4.123   1.426   5.486 -1.4924  0.6336  1.3719
 8239SOL     OW36175   1.365   3.374   8.510  0.3417  0.0952 -0.2917
 8239SOL    HW136176   1.388   3.449   8.456 -1.8697  0.3891 -0.8173
 8239SOL    HW236177   1.271   3.375   8.525  0.3242  3.4732 -0.7453
 8240SOL     OW36178   2.006   0.889   9.070 -0.2049 -0.2220  0.1697
 8240SOL    HW136179   1.967   0.891   8.983  1.3683  0.1802 -0.5020
 8240SOL    HW236180   2.044   0.801   9.071  1.8164  0.6609 -0.7109
 8241SOL     OW36181   2.479   3.974  10.643 -0.2584  0.0935  0.2144
 8241SOL    HW136182   2.492   3.909  10.574 -0.3321  1.3938 -1.0062
 8241SOL    HW236183   2.409   4.030  10.611 -0.6578 -0.3081  0.3727
 8242SOL     OW36184   1.426   3.328   7.163  0.3085  0.0558 -0.5285
 8242SOL    HW136185   1.500   3.272   7.184 -0.9075 -2.0695 -1.9936
 8242SOL    HW236186   1.469   3.364   7.085  1.1189  0.4748  0.1049
 8243SOL     OW36187   1.480   2.179   3.440  0.4030 -0.2644  0.0290
 8243SOL    HW136188   1.567   2.207   3.467  0.4418  1.7629 -2.1346
 8243SOL    HW236189   1.474   2.226   3.357  2.2151  0.1445  0.1412
 8244SOL     OW36190   2.016   2.565   5.118  1.0923  0.1079  0.0548
 8244SOL    HW136191   2.045   2.504   5.186 -2.3722  0.2165  1.6197
 8244SOL    HW236192   2.018   2.649   5.164 -1.0016  1.2037 -1.8580
 8245SOL     OW36193   1.723   2.081   5.092  0.1634  0.5160 -0.0160
 8245SOL    HW136194   1.796   2.085   5.155 -0.4493 -1.2001  0.7875
 8245SOL    HW236195   1.649   2.067   5.151  1.2566  1.8182  1.6908
 8246SOL     OW36196   0.888   0.130   7.857  0.1643  0.1800  0.4271
 8246SOL    HW136197   0.841   0.157   7.778 -0.2703 -1.1553  0.2371
 8246SOL    HW236198   0.861   0.039   7.847 -2.3192  1.0935 -1.0391
 8247SOL     OW36199   3.095   0.276   4.501  0.3318 -0.5485  0.4023
 8247SOL    HW136200   3.001   0.266   4.482  0.2638 -0.0976  0.4977
 8247SOL    HW236201   3.101   0.371   4.494  2.0644 -0.7734 -1.0627
 8248SOL     OW36202   2.559   4.656   6.628 -0.2884 -0.1186  0.2440
 8248SOL    HW136203   2.649   4.631   6.651  0.4110  0.6106 -1.7083
 8248SOL    HW236204   2.558   0.028   6.632 -0.9021 -0.1015 -0.3411
 8249SOL     OW36205   4.134   1.860   3.701 -0.1681 -0.5749 -0.9261
 8249SOL    HW136206   4.209   1.919   3.693 -1.3065  0.7228 -2.0573
 8249SOL    HW236207   4.153   1.809   3.780 -2.3298 -3.4555 -2.2535
 8250SOL     OW36208   4.563   4.029   5.323 -0.3344  0.0699 -0.1505
 8250SOL    HW136209   4.604   4.116   5.325  0.7605 -0.4001 -2.1561
 8250SOL    HW236210   4.470   4.050   5.310 -0.0497  1.8769  0.7030
 8251SOL     OW36211   1.429   0.147   3.050  0.0296  0.1962 -0.4998
 8251SOL    HW136212   1.372   0.157   3.126  0.5343 -3.1406  0.3345
 8251SOL    HW236213   1.370   0.167   2.978  0.0334 -0.8691 -0.8100
 8252SOL     OW36214   2.290   0.105  16.574  0.2610 -0.3208  0.3409
 8252SOL    HW136215   2.286   0.040  16.504 -0.4308  0.2432 -0.1422
 8252SOL    HW236216   2.253   0.183  16.533 -0.0115 -0.4236  0.3946
 8253SOL     OW36217   4.252   2.501   5.878 -0.3657 -0.8114  0.9076
 8253SOL    HW136218   4.267   2.477   5.969 -0.0976  0.5260  1.2144
 8253SOL    HW236219   4.324   2.448   5.842 -0.0459 -0.4338  1.0010
 8254SOL     OW36220   3.868   3.144   0.613 -0.2387  0.3386  0.3422
 8254SOL    HW136221   3.883   3.115   0.703 -1.2537 -0.3391  0.2951
 8254SOL    HW236222   3.939   3.104   0.563 -0.8352  0.3594 -0.5233
 8255SOL     OW36223   3.634   3.891   7.879 -0.2795 -0.5055 -0.0722
 8255SOL    HW136224   3.567   3.896   7.946 -1.2460  1.8384 -1.1961
 8255SOL    HW236225   3.585   3.854   7.805  0.2654  1.9247 -1.6560
 8256SOL     OW36226   4.330   2.044  10.499 -0.2960 -0.2377 -0.4562
 8256SOL    HW136227   4.289   1.961  10.523  1.2018 -0.8093  0.1019
 8256SOL    HW236228   4.248   2.094  10.504 -0.1911 -0.0552 -0.5303
 8257SOL     OW36229   4.083   4.577   6.165  0.3363 -0.4220 -0.4976
 8257SOL    HW136230   4.068   4.493   6.121 -1.2266  0.7219 -2.1143
 8257SOL    HW236231   4.064   4.567   6.259  3.1796  0.6355  0.1876
 8258SOL     OW36232   3.350   4.308   8.171  0.4615  0.2957  0.2112
 8258SOL    HW136233   3.277   4.264   8.126  0.2773  2.0627 -1.2158
 8258SOL    HW236234   3.316   4.321   8.260  0.5455  0.9927  0.1449
 8259SOL     OW36235   2.889   4.606   1.634 -0.1462  0.2749  0.2574
 8259SOL    HW136236   2.944   4.645   1.701  0.5159  0.3588 -0.3398
 8259SOL    HW236237   2.838   4.682   1.606  0.7949  0.6905 -0.2961
 8260SOL     OW36238   4.631   3.179  10.323  0.6602  0.1127 -0.4220
 8260SOL    HW136239   4.650   3.138  10.407 -1.8644  0.4777  0.2985
 8260SOL    HW236240   4.628   3.099  10.271 -0.7952  0.4169 -0.7911
 8261SOL     OW36241   1.289   3.402   6.739  0.2522  0.1024 -0.1110
 8261SOL    HW136242   1.342   3.328   6.769  0.3700 -0.2097 -1.0894
 8261SOL    HW236243   1.305   3.465   6.809  1.3592 -0.7698  0.4214
 8262SOL     OW36244   1.455   0.351   4.141 -0.5906  0.2046 -0.1987
 8262SOL    HW136245   1.391   0.420   4.158 -0.7058  0.3685 -1.3423
 8262SOL    HW236246   1.508   0.354   4.221 -0.5487 -0.8086 -0.1857
 8263SOL     OW36247   2.289   2.590   5.170  0.0674 -0.2751 -0.2978
 8263SOL    HW136248   2.316   2.676   5.138  0.4497 -0.8828 -1.6334
 8263SOL    HW236249   2.257   2.552   5.088 -0.8808  3.0335 -1.4483
 8264SOL     OW36250   0.001   0.849  11.390  0.5551  0.1955 -0.5388
 8264SOL    HW136251   0.079   0.798  11.411  0.2463  0.7476  1.9225
 8264SOL    HW236252   0.028   0.876  11.302  2.4779  0.8812  0.2626
 8265SOL     OW36253   2.431   0.613   9.436  0.0675 -0.0771  0.0666
 8265SOL    HW136254   2.357   0.642   9.382  0.3102  1.1857  0.4362
 8265SOL    HW236255   2.386   0.580   9.514  1.1684  0.9241  1.1098
 8266SOL     OW36256   1.419   0.564  15.315  0.1107  0.0052 -0.1627
 8266SOL    HW136257   1.422   0.538  15.407  2.9002  2.0105  0.2849
 8266SOL    HW236258   1.488   0.508  15.279  1.1350 -0.7245  2.9116
 8267SOL     OW36259   2.033   2.432   9.503  0.5053 -0.0195 -0.9501
 8267SOL    HW136260   2.016   2.503   9.442 -3.2365 -2.1905 -2.4163
 8267SOL    HW236261   2.042   2.356   9.446 -0.3725  0.9075 -2.3241
 8268SOL     OW36262   1.925   4.249   4.786 -0.1858 -0.3302 -0.1098
 8268SOL    HW136263   1.943   4.266   4.878 -0.1471 -0.1544 -0.1498
 8268SOL    HW236264   1.991   4.301   4.740  1.3936 -1.5020  0.8622
 8269SOL     OW36265   0.833   1.294   6.773  0.2744 -0.1313 -0.3373
 8269SOL    HW136266   0.834   1.351   6.696 -0.8956  0.3155 -0.0207
 8269SOL    HW236267   0.915   1.244   6.769  0.9723  0.8758  1.5790
 8270SOL     OW36268   0.172   1.642  10.793  0.1216  0.2720  0.1863
 8270SOL    HW136269   0.190   1.577  10.861  0.9325  0.2927 -0.0105
 8270SOL    HW236270   0.140   1.706  10.856 -0.8229  0.0919 -0.1035
 8271SOL     OW36271   3.559   1.406   3.065  0.1982 -0.3938 -0.4660
 8271SOL    HW136272   3.614   1.335   3.033  1.5213  1.3738 -2.0891
 8271SOL    HW236273   3.496   1.350   3.111  1.8954 -0.3685  1.8730
 8272SOL     OW36274   4.481   4.142   8.407  0.2599  0.4281 -0.4792
 8272SOL    HW136275   4.533   4.197   8.465 -0.1404 -0.7577  1.0004
 8272SOL    HW236276   4.537   4.065   8.393  0.0520 -0.1691  2.1000
 8273SOL     OW36277   4.005   2.058   1.471  0.2285 -0.1566  0.5567
 8273SOL    HW136278   3.987   2.049   1.565 -0.8366  0.2824  0.4019
 8273SOL    HW236279   4.092   2.020   1.474 -0.3361 -1.4232  0.6031
 8274SOL     OW36280   2.316   3.533   6.111 -0.3248 -0.3345 -0.4906
 8274SOL    HW136281   2.341   3.616   6.071  0.4631 -0.2949  0.0900
 8274SOL    HW236282   2.326   3.460   6.049  0.0027  0.0947 -0.9350
 8275SOL     OW36283   2.973   2.306  12.191 -0.3311  0.2541 -0.4194
 8275SOL    HW136284   2.976   2.400  12.171 -0.0649  0.2809 -0.2591
 8275SOL    HW236285   3.061   2.291  12.156  0.3851  0.4976  1.2878
 8276SOL     OW36286   1.673   3.674  17.222 -0.1354  0.3885 -0.4843
 8276SOL    HW136287   1.681   3.753  17.169  0.2478  0.8807  0.3108
 8276SOL    HW236288   1.754   3.631  17.197  0.5897  0.9836  0.8471
 8277SOL     OW36289   4.089   3.986   9.446  0.6282  0.5773  0.6593
 8277SOL    HW136290   4.088   3.977   9.351 -1.1721 -0.1848  0.7464
 8277SOL    HW236291   4.035   3.911   9.470 -0.5505  1.4087  0.6163
 8278SOL     OW36292   0.044   1.271   0.571 -0.4255  0.0339 -0.4349
 8278SOL    HW136293   0.054   1.298   0.480  2.5237  2.6302  0.6302
 8278SOL    HW236294   0.011   1.182   0.562  3.3249 -1.2919 -1.0622
 8279SOL     OW36295   4.139   2.826   8.035  0.2035 -0.0139 -0.4014
 8279SOL    HW136296   4.181   2.758   7.982 -1.1549 -1.1508 -0.0443
 8279SOL    HW236297   4.076   2.775   8.086  0.3262  1.2954  1.0453
 8280SOL     OW36298   2.870   2.843   3.240  0.0269  0.2937 -0.0578
 8280SOL    HW136299   2.833   2.798   3.316 -0.3926  0.5339 -0.1215
 8280SOL    HW236300   2.919   2.769   3.204  0.1163  0.3258 -0.0015
 8281SOL     OW36301   2.870   4.008   8.194  0.1483 -0.1452 -0.0727
 8281SOL    HW136302   2.868   3.984   8.101 -0.3940  0.5193 -0.2288
 8281SOL    HW236303   2.783   4.046   8.204  1.1798  2.0283  0.6415
 8282SOL     OW36304   3.818   1.108  11.646  0.3317 -0.0679 -0.2637
 8282SOL    HW136305   3.901   1.066  11.622  0.3096 -0.0201 -0.4251
 8282SOL    HW236306   3.752   1.042  11.625 -1.3147  1.2976  0.5732
 8283SOL     OW36307   0.117   1.564   8.390  1.4462  0.2397 -0.4408
 8283SOL    HW136308   0.061   1.537   8.318  2.3259  1.5991 -1.6472
 8283SOL    HW236309   0.099   1.658   8.397  0.7997 -0.0163  1.4863
 8284SOL     OW36310   4.632   0.439  10.676 -0.3809 -0.0204 -0.3801
 8284SOL    HW136311   4.662   0.394  10.755 -1.0677  1.0066  0.4681
 8284SOL    HW236312   4.664   0.527  10.694  1.6569 -1.2577  2.1420
 8285SOL     OW36313   1.657   0.130  16.504 -0.3438  0.0528  0.1384
 8285SOL    HW136314   1.662   0.198  16.571 -1.1054 -0.0225  0.2652
 8285SOL    HW236315   1.633   0.189  16.432  0.1739 -1.3452 -1.1753
 8286SOL     OW36316   1.562   0.257   9.132  0.2655 -0.1150  0.1058
 8286SOL    HW136317   1.535   0.300   9.213 -0.3670 -3.1658  1.4940
 8286SOL    HW236318   1.653   0.234   9.149  0.4630  1.1549  0.7762
 8287SOL     OW36319   2.037   2.959   4.143  0.4032 -0.0808  0.6579
 8287SOL    HW136320   2.060   3.025   4.209  1.3804 -0.4750  0.7072
 8287SOL    HW236321   2.084   2.984   4.064 -1.5749 -0.5700 -0.6914
 8288SOL     OW36322   2.986   0.997  10.980  0.4296 -0.8542 -0.0694
 8288SOL    HW136323   2.981   1.027  11.071  0.7865 -1.5367  0.1812
 8288SOL    HW236324   2.930   1.059  10.934 -0.6329 -2.3495 -0.8131
 8289SOL     OW36325   0.846   0.395   7.377  0.7557  0.2781 -0.5632
 8289SOL    HW136326   0.894   0.421   7.456  1.5847  0.8313 -1.2496
 8289SOL    HW236327   0.854   0.475   7.325  0.8456 -1.4453 -3.1933
 8290SOL     OW36328   1.287   1.954   4.015  0.6225  0.1543 -0.3434
 8290SOL    HW136329   1.265   2.047   4.027  0.1809 -0.1460  1.1537
 8290SOL    HW236330   1.301   1.971   3.921 -0.9240 -1.9406 -0.9407
 8291SOL     OW36331   2.890   0.010   4.021  0.7289 -1.4241 -0.2343
 8291SOL    HW136332   2.824   4.686   3.971 -1.0523 -0.9245  1.6396
 8291SOL    HW236333   2.944   0.046   3.951 -0.6988  0.6657 -0.2568
 8292SOL     OW36334   2.497   2.305   7.262 -0.3206 -0.4164  0.3140
 8292SOL    HW136335   2.570   2.317   7.201  1.4276  1.9943  2.8703
 8292SOL    HW236336   2.475   2.394   7.289 -0.8716 -0.5259  0.2078
 8293SOL     OW36337   3.745   0.380  14.544 -0.0376  0.2536  0.1677
 8293SOL    HW136338   3.677   0.316  14.519 -2.0820  2.5125 -0.0600
 8293SOL    HW236339   3.778   0.359  14.632 -0.4237 -1.1225 -0.0099
 8294SOL     OW36340   0.359   2.562  13.085 -0.1836 -0.2998 -0.4367
 8294SOL    HW136341   0.412   2.508  13.025  1.3277 -0.4600  1.0347
 8294SOL    HW236342   0.383   2.652  13.064 -1.4225 -0.4533 -2.4657
 8295SOL     OW36343   1.440   2.043  16.315 -0.4570  0.6677 -0.2038
 8295SOL    HW136344   1.509   2.081  16.370 -0.2426 -0.2138  0.1534
 8295SOL    HW236345   1.452   1.950  16.336 -0.0910  0.8495  0.3863
 8296SOL     OW36346   4.285   0.522  15.304  0.0070 -0.2574 -0.1631
 8296SOL    HW136347   4.381   0.528  15.297  0.1152 -0.7924  0.7315
 8296SOL    HW236348   4.258   0.566  15.224  1.0155  0.8405  0.0985
 8297SOL     OW36349   0.971   0.861   7.159  0.1581  0.1207 -0.2474
 8297SOL    HW136350   0.966   0.935   7.099  0.0959 -0.0502 -0.4501
 8297SOL    HW236351   0.882   0.868   7.193  0.1941 -1.3036  0.1413
 8298SOL     OW36352   1.289   1.205   6.176 -0.1025  0.0913 -0.1907
 8298SOL    HW136353   1.210   1.165   6.214  0.5600  0.1035  1.1839
 8298SOL    HW236354   1.276   1.153   6.096 -0.3364 -0.7788  0.4138
 8299SOL     OW36355   1.848   0.347  14.478  0.7214  0.9900 -0.8292
 8299SOL    HW136356   1.758   0.378  14.493  0.3972  0.9589 -2.7227
 8299SOL    HW236357   1.878   0.419  14.422  0.7474  2.1891  0.7230
 8300SOL     OW36358   1.553   1.355   0.427  0.1070  0.3584 -0.3329
 8300SOL    HW136359   1.524   1.300   0.354 -3.7836  2.2217 -0.2183
 8300SOL    HW236360   1.625   1.299   0.454 -1.7422 -2.0099 -0.3190
 8301SOL     OW36361   2.374   0.323   4.480 -0.0335  0.4198 -0.3158
 8301SOL    HW136362   2.292   0.337   4.433 -1.1150  0.5778  1.6623
 8301SOL    HW236363   2.415   0.410   4.482 -4.2351  2.4013 -1.2577
 8302SOL     OW36364   3.908   3.901   6.879  0.3247 -0.1538  0.1051
 8302SOL    HW136365   3.854   3.836   6.834  2.6097 -0.7339 -1.7907
 8302SOL    HW236366   3.963   3.851   6.939 -1.5448 -0.5164  1.5214
 8303SOL     OW36367   3.265   0.361  10.169  1.1113 -0.7221 -0.7548
 8303SOL    HW136368   3.211   0.405  10.103  0.3005 -0.4183  0.0969
 8303SOL    HW236369   3.341   0.343  10.114  0.4182 -0.3268 -1.8381
 8304SOL     OW36370   3.400   2.093   9.130  0.2650 -0.1098 -0.2255
 8304SOL    HW136371   3.395   1.999   9.151  0.7992 -0.7847 -3.1059
 8304SOL    HW236372   3.488   2.096   9.093 -0.4960 -0.1044 -2.0495
 8305SOL     OW36373   3.258   3.473   5.495 -0.4238 -0.4600  0.2174
 8305SOL    HW136374   3.353   3.482   5.497 -0.7444  3.2042 -1.4735
 8305SOL    HW236375   3.217   3.555   5.468 -1.3976 -0.6797  1.0227
 8306SOL     OW36376   0.800   2.555  15.275  0.5305 -0.5892 -0.4464
 8306SOL    HW136377   0.735   2.594  15.217  0.5667  1.3109  0.7844
 8306SOL    HW236378   0.803   2.604  15.357 -1.9565 -2.8276  1.0107
 8307SOL     OW36379   0.692   1.956  16.914  0.0928 -0.3365 -0.3315
 8307SOL    HW136380   0.781   1.954  16.949  0.7516 -0.3812 -2.0143
 8307SOL    HW236381   0.696   2.038  16.864 -0.1345  0.5813  1.1464
 8308SOL     OW36382   3.031   3.982   2.582  0.2567 -0.1233  0.3369
 8308SOL    HW136383   3.086   4.054   2.552  0.4747 -0.0746  0.8431
 8308SOL    HW236384   3.015   3.935   2.501  0.7144  1.4306 -0.6482
 8309SOL     OW36385   4.427   1.293  15.569  0.1150 -0.0318 -0.1208
 8309SOL    HW136386   4.431   1.338  15.484 -1.7384  1.4133  0.5635
 8309SOL    HW236387   4.467   1.213  15.534 -1.3603 -0.2633 -1.3152
 8310SOL     OW36388   1.697   4.029  16.129  0.5546 -0.3219 -0.2070
 8310SOL    HW136389   1.702   4.114  16.174  0.7861  0.0002 -0.8454
 8310SOL    HW236390   1.605   4.003  16.137 -0.9451  4.9631  0.0712
 8311SOL     OW36391   3.566   0.002   4.605  0.2977 -0.5805  0.1910
 8311SOL    HW136392   3.545   4.710   4.513 -0.6504 -1.4361  0.5560
 8311SOL    HW236393   3.601   4.639   4.624 -0.9483 -0.8637  1.1607
 8312SOL     OW36394   2.997   1.715   6.705 -0.1791  0.8068 -0.1446
 8312SOL    HW136395   2.945   1.791   6.679 -0.4308 -0.1618 -2.4744
 8312SOL    HW236396   3.038   1.744   6.786  1.1551  2.4485 -1.4251
 8313SOL     OW36397   3.904   3.728   3.322  0.0591 -0.1599 -0.1171
 8313SOL    HW136398   3.934   3.653   3.374 -0.1873 -0.5109 -0.4865
 8313SOL    HW236399   3.980   3.786   3.333 -1.3894  2.0795 -1.8432
 8314SOL     OW36400   2.796   4.313  12.778  0.1809  0.0111 -0.3467
 8314SOL    HW136401   2.852   4.391  12.775  0.8366 -0.4495 -0.1735
 8314SOL    HW236402   2.864   4.245  12.779 -1.0432 -1.1983  1.8621
 8315SOL     OW36403   3.623   0.870   7.008  0.1563 -0.0508  0.1612
 8315SOL    HW136404   3.618   0.927   7.084  0.1077  0.5734 -0.3075
 8315SOL    HW236405   3.633   0.935   6.939 -0.3475 -0.4914 -0.3255
 8316SOL     OW36406   3.028   1.647   6.459  0.0725 -0.0597  0.5202
 8316SOL    HW136407   3.027   1.661   6.554 -0.1696 -0.8153  0.6340
 8316SOL    HW236408   3.120   1.619   6.452  1.0418  3.2090  0.2986
 8317SOL     OW36409   3.390   0.163   5.863  0.1007 -0.1193  0.7051
 8317SOL    HW136410   3.319   0.183   5.801  1.2395  0.4868 -0.3907
 8317SOL    HW236411   3.355   0.180   5.951  1.1391  2.0670  0.6983
 8318SOL     OW36412   0.972   4.096   5.656  0.2864  0.8206 -0.0214
 8318SOL    HW136413   0.984   4.108   5.562 -0.1700  0.4602 -0.1198
 8318SOL    HW236414   0.883   4.064   5.670  0.3475  1.2143  1.2797
 8319SOL     OW36415   2.205   0.574  17.074 -0.4178 -0.4653 -0.1140
 8319SOL    HW136416   2.274   0.509  17.091 -0.6369 -1.0134 -1.3276
 8319SOL    HW236417   2.172   0.596  17.161 -2.9771 -2.3654 -0.6186
 8320SOL     OW36418   0.477   1.692   2.509  0.0318 -0.3328  0.0534
 8320SOL    HW136419   0.539   1.647   2.565  0.4736  1.1502  0.7658
 8320SOL    HW236420   0.403   1.682   2.569 -1.0624 -1.5553 -1.5185
 8321SOL     OW36421   1.544   2.818   8.017  0.4863  0.4633  0.7081
 8321SOL    HW136422   1.550   2.756   8.089  0.0406  0.7508  0.9912
 8321SOL    HW236423   1.601   2.783   7.947  1.6523 -1.3615  2.5543
 8322SOL     OW36424   4.286   1.342  13.939  0.2321  0.3800 -0.4301
 8322SOL    HW136425   4.243   1.419  13.977  1.2610  0.9975 -0.5276
 8322SOL    HW236426   4.208   1.288  13.927  1.4963 -1.7210  0.7830
 8323SOL     OW36427   0.102   0.891   5.092  0.4406  0.5684  0.3134
 8323SOL    HW136428   0.082   0.833   5.019 -2.5554  1.0596  0.7611
 8323SOL    HW236429   0.190   0.856   5.108  0.1523 -1.0513 -1.6202
 8324SOL     OW36430   1.677   2.542   2.560 -0.1927  0.1313 -0.6298
 8324SOL    HW136431   1.641   2.625   2.530  2.8742  0.6719 -2.7749
 8324SOL    HW236432   1.595   2.506   2.596 -0.0774 -0.1704 -0.6688
 8325SOL     OW36433   2.702   3.326   8.077  0.1298 -0.1523  0.0916
 8325SOL    HW136434   2.774   3.342   8.017  1.0456 -1.5438  0.7920
 8325SOL    HW236435   2.751   3.314   8.159 -0.4138  0.9296  0.5709
 8326SOL     OW36436   0.875   0.169  10.740 -0.1369  0.0448 -0.3275
 8326SOL    HW136437   0.815   0.109  10.785  0.6826 -1.0028 -0.6332
 8326SOL    HW236438   0.837   0.255  10.756  1.4971  0.1792  2.8094
 8327SOL     OW36439   2.378   0.847   6.759 -0.0323 -0.3322 -0.0659
 8327SOL    HW136440   2.383   0.892   6.675 -1.8980  1.3549  0.7353
 8327SOL    HW236441   2.328   0.772   6.725 -0.4289  0.0605 -0.3590
 8328SOL     OW36442   4.037   2.656   2.740  1.1114 -0.7519 -0.0644
 8328SOL    HW136443   4.032   2.597   2.815  1.7339 -0.5637  0.1237
 8328SOL    HW236444   3.958   2.639   2.689  0.7574 -0.9623  0.5484
 8329SOL     OW36445   1.980   4.657  15.307  0.2097  0.1890  0.4928
 8329SOL    HW136446   2.034   4.682  15.233  0.0573  0.9379  0.6268
 8329SOL    HW236447   2.041   4.621  15.372  1.4798  3.5920  1.2253
 8330SOL     OW36448   1.119   1.857   8.102 -0.7947  0.0134 -0.6246
 8330SOL    HW136449   1.196   1.893   8.145 -0.2896 -0.3866 -1.1799
 8330SOL    HW236450   1.164   1.783   8.061  0.7288  0.1057  0.8561
 8331SOL     OW36451   2.721   0.663   7.553  0.6637 -0.1362  0.4028
 8331SOL    HW136452   2.729   0.568   7.567  0.3615 -0.5737 -2.3792
 8331SOL    HW236453   2.803   0.694   7.592  0.1471 -0.1086  1.4583
 8332SOL     OW36454   3.284   4.618  13.539  0.3563 -0.3404 -1.1480
 8332SOL    HW136455   3.344   4.688  13.564 -0.4578 -1.1299  2.9925
 8332SOL    HW236456   3.289   4.561  13.616 -1.5124  1.2757  0.1483
 8333SOL     OW36457   4.295   4.415  10.293  0.8633 -0.1072  0.2957
 8333SOL    HW136458   4.360   4.434  10.225 -0.7820  1.1874 -0.8983
 8333SOL    HW236459   4.294   4.319  10.293  0.2572 -0.0975  0.2492
 8334SOL     OW36460   3.277   2.607   8.919 -0.2633  0.0483  0.2175
 8334SOL    HW136461   3.306   2.678   8.861  0.2540  0.3237  0.8193
 8334SOL    HW236462   3.331   2.631   8.994  1.9179  0.8152 -1.5981
 8335SOL     OW36463   4.382   0.438   7.833 -0.3816 -0.5028 -0.3741
 8335SOL    HW136464   4.293   0.412   7.857  0.0974 -1.9132 -0.1303
 8335SOL    HW236465   4.399   0.500   7.903 -1.0151  0.5375 -1.1528
 8336SOL     OW36466   2.676   3.542  12.708 -0.4992 -0.0217  0.4897
 8336SOL    HW136467   2.634   3.501  12.783 -0.1842  2.1636  1.8488
 8336SOL    HW236468   2.624   3.500  12.639  1.0602 -0.7167 -0.2606
 8337SOL     OW36469   2.912   4.685  10.858 -0.4926 -0.2127 -0.3762
 8337SOL    HW136470   2.972   4.670  10.931 -0.6164  1.5166  0.0784
 8337SOL    HW236471   2.943   4.610  10.807  1.0699  0.7708 -0.8777
 8338SOL     OW36472   2.799   3.605   5.622  0.3239 -0.3105 -0.1926
 8338SOL    HW136473   2.728   3.634   5.566 -0.2985 -1.4543  0.0199
 8338SOL    HW236474   2.831   3.692   5.644  0.7516 -0.3885 -0.5057
 8339SOL     OW36475   2.822   0.583   6.023 -0.0244  0.4633  0.3432
 8339SOL    HW136476   2.860   0.591   5.936  0.9935 -2.8240  0.4850
 8339SOL    HW236477   2.798   0.491   6.037  4.4573 -0.9118 -1.2190
 8340SOL     OW36478   0.668   2.184   1.454 -0.1115 -0.3604  0.4584
 8340SOL    HW136479   0.605   2.125   1.495  2.0781 -2.3042  1.0330
 8340SOL    HW236480   0.628   2.221   1.376  3.5355  0.0720 -1.2078
 8341SOL     OW36481   3.650   3.636   3.426 -0.0209 -0.5781 -0.1673
 8341SOL    HW136482   3.735   3.597   3.407  1.4387  2.1417  0.7940
 8341SOL    HW236483   3.609   3.631   3.340 -3.1258 -1.0026  1.3134
 8342SOL     OW36484   1.376   4.086   8.043  0.1764 -0.1075 -0.4341
 8342SOL    HW136485   1.470   4.073   8.041  0.0570 -1.1156  0.2380
 8342SOL    HW236486   1.371   4.180   8.058 -1.4238 -0.6841  2.6995
 8343SOL     OW36487   3.705   0.697   5.479  0.0960  0.6076 -0.5893
 8343SOL    HW136488   3.734   0.712   5.389  0.6369  0.6454 -0.4070
 8343SOL    HW236489   3.754   0.768   5.521 -1.6494  0.4084  1.7934
 8344SOL     OW36490   1.886   1.894   7.193 -0.7772 -0.1831 -0.6730
 8344SOL    HW136491   1.888   1.917   7.100 -2.6203 -0.7410 -0.8625
 8344SOL    HW236492   1.834   1.967   7.228 -0.4669 -0.5369  0.5400
 8345SOL     OW36493   2.349   4.571   7.634 -0.6025  0.5942 -0.0305
 8345SOL    HW136494   2.338   4.643   7.571  0.2827 -0.1525 -1.0383
 8345SOL    HW236495   2.271   4.586   7.688 -2.2577 -1.7514 -1.7811
 8346SOL     OW36496   3.499   3.651   1.354  0.0181  0.4839 -0.0333
 8346SOL    HW136497   3.542   3.641   1.269 -1.1366  0.7967 -0.6564
 8346SOL    HW236498   3.409   3.626   1.331  0.5766 -2.0553  0.5128
 8347SOL     OW36499   3.972   2.589  15.069 -0.9871  0.1743 -0.7160
 8347SOL    HW136500   3.923   2.507  15.058 -0.6986  0.0823 -1.2795
 8347SOL    HW236501   3.924   2.631  15.140 -0.5709 -0.5885  0.0077
 8348SOL     OW36502   1.797   2.911   4.259  0.4037 -0.1598 -0.1980
 8348SOL    HW136503   1.757   2.996   4.238 -0.4205 -0.6346 -0.5565
 8348SOL    HW236504   1.883   2.936   4.225  1.3867 -0.6486  1.9304
 8349SOL     OW36505   1.367   3.119   2.735 -0.1008  0.1205 -0.0777
 8349SOL    HW136506   1.457   3.102   2.762 -0.2787 -1.9896 -0.8307
 8349SOL    HW236507   1.356   3.213   2.747  2.6023  0.1868  1.8949
 8350SOL     OW36508   4.370   4.455   0.909  0.4566 -0.3815 -0.4393
 8350SOL    HW136509   4.461   4.450   0.936  0.8085  0.1592 -1.5406
 8350SOL    HW236510   4.339   4.511   0.980 -2.4361 -1.6044 -0.7273
 8351SOL     OW36511   1.858   4.034   8.701  0.6289 -0.2315  0.3110
 8351SOL    HW136512   1.914   4.060   8.628 -1.0415 -0.0446 -0.8974
 8351SOL    HW236513   1.804   4.106   8.731  0.3200  0.0191 -0.8506
 8352SOL     OW36514   3.708   0.257   0.916 -0.1369  0.2307 -0.1565
 8352SOL    HW136515   3.787   0.220   0.956 -0.7550 -0.3315  0.5256
 8352SOL    HW236516   3.736   0.286   0.829 -1.2255  0.7209 -0.3429
 8353SOL     OW36517   4.127   0.415   5.506  0.4970 -0.1301  0.2736
 8353SOL    HW136518   4.095   0.329   5.534 -0.4818  0.3637  0.6871
 8353SOL    HW236519   4.085   0.470   5.572  2.1404  0.8055  0.5540
 8354SOL     OW36520   4.427   3.184   0.289  0.3067 -0.0135  0.0601
 8354SOL    HW136521   4.494   3.203   0.223  1.6773  0.9167  1.7111
 8354SOL    HW236522   4.379   3.264   0.270 -0.7075 -1.3376 -2.8743
 8355SOL     OW36523   4.464   3.308   5.517 -0.0415  0.6492 -0.1012
 8355SOL    HW136524   4.556   3.280   5.518 -1.1122 -2.7950  1.1323
 8355SOL    HW236525   4.431   3.257   5.591  2.5184  0.3224  0.8211
 8356SOL     OW36526   1.020   2.128  13.726  0.1827 -0.3311 -0.1772
 8356SOL    HW136527   1.035   2.184  13.650 -0.9837  0.8356  0.4525
 8356SOL    HW236528   0.948   2.176  13.767  0.4620 -1.4001  1.5843
 8357SOL     OW36529   1.052   3.605   8.148  0.5465 -0.2427  0.2823
 8357SOL    HW136530   1.024   3.537   8.210 -0.2933 -1.3628 -1.3377
 8357SOL    HW236531   1.080   3.674   8.208 -1.4830  1.7841 -1.1517
 8358SOL     OW36532   0.246   3.705  10.414  0.3780 -0.4017  0.3924
 8358SOL    HW136533   0.196   3.753  10.481 -0.1598 -0.5535  0.1018
 8358SOL    HW236534   0.276   3.633  10.470 -0.9344 -0.4406  1.0467
 8359SOL     OW36535   0.142   0.228  15.946 -0.4126 -0.1208  0.2491
 8359SOL    HW136536   0.200   0.301  15.969 -2.1666  1.2420  0.3228
 8359SOL    HW236537   0.103   0.191  16.025 -2.1425 -1.9391 -1.4629
 8360SOL     OW36538   1.027   1.784   3.430  0.3670 -0.0317  0.0230
 8360SOL    HW136539   1.116   1.757   3.450  0.7478  0.6317 -0.8166
 8360SOL    HW236540   1.044   1.858   3.372  1.7478  0.7202  1.4062
 8361SOL     OW36541   2.247   0.058   0.888 -0.1647 -0.1068 -0.5196
 8361SOL    HW136542   2.255   0.032   0.796  1.6344  1.0869 -0.6923
 8361SOL    HW236543   2.159   0.024   0.904 -0.2796  0.1279 -0.6577
 8362SOL     OW36544   2.288   1.484   4.525 -1.4504  0.0885  0.1977
 8362SOL    HW136545   2.209   1.538   4.534 -0.7200  1.0463  0.8300
 8362SOL    HW236546   2.336   1.527   4.456  1.0042  1.4413  2.7624
 8363SOL     OW36547   1.465   3.299   1.329 -0.0219  0.2203  0.0325
 8363SOL    HW136548   1.548   3.286   1.375  0.2693  0.6936 -0.3445
 8363SOL    HW236549   1.400   3.261   1.388 -0.7214 -1.2472 -1.6855
 8364SOL     OW36550   1.562   0.450   7.890 -0.4442 -0.5480  0.6729
 8364SOL    HW136551   1.533   0.541   7.884  2.4649  0.3802  0.7430
 8364SOL    HW236552   1.640   0.463   7.943  0.6095 -0.3860 -0.9083
 8365SOL     OW36553   1.001   0.743   6.423 -0.0756  0.0111 -0.4867
 8365SOL    HW136554   0.923   0.768   6.472  0.3433  0.5832 -0.1091
 8365SOL    HW236555   0.961   0.714   6.342 -0.3831 -0.0078 -0.3267
 8366SOL     OW36556   2.056   3.983   6.046  0.1157  0.0905  0.2073
 8366SOL    HW136557   2.077   3.899   6.005 -0.3251 -0.0201  0.2120
 8366SOL    HW236558   2.007   4.024   5.975  0.0866  0.0310  0.1932
 8367SOL     OW36559   4.469   2.926   8.407 -0.4302 -0.0996 -0.3213
 8367SOL    HW136560   4.464   2.939   8.501  0.6783  0.5361 -0.3429
 8367SOL    HW236561   4.381   2.944   8.376 -1.0897  0.9821  2.2013
 8368SOL     OW36562   2.377   0.950  14.732  0.5992  0.4263 -0.0271
 8368SOL    HW136563   2.464   0.986  14.712  1.1104  0.4708  2.2975
 8368SOL    HW236564   2.330   0.998  14.663  0.5531 -1.2321 -1.1359
 8369SOL     OW36565   4.234   2.547   0.619  1.0669 -0.2938  0.7174
 8369SOL    HW136566   4.291   2.577   0.549 -0.4723  0.7758 -0.0935
 8369SOL    HW236567   4.285   2.478   0.660  0.9724 -1.3214 -0.8996
 8370SOL     OW36568   1.642   2.034   6.977  0.1137  0.4793 -0.1876
 8370SOL    HW136569   1.630   2.011   7.069  2.7021 -0.8129 -0.1648
 8370SOL    HW236570   1.658   2.128   6.975 -1.5410  0.7664  0.2641
 8371SOL     OW36571   3.024   2.874   6.755  0.2098 -0.0984  0.0564
 8371SOL    HW136572   2.931   2.885   6.771  0.5940  0.1641  2.1150
 8371SOL    HW236573   3.023   2.779   6.743 -0.9314 -0.1649  0.7166
 8372SOL     OW36574   0.632   3.676   4.378 -0.0249  0.9496 -0.2163
 8372SOL    HW136575   0.666   3.586   4.379 -1.5884  0.3758  0.6789
 8372SOL    HW236576   0.658   3.708   4.464 -0.7749  1.1134 -0.0497
 8373SOL     OW36577   0.446   0.772   7.274 -0.6103 -0.2012 -0.3308
 8373SOL    HW136578   0.400   0.688   7.282  1.3950 -1.3555 -0.8284
 8373SOL    HW236579   0.431   0.807   7.361  2.0822 -1.4342  0.6176
 8374SOL     OW36580   3.775   0.795  16.818  0.5585 -0.3367 -0.0336
 8374SOL    HW136581   3.823   0.867  16.860 -0.9923 -0.0346  1.2369
 8374SOL    HW236582   3.769   0.734  16.892 -0.6781 -1.4089 -1.0313
 8375SOL     OW36583   1.491   3.954   8.763  0.5666  0.7247  0.3273
 8375SOL    HW136584   1.414   3.905   8.791 -0.1866  0.8743 -1.5032
 8375SOL    HW236585   1.547   3.891   8.718 -1.2795 -1.6039  1.2918
 8376SOL     OW36586   0.694   1.685   8.938  0.3514 -0.2824  0.4180
 8376SOL    HW136587   0.624   1.708   8.999 -0.1075  1.2413 -0.6920
 8376SOL    HW236588   0.651   1.687   8.853  1.0638 -0.4342  0.0533
 8377SOL     OW36589   0.064   3.380   3.372  0.0796  0.4680  0.0861
 8377SOL    HW136590   4.700   3.405   3.401 -1.1499 -2.1544 -1.3720
 8377SOL    HW236591   0.111   3.408   3.450  0.8336 -2.4715  0.6802
 8378SOL     OW36592   4.090   3.121   9.624 -0.2698 -0.1670  0.3892
 8378SOL    HW136593   4.166   3.124   9.566 -0.5256  1.6309  0.1512
 8378SOL    HW236594   4.130   3.091   9.706  0.7493 -0.0625 -0.0687
 8379SOL     OW36595   0.992   3.850   0.849 -0.1455  0.1601 -0.2908
 8379SOL    HW136596   0.926   3.850   0.918  0.5346 -0.5480  0.3663
 8379SOL    HW236597   1.048   3.774   0.867  0.1562  1.1996  3.2652
 8380SOL     OW36598   3.739   4.646   0.782 -0.4113  0.4936  0.3435
 8380SOL    HW136599   3.750   4.609   0.695  0.0354 -0.8376  0.9673
 8380SOL    HW236600   3.802   4.718   0.775 -0.9928  1.2799  3.0626
 8381SOL     OW36601   0.348   2.296   2.979  0.0052  0.4167 -0.1125
 8381SOL    HW136602   0.302   2.280   3.061  0.4747  0.2113  0.1136
 8381SOL    HW236603   0.287   2.260   2.915 -0.0175  1.9873 -0.9966
 8382SOL     OW36604   2.279   4.714   2.944  0.4380 -0.2450  0.0498
 8382SOL    HW136605   2.293   4.623   2.918  0.1690 -0.5391  0.9138
 8382SOL    HW236606   2.297   4.700   3.037 -0.9711 -2.5155  0.0023
 8383SOL     OW36607   3.647   2.161   1.552  0.6288  0.1714  0.0183
 8383SOL    HW136608   3.555   2.145   1.530  0.3224  0.7009  0.9295
 8383SOL    HW236609   3.674   2.081   1.598  0.6861  0.8340  1.1264
 8384SOL     OW36610   4.684   2.916   1.441  0.3440  0.1441 -0.0400
 8384SOL    HW136611   4.623   2.879   1.377 -0.3570  1.0846  0.0950
 8384SOL    HW236612   0.030   2.936   1.378  0.1411 -0.2716 -0.4041
 8385SOL     OW36613   1.154   0.079  11.441  0.1758  0.0750  0.4166
 8385SOL    HW136614   1.119   0.092  11.353  1.5184 -1.1713 -0.3067
 8385SOL    HW236615   1.243   0.046  11.427  0.0364 -1.0025  2.1070
 8386SOL     OW36616   0.811   3.774   4.566 -0.0163  0.2123  0.1207
 8386SOL    HW136617   0.761   3.749   4.644 -0.0292 -0.8295 -0.2205
 8386SOL    HW236618   0.888   3.804   4.614  0.0348 -1.7363  1.2374
 8387SOL     OW36619   4.236   3.001  14.774  0.1705  0.4851 -0.7819
 8387SOL    HW136620   4.318   3.044  14.798 -0.2829  0.9064  0.0039
 8387SOL    HW236621   4.221   2.950  14.854  1.1578 -0.5171 -1.2323
 8388SOL     OW36622   2.409   0.269   8.967  0.3936  0.0828 -0.1168
 8388SOL    HW136623   2.424   0.331   9.039 -0.1301 -0.0378  0.0939
 8388SOL    HW236624   2.497   0.273   8.929  1.6180 -0.3801  2.6716
 8389SOL     OW36625   4.345   3.807   6.596  0.0002  0.3971 -0.1559
 8389SOL    HW136626   4.376   3.789   6.685  2.6852 -1.7330 -1.5543
 8389SOL    HW236627   4.424   3.856   6.575  1.3847 -2.0825 -0.6776
 8390SOL     OW36628   2.744   0.579  10.519 -0.0849  0.5758  0.1894
 8390SOL    HW136629   2.730   0.591  10.425 -1.9203 -1.8023  0.1323
 8390SOL    HW236630   2.819   0.519  10.510 -0.2076  0.5098 -0.4159
 8391SOL     OW36631   0.380   1.948   7.365 -0.2009 -0.4723 -0.5685
 8391SOL    HW136632   0.447   2.015   7.354  0.3427 -0.7917  0.6863
 8391SOL    HW236633   0.430   1.872   7.395 -1.1847 -1.4320 -1.3977
 8392SOL     OW36634   3.944   1.049   0.313 -0.5394  0.3783  0.4502
 8392SOL    HW136635   3.867   0.993   0.317  0.9121 -1.5672  0.8019
 8392SOL    HW236636   3.973   1.037   0.403  0.6160  0.9055  0.1593
 8393SOL     OW36637   2.966   1.423   3.312 -0.8072 -0.4174 -0.2270
 8393SOL    HW136638   3.029   1.421   3.384 -0.7253 -2.4814 -0.3531
 8393SOL    HW236639   2.989   1.339   3.272  0.4289 -0.0599 -0.2627
 8394SOL     OW36640   0.006   4.433   3.549 -0.1828 -0.0643 -0.7940
 8394SOL    HW136641   0.027   4.341   3.535  1.9753  0.2022  0.6595
 8394SOL    HW236642   0.033   4.471   3.465 -2.7127  1.3761 -0.9566
 8395SOL     OW36643   4.056   4.166   8.318 -0.2411  0.3568 -0.3455
 8395SOL    HW136644   4.038   4.201   8.230 -0.1682  0.0417 -0.4870
 8395SOL    HW236645   3.973   4.118   8.325 -0.3186  0.6152  0.4153
 8396SOL     OW36646   1.482   1.571  17.688 -0.2959 -0.4295  0.4446
 8396SOL    HW136647   1.550   1.504  17.685 -0.6832 -0.7956 -0.4471
 8396SOL    HW236648   1.498   1.603   0.080  0.6031 -0.7629  0.4006
 8397SOL     OW36649   0.086   3.908   1.050 -0.4332 -0.3634  0.3663
 8397SOL    HW136650   0.091   3.839   0.984 -0.5402  0.0206 -0.0421
 8397SOL    HW236651   0.179   3.913   1.073  0.0047  0.5958 -1.6143
 8398SOL     OW36652   1.821   1.927   4.773 -0.5588 -0.2364  0.1942
 8398SOL    HW136653   1.768   1.904   4.849  0.4042  0.0041  0.9376
 8398SOL    HW236654   1.858   1.839   4.761 -1.6715 -0.8929  1.5808
 8399SOL     OW36655   1.787   1.645   2.498 -0.4507  0.0427 -0.0719
 8399SOL    HW136656   1.819   1.598   2.421 -1.2702 -0.7362  0.0568
 8399SOL    HW236657   1.872   1.650   2.542 -0.5273  1.3980 -0.0595
 8400SOL     OW36658   0.207   3.352  16.864  0.0234  0.0195 -0.2619
 8400SOL    HW136659   0.207   3.417  16.935  1.8770  0.7370 -0.9262
 8400SOL    HW236660   0.122   3.368  16.823  0.2234  0.3576 -0.5394
 8401SOL     OW36661   0.651   0.553   8.114  0.2584  0.5404 -0.1723
 8401SOL    HW136662   0.593   0.480   8.091  1.4163  0.0938 -1.7193
 8401SOL    HW236663   0.602   0.599   8.182 -0.7590 -0.0252 -0.5190
 8402SOL     OW36664   1.861   3.981   7.654 -0.0428 -0.4829  0.1603
 8402SOL    HW136665   1.824   4.044   7.716 -1.3123 -1.4226  0.3620
 8402SOL    HW236666   1.789   3.954   7.597  0.9759 -1.5408 -0.6412
 8403SOL     OW36667   2.643   3.769   7.525  0.2959  0.3736  0.1766
 8403SOL    HW136668   2.613   3.802   7.609  1.2210 -0.9065  1.0065
 8403SOL    HW236669   2.729   3.808   7.514  1.0362 -1.1958  0.3107
 8404SOL     OW36670   0.912   1.562   3.626 -0.4200 -0.0226  0.6143
 8404SOL    HW136671   0.984   1.608   3.584  0.7207  0.6067  3.2603
 8404SOL    HW236672   0.917   1.570   3.721  0.8010  1.3196  0.4291
 8405SOL     OW36673   0.987   3.198   5.634 -0.3763  0.1762  0.2439
 8405SOL    HW136674   0.936   3.124   5.601  2.3539 -1.5844 -0.0249
 8405SOL    HW236675   1.071   3.154   5.648 -0.4984 -0.1466 -0.0198
 8406SOL     OW36676   4.419   1.186   7.966 -0.4205  0.5682  0.0445
 8406SOL    HW136677   4.324   1.187   7.957 -0.4012  1.2396 -0.0430
 8406SOL    HW236678   4.449   1.259   7.912 -2.0257  0.4707 -0.9729
 8407SOL     OW36679   0.584   1.380   6.568 -0.0742  0.6502 -0.3666
 8407SOL    HW136680   0.668   1.423   6.582 -0.6923  1.7621 -0.0214
 8407SOL    HW236681   0.609   1.289   6.555 -1.9525 -0.1623  1.6025
 8408SOL     OW36682   3.729   0.881   0.398 -0.1794 -0.6774  0.5689
 8408SOL    HW136683   3.714   0.899   0.491 -0.1585 -1.1854  0.6676
 8408SOL    HW236684   3.722   0.786   0.399  0.8346 -0.7403  1.4650
 8409SOL     OW36685   3.384   4.585  10.936 -0.2262  0.9720  0.0445
 8409SOL    HW136686   3.321   4.536  10.990 -0.6261  0.5442 -0.8092
 8409SOL    HW236687   3.355   4.558  10.849  1.4893  2.7566 -1.0644
 8410SOL     OW36688   0.973   3.384  14.246 -0.0579 -0.1246 -0.3725
 8410SOL    HW136689   0.927   3.335  14.177 -2.4964  1.0518  0.4218
 8410SOL    HW236690   0.963   3.476  14.222 -3.9159 -0.2811  0.5823
 8411SOL     OW36691   3.029   1.546   5.291  0.0417 -0.3788 -0.3520
 8411SOL    HW136692   2.947   1.596   5.295  0.7514  0.5173  2.3600
 8411SOL    HW236693   3.094   1.605   5.327  0.5372 -0.7485 -0.6459
 8412SOL     OW36694   3.321   4.701  17.598 -0.3108  0.0597 -0.0114
 8412SOL    HW136695   3.408   4.709  17.559 -0.9855  1.6335 -1.2048
 8412SOL    HW236696   3.327   0.046  17.663 -0.0866 -1.0496  1.1329
 8413SOL     OW36697   0.682   2.030  10.591  0.1795 -0.0512 -0.3084
 8413SOL    HW136698   0.613   2.097  10.594  0.7072  0.4590  0.5663
 8413SOL    HW236699   0.747   2.068  10.532 -0.0192  0.4837 -0.1845
 8414SOL     OW36700   1.748   1.450   6.509  0.0431 -0.0045  0.4220
 8414SOL    HW136701   1.759   1.388   6.436 -0.7817  0.0166  0.2793
 8414SOL    HW236702   1.653   1.453   6.499  0.1594  0.2676 -0.6885
 8415SOL     OW36703   0.528   0.349   3.383 -0.1562 -0.1242 -0.5385
 8415SOL    HW136704   0.611   0.390   3.408 -0.0574 -1.1018  0.7245
 8415SOL    HW236705   0.557   0.309   3.301  1.7832 -0.0479  0.0890
 8416SOL     OW36706   0.894   3.690   3.560 -0.1787 -0.2929 -0.1701
 8416SOL    HW136707   0.916   3.597   3.550  1.9592  0.2188 -0.2425
 8416SOL    HW236708   0.905   3.697   3.655  0.6783  0.3735 -0.3219
 8417SOL     OW36709   4.584   2.359   9.133 -0.0617 -0.2880 -0.3844
 8417SOL    HW136710   4.640   2.342   9.057 -0.4026  0.8156 -0.8831
 8417SOL    HW236711   4.645   2.332   9.202  2.3468  2.1100 -1.6121
 8418SOL     OW36712   3.473   0.395   1.612 -0.0217 -0.4119 -0.3536
 8418SOL    HW136713   3.468   0.348   1.695  2.2291 -0.3660 -0.2123
 8418SOL    HW236714   3.538   0.462   1.632 -0.1300 -0.2086 -0.6875
 8419SOL     OW36715   3.372   2.939   7.661  0.3044  0.0631 -0.5024
 8419SOL    HW136716   3.439   2.874   7.639 -0.8259 -1.0352 -0.7032
 8419SOL    HW236717   3.293   2.905   7.620 -0.3683  0.2991  0.6263
 8420SOL     OW36718   3.634   3.603  12.127  0.7387  0.3253 -0.3151
 8420SOL    HW136719   3.638   3.651  12.209  1.2199 -0.8701  0.3524
 8420SOL    HW236720   3.573   3.534  12.154 -2.5833  2.4473 -2.2852
 8421SOL     OW36721   1.883   4.264  12.396 -0.5623 -0.2875  0.1385
 8421SOL    HW136722   1.874   4.311  12.313 -1.1700  0.7909  0.8157
 8421SOL    HW236723   1.969   4.294  12.428 -0.4229 -2.0136  1.3844
 8422SOL     OW36724   4.284   4.637  16.400  0.1039 -0.2060  0.4151
 8422SOL    HW136725   4.303   4.703  16.333  0.1282 -0.1582  0.4687
 8422SOL    HW236726   4.373   4.610  16.419 -0.1959 -0.9091  0.8007
 8423SOL     OW36727   0.811   2.022   0.793  0.3949  0.1992  0.0647
 8423SOL    HW136728   0.749   1.960   0.833 -1.2634  1.0044 -1.2590
 8423SOL    HW236729   0.761   2.043   0.715  1.7196 -0.6615 -1.0118
 8424SOL     OW36730   3.396   3.846   1.898 -0.2119  0.2795  0.4924
 8424SOL    HW136731   3.403   3.931   1.854 -2.0809 -0.5895 -1.4190
 8424SOL    HW236732   3.302   3.832   1.892 -0.2520 -0.2646  2.2551
 8425SOL     OW36733   1.534   0.908   6.103 -0.3672 -0.0538  0.2610
 8425SOL    HW136734   1.494   0.833   6.059  1.5740 -0.7803 -0.2507
 8425SOL    HW236735   1.508   0.980   6.046  1.3294 -0.7101 -1.3565
 8426SOL     OW36736   0.988   2.447   3.798  0.5819 -0.3074  0.3283
 8426SOL    HW136737   0.992   2.351   3.791  1.7004 -0.1531 -1.3993
 8426SOL    HW236738   0.901   2.465   3.763  0.6335 -1.0649 -0.2093
 8427SOL     OW36739   4.126   4.420  10.727  0.4088 -0.0716 -0.0997
 8427SOL    HW136740   4.169   4.341  10.696  2.7373  1.1361  0.0670
 8427SOL    HW236741   4.168   4.482  10.667  0.7435  0.5349  0.7473
 8428SOL     OW36742   2.118   2.844   0.281 -1.0582 -0.5179 -0.5994
 8428SOL    HW136743   2.164   2.831   0.364 -0.8414 -0.8466 -0.7726
 8428SOL    HW236744   2.027   2.837   0.310 -0.7121 -0.0462  0.5944
 8429SOL     OW36745   2.108   2.162   2.839  0.0490  0.8518 -0.2858
 8429SOL    HW136746   2.071   2.088   2.887 -2.1367  1.1160 -1.5627
 8429SOL    HW236747   2.048   2.154   2.764 -0.0428  1.1483 -0.2430
 8430SOL     OW36748   3.658   2.687   8.375 -0.0415 -0.2067  0.3140
 8430SOL    HW136749   3.640   2.655   8.463 -0.2463  0.3940  0.4935
 8430SOL    HW236750   3.696   2.607   8.339 -0.7566 -0.7399  0.7372
 8431SOL     OW36751   0.240   3.814   3.448  1.3607 -0.3217  0.4650
 8431SOL    HW136752   0.276   3.782   3.531  0.1230  2.5234  2.1229
 8431SOL    HW236753   0.284   3.748   3.394  0.2978 -0.3364 -0.3745
 8432SOL     OW36754   0.243   0.409   7.979 -0.2689  0.3817  0.4076
 8432SOL    HW136755   0.312   0.415   8.045 -0.2520  0.8172  0.3508
 8432SOL    HW236756   0.248   0.319   7.947  0.7418  0.8028 -0.6261
 8433SOL     OW36757   2.769   2.523  13.480  0.0424 -0.0626 -0.3063
 8433SOL    HW136758   2.784   2.504  13.388  1.2129 -4.5285  0.8253
 8433SOL    HW236759   2.751   2.617  13.475  0.7676  0.0711 -0.4423
 8434SOL     OW36760   1.124   2.974   8.885 -0.3189  0.2920 -0.7533
 8434SOL    HW136761   1.186   3.006   8.819  1.0959 -1.6168 -0.3599
 8434SOL    HW236762   1.047   2.937   8.841 -0.7428 -1.3862  1.3883
 8435SOL     OW36763   4.194   0.175   6.704  0.0667  0.1711 -0.1413
 8435SOL    HW136764   4.187   0.267   6.731 -1.8054  0.4958 -1.6978
 8435SOL    HW236765   4.285   0.178   6.676 -0.6960 -3.6579 -3.0336
 8436SOL     OW36766   1.216   3.115  10.726  0.2426  0.0426 -0.2004
 8436SOL    HW136767   1.283   3.072  10.672 -0.8728 -1.8094 -0.0982
 8436SOL    HW236768   1.150   3.142  10.662 -0.2425 -1.0640 -0.1622
 8437SOL     OW36769   0.499   1.716  17.097 -0.6595  0.6203 -0.1471
 8437SOL    HW136770   0.472   1.685  17.010 -1.2891 -2.0161  1.0169
 8437SOL    HW236771   0.448   1.655  17.150 -2.4205  1.4948 -0.8431
 8438SOL     OW36772   3.153   4.348   3.518  0.2748 -0.1494 -0.0649
 8438SOL    HW136773   3.111   4.427   3.483  1.3640  1.2920  1.9033
 8438SOL    HW236774   3.183   4.307   3.436  1.2302  1.2923 -0.4568
 8439SOL     OW36775   1.847   0.147   3.843 -0.7689  0.0691  0.0954
 8439SOL    HW136776   1.838   0.235   3.808  2.6176  1.3462  2.4402
 8439SOL    HW236777   1.941   0.149   3.861 -0.5416  0.7367 -1.1577
 8440SOL     OW36778   3.639   4.218   7.780  0.0932 -0.6644 -0.2929
 8440SOL    HW136779   3.720   4.260   7.751  1.4724 -3.4113 -0.4421
 8440SOL    HW236780   3.626   4.266   7.862  0.5486  1.5874 -1.5512
 8441SOL     OW36781   3.230   4.103   8.889  0.8704  0.1952 -0.0772
 8441SOL    HW136782   3.162   4.052   8.847  2.8321 -1.3521 -1.3761
 8441SOL    HW236783   3.284   4.141   8.820  1.4675 -1.0443 -0.2942
 8442SOL     OW36784   4.451   1.104   3.814  0.4597  0.6524 -0.6002
 8442SOL    HW136785   4.376   1.067   3.859 -0.5575  1.3685 -1.7099
 8442SOL    HW236786   4.406   1.159   3.750  0.2900  1.9877  0.6537
 8443SOL     OW36787   3.793   3.468   2.834 -0.2758 -0.0461 -0.0078
 8443SOL    HW136788   3.705   3.503   2.845 -0.5775 -0.2025 -2.0475
 8443SOL    HW236789   3.826   3.482   2.923 -2.3606  0.8555  0.6154
 8444SOL     OW36790   4.595   1.783   2.394  0.2803  0.2837 -0.3285
 8444SOL    HW136791   4.656   1.714   2.367 -0.2187  0.9992 -3.2948
 8444SOL    HW236792   4.631   1.856   2.344 -2.4405  2.0071  0.2271
 8445SOL     OW36793   3.778   0.301   3.988 -0.4807  0.5388  0.1684
 8445SOL    HW136794   3.791   0.373   3.926  3.4590 -0.6867 -0.4027
 8445SOL    HW236795   3.691   0.274   3.961  0.6301 -0.5640 -2.2681
 8446SOL     OW36796   2.412   1.620   4.298 -0.1408 -0.3137  0.1606
 8446SOL    HW136797   2.500   1.611   4.262  0.5400 -0.1977  1.7721
 8446SOL    HW236798   2.359   1.614   4.218 -1.4650  2.0718  0.8262
 8447SOL     OW36799   0.253   4.219  17.522 -0.2324  0.1402  0.0506
 8447SOL    HW136800   0.213   4.301  17.551  0.9322  0.4805  0.7223
 8447SOL    HW236801   0.335   4.258  17.491  0.5766  0.3182  2.4468
 8448SOL     OW36802   0.342   3.885  13.003  0.0748  0.0556 -0.2542
 8448SOL    HW136803   0.408   3.943  13.041  1.5197 -0.8275 -1.3597
 8448SOL    HW236804   0.274   3.946  12.976  0.9855  0.7878 -0.9067
 8449SOL     OW36805   3.760   2.340   3.340 -0.0263  0.1177 -0.6798
 8449SOL    HW136806   3.814   2.295   3.405 -0.6258 -0.0573 -0.3040
 8449SOL    HW236807   3.755   2.429   3.375  1.9855  0.4409 -1.2471
 8450SOL     OW36808   1.994   3.390   6.793 -0.5113  0.1595  0.4662
 8450SOL    HW136809   1.939   3.404   6.716  1.2109 -0.6331 -0.9311
 8450SOL    HW236810   2.079   3.425   6.764 -0.6173  0.8692  1.0067
 8451SOL     OW36811   2.176   4.397   2.270 -0.2363 -0.0391 -0.2407
 8451SOL    HW136812   2.087   4.412   2.303 -0.1536 -0.1220  0.0156
 8451SOL    HW236813   2.183   4.302   2.260 -3.7343 -0.1969 -1.3278
 8452SOL     OW36814   0.219   0.927   2.597 -0.2650  1.0824 -0.1333
 8452SOL    HW136815   0.182   0.947   2.683 -0.9773  1.2704 -0.4890
 8452SOL    HW236816   0.259   0.843   2.622 -3.0845 -0.6385 -1.3904
 8453SOL     OW36817   0.229   4.589   0.735 -0.4309 -0.3924  0.3691
 8453SOL    HW136818   0.247   4.502   0.771  1.3541  0.2653  1.0340
 8453SOL    HW236819   0.142   4.600   0.774 -0.8700 -1.1060 -0.4145
 8454SOL     OW36820   0.572   2.929   6.348  0.1847  0.1482  0.0334
 8454SOL    HW136821   0.505   2.994   6.369  1.8483  2.0209 -0.3928
 8454SOL    HW236822   0.530   2.862   6.401 -0.4153  0.9485  0.5708
 8455SOL     OW36823   3.424   1.487   5.726  0.9909  0.0398 -0.2795
 8455SOL    HW136824   3.401   1.396   5.708 -0.5108 -0.0626  2.0316
 8455SOL    HW236825   3.424   1.489   5.822 -2.6302 -1.3560 -0.2452
 8456SOL     OW36826   4.093   1.992   8.791  0.5141 -0.1356  0.2525
 8456SOL    HW136827   4.050   1.970   8.709  1.4400 -0.2049 -0.2139
 8456SOL    HW236828   4.110   1.908   8.833 -0.5017 -0.4938 -0.0552
 8457SOL     OW36829   3.734   1.590   6.873  0.9076  0.1396  0.2432
 8457SOL    HW136830   3.716   1.592   6.967 -2.9499 -1.5818 -0.4516
 8457SOL    HW236831   3.695   1.507   6.844  0.4482  0.6548 -0.6129
 8458SOL     OW36832   1.455   3.856   7.170 -0.6596  0.0291 -0.1764
 8458SOL    HW136833   1.416   3.777   7.207  1.0146 -0.4988  0.4888
 8458SOL    HW236834   1.426   3.927   7.227 -1.7705 -1.6915  1.3952
 8459SOL     OW36835   4.682   3.613   6.113  0.1682 -0.1204  0.3648
 8459SOL    HW136836   4.660   3.521   6.120 -2.4388  0.4455 -0.3373
 8459SOL    HW236837   4.617   3.651   6.053 -0.0004  2.4975  2.2086
 8460SOL     OW36838   2.514   0.707  13.041  0.0346  0.0672  0.6170
 8460SOL    HW136839   2.475   0.646  13.103  1.5027 -2.3814 -0.8952
 8460SOL    HW236840   2.435   0.749  13.006  1.0571  0.7464 -0.8708
 8461SOL     OW36841   4.609   1.614  14.594 -0.2179 -0.1957  0.2181
 8461SOL    HW136842   4.667   1.647  14.662  0.2283  1.4092 -0.9377
 8461SOL    HW236843   4.656   1.539  14.559  0.2749  0.0078  0.4441
 8462SOL     OW36844   2.365   2.118   3.770 -0.1669  0.2848  0.8031
 8462SOL    HW136845   2.398   2.030   3.789 -1.5175 -0.5515 -0.7492
 8462SOL    HW236846   2.429   2.181   3.803  0.1156  0.1950  0.4299
 8463SOL     OW36847   3.108   0.535   5.900 -0.4184  0.0955 -0.3891
 8463SOL    HW136848   3.159   0.614   5.883 -0.2736 -0.3696 -2.0958
 8463SOL    HW236849   3.036   0.537   5.837 -1.3259  0.7191  0.6713
 8464SOL     OW36850   1.465   1.738   3.834  0.2758 -0.3418  0.3409
 8464SOL    HW136851   1.503   1.791   3.764  0.9536 -2.1032 -0.6151
 8464SOL    HW236852   1.521   1.662   3.818  1.9268  0.9811 -0.2755
 8465SOL     OW36853   1.807   2.483  17.372 -0.0881  0.4942  0.2874
 8465SOL    HW136854   1.873   2.500  17.440  2.9080 -1.1233 -2.2531
 8465SOL    HW236855   1.751   2.417  17.411 -1.5700  0.7155 -1.4681
 8466SOL     OW36856   1.394   3.932  16.758  0.0680 -0.3449  0.1887
 8466SOL    HW136857   1.485   3.917  16.784 -0.1459 -0.3228  0.9646
 8466SOL    HW236858   1.405   3.972  16.672 -1.9986  1.6050  0.8371
 8467SOL     OW36859   2.166   1.451   9.691  0.0746 -0.2804  0.3401
 8467SOL    HW136860   2.234   1.395   9.729 -0.6005 -1.5721 -0.3463
 8467SOL    HW236861   2.126   1.390   9.629  0.9034  1.4068 -1.8105
 8468SOL     OW36862   1.373   3.103   5.322 -0.0415 -0.5557  0.4026
 8468SOL    HW136863   1.420   3.031   5.279  1.8875  0.4682  0.7726
 8468SOL    HW236864   1.412   3.179   5.278 -0.4059 -0.4761  0.2177
 8469SOL     OW36865   1.362   2.463  15.696 -0.0767 -0.1801 -0.1165
 8469SOL    HW136866   1.385   2.556  15.702  0.7760 -0.3500 -0.8944
 8469SOL    HW236867   1.441   2.430  15.739 -0.5658 -0.7719  0.3235
 8470SOL     OW36868   0.034   0.569   9.050 -0.2362 -0.3950  0.3741
 8470SOL    HW136869   0.071   0.482   9.068 -2.3378 -1.3731  0.0121
 8470SOL    HW236870   0.030   0.602   9.140  0.0336  0.1062  0.1956
 8471SOL     OW36871   4.007   3.559  16.679 -0.0125 -0.4427  0.4776
 8471SOL    HW136872   4.054   3.629  16.633  0.1396  0.3371  1.7985
 8471SOL    HW236873   3.942   3.542  16.611  0.9396 -3.3181  0.3100
 8472SOL     OW36874   4.531   2.255   2.768 -0.1647 -0.1124  0.0440
 8472SOL    HW136875   4.444   2.233   2.801  0.5860 -1.2450  1.2218
 8472SOL    HW236876   4.546   2.188   2.701  0.7545 -0.4131  0.5504
 8473SOL     OW36877   0.807   1.312   3.601 -0.2060 -0.7404  0.1774
 8473SOL    HW136878   0.812   1.407   3.592  1.3636 -0.8916 -0.4900
 8473SOL    HW236879   0.714   1.300   3.584 -0.2413  0.9033 -0.7975
 8474SOL     OW36880   2.180   2.468   6.836  0.1722 -0.0172 -0.3710
 8474SOL    HW136881   2.116   2.503   6.774 -1.0227 -0.3045  0.6789
 8474SOL    HW236882   2.251   2.452   6.775 -1.1941  0.6584 -2.1268
 8475SOL     OW36883   1.452   2.683   4.177  0.3958  0.4583 -0.0537
 8475SOL    HW136884   1.534   2.634   4.188  0.5973  0.6091 -0.8783
 8475SOL    HW236885   1.452   2.704   4.270 -1.0457  3.2633 -0.6780
 8476SOL     OW36886   0.542   3.924   2.741  0.8534 -0.4114  0.7409
 8476SOL    HW136887   0.559   4.018   2.733  1.7774 -0.6752 -0.4305
 8476SOL    HW236888   0.534   3.903   2.648  2.1094  0.6297  0.3998
 8477SOL     OW36889   1.068   1.405  16.997 -0.0946 -0.2531  0.5011
 8477SOL    HW136890   1.066   1.469  16.926 -0.3609 -1.9479 -1.0195
 8477SOL    HW236891   1.107   1.340  16.939  0.7767  0.8446 -0.1407
 8478SOL     OW36892   0.030   3.104   1.069  0.4832 -0.3634 -0.1191
 8478SOL    HW136893   0.053   3.028   1.124  0.7161 -1.0923 -1.2156
 8478SOL    HW236894   4.659   3.115   1.078  1.1927  4.6095  1.3502
 8479SOL     OW36895   0.499   0.109   1.488  0.2420 -0.1984  0.2954
 8479SOL    HW136896   0.430   0.173   1.509  0.2864 -0.1183  0.1952
 8479SOL    HW236897   0.556   0.151   1.424 -0.7349 -0.5034 -0.7802
 8480SOL     OW36898   2.694   2.450   9.379  0.0362  0.1343 -1.0620
 8480SOL    HW136899   2.699   2.451   9.475 -0.1419 -2.5996 -1.0210
 8480SOL    HW236900   2.651   2.534   9.366 -0.8364 -0.0438  0.6010
 8481SOL     OW36901   3.591   0.952   3.728 -0.5891  1.0188  0.2595
 8481SOL    HW136902   3.666   0.893   3.737 -0.5176  0.8471 -1.3391
 8481SOL    HW236903   3.606   1.019   3.795  0.2663  1.0172  0.0744
 8482SOL     OW36904   3.812   3.953   1.029  0.4012 -0.2525 -0.0034
 8482SOL    HW136905   3.844   3.862   1.031 -0.0397 -0.4263 -0.9056
 8482SOL    HW236906   3.858   3.984   0.951  0.9530 -0.0998  0.3797
 8483SOL     OW36907   0.032   2.689   6.071  0.3960 -0.4675  0.0916
 8483SOL    HW136908   4.708   2.713   6.151  1.3410 -0.2437  0.5930
 8483SOL    HW236909   0.095   2.622   6.097  1.1744  0.9355  1.8583
 8484SOL     OW36910   2.343   0.585   7.243  0.1454  0.2525  0.3670
 8484SOL    HW136911   2.320   0.493   7.242  0.8622  0.0824 -0.4373
 8484SOL    HW236912   2.334   0.602   7.337  0.9496 -0.8231  0.6329
 8485SOL     OW36913   3.409   1.700  12.391 -0.0448  0.7427 -0.9495
 8485SOL    HW136914   3.458   1.642  12.449 -0.9219  0.5371 -0.4297
 8485SOL    HW236915   3.485   1.725  12.337  0.9871 -2.5151 -1.0117
 8486SOL     OW36916   3.206   1.823   8.480  0.0459  0.4553 -0.1445
 8486SOL    HW136917   3.281   1.773   8.449 -0.0468 -0.3429  0.9260
 8486SOL    HW236918   3.251   1.890   8.532  1.6884 -0.3747 -0.5050
 8487SOL     OW36919   3.379   4.247   2.283  0.3161  0.0649  0.0408
 8487SOL    HW136920   3.427   4.233   2.201 -1.3446 -1.4352 -0.6705
 8487SOL    HW236921   3.451   4.261   2.345 -0.0821 -2.6769  1.1157
 8488SOL     OW36922   4.002   4.529   6.720  0.3609 -0.0932  0.1469
 8488SOL    HW136923   4.034   4.442   6.696  0.6576 -0.1351  0.7049
 8488SOL    HW236924   3.926   4.504   6.773  1.1105 -0.7956  0.8985
 8489SOL     OW36925   1.951   0.914  10.903  0.6399 -0.0425  0.7231
 8489SOL    HW136926   2.031   0.886  10.859  0.8710  0.0423  1.0916
 8489SOL    HW236927   1.953   0.882  10.993  2.8722  0.0051  0.6987
 8490SOL     OW36928   0.582   0.594   4.917  0.3820  0.0190  0.2287
 8490SOL    HW136929   0.671   0.565   4.935 -0.3439 -0.6729  2.6409
 8490SOL    HW236930   0.542   0.513   4.887 -1.0704  0.1824  1.7413
 8491SOL     OW36931   2.341   1.770  17.445  0.0525 -0.1962 -0.3123
 8491SOL    HW136932   2.253   1.793  17.472  1.1243  0.7509  2.3574
 8491SOL    HW236933   2.350   1.824  17.366  1.3347  0.6486  0.4061
 8492SOL     OW36934   3.428   1.255   7.352 -0.8840 -0.3243  0.5141
 8492SOL    HW136935   3.394   1.210   7.429  0.9996 -0.8698  1.0317
 8492SOL    HW236936   3.376   1.213   7.284 -1.8274 -0.3231  1.2404
 8493SOL     OW36937   0.682   3.732  10.614 -0.4175 -0.0757  0.2759
 8493SOL    HW136938   0.739   3.728  10.690 -1.3843  0.6240  1.0369
 8493SOL    HW236939   0.749   3.699  10.554  0.1407 -0.0817  0.9006
 8494SOL     OW36940   2.367   4.552   2.213 -0.4035 -0.9602 -1.0330
 8494SOL    HW136941   2.298   4.498   2.251 -0.5565 -0.7886 -1.0632
 8494SOL    HW236942   2.416   4.490   2.159 -1.7265 -1.7751 -1.3018
 8495SOL     OW36943   2.010   3.938  10.639 -0.6321  0.0060  0.3935
 8495SOL    HW136944   2.081   3.983  10.594  1.3637 -0.8726  2.6808
 8495SOL    HW236945   2.027   3.981  10.722 -1.7770  0.1019  0.5724
 8496SOL     OW36946   4.239   2.520   6.151 -0.2015  0.5992 -0.8391
 8496SOL    HW136947   4.161   2.480   6.190 -0.7127  1.1672 -1.2740
 8496SOL    HW236948   4.256   2.592   6.212 -3.0612 -0.6456  1.4476
 8497SOL     OW36949   1.379   3.067   6.386  0.0344  0.2823 -0.4647
 8497SOL    HW136950   1.350   3.150   6.347 -0.5695 -0.4236 -1.4973
 8497SOL    HW236951   1.294   3.031   6.410  0.2403 -0.6015 -1.1032
 8498SOL     OW36952   1.611   0.475   3.455  0.1899 -0.3145 -0.1287
 8498SOL    HW136953   1.607   0.554   3.510 -2.4358  0.1099 -0.9167
 8498SOL    HW236954   1.523   0.438   3.458  0.1062 -0.1320 -0.3366
 8499SOL     OW36955   4.085   1.510   1.691  0.0604  0.3968 -0.4092
 8499SOL    HW136956   4.097   1.564   1.769 -3.5767 -2.4705  2.1104
 8499SOL    HW236957   4.012   1.556   1.651 -0.6859  1.2774  1.9818
 8500SOL     OW36958   3.702   4.192   5.473  0.0144  0.0840  0.4297
 8500SOL    HW136959   3.661   4.276   5.449 -2.1512 -0.8547  0.8711
 8500SOL    HW236960   3.793   4.215   5.493  0.0059  0.1918  0.3500
 8501SOL     OW36961   2.964   3.153   1.362  0.0533  0.1622 -0.3057
 8501SOL    HW136962   2.980   3.110   1.278 -2.0022 -0.8647 -0.1849
 8501SOL    HW236963   2.918   3.233   1.337  2.8413  2.2060  1.2362
 8502SOL     OW36964   3.152   1.280   1.290 -0.6638  0.0362 -0.4421
 8502SOL    HW136965   3.228   1.263   1.235  1.0825 -0.3427  2.0570
 8502SOL    HW236966   3.190   1.264   1.377 -2.5133 -1.3851  0.1021
 8503SOL     OW36967   0.321   2.646   8.878  0.1259  0.5093 -0.3820
 8503SOL    HW136968   0.414   2.650   8.901  0.2451 -2.2691 -0.4199
 8503SOL    HW236969   0.316   2.554   8.852  1.4707  0.9182 -2.0962
 8504SOL     OW36970   4.513   3.425   8.440  0.6459  0.6827 -0.3715
 8504SOL    HW136971   4.448   3.432   8.510  1.0569  0.3682  0.0351
 8504SOL    HW236972   4.580   3.369   8.476  0.9516 -0.2411 -2.3531
 8505SOL     OW36973   3.886   3.493   7.175 -0.0620  0.0833 -0.7821
 8505SOL    HW136974   3.947   3.444   7.120 -0.6645 -1.3949 -0.1346
 8505SOL    HW236975   3.903   3.451   7.259 -0.8430 -0.1859 -0.7616
 8506SOL     OW36976   0.672   1.768   0.839  0.1884 -0.1177  0.0711
 8506SOL    HW136977   0.590   1.730   0.806  0.6320 -0.7297 -0.3173
 8506SOL    HW236978   0.731   1.693   0.830  1.1213  0.8525 -1.8068
 8507SOL     OW36979   0.505   0.300   0.793  0.2231  0.1136 -0.0108
 8507SOL    HW136980   0.511   0.253   0.876  3.0917 -1.3106 -1.0402
 8507SOL    HW236981   0.418   0.267   0.770  0.9686 -2.2908  0.6328
 8508SOL     OW36982   4.674   3.924  14.211 -0.3562  0.2671 -0.1556
 8508SOL    HW136983   0.026   3.886  14.255 -0.6573  2.0310  1.9387
 8508SOL    HW236984   4.633   3.946  14.295 -1.7662  0.2578 -0.8460
 8509SOL     OW36985   4.000   3.004   2.072 -0.3165  1.0788 -0.2816
 8509SOL    HW136986   3.914   2.976   2.040  0.1815 -0.3573 -0.3582
 8509SOL    HW236987   4.053   2.931   2.041  1.1590  0.8186  2.8177
 8510SOL     OW36988   4.071   0.575  14.583  0.3640  0.0980  0.0320
 8510SOL    HW136989   4.088   0.617  14.667 -0.6185 -2.0233  1.3150
 8510SOL    HW236990   4.152   0.527  14.568 -1.1042 -2.1662 -0.8075
 8511SOL     OW36991   0.463   1.392   7.614 -0.0845  0.4386 -0.3836
 8511SOL    HW136992   0.510   1.445   7.549 -1.5569 -0.6413 -2.3376
 8511SOL    HW236993   0.495   1.306   7.589 -0.8500 -0.5269  2.0576
 8512SOL     OW36994   1.333   4.092   0.315 -0.4042 -0.5180  0.3794
 8512SOL    HW136995   1.277   4.034   0.264 -2.1220  1.7870 -0.3946
 8512SOL    HW236996   1.257   4.127   0.362 -0.4724  1.1556 -0.9399
 8513SOL     OW36997   0.264   2.832  10.937 -0.3805  0.0534  0.0959
 8513SOL    HW136998   0.170   2.846  10.946 -0.3490  1.3577 -1.6233
 8513SOL    HW236999   0.293   2.829  11.028 -1.6389  3.4613  0.5999
 8514SOL     OW37000   0.299   1.549   8.176 -0.1641  0.0861 -0.2486
 8514SOL    HW137001   0.292   1.456   8.154  0.3439 -0.1755  0.6848
 8514SOL    HW237002   0.265   1.548   8.266 -0.9940 -2.0950 -0.5662
 8515SOL     OW37003   0.525   0.341  10.661 -0.1205 -0.2870  0.2975
 8515SOL    HW137004   0.487   0.424  10.633  0.8733 -0.2311 -0.8818
 8515SOL    HW237005   0.619   0.353  10.644  0.2638 -3.1394  0.3826
 8516SOL     OW37006   4.020   4.264   3.778  0.2182  0.3663 -0.1750
 8516SOL    HW137007   4.106   4.258   3.735  0.2091 -0.3616 -0.0904
 8516SOL    HW237008   3.975   4.186   3.746 -2.3117  1.2250  1.2860
 8517SOL     OW37009   4.422   4.345   4.344 -0.6114 -0.3375 -0.4558
 8517SOL    HW137010   4.436   4.254   4.317  2.4868  0.4861 -1.6872
 8517SOL    HW237011   4.448   4.388   4.263  1.4264 -0.1972  0.2644
 8518SOL     OW37012   1.744   1.691  10.599 -0.8439  0.5955  0.0162
 8518SOL    HW137013   1.734   1.598  10.620 -0.3457  1.3322  3.4732
 8518SOL    HW237014   1.779   1.690  10.510  1.0580 -0.7509  0.7796
 8519SOL     OW37015   4.523   0.670  10.523  0.0284  0.0978 -0.4979
 8519SOL    HW137016   4.461   0.669  10.451 -0.9477 -1.4348  0.3670
 8519SOL    HW237017   4.597   0.640  10.470 -0.8884 -1.1988 -1.0248
 8520SOL     OW37018   2.475   0.831   5.724 -0.0787  0.2551  0.3120
 8520SOL    HW137019   2.421   0.772   5.671  1.4806 -1.1844  0.3179
 8520SOL    HW237020   2.488   0.775   5.800  1.4556  1.5319  0.9955
 8521SOL     OW37021   3.293   4.136  10.378 -0.1490 -0.1572  0.2527
 8521SOL    HW137022   3.236   4.115  10.452 -0.2299  0.8700  0.4885
 8521SOL    HW237023   3.309   4.230  10.386 -3.7548  0.4047  0.6864
 8522SOL     OW37024   2.139   4.685  13.130 -0.1641  0.3095 -0.1396
 8522SOL    HW137025   2.142   0.035  13.191  1.2650  0.0455  0.1025
 8522SOL    HW237026   2.072   4.717  13.069  0.9469 -1.6592 -2.3911
 8523SOL     OW37027   0.831   3.918   7.767 -0.2741 -0.4997 -0.5386
 8523SOL    HW137028   0.905   3.893   7.823  0.8484  2.0863 -0.9076
 8523SOL    HW237029   0.823   4.008   7.797  1.4430 -0.3849 -0.4144
 8524SOL     OW37030   4.525   3.671   5.186 -0.3485  0.3858  0.6806
 8524SOL    HW137031   4.613   3.657   5.149  0.2119  3.0373  1.0387
 8524SOL    HW237032   4.528   3.645   5.278 -3.2292 -0.6838  0.4612
 8525SOL     OW37033   3.991   2.004   8.254 -0.6701  0.2399  0.1677
 8525SOL    HW137034   3.968   1.970   8.340 -0.7073 -0.2211 -0.0286
 8525SOL    HW237035   4.002   1.934   8.190 -2.5875  0.1960 -0.1151
 8526SOL     OW37036   1.691   0.510  15.300  1.1127 -0.3126  0.0811
 8526SOL    HW137037   1.715   0.438  15.240  3.4897  0.5207  0.0439
 8526SOL    HW237038   1.670   0.584  15.243 -0.3028 -0.9671 -0.2413
 8527SOL     OW37039   3.651   0.913  10.855  0.2810 -0.2756 -0.0078
 8527SOL    HW137040   3.563   0.876  10.852 -0.0158  0.0719  3.6479
 8527SOL    HW237041   3.654   0.933  10.949 -1.8729 -2.1746  0.4875
 8528SOL     OW37042   3.224   4.435   0.206 -0.5374 -0.5009  0.4121
 8528SOL    HW137043   3.246   4.447   0.299 -1.9734  1.0545  0.5645
 8528SOL    HW237044   3.313   4.434   0.171  0.3194 -0.1363  2.5423
 8529SOL     OW37045   4.688   4.525   0.026  0.3679  0.9276 -0.1899
 8529SOL    HW137046   4.606   4.570   0.007 -1.3779 -2.3014 -0.2020
 8529SOL    HW237047   4.696   4.539   0.120  0.1514 -0.4266  0.0254
 8530SOL     OW37048   4.669   0.662   5.672  0.5494  0.4174 -0.1888
 8530SOL    HW137049   4.696   0.753   5.686  2.8387 -0.2016 -0.5322
 8530SOL    HW237050   4.635   0.629   5.755 -0.4318 -0.8234 -1.0863
 8531SOL     OW37051   4.665   3.384  11.697  0.4143  0.0180 -0.1985
 8531SOL    HW137052   4.645   3.305  11.747 -1.4514 -1.3030 -3.0041
 8531SOL    HW237053   0.029   3.368  11.662 -0.1301 -0.8257 -1.1665
 8532SOL     OW37054   3.452   1.321  11.289 -0.5196 -0.3929 -0.4007
 8532SOL    HW137055   3.470   1.406  11.249  1.3749 -1.2593 -1.3564
 8532SOL    HW237056   3.493   1.343  11.373 -1.6589  1.1931 -0.2588
 8533SOL     OW37057   0.550   1.852   2.301 -0.2629  0.0004 -0.3689
 8533SOL    HW137058   0.536   1.789   2.371 -1.8040 -2.2803 -2.7316
 8533SOL    HW237059   0.610   1.910   2.348 -0.5423 -0.9950  1.2016
 8534SOL     OW37060   3.931   4.330   4.453  0.1845 -0.5594  0.2888
 8534SOL    HW137061   3.953   4.355   4.363 -1.4695  1.8798  0.5805
 8534SOL    HW237062   3.929   4.234   4.449 -1.6534 -0.4269 -1.8498
 8535SOL     OW37063   3.172   4.004   2.819  0.3132 -0.1150  0.3066
 8535SOL    HW137064   3.124   3.983   2.738 -2.2981 -3.0635  2.6161
 8535SOL    HW237065   3.099   4.041   2.868 -1.4186 -1.4459 -1.2521
 8536SOL     OW37066   4.629   1.998  11.122 -0.2850  0.3825 -0.3043
 8536SOL    HW137067   4.601   2.083  11.155 -0.3042 -0.6520  2.3388
 8536SOL    HW237068   4.573   1.937  11.170 -1.6654  2.1298  0.3032
 8537SOL     OW37069   2.972   1.112  14.959 -0.2849  0.7349 -0.1039
 8537SOL    HW137070   3.063   1.111  14.988 -0.1027 -1.2719 -0.7498
 8537SOL    HW237071   2.919   1.070  15.026  0.6752  0.1384  0.2740
 8538SOL     OW37072   3.431   1.197   5.709 -0.0421  0.1869 -0.0480
 8538SOL    HW137073   3.367   1.210   5.779 -0.7147  0.1437 -0.6543
 8538SOL    HW237074   3.496   1.149   5.761  0.3950 -1.3382 -1.9972
 8539SOL     OW37075   1.895   3.073   3.804 -0.3639  0.3410 -0.5242
 8539SOL    HW137076   1.895   2.982   3.776  0.4078 -0.2240  1.3691
 8539SOL    HW237077   1.873   3.114   3.720  0.1965  0.0739 -0.8021
 8540SOL     OW37078   4.558   2.135  16.352 -0.4288  0.6117  0.2115
 8540SOL    HW137079   4.654   2.138  16.360 -0.2667 -1.5822 -0.8530
 8540SOL    HW237080   4.551   2.123  16.257  0.9635  1.0494  0.0468
 8541SOL     OW37081   3.643   4.063  17.279  0.5261  0.2691 -0.0433
 8541SOL    HW137082   3.625   4.135  17.218 -0.9554  0.2339  0.3524
 8541SOL    HW237083   3.674   4.108  17.358  0.0548 -0.6013  0.6377
 8542SOL     OW37084   0.271   0.244   2.935 -0.1037 -0.3449 -0.4973
 8542SOL    HW137085   0.339   0.178   2.949  0.2156 -0.1530 -1.1462
 8542SOL    HW237086   0.247   0.221   2.845 -1.1486  0.0419 -0.3162
 8543SOL     OW37087   1.914   4.202  12.086 -0.2919  0.4626 -0.0487
 8543SOL    HW137088   1.885   4.291  12.105  1.4199  0.4474  2.5877
 8543SOL    HW237089   1.970   4.211  12.008  1.5370  0.4694  1.2742
 8544SOL     OW37090   3.776   0.585   2.864 -0.6337  0.7801 -0.1955
 8544SOL    HW137091   3.720   0.575   2.787 -0.4848 -0.7272 -0.1148
 8544SOL    HW237092   3.739   0.528   2.932  1.2946 -1.1868 -0.7669
 8545SOL     OW37093   0.844   1.135   6.119 -0.5710  0.7986  0.4176
 8545SOL    HW137094   0.791   1.057   6.105  0.3089  0.1562  0.6904
 8545SOL    HW237095   0.772   1.191   6.150 -1.0898  2.8336 -4.4691
 8546SOL     OW37096   3.072   3.129  13.653  0.0983 -0.2426 -0.1461
 8546SOL    HW137097   3.163   3.159  13.640  0.2586 -1.0946 -0.9451
 8546SOL    HW237098   3.089   3.058  13.715  0.5273  0.6601  0.7616
 8547SOL     OW37099   2.899   4.523   7.894  0.2489  0.0037 -0.1335
 8547SOL    HW137100   2.950   4.583   7.949 -0.4347  2.2563 -2.0102
 8547SOL    HW237101   2.808   4.546   7.912 -0.2243 -0.3414 -2.1598
 8548SOL     OW37102   3.681   1.298   8.090  0.0382 -0.0578  0.4458
 8548SOL    HW137103   3.608   1.239   8.073  0.5258 -0.8793  1.1978
 8548SOL    HW237104   3.714   1.279   8.178 -1.6345 -0.8307  0.9080
 8549SOL     OW37105   3.213   1.037  12.182  0.7410  0.0365  0.2396
 8549SOL    HW137106   3.287   1.012  12.237 -0.3216 -1.6214  0.8951
 8549SOL    HW237107   3.157   1.091  12.237 -1.9398  0.8052 -3.2570
 8550SOL     OW37108   2.543   3.923  10.184  0.1232  0.7463  0.1130
 8550SOL    HW137109   2.581   4.002  10.146  0.3362 -0.9315 -3.1751
 8550SOL    HW237110   2.526   3.870  10.106  0.7152 -0.4808  0.8180
 8551SOL     OW37111   3.083   1.525  13.076  0.0156 -0.2432 -0.2513
 8551SOL    HW137112   3.105   1.443  13.120 -0.4201 -1.0602 -1.5423
 8551SOL    HW237113   3.147   1.583  13.117  1.6937 -1.5830 -0.9765
 8552SOL     OW37114   3.674   3.769  16.847 -0.1539  0.7662 -0.0271
 8552SOL    HW137115   3.746   3.773  16.910  0.1584 -1.2015 -0.2692
 8552SOL    HW237116   3.691   3.693  16.791 -0.4605 -0.3045  1.3249
 8553SOL     OW37117   2.421   4.556  15.454  0.4001  0.2381  0.3884
 8553SOL    HW137118   2.448   4.645  15.432  2.1679 -0.0691  1.3682
 8553SOL    HW237119   2.394   4.564  15.546 -1.6151  0.3027 -0.1994
 8554SOL     OW37120   1.948   2.040   9.040 -0.6908  0.4228 -0.3438
 8554SOL    HW137121   1.874   1.997   8.997 -1.0299  0.6293  0.0356
 8554SOL    HW237122   1.939   2.011   9.130  1.3523  1.2431  0.1321
 8555SOL     OW37123   3.999   1.540  12.002  0.0492 -0.3647  0.4304
 8555SOL    HW137124   3.946   1.571  12.075 -1.4713 -0.1468 -0.7670
 8555SOL    HW237125   4.089   1.535  12.035  0.1020  1.1053  0.4845
 8556SOL     OW37126   2.859   3.993   9.372  0.3734  0.5279 -0.4500
 8556SOL    HW137127   2.863   4.047   9.452  0.8457 -3.0147  1.9127
 8556SOL    HW237128   2.878   4.065   9.312 -1.4711  3.0067  1.9562
 8557SOL     OW37129   3.483   0.050   5.082  0.1963 -0.0909 -0.0706
 8557SOL    HW137130   3.454   4.717   5.153  1.2066 -1.3369 -0.6490
 8557SOL    HW237131   3.436   0.132   5.098  1.0800  0.0368  1.7956
 8558SOL     OW37132   3.052   3.552   2.770  0.0683  0.1193 -0.3039
 8558SOL    HW137133   3.025   3.464   2.798  0.0328 -0.0290 -0.8071
 8558SOL    HW237134   3.004   3.553   2.687  0.6719  0.6337 -0.6406
 8559SOL     OW37135   2.296   2.208   6.485 -0.7779  0.3927  0.1393
 8559SOL    HW137136   2.242   2.283   6.508 -1.5837 -0.1762  0.0979
 8559SOL    HW237137   2.274   2.210   6.392  0.9937 -1.7078 -0.3285
 8560SOL     OW37138   0.909   2.805   5.368 -0.0699 -0.4170  0.0664
 8560SOL    HW137139   0.851   2.728   5.374  0.6699 -1.1699 -2.3285
 8560SOL    HW237140   0.976   2.794   5.435  0.0239 -0.5009 -0.0413
 8561SOL     OW37141   1.120   0.477   3.745  0.0618 -0.4279  0.4487
 8561SOL    HW137142   1.151   0.563   3.720 -1.1161 -0.1646 -0.1255
 8561SOL    HW237143   1.203   0.431   3.752 -1.1856 -2.8409 -0.3469
 8562SOL     OW37144   2.688   0.635   1.763  0.0630  0.0021  0.4223
 8562SOL    HW137145   2.715   0.650   1.853  0.6784  0.6131  0.1362
 8562SOL    HW237146   2.764   0.637   1.705 -1.8600 -0.8932 -2.1530
 8563SOL     OW37147   3.142   3.756   0.721  0.0885  0.7726  0.1033
 8563SOL    HW137148   3.184   3.720   0.643 -0.2969  0.5301  0.0088
 8563SOL    HW237149   3.059   3.794   0.692 -0.4766 -0.2344  0.4237
 8564SOL     OW37150   4.281   1.402   5.241 -0.1786  0.3440 -0.3400
 8564SOL    HW137151   4.313   1.335   5.302 -1.1108  0.8850  0.7409
 8564SOL    HW237152   4.289   1.351   5.160 -0.9550  1.2014 -0.9509
 8565SOL     OW37153   3.516   0.474   1.209  0.3544  0.0785 -0.4201
 8565SOL    HW137154   3.557   0.485   1.295 -1.1298  0.1263  0.2847
 8565SOL    HW237155   3.508   0.561   1.169 -0.7363  0.1261 -0.1084
 8566SOL     OW37156   4.717   3.080   8.480 -0.3337 -0.0469 -0.3212
 8566SOL    HW137157   4.673   3.165   8.489 -0.7930 -0.2094 -0.9782
 8566SOL    HW237158   4.643   3.051   8.427 -0.1456  0.5086 -0.8883
 8567SOL     OW37159   3.785   4.282  12.598  0.8739 -0.3223 -0.2657
 8567SOL    HW137160   3.749   4.217  12.659 -0.7443  0.8140 -0.0088
 8567SOL    HW237161   3.875   4.251  12.594  1.2438  0.6617  0.6111
 8568SOL     OW37162   3.385   3.817   1.596  0.0065  0.0431  0.4374
 8568SOL    HW137163   3.336   3.890   1.635 -2.6889 -0.4787 -1.9702
 8568SOL    HW237164   3.328   3.792   1.523  1.2124  2.1485 -1.2355
 8569SOL     OW37165   3.100   3.418   8.214 -0.5042 -0.3686  0.2175
 8569SOL    HW137166   3.066   3.498   8.253  0.4909  0.1446  0.0216
 8569SOL    HW237167   3.193   3.414   8.237 -0.5347 -1.4448  0.1724
 8570SOL     OW37168   4.258   2.642   8.683 -0.0074 -0.0342  0.8771
 8570SOL    HW137169   4.351   2.621   8.674 -0.2457 -1.1193  0.9902
 8570SOL    HW237170   4.253   2.716   8.622  0.5508 -0.0133  0.8588
 8571SOL     OW37171   2.064   1.474   1.782  0.3093  0.2180  0.0325
 8571SOL    HW137172   2.015   1.392   1.776 -0.8923  0.7249  3.2133
 8571SOL    HW237173   2.091   1.460   1.872  2.1582 -0.4926 -0.6127
 8572SOL     OW37174   1.503   0.346  15.073  0.1143  0.1593  0.2078
 8572SOL    HW137175   1.452   0.303  15.003 -0.2090 -0.5716  0.8896
 8572SOL    HW237176   1.422   0.360  15.122  1.9459  2.1720  2.6638
 8573SOL     OW37177   3.468   1.849   4.502 -0.1146 -0.1457 -0.1444
 8573SOL    HW137178   3.374   1.838   4.492 -0.2580 -2.3054  3.5568
 8573SOL    HW237179   3.503   1.760   4.496 -1.0537 -0.4556 -1.0810
 8574SOL     OW37180   4.635   0.539   6.745  0.4865 -0.1335  0.3704
 8574SOL    HW137181   4.715   0.509   6.702  0.3705 -0.0426  0.0912
 8574SOL    HW237182   4.601   0.606   6.685  0.4100 -0.3539  0.1689
 8575SOL     OW37183   0.040   1.034   6.184 -0.1504 -0.1271  0.4842
 8575SOL    HW137184   0.045   1.082   6.267  1.0043 -1.2031  1.0508
 8575SOL    HW237185   0.036   0.941   6.206  0.0079 -0.6108 -1.5579
 8576SOL     OW37186   2.146   0.245   5.484  0.2054 -0.1012 -0.3328
 8576SOL    HW137187   2.154   0.216   5.575 -0.8303  0.5213 -0.0511
 8576SOL    HW237188   2.107   0.164   5.453  0.8334 -0.1167 -1.1007
 8577SOL     OW37189   0.491   1.666   5.105  0.2231 -0.4029  0.6862
 8577SOL    HW137190   0.429   1.593   5.097 -1.3216  0.8509  1.0142
 8577SOL    HW237191   0.439   1.734   5.062  1.8401  0.6393  0.3702
 8578SOL     OW37192   2.884   0.012   0.622 -0.0170  0.0392 -0.6456
 8578SOL    HW137193   2.939   4.667   0.584 -0.0344 -0.0835 -0.4477
 8578SOL    HW237194   2.847   4.685   0.694  1.4298  2.2402  1.6316
 8579SOL     OW37195   0.111   1.364   3.303  0.3097 -0.0151 -0.0778
 8579SOL    HW137196   0.137   1.440   3.252 -3.2542 -0.1137 -2.0013
 8579SOL    HW237197   0.091   1.296   3.238  0.2252  1.8595 -1.9854
 8580SOL     OW37198   4.341   0.118   2.798 -0.0585  0.6064  0.3942
 8580SOL    HW137199   4.342   0.197   2.852 -2.3733  0.1228  1.1548
 8580SOL    HW237200   4.404   0.066   2.849  0.1730 -0.2969 -0.8168
 8581SOL     OW37201   4.085   2.229   6.604  0.5929  0.1345  0.1552
 8581SOL    HW137202   4.007   2.207   6.655 -0.5005 -0.6342 -1.8559
 8581SOL    HW237203   4.144   2.255   6.675  1.3661 -0.6546 -0.1975
 8582SOL     OW37204   2.452   4.272   4.385 -0.1676 -0.1706  0.5760
 8582SOL    HW137205   2.505   4.333   4.333 -0.1558 -1.9120 -1.4416
 8582SOL    HW237206   2.474   4.295   4.475 -1.9793 -1.4038  1.3270
 8583SOL     OW37207   4.579   2.567   7.475 -0.5339  0.1794 -0.1123
 8583SOL    HW137208   4.611   2.515   7.549  1.3104 -0.5189 -1.3785
 8583SOL    HW237209   4.531   2.635   7.522  0.6184  0.3373  0.8468
 8584SOL     OW37210   0.803   0.263  12.325  0.3993 -0.1820  0.1456
 8584SOL    HW137211   0.724   0.290  12.278 -0.7595 -1.2138  1.5259
 8584SOL    HW237212   0.789   0.327  12.395 -1.4837  0.6586 -0.9774
 8585SOL     OW37213   1.147   0.610  13.588  0.3897 -0.5568  0.5722
 8585SOL    HW137214   1.127   0.673  13.657 -3.1920 -0.5169 -0.4664
 8585SOL    HW237215   1.060   0.582  13.559 -0.1167  2.7485 -1.1258
 8586SOL     OW37216   4.670   1.635   3.391 -0.3372  0.1460 -0.4888
 8586SOL    HW137217   4.639   1.721   3.420 -2.3209 -0.4785 -0.7839
 8586SOL    HW237218   0.040   1.643   3.411 -1.0441 -3.4233  4.2446
 8587SOL     OW37219   0.668   1.111   5.323 -0.2431  0.3888 -0.1427
 8587SOL    HW137220   0.717   1.122   5.242 -0.6911  1.7980 -0.2292
 8587SOL    HW237221   0.600   1.177   5.309  0.5142  1.2989  0.4259
 8588SOL     OW37222   2.594   3.987   3.617  0.1950  0.0940 -0.2128
 8588SOL    HW137223   2.614   3.961   3.707  1.8430 -0.9324 -0.8821
 8588SOL    HW237224   2.502   4.013   3.621  0.4279  1.0802 -1.3543
 8589SOL     OW37225   3.410   1.820   8.285 -0.4882 -0.9006 -0.1259
 8589SOL    HW137226   3.332   1.851   8.238 -2.0440  0.2171  3.2110
 8589SOL    HW237227   3.456   1.900   8.311  0.4088 -1.5249  0.2027
 8590SOL     OW37228   3.333   3.821   2.444  0.2571 -0.6498 -0.4388
 8590SOL    HW137229   3.329   3.771   2.526 -1.2118 -1.5900 -1.0971
 8590SOL    HW237230   3.274   3.767   2.392 -2.7774  1.0310  1.2701
 8591SOL     OW37231   3.606   0.202   5.494 -0.8532  0.3130 -0.9199
 8591SOL    HW137232   3.608   0.291   5.530  1.4159  0.3051 -1.0352
 8591SOL    HW237233   3.653   0.216   5.412 -0.5790  1.9273 -0.4889
 8592SOL     OW37234   4.692   0.455   8.027  0.1399 -0.0916 -0.3148
 8592SOL    HW137235   0.043   0.409   7.989  0.3161  0.5518 -0.7447
 8592SOL    HW237236   4.711   0.435   8.119 -1.4591 -0.8488 -0.1606
 8593SOL     OW37237   1.717   4.387   6.218 -0.1418 -0.4062 -0.2908
 8593SOL    HW137238   1.708   4.472   6.174 -0.3439  0.5123  1.5385
 8593SOL    HW237239   1.799   4.406   6.263  0.1490  0.1045 -1.0268
 8594SOL     OW37240   1.283   0.313   8.708  0.1124  0.1206 -0.3627
 8594SOL    HW137241   1.336   0.282   8.782  0.5347  3.8871  0.9128
 8594SOL    HW237242   1.194   0.293   8.735  0.6848 -0.7418  0.9195
 8595SOL     OW37243   1.043   0.444  14.935 -0.1780  0.1081 -0.2537
 8595SOL    HW137244   1.111   0.378  14.917  0.2478  0.2842  0.7492
 8595SOL    HW237245   1.099   0.501  14.987 -0.2529  1.1389 -1.3021
 8596SOL     OW37246   2.384   3.277   7.805 -0.3101  0.3570  0.0110
 8596SOL    HW137247   2.336   3.336   7.864 -2.3399 -3.4045  2.0786
 8596SOL    HW237248   2.474   3.308   7.804 -0.2678  0.2903  2.2683
 8597SOL     OW37249   3.880   2.548   9.284  0.0177  0.2109  0.0152
 8597SOL    HW137250   3.810   2.610   9.303 -0.8042 -0.5775 -0.4157
 8597SOL    HW237251   3.908   2.511   9.367  1.5308  0.9577 -0.1661
 8598SOL     OW37252   0.133   3.311  11.528 -0.4375 -0.4080  0.0754
 8598SOL    HW137253   0.184   3.258  11.467 -0.6460  0.2015 -0.6220
 8598SOL    HW237254   0.135   3.394  11.479  2.2428  0.5221  1.7393
 8599SOL     OW37255   2.927   0.932   8.753 -0.0627 -0.1022  0.2057
 8599SOL    HW137256   2.981   0.931   8.674 -1.7186 -2.5288 -0.8818
 8599SOL    HW237257   2.945   0.847   8.793 -1.1863 -0.1530  0.5751
 8600SOL     OW37258   0.524   2.178  10.230  0.6213  0.1461 -0.3476
 8600SOL    HW137259   0.576   2.160  10.152 -1.2222 -1.8192 -1.1182
 8600SOL    HW237260   0.582   2.222  10.292  1.6500 -1.5590 -0.1036
 8601SOL     OW37261   0.909   2.912   7.688  0.3292  0.4044  0.1570
 8601SOL    HW137262   0.817   2.937   7.680  0.4123  0.1563 -1.5716
 8601SOL    HW237263   0.942   2.965   7.615  0.9418 -0.4645 -0.2017
 8602SOL     OW37264   2.861   0.609   2.538  0.4673 -0.1546 -0.2829
 8602SOL    HW137265   2.806   0.649   2.471  0.9935 -0.3631 -0.8483
 8602SOL    HW237266   2.852   0.514   2.525  0.3311 -0.1180 -0.4504
 8603SOL     OW37267   4.571   3.078   7.358  0.0799 -0.5649 -0.3015
 8603SOL    HW137268   4.521   3.063   7.439  0.2914  0.6103  0.0478
 8603SOL    HW237269   4.538   3.008   7.302 -0.2613 -0.7769  0.1578
 8604SOL     OW37270   0.767   2.181  13.468  0.0717  0.2178 -0.5442
 8604SOL    HW137271   0.733   2.108  13.416 -1.9311  1.7785 -1.3899
 8604SOL    HW237272   0.739   2.249  13.407 -0.8303  2.7314  2.6722
 8605SOL     OW37273   3.564   3.582   3.678  0.0557  0.5256  0.2406
 8605SOL    HW137274   3.473   3.552   3.674  0.4684 -0.0392 -4.3065
 8605SOL    HW237275   3.574   3.609   3.587 -1.6860  1.8246  0.4408
 8606SOL     OW37276   0.261   2.119  10.156 -0.5648 -0.2038  0.6552
 8606SOL    HW137277   0.351   2.113  10.186 -0.0984  0.1113 -0.6655
 8606SOL    HW237278   0.262   2.029  10.123  0.0965  0.3695 -0.8984
 8607SOL     OW37279   0.076   3.568   8.121 -0.4385  0.5911  0.5996
 8607SOL    HW137280   4.722   3.583   8.066 -0.1798  0.3306  0.1570
 8607SOL    HW237281   0.049   3.611   8.202  0.7375  0.5344  1.0173
 8608SOL     OW37282   3.817   1.515   2.291 -0.5181  0.0696  0.7206
 8608SOL    HW137283   3.733   1.538   2.253 -1.0722 -0.8819  1.3670
 8608SOL    HW237284   3.789   1.475   2.374  2.7298  0.6083  2.1003
 8609SOL     OW37285   3.597   3.347   2.283  0.7992 -0.6284 -0.0332
 8609SOL    HW137286   3.611   3.433   2.324 -2.4115  0.4641 -1.2624
 8609SOL    HW237287   3.505   3.362   2.260  0.4361 -1.1707  1.0821
 8610SOL     OW37288   1.558   4.694  13.560  0.2647  0.7169 -0.0501
 8610SOL    HW137289   1.550   0.055  13.516 -0.3727  0.1230 -1.0866
 8610SOL    HW237290   1.473   4.654  13.543  0.0800  1.8161 -1.6826
 8611SOL     OW37291   1.921   3.364   2.523 -0.0347  0.3720 -0.7295
 8611SOL    HW137292   1.905   3.410   2.441  1.2139 -0.1392 -1.2488
 8611SOL    HW237293   1.898   3.277   2.490  1.7846 -1.0552  1.8213
 8612SOL     OW37294   3.436   0.323   8.019 -0.1641 -0.1804 -0.1488
 8612SOL    HW137295   3.512   0.276   8.053 -0.5427 -0.2330  0.6333
 8612SOL    HW237296   3.390   0.247   7.983 -0.4123 -0.8279  1.5202
 8613SOL     OW37297   2.537   0.304  13.301 -0.5140 -0.2821 -0.6485
 8613SOL    HW137298   2.490   0.347  13.373 -0.2833 -0.9153 -0.1138
 8613SOL    HW237299   2.472   0.306  13.232  1.2249  0.3020 -2.2667
 8614SOL     OW37300   4.124   2.832  15.657  0.0942  0.6014 -0.1697
 8614SOL    HW137301   4.155   2.922  15.656  1.4418  0.1559  2.2080
 8614SOL    HW237302   4.038   2.842  15.616  0.2342 -3.2652 -1.4055
 8615SOL     OW37303   0.300   4.173  10.847 -0.4893 -0.5949 -0.2809
 8615SOL    HW137304   0.244   4.164  10.924 -0.6380 -1.4782 -0.4929
 8615SOL    HW237305   0.364   4.234  10.886  1.4455 -1.5257 -1.9899
 8616SOL     OW37306   2.664   1.896   2.981 -0.0291  0.2138  0.1766
 8616SOL    HW137307   2.736   1.839   3.010  1.2586  0.7837 -1.8581
 8616SOL    HW237308   2.588   1.838   2.982  0.2655 -0.2037 -1.0380
 8617SOL     OW37309   2.701   3.017  12.730  0.4100  0.0078  0.6884
 8617SOL    HW137310   2.756   3.026  12.652 -2.1848  0.7064 -1.0873
 8617SOL    HW237311   2.618   2.983  12.695  0.4638 -0.2556  0.8192
 8618SOL     OW37312   4.539   0.451   1.411  0.1470  0.0345  0.0508
 8618SOL    HW137313   4.585   0.531   1.387 -0.6374  0.4627 -0.0307
 8618SOL    HW237314   4.492   0.473   1.492 -0.3967 -0.5855 -0.0950
 8619SOL     OW37315   1.613   0.819  10.609  0.1960  0.4646 -0.0896
 8619SOL    HW137316   1.607   0.887  10.542 -2.5123  0.5998  0.3209
 8619SOL    HW237317   1.645   0.749  10.553 -1.8272  0.0432 -0.7136
 8620SOL     OW37318   0.304   0.204  11.122  0.3057  0.4392  0.4225
 8620SOL    HW137319   0.374   0.247  11.073  1.0097  0.7618  1.7075
 8620SOL    HW237320   0.292   0.133  11.060 -0.8958  2.1096 -1.2779
 8621SOL     OW37321   3.528   2.488   7.743 -0.0933 -0.4626  0.0475
 8621SOL    HW137322   3.555   2.435   7.818  1.3376  0.5678  0.2700
 8621SOL    HW237323   3.442   2.449   7.728  0.0355 -1.2291  1.3506
 8622SOL     OW37324   1.562   1.355  15.446  0.0119 -0.2000 -0.8469
 8622SOL    HW137325   1.479   1.344  15.492  0.0833 -1.8006 -1.1224
 8622SOL    HW237326   1.547   1.443  15.410 -0.1206  0.9495  1.9556
 8623SOL     OW37327   4.299   0.616  16.485 -0.0776  0.7642  0.2517
 8623SOL    HW137328   4.345   0.623  16.569  0.7509 -2.8491  0.1339
 8623SOL    HW237329   4.259   0.702  16.475  1.6578  1.7640  1.8324
 8624SOL     OW37330   0.472   4.141   4.685  0.6289 -0.3357 -0.3728
 8624SOL    HW137331   0.400   4.106   4.632 -1.5361  0.0012  2.3161
 8624SOL    HW237332   0.469   4.077   4.757  0.1039 -0.9339 -0.9278
 8625SOL     OW37333   2.167   2.989   3.096  0.0930 -0.1335 -0.0021
 8625SOL    HW137334   2.191   3.069   3.143  1.0999  0.9715 -2.4021
 8625SOL    HW237335   2.246   2.936   3.108  0.2016  0.1316  0.4856
 8626SOL     OW37336   2.677   0.397  11.896 -0.1443 -0.4833 -0.5548
 8626SOL    HW137337   2.732   0.330  11.938  1.2841  0.0577 -1.5425
 8626SOL    HW237338   2.741   0.468  11.900  0.7492 -1.3032 -0.1698
 8627SOL     OW37339   1.271   1.401   2.474  0.5600 -0.4200 -0.3220
 8627SOL    HW137340   1.280   1.306   2.477  1.1164 -0.3452  0.4361
 8627SOL    HW237341   1.349   1.431   2.522  1.1820 -1.0279 -0.9579
 8628SOL     OW37342   3.698   4.678  13.898 -0.1728 -0.3296  0.4610
 8628SOL    HW137343   3.683   0.030  13.842  1.3724  0.4219  1.0385
 8628SOL    HW237344   3.616   4.679  13.948 -0.5050  3.4844 -0.1614
 8629SOL     OW37345   4.493   4.580  11.720 -0.0085 -0.1571  0.5175
 8629SOL    HW137346   4.492   4.652  11.658 -1.6845  0.7560  1.6226
 8629SOL    HW237347   4.420   4.613  11.772 -1.2161 -0.0301 -1.2637
 8630SOL     OW37348   4.099   3.414   8.071 -0.1609 -0.1246  0.5250
 8630SOL    HW137349   4.090   3.442   8.162 -3.8545 -1.8420  0.6886
 8630SOL    HW237350   4.009   3.426   8.039 -0.0843 -1.5225 -0.2151
 8631SOL     OW37351   4.289   4.187   7.810 -0.1851 -0.0411 -0.0540
 8631SOL    HW137352   4.226   4.125   7.849  0.9356 -1.1966 -0.0906
 8631SOL    HW237353   4.229   4.225   7.745  0.8887  0.6077 -0.6670
 8632SOL     OW37354   1.532   3.086  11.604 -0.3603 -0.4444 -0.1405
 8632SOL    HW137355   1.595   3.145  11.645 -0.5316  1.2112 -2.2661
 8632SOL    HW237356   1.582   3.004  11.607 -1.1201 -0.9233 -0.4590
 8633SOL     OW37357   2.732   0.263   6.341 -0.2308 -0.1223  0.4827
 8633SOL    HW137358   2.640   0.262   6.366  0.7044  1.1811  4.0437
 8633SOL    HW237359   2.746   0.357   6.350 -1.1626 -0.0785  1.4762
 8634SOL     OW37360   1.805   0.557   8.983  1.1749  0.1056  0.5447
 8634SOL    HW137361   1.717   0.564   9.018  0.5573  1.7239 -1.3030
 8634SOL    HW237362   1.796   0.598   8.897  0.5326 -1.6362 -0.2176
 8635SOL     OW37363   3.581   0.369   5.236 -0.0144 -0.0049  0.3126
 8635SOL    HW137364   3.538   0.447   5.270 -3.0041 -0.3719 -2.6867
 8635SOL    HW237365   3.507   0.323   5.197 -1.4274  1.7134  0.9606
 8636SOL     OW37366   0.398   3.472   3.051 -0.7307 -0.3168  0.1479
 8636SOL    HW137367   0.415   3.484   2.957  0.4641 -0.3621  0.3503
 8636SOL    HW237368   0.428   3.381   3.059 -2.2411 -0.9042 -0.8877
 8637SOL     OW37369   0.554   1.480   6.181  0.0721 -0.0449  0.1959
 8637SOL    HW137370   0.463   1.469   6.207  0.5795 -0.1107  1.9269
 8637SOL    HW237371   0.549   1.444   6.092  0.8678 -0.6439  0.3897
 8638SOL     OW37372   2.263   3.321   6.995  0.1291 -0.3919  0.5496
 8638SOL    HW137373   2.187   3.378   7.004  0.9173  0.5447  1.3124
 8638SOL    HW237374   2.225   3.242   7.033  0.1405 -0.6388  0.0478
 8639SOL     OW37375   4.264   4.164   3.344 -0.5660 -0.4428 -0.1792
 8639SOL    HW137376   4.349   4.131   3.375 -0.7257 -1.0732 -0.4115
 8639SOL    HW237377   4.279   4.255   3.370 -3.5209 -0.0468  0.0770
 8640SOL     OW37378   3.546   0.299   2.528  0.4437  0.1854  0.0028
 8640SOL    HW137379   3.508   0.318   2.443 -1.7554 -2.9429  0.2771
 8640SOL    HW237380   3.477   0.274   2.590  0.7295  1.1289  0.7064
 8641SOL     OW37381   3.466   3.163   8.578 -0.4989 -0.3555  0.3471
 8641SOL    HW137382   3.499   3.162   8.668  0.2396  1.6862  0.1201
 8641SOL    HW237383   3.371   3.167   8.594 -0.3888  0.8084  0.7661
 8642SOL     OW37384   1.285   1.706   4.383  0.3842  0.7111 -0.0164
 8642SOL    HW137385   1.256   1.780   4.436 -0.3126  0.0045  0.5909
 8642SOL    HW237386   1.311   1.647   4.454 -0.3413 -0.7485 -0.9363
 8643SOL     OW37387   0.587   0.221  14.246 -0.1842 -0.3859 -0.2772
 8643SOL    HW137388   0.612   0.216  14.154  2.3246 -1.0275  0.4499
 8643SOL    HW237389   0.530   0.297  14.257  1.4826  0.9460 -0.8914
 8644SOL     OW37390   3.271   1.684   0.397 -0.0239  0.1896 -0.4961
 8644SOL    HW137391   3.235   1.705   0.311 -1.2675 -0.0759 -0.0425
 8644SOL    HW237392   3.325   1.762   0.415 -0.2308  0.5402 -1.3933
 8645SOL     OW37393   0.993   0.075   2.281 -0.0097  0.3956  0.4901
 8645SOL    HW137394   1.060   0.050   2.217 -2.4932 -1.4825 -1.3782
 8645SOL    HW237395   0.962   4.709   2.294  1.1813  0.0609  0.9782
 8646SOL     OW37396   2.704   2.978   6.110 -0.2897 -0.3056 -0.0803
 8646SOL    HW137397   2.761   3.032   6.163  0.1647 -1.6027  0.7420
 8646SOL    HW237398   2.774   2.936   6.061  1.1228  0.4277  1.3383
 8647SOL     OW37399   2.684   3.584   4.909  0.2381 -0.2107 -0.7770
 8647SOL    HW137400   2.768   3.628   4.916 -0.1007  0.0501  1.9661
 8647SOL    HW237401   2.713   3.493   4.911  0.1819 -0.2016  0.5023
 8648SOL     OW37402   4.390   3.900   2.926 -0.5264 -0.7973 -0.5270
 8648SOL    HW137403   4.476   3.942   2.920 -1.2146  0.8900  1.2812
 8648SOL    HW237404   4.331   3.966   2.962 -2.0430 -1.6359 -1.4718
 8649SOL     OW37405   1.298   4.302   7.742 -0.4620 -0.0493  0.7389
 8649SOL    HW137406   1.224   4.354   7.710  0.8005  2.7830  2.3649
 8649SOL    HW237407   1.251   4.270   7.819 -2.5279 -1.4251 -1.0690
 8650SOL     OW37408   0.749   2.190  12.008  0.0655  0.5554 -0.0558
 8650SOL    HW137409   0.739   2.283  11.987  1.6060  1.2329  2.2467
 8650SOL    HW237410   0.735   2.193  12.103  0.6429  1.4993 -0.0017
 8651SOL     OW37411   4.679   4.574   4.896  0.2217  0.1519 -0.6954
 8651SOL    HW137412   0.008   4.534   4.965 -0.5412 -1.0445 -0.8117
 8651SOL    HW237413   4.640   4.643   4.950  1.9377 -0.3305  1.1539
 8652SOL     OW37414   0.657   1.419   5.672 -0.3025  0.4401  0.5362
 8652SOL    HW137415   0.734   1.475   5.662  1.2803 -1.4390  2.2584
 8652SOL    HW237416   0.603   1.454   5.601  2.2970  1.2412 -1.0454
 8653SOL     OW37417   0.263   3.626   9.320 -0.0575  0.2210  0.3615
 8653SOL    HW137418   0.199   3.556   9.303 -1.4052  1.7550 -0.8114
 8653SOL    HW237419   0.343   3.574   9.331  0.9206  1.7038  0.2265
 8654SOL     OW37420   3.831   0.128   3.383  0.0587 -0.4785 -0.2264
 8654SOL    HW137421   3.904   0.083   3.342 -0.9753 -1.1317 -1.3159
 8654SOL    HW237422   3.781   0.061   3.429 -0.0323  0.0050  0.3829
 8655SOL     OW37423   0.227   4.392   8.686  0.1182 -0.6342 -0.1054
 8655SOL    HW137424   0.197   4.408   8.597 -0.9227  2.2767  0.7750
 8655SOL    HW237425   0.306   4.446   8.686  1.4686 -2.6013  1.4606
 8656SOL     OW37426   4.296   3.729  11.101 -0.5978  0.0793 -0.2755
 8656SOL    HW137427   4.370   3.757  11.154 -0.9927  1.0464 -0.2401
 8656SOL    HW237428   4.261   3.662  11.161 -0.5257  0.8179  0.6027
 8657SOL     OW37429   3.103   2.764   3.579 -0.1869  0.1288 -0.3423
 8657SOL    HW137430   3.035   2.697   3.589 -0.0485  0.1309  0.6346
 8657SOL    HW237431   3.111   2.788   3.672 -0.6693  0.1975 -0.3192
 8658SOL     OW37432   3.945   4.661   2.221 -0.3137 -0.4811  0.7105
 8658SOL    HW137433   3.931   0.028   2.250 -2.5465 -0.5191 -0.2484
 8658SOL    HW237434   3.857   4.624   2.224  0.0397 -1.5258 -2.0622
 8659SOL     OW37435   3.385   1.034   9.615  0.2084 -0.1122 -0.1701
 8659SOL    HW137436   3.344   1.034   9.702  1.5159  1.8310  0.4324
 8659SOL    HW237437   3.449   1.105   9.622 -0.8607  0.7679  0.6143
 8660SOL     OW37438   4.322   3.110  11.470  0.0992 -0.1817  0.5466
 8660SOL    HW137439   4.288   3.115  11.380  0.5818  0.2120  0.3889
 8660SOL    HW237440   4.380   3.034  11.466  1.7245  1.0334  1.4930
 8661SOL     OW37441   3.188   0.037   0.473  0.0732 -0.9865  0.1944
 8661SOL    HW137442   3.113   4.703   0.488  0.1950 -0.9602  0.9313
 8661SOL    HW237443   3.248   4.698   0.433  1.5137 -0.5334  1.6099
 8662SOL     OW37444   0.780   2.439   6.472  0.3065  0.5816  0.5914
 8662SOL    HW137445   0.850   2.450   6.407 -0.9749 -0.6146 -1.0018
 8662SOL    HW237446   0.782   2.518   6.526 -2.4386  1.5754 -0.7369
 8663SOL     OW37447   2.053   1.450   6.407  0.7043 -0.3727 -0.2414
 8663SOL    HW137448   1.983   1.421   6.348 -2.8414 -0.0664  3.7425
 8663SOL    HW237449   2.013   1.534   6.430  1.8007 -0.0978  0.6458
 8664SOL     OW37450   2.532   0.215   4.169  0.1935 -0.2864  0.8300
 8664SOL    HW137451   2.624   0.238   4.154 -0.9454  3.5082 -0.3934
 8664SOL    HW237452   2.497   0.298   4.202 -3.1602 -0.6215 -1.8471
 8665SOL     OW37453   3.842   3.546   3.761  0.1181 -0.0168  0.6736
 8665SOL    HW137454   3.751   3.520   3.746  0.1548  0.8506 -1.0799
 8665SOL    HW237455   3.835   3.632   3.720  0.9455 -0.1942  0.1398
 8666SOL     OW37456   2.168   2.735   2.075  0.0008  0.4306  0.4124
 8666SOL    HW137457   2.241   2.768   2.127 -0.4513  3.3482 -0.7743
 8666SOL    HW237458   2.200   2.648   2.054  0.7706  0.2560  2.3145
 8667SOL     OW37459   4.039   4.706   6.521  0.1520  0.1127  0.3760
 8667SOL    HW137460   4.032   4.631   6.580  1.3438  0.0121  0.3856
 8667SOL    HW237461   4.090   0.037   6.582  0.3996  1.5031 -1.0907
 8668SOL     OW37462   1.906   2.714  14.060  0.7881  0.3585 -0.0150
 8668SOL    HW137463   1.936   2.803  14.080 -0.0665  0.8380 -0.9077
 8668SOL    HW237464   1.890   2.683  14.149 -1.1775 -0.2005 -0.5638
 8669SOL     OW37465   2.274   2.281   5.002  0.3332 -0.1864 -0.6957
 8669SOL    HW137466   2.223   2.331   4.939 -0.2433  0.4080  0.2377
 8669SOL    HW237467   2.352   2.332   5.022  0.0803  0.4237 -1.2546
 8670SOL     OW37468   2.683   0.865  14.748 -0.3589 -0.0664 -0.1947
 8670SOL    HW137469   2.645   0.793  14.698  2.7051 -2.1113  0.4836
 8670SOL    HW237470   2.752   0.817  14.792 -0.3412  0.5332  0.4434
 8671SOL     OW37471   3.705   4.622  10.753 -0.1260  0.0016 -0.0371
 8671SOL    HW137472   3.775   4.603  10.817  0.0037  1.0846  0.1435
 8671SOL    HW237473   3.689   4.545  10.699 -1.6074  0.2623  0.0380
 8672SOL     OW37474   0.815   1.751   2.613  0.5222  0.4800  0.2094
 8672SOL    HW137475   0.770   1.693   2.675  0.8226 -0.5137 -0.5125
 8672SOL    HW237476   0.894   1.766   2.664  0.8601 -1.2437  0.2116
 8673SOL     OW37477   2.237   3.219   6.699  0.0470  0.2286 -1.0393
 8673SOL    HW137478   2.328   3.234   6.725 -0.6534 -1.1896  2.2659
 8673SOL    HW237479   2.226   3.134   6.740  1.2645  0.4520 -0.2663
 8674SOL     OW37480   2.670   3.598   7.075  0.0503 -0.0415 -0.0344
 8674SOL    HW137481   2.639   3.544   7.002 -1.7409  0.6605  0.2231
 8674SOL    HW237482   2.609   3.561   7.138  0.3394  1.5573  1.1849
 8675SOL     OW37483   2.409   0.368   7.585 -0.3257 -0.2915 -0.0409
 8675SOL    HW137484   2.368   0.395   7.667 -0.9940  0.9905 -0.8047
 8675SOL    HW237485   2.359   0.411   7.516  2.0260  2.9112  0.2448
 8676SOL     OW37486   1.613   3.723  11.348  0.1639  0.0141 -0.1170
 8676SOL    HW137487   1.658   3.731  11.264  0.5359 -0.2300  0.0624
 8676SOL    HW237488   1.648   3.799  11.393 -1.6915  0.0555  1.2504
 8677SOL     OW37489   0.105   4.144   5.784 -0.0573 -0.5624 -0.1153
 8677SOL    HW137490   0.106   4.056   5.821  2.3056 -1.0860 -1.4266
 8677SOL    HW237491   0.055   4.125   5.704  1.3142 -4.0547 -0.1375
 8678SOL     OW37492   2.206   3.846   7.254  0.2945 -0.0686 -0.0424
 8678SOL    HW137493   2.121   3.891   7.258  0.8848  0.9557  1.0574
 8678SOL    HW237494   2.263   3.921   7.272  0.3240 -0.5534  1.7962
 8679SOL     OW37495   1.289   2.672   1.957  0.2355  0.5834  0.5040
 8679SOL    HW137496   1.257   2.682   2.047 -0.7060  1.7707  0.0265
 8679SOL    HW237497   1.356   2.605   1.976  0.0609  0.3348  0.2519
 8680SOL     OW37498   3.390   3.115   8.294 -0.7872  0.1034 -0.0668
 8680SOL    HW137499   3.436   3.144   8.373  1.5818 -2.1118 -0.6260
 8680SOL    HW237500   3.349   3.198   8.268 -1.2587  0.4589  1.8136
 8681SOL     OW37501   4.572   3.390   7.989  0.5176  0.2221  0.6431
 8681SOL    HW137502   4.546   3.482   7.989  0.8269  0.3062  3.6105
 8681SOL    HW237503   4.502   3.349   8.040 -1.8331  3.2974 -0.1243
 8682SOL     OW37504   3.579   3.785  13.876 -0.3147 -0.5935 -0.2103
 8682SOL    HW137505   3.579   3.693  13.901 -0.9488 -0.4210  0.4418
 8682SOL    HW237506   3.651   3.794  13.814 -0.0772  2.1579  0.4627
 8683SOL     OW37507   2.128   0.455  11.870 -0.2695  0.0233  0.1807
 8683SOL    HW137508   2.216   0.484  11.893  0.1626  0.1098 -1.5381
 8683SOL    HW237509   2.115   0.366  11.903 -1.7366 -0.2396 -1.1056
 8684SOL     OW37510   3.904   2.266  12.048  0.4002 -0.1401  0.4461
 8684SOL    HW137511   3.901   2.333  12.116  0.0032  0.2885  0.0015
 8684SOL    HW237512   3.931   2.190  12.101  1.8695 -0.9811 -1.4854
 8685SOL     OW37513   4.504   0.953  11.871 -0.2119 -1.0256  0.1215
 8685SOL    HW137514   4.437   0.885  11.870 -0.6013 -0.6134 -1.5441
 8685SOL    HW237515   4.543   0.946  11.958 -0.3321 -3.1011  0.0032
 8686SOL     OW37516   1.725   0.610   9.407 -0.6264  0.0935  0.4123
 8686SOL    HW137517   1.820   0.601   9.418 -0.7761 -0.5930  1.1668
 8686SOL    HW237518   1.719   0.603   9.312 -0.7878  0.0914  0.4233
 8687SOL     OW37519   0.633   1.940   6.612 -0.2086  0.4079  0.0927
 8687SOL    HW137520   0.680   2.022   6.599 -0.5723  0.3349 -1.6222
 8687SOL    HW237521   0.579   1.962   6.688 -0.9787 -0.3719 -0.2234
 8688SOL     OW37522   1.448   1.543  15.207  0.2551 -0.2741 -0.3048
 8688SOL    HW137523   1.519   1.599  15.239 -0.4035  0.3577  0.0518
 8688SOL    HW237524   1.402   1.599  15.146 -1.7640  0.0024  1.4706
 8689SOL     OW37525   3.931   1.162   4.340 -0.1782  0.2060 -0.8334
 8689SOL    HW137526   3.860   1.200   4.393  0.4316  0.2114 -0.0229
 8689SOL    HW237527   4.001   1.224   4.359  0.2142 -0.7187  0.7878
 8690SOL     OW37528   1.601   1.872   8.673 -0.3396  0.2400  0.1345
 8690SOL    HW137529   1.573   1.863   8.582  4.2972 -0.7782 -1.1983
 8690SOL    HW237530   1.518   1.861   8.721 -0.0539  1.7017  0.9708
 8691SOL     OW37531   1.155   0.069   6.803 -0.4944  0.0464  0.0137
 8691SOL    HW137532   1.167   0.091   6.896  1.7340  0.0485 -0.2765
 8691SOL    HW237533   1.060   0.058   6.797 -0.7200  1.5402  0.7120
 8692SOL     OW37534   3.349   0.711  11.363 -0.6930  0.3380 -0.2317
 8692SOL    HW137535   3.269   0.759  11.341 -0.1638  0.0981 -2.6667
 8692SOL    HW237536   3.394   0.713  11.279  0.2288 -0.7577  0.2377
 8693SOL     OW37537   0.102   2.995  11.308 -0.3628 -0.2501 -0.4212
 8693SOL    HW137538   0.153   3.075  11.302 -0.3479 -0.2340 -0.0665
 8693SOL    HW237539   0.170   2.941  11.350  0.5580  0.3446 -1.1523
 8694SOL     OW37540   3.102   4.602   5.585 -0.2181 -0.0604  0.1494
 8694SOL    HW137541   3.052   4.536   5.536  1.9762 -1.3651 -0.3492
 8694SOL    HW237542   3.130   4.661   5.515 -1.0560 -0.4407 -0.5051
 8695SOL     OW37543   4.002   2.206  17.195  0.2808 -0.2545  0.0417
 8695SOL    HW137544   4.086   2.193  17.239  0.7565  1.0180 -0.4841
 8695SOL    HW237545   3.959   2.272  17.249  0.0526 -0.2153 -0.1887
 8696SOL     OW37546   3.422   2.136  13.804 -0.1856 -0.0503 -0.5753
 8696SOL    HW137547   3.327   2.136  13.792 -0.3110 -2.0003  0.3604
 8696SOL    HW237548   3.455   2.092  13.726  0.9515 -1.7156  0.8362
 8697SOL     OW37549   4.215   0.180  10.120 -0.0759  0.3552 -0.6235
 8697SOL    HW137550   4.205   0.268  10.083 -1.1960  0.8160  0.7897
 8697SOL    HW237551   4.248   0.123  10.050 -0.5807  0.4151 -0.9180
 8698SOL     OW37552   0.725   3.388   4.387 -0.3516  0.1593  0.2567
 8698SOL    HW137553   0.765   3.392   4.474 -0.7665 -1.2515  0.5222
 8698SOL    HW237554   0.715   3.293   4.378  3.3419 -0.3695  2.1132
 8699SOL     OW37555   4.376   4.325   5.142  0.4336 -0.4613 -0.0943
 8699SOL    HW137556   4.379   4.272   5.063  1.9619 -0.2452 -0.1784
 8699SOL    HW237557   4.464   4.363   5.146  0.8508 -1.4583  0.0116
 8700SOL     OW37558   1.886   1.178   7.442 -0.1960  0.9313  0.1082
 8700SOL    HW137559   1.935   1.181   7.360  2.2579 -0.8537  1.5017
 8700SOL    HW237560   1.793   1.178   7.419 -0.2195 -0.6564  0.1985
 8701SOL     OW37561   3.358   1.294   6.394  0.1530  0.5098 -0.4183
 8701SOL    HW137562   3.354   1.201   6.415  0.6228  0.8319  1.0694
 8701SOL    HW237563   3.296   1.285   6.322 -0.4612  3.1127 -0.2228
 8702SOL     OW37564   2.596   0.650  17.124 -0.2575 -0.0589  0.7570
 8702SOL    HW137565   2.514   0.650  17.075  0.7541 -0.2565 -0.9717
 8702SOL    HW237566   2.623   0.559  17.113 -1.6257 -0.2210 -1.2293
 8703SOL     OW37567   0.285   3.695   3.699 -0.0900 -0.2647  0.1846
 8703SOL    HW137568   0.220   3.713   3.767 -2.8265  0.2476 -2.6022
 8703SOL    HW237569   0.365   3.689   3.752 -0.5343 -1.8181  0.6889
 8704SOL     OW37570   2.879   2.191   1.688 -0.1958 -0.6829 -0.2520
 8704SOL    HW137571   2.931   2.270   1.675 -0.7207 -0.5386 -1.3962
 8704SOL    HW237572   2.790   2.224   1.676 -0.5818 -2.5969 -2.6919
 8705SOL     OW37573   1.551   2.075   0.159  0.1406 -0.1594 -0.0857
 8705SOL    HW137574   1.472   2.091   0.209  0.6300 -1.4543  1.1111
 8705SOL    HW237575   1.592   2.161   0.157 -0.0922 -0.0519 -0.1188
 8706SOL     OW37576   2.492   0.781  15.232  0.4784 -0.6624 -0.4689
 8706SOL    HW137577   2.545   0.703  15.215  0.2105 -1.4476  2.3157
 8706SOL    HW237578   2.472   0.814  15.144 -0.1223 -1.6273 -0.6888
 8707SOL     OW37579   2.166   1.413   7.546  0.7041  0.3522  0.6006
 8707SOL    HW137580   2.089   1.377   7.590 -1.2644  1.0359 -2.3098
 8707SOL    HW237581   2.221   1.431   7.623  0.1207  1.4362  0.7726
 8708SOL     OW37582   1.351   1.701  16.636  0.2782  0.0410 -0.3750
 8708SOL    HW137583   1.374   1.608  16.630 -0.3129 -0.2223  1.6669
 8708SOL    HW237584   1.388   1.718  16.723 -0.8336 -1.3165  0.3615
 8709SOL     OW37585   0.723   3.356   9.371 -0.1612  0.4471  0.8322
 8709SOL    HW137586   0.756   3.436   9.329  1.3732 -0.0176  1.1512
 8709SOL    HW237587   0.792   3.300   9.337  1.4701  3.4166 -0.8078
 8710SOL     OW37588   0.420   1.418  10.735 -0.0764  0.6031 -0.0976
 8710SOL    HW137589   0.511   1.413  10.709  0.2019 -0.9089  1.1641
 8710SOL    HW237590   0.423   1.507  10.770 -0.0404 -0.2107  1.9513
 8711SOL     OW37591   4.040   0.542   7.217  0.5094  0.1585 -0.3068
 8711SOL    HW137592   3.980   0.541   7.142  0.0116  1.1292  0.0782
 8711SOL    HW237593   3.992   0.594   7.282  1.3541 -0.7583  1.0450
 8712SOL     OW37594   2.594   2.539  10.680 -0.3338 -0.2281  0.7062
 8712SOL    HW137595   2.689   2.552  10.686  0.1657 -3.3736 -0.3076
 8712SOL    HW237596   2.574   2.626  10.714 -0.3017  0.3991 -0.8683
 8713SOL     OW37597   0.526   1.249   3.601  0.4438 -0.4474 -0.3479
 8713SOL    HW137598   0.534   1.159   3.569 -0.4500 -0.6262 -0.0700
 8713SOL    HW237599   0.450   1.280   3.553 -0.8535  1.4229  2.9698
 8714SOL     OW37600   0.102   4.683   1.831  0.0861  0.0006 -0.0536
 8714SOL    HW137601   0.159   4.649   1.900 -1.0549 -0.9992  0.4022
 8714SOL    HW237602   0.162   0.028   1.805 -1.9258  1.7066 -0.1884
 8715SOL     OW37603   3.271   4.082   9.387 -0.2873 -0.7968  0.4128
 8715SOL    HW137604   3.250   4.175   9.396 -0.8146 -0.6654 -1.9958
 8715SOL    HW237605   3.202   4.040   9.439  0.2741  0.0688  1.8219
 8716SOL     OW37606   3.999   1.322   5.079  0.3602 -0.6077 -0.7425
 8716SOL    HW137607   4.003   1.269   5.159 -1.2008 -0.5073 -0.6049
 8716SOL    HW237608   4.086   1.304   5.043  1.1856 -0.1984  1.0362
 8717SOL     OW37609   2.477   2.550   0.736  0.0228  0.0817  0.3451
 8717SOL    HW137610   2.419   2.492   0.685  0.4217  0.8862 -1.0360
 8717SOL    HW237611   2.559   2.528   0.691  0.1630 -0.3102  0.7923
 8718SOL     OW37612   0.125   1.934   7.500 -0.5587  0.1798  0.5275
 8718SOL    HW137613   0.148   1.867   7.565 -1.0392 -0.2241  0.2783
 8718SOL    HW237614   0.216   1.946   7.471 -0.7257 -1.2241 -0.5507
 8719SOL     OW37615   2.469   2.312   9.325 -0.7421 -0.5739 -0.1869
 8719SOL    HW137616   2.519   2.230   9.334  1.2556  0.7244  0.6800
 8719SOL    HW237617   2.549   2.363   9.340 -0.5425 -1.6366  2.3935
 8720SOL     OW37618   3.558   1.608  16.880 -0.1218  0.0595  0.4970
 8720SOL    HW137619   3.500   1.536  16.905 -1.5171  1.6647  1.8424
 8720SOL    HW237620   3.539   1.614  16.787 -1.5990 -1.4447  0.6792
 8721SOL     OW37621   1.479   4.049   7.391 -0.5141  0.6517 -0.3166
 8721SOL    HW137622   1.403   4.065   7.447 -0.2732  1.2801 -0.1653
 8721SOL    HW237623   1.533   3.997   7.451 -1.9552  1.7671  1.9340
 8722SOL     OW37624   2.682   3.045   7.866 -0.0524  0.0235  0.3667
 8722SOL    HW137625   2.717   3.131   7.887  1.7028 -0.3763 -0.8911
 8722SOL    HW237626   2.682   3.008   7.954  4.0699 -1.8110 -0.4090
 8723SOL     OW37627   1.036   4.321   0.028  0.6371  0.4027 -0.5415
 8723SOL    HW137628   0.997   4.385  17.666 -0.8492 -0.5288 -0.5593
 8723SOL    HW237629   1.039   4.241  17.672  2.0913 -0.8181  1.3567
 8724SOL     OW37630   4.187   0.821  13.610 -0.1614  0.0839 -0.7531
 8724SOL    HW137631   4.199   0.825  13.515 -0.0616 -1.9100 -0.8141
 8724SOL    HW237632   4.157   0.730  13.612 -1.9900  0.7068  0.3665
 8725SOL     OW37633   3.902   4.570   1.387  0.4181  0.5402  0.1204
 8725SOL    HW137634   3.988   4.560   1.345  0.6069  0.3175  0.5675
 8725SOL    HW237635   3.895   4.664   1.407  0.5791  0.9261 -1.6230
 8726SOL     OW37636   4.521   0.680  14.232 -0.1472  0.1019  0.3208
 8726SOL    HW137637   4.508   0.763  14.188  2.8296 -2.0706 -4.6329
 8726SOL    HW237638   4.568   0.637  14.161 -1.1541  1.5290 -1.2166
 8727SOL     OW37639   4.182   3.127   4.725  0.0372  0.0711  0.5526
 8727SOL    HW137640   4.255   3.187   4.742  0.4167 -0.8531  2.0909
 8727SOL    HW237641   4.125   3.145   4.799  0.4777  2.7970  0.2388
 8728SOL     OW37642   3.267   0.831   8.448  0.4631  0.0610  0.3701
 8728SOL    HW137643   3.292   0.878   8.527  2.1766 -0.6558  0.2477
 8728SOL    HW237644   3.328   0.871   8.386 -0.0820 -1.9536 -1.4577
 8729SOL     OW37645   3.034   4.614  16.703  0.1789 -0.5979  0.1597
 8729SOL    HW137646   2.959   4.664  16.672  0.8849  0.7579  0.6362
 8729SOL    HW237647   3.092   4.627  16.628 -1.4603  0.6183 -0.8985
 8730SOL     OW37648   1.156   3.674   9.625  0.4419  0.0952 -0.7707
 8730SOL    HW137649   1.236   3.621   9.626  0.2370 -0.2822 -4.1673
 8730SOL    HW237650   1.198   3.759   9.638  1.3303 -0.4349 -0.1325
 8731SOL     OW37651   4.630   1.483   4.940 -0.5008  0.5140  0.5248
 8731SOL    HW137652   4.601   1.407   4.990 -0.0197 -0.2982 -0.4432
 8731SOL    HW237653   4.694   1.441   4.883 -0.8529 -2.8807  2.6526
 8732SOL     OW37654   4.155   0.497   5.233  0.4139 -0.2770 -0.1978
 8732SOL    HW137655   4.144   0.402   5.228 -1.1819  0.0048 -1.8675
 8732SOL    HW237656   4.158   0.493   5.329 -2.1660 -0.9242 -0.1380
 8733SOL     OW37657   2.975   2.535   3.608  0.0790  0.0068 -0.0968
 8733SOL    HW137658   3.033   2.512   3.681 -3.4153  0.3817  2.7937
 8733SOL    HW237659   2.887   2.519   3.642  0.7697  0.2662  1.8473
 8734SOL     OW37660   3.194   3.659  17.311  0.0957  0.0028 -0.1904
 8734SOL    HW137661   3.141   3.675  17.233 -3.0567 -0.4339  1.8334
 8734SOL    HW237662   3.129   3.610  17.361 -0.1011 -0.2872 -0.7377
 8735SOL     OW37663   2.385   1.185  15.271 -0.2520 -0.5448 -0.2278
 8735SOL    HW137664   2.475   1.191  15.302 -0.2599  0.4943 -0.4061
 8735SOL    HW237665   2.397   1.211  15.179  3.7087 -0.1513  0.4058
 8736SOL     OW37666   0.638   2.526   4.376 -0.7386 -0.0660 -0.2825
 8736SOL    HW137667   0.649   2.455   4.313 -0.8027 -1.7627  1.6230
 8736SOL    HW237668   0.558   2.497   4.419 -0.1292 -1.8161 -0.3502
 8737SOL     OW37669   0.947   1.173  12.311 -0.6544 -0.5298  0.1141
 8737SOL    HW137670   0.986   1.092  12.278 -0.6823 -0.5285  0.0787
 8737SOL    HW237671   0.977   1.225  12.237 -0.4730  0.5623  0.9625
 8738SOL     OW37672   4.261   3.918   1.392 -0.1763 -0.2003  0.3709
 8738SOL    HW137673   4.258   4.004   1.436  0.3853 -0.4874  0.9756
 8738SOL    HW237674   4.241   3.946   1.303  0.4114 -0.7529  0.0638
 8739SOL     OW37675   0.190   1.942   3.735  0.0995 -0.1527 -0.1410
 8739SOL    HW137676   0.126   1.980   3.796  0.9598  1.0617  0.0148
 8739SOL    HW237677   0.149   1.859   3.713 -1.6131  0.4164  0.8525
 8740SOL     OW37678   0.949   2.899   6.684  0.7735 -0.1348  0.3117
 8740SOL    HW137679   0.874   2.858   6.725 -0.3151  1.4002 -0.1518
 8740SOL    HW237680   0.906   2.912   6.599 -1.3263 -0.9441  1.2509
 8741SOL     OW37681   4.115   4.621   4.355  0.2972  0.3058  0.1123
 8741SOL    HW137682   4.035   4.574   4.330 -1.3553  2.5592  1.0685
 8741SOL    HW237683   4.151   4.639   4.268  2.3631  1.6257  1.2325
 8742SOL     OW37684   3.515   0.033   2.301  0.2531  0.4099 -0.5923
 8742SOL    HW137685   3.431   4.714   2.318  1.0274  0.8083  4.4030
 8742SOL    HW237686   3.484   0.124   2.303 -0.1120  0.2606  0.6176
 8743SOL     OW37687   0.127   2.801   4.227  0.2946  0.1674 -0.3072
 8743SOL    HW137688   0.206   2.748   4.236 -0.4285 -0.6984  1.0199
 8743SOL    HW237689   0.128   2.851   4.309  0.8692 -1.3471  0.6068
 8744SOL     OW37690   0.113   4.021   5.206  0.4412 -0.2902 -0.7375
 8744SOL    HW137691   0.126   4.054   5.295 -0.3196  0.9586 -1.0916
 8744SOL    HW237692   0.034   3.967   5.212  1.5860 -1.6612  2.1994
 8745SOL     OW37693   0.856   2.182  15.277  0.3176 -0.3998 -0.3635
 8745SOL    HW137694   0.779   2.138  15.313 -0.8539  0.6550 -1.5780
 8745SOL    HW237695   0.885   2.236  15.351 -1.0538 -3.3344  2.2911
 8746SOL     OW37696   3.308   0.472   3.742 -0.5030  0.6619 -0.3714
 8746SOL    HW137697   3.254   0.546   3.715  0.2644  0.8888 -1.2713
 8746SOL    HW237698   3.297   0.420   3.662  1.9270  0.6921 -0.7023
 8747SOL     OW37699   4.226   0.229   3.245 -0.6054 -0.1411  0.1289
 8747SOL    HW137700   4.310   0.194   3.275 -0.6230 -1.5811 -1.4816
 8747SOL    HW237701   4.253   0.285   3.172  2.5904  1.2190  2.3972
 8748SOL     OW37702   3.913   2.806   3.468  0.0194  0.1127 -0.6852
 8748SOL    HW137703   3.846   2.761   3.417 -1.1862  0.7534  0.3400
 8748SOL    HW237704   3.922   2.883   3.412 -1.9691  1.8139  1.3320
 8749SOL     OW37705   2.806   1.352  15.939 -0.5315  0.0297  0.5450
 8749SOL    HW137706   2.759   1.396  15.868 -1.8692 -0.3846  1.1797
 8749SOL    HW237707   2.740   1.288  15.965 -0.2607 -0.3604  0.2723
 8750SOL     OW37708   1.614   1.647   2.714 -0.7026  0.7444 -0.0849
 8750SOL    HW137709   1.621   1.570   2.770 -1.8432  1.9077  1.6391
 8750SOL    HW237710   1.686   1.637   2.652  0.7804  0.6524  1.6903
 8751SOL     OW37711   0.172   2.352   7.838 -0.3663 -0.3191 -0.9287
 8751SOL    HW137712   0.254   2.316   7.802 -1.6426 -2.5784 -1.5287
 8751SOL    HW237713   0.154   2.271   7.886 -1.8407  0.6626  0.1334
 8752SOL     OW37714   0.852   2.515  13.020 -0.0496  0.7121  0.6206
 8752SOL    HW137715   0.889   2.586  12.968 -0.2696  0.9215  0.7457
 8752SOL    HW237716   0.803   2.565  13.086 -2.7060 -1.1589  0.0942
 8753SOL     OW37717   0.411   2.145   3.875 -0.7512  0.0220 -0.2784
 8753SOL    HW137718   0.465   2.076   3.837 -1.5636 -0.7918  0.0455
 8753SOL    HW237719   0.394   2.105   3.961  3.8958  0.6217  0.9287
 8754SOL     OW37720   3.004   3.686   8.272 -0.0930  0.1535  0.2043
 8754SOL    HW137721   2.952   3.766   8.257 -1.3388 -0.7082 -0.1015
 8754SOL    HW237722   3.047   3.717   8.351 -0.0954  1.2811 -0.2380
 8755SOL     OW37723   1.717   2.116   2.857 -0.0925  0.5998  0.3111
 8755SOL    HW137724   1.636   2.158   2.826  1.5620  2.7733 -1.0910
 8755SOL    HW237725   1.784   2.161   2.806  0.9406 -1.0123  0.2588
 8756SOL     OW37726   2.489   3.183  17.661 -0.6016 -0.0958 -0.1134
 8756SOL    HW137727   2.582   3.166  17.644 -0.5248 -1.4455  1.5785
 8756SOL    HW237728   2.492   3.181   0.060 -0.4377 -0.1309 -0.1199
 8757SOL     OW37729   0.945   2.441   3.208  0.1806  0.4342  0.5239
 8757SOL    HW137730   0.931   2.491   3.288 -1.3754  0.4954  0.2214
 8757SOL    HW237731   0.865   2.456   3.158  0.5279 -0.8337 -0.4156
 8758SOL     OW37732   0.872   4.291  14.896 -0.9860 -0.0718 -0.3556
 8758SOL    HW137733   0.911   4.377  14.911 -0.8956 -0.7261  3.1138
 8758SOL    HW237734   0.807   4.289  14.967 -0.3787 -1.3265  0.1598
 8759SOL     OW37735   3.999   3.921  17.305 -0.1818 -0.1248  0.3066
 8759SOL    HW137736   4.058   3.929  17.380  0.6159 -0.1870 -0.3196
 8759SOL    HW237737   3.986   3.826  17.313  0.0189 -0.3045 -1.5552
 8760SOL     OW37738   1.274   3.329   4.693  0.4756 -0.1572 -0.4878
 8760SOL    HW137739   1.245   3.356   4.606 -1.6482 -0.7496  0.0402
 8760SOL    HW237740   1.229   3.245   4.704 -0.7804  0.2452 -2.7257
 8761SOL     OW37741   1.367   0.205  16.690  0.0763  0.9804  0.1523
 8761SOL    HW137742   1.369   0.140  16.620  1.5461 -0.4681  1.5398
 8761SOL    HW237743   1.286   0.209  16.740  0.4172 -1.3850  0.8723
 8762SOL     OW37744   1.578   2.736  10.469  0.2481  0.0550 -0.1591
 8762SOL    HW137745   1.598   2.814  10.521  1.0954  0.4255 -1.0435
 8762SOL    HW237746   1.658   2.720  10.420 -0.7224 -0.8698 -1.4473
 8763SOL     OW37747   4.142   0.353   0.157 -0.8566  0.1091  0.3414
 8763SOL    HW137748   4.058   0.371   0.199  0.0778 -1.3879  2.8303
 8763SOL    HW237749   4.177   0.440   0.137 -2.5174  0.6982 -0.0399
 8764SOL     OW37750   4.026   1.806  12.398  0.1829 -0.2270  0.2132
 8764SOL    HW137751   4.115   1.806  12.434 -0.3838  0.9737  1.6371
 8764SOL    HW237752   3.999   1.894  12.427 -0.4388 -0.0560 -0.9088
 8765SOL     OW37753   1.116   3.439   8.578 -0.1797  0.1261  0.0357
 8765SOL    HW137754   1.112   3.530   8.607 -0.7756 -0.2925  1.2609
 8765SOL    HW237755   1.058   3.437   8.501 -0.9436 -2.8520  0.7008
 8766SOL     OW37756   2.301   3.964   5.834  0.1950 -0.1186 -0.1273
 8766SOL    HW137757   2.217   3.968   5.879  2.3114  2.2713  3.5980
 8766SOL    HW237758   2.347   4.045   5.857 -1.4544  0.5559  0.7369
 8767SOL     OW37759   4.189   2.439   2.983 -0.0661 -0.0310  0.2953
 8767SOL    HW137760   4.239   2.389   2.919 -0.4418 -0.7058  0.5304
 8767SOL    HW237761   4.261   2.493   3.016 -0.6611 -0.1929  1.8846
 8768SOL     OW37762   3.038   0.250   6.260  0.8773 -0.2024  0.2732
 8768SOL    HW137763   2.976   0.186   6.295 -0.5262  1.1532  0.2840
 8768SOL    HW237764   3.039   0.311   6.333 -0.5357  0.1817 -0.0124
 8769SOL     OW37765   0.147   4.260   4.759  0.0509  0.5731  0.1344
 8769SOL    HW137766   0.070   4.287   4.810 -1.0736 -1.8926 -0.2127
 8769SOL    HW237767   0.169   4.176   4.801  1.4798  1.9655  2.1552
 8770SOL     OW37768   0.231   1.957   4.417 -0.1621  0.4811  0.2331
 8770SOL    HW137769   0.201   1.874   4.455 -2.6869  0.4311 -1.9608
 8770SOL    HW237770   0.291   1.982   4.488 -0.0381 -0.8206  0.5815
 8771SOL     OW37771   0.074   3.353  14.963  0.2310  0.0216  0.6901
 8771SOL    HW137772   0.152   3.306  14.934 -0.9895 -2.7771  1.9632
 8771SOL    HW237773   0.097   3.382  15.052  1.8892  0.6097  0.0706
 8772SOL     OW37774   1.377   4.506   7.120 -0.4472 -0.6335 -0.1823
 8772SOL    HW137775   1.357   4.512   7.027  2.1390  1.2147 -0.6443
 8772SOL    HW237776   1.336   4.578   7.168 -0.8409 -0.6798 -0.4562
 8773SOL     OW37777   4.501   0.285  14.109 -0.7644  0.5852  0.5584
 8773SOL    HW137778   4.528   0.346  14.041 -1.6678 -1.1401 -1.3672
 8773SOL    HW237779   4.583   0.291  14.157 -0.3553 -1.5117  0.1451
 8774SOL     OW37780   4.186   4.700   7.525  0.2285  0.0089 -0.0122
 8774SOL    HW137781   4.279   4.722   7.536 -0.1777  1.4034  0.6619
 8774SOL    HW237782   4.194   4.606   7.543  2.0264  0.1670  0.0456
 8775SOL     OW37783   0.809   4.486   7.118 -0.1835 -0.3892 -0.1288
 8775SOL    HW137784   0.902   4.462   7.128  0.0898 -0.4819 -2.9611
 8775SOL    HW237785   0.790   4.475   7.025  0.4230  1.0653 -0.4254
 8776SOL     OW37786   3.422   2.462   3.509 -0.6948  0.3449  0.0712
 8776SOL    HW137787   3.429   2.427   3.420  3.1059 -0.5276  0.7439
 8776SOL    HW237788   3.385   2.388   3.557 -0.6026  0.8158  0.8692
 8777SOL     OW37789   2.668   2.262   3.557 -0.0889 -0.2895  0.5512
 8777SOL    HW137790   2.586   2.231   3.518  0.5769 -1.2220 -0.1135
 8777SOL    HW237791   2.619   2.312   3.623  0.7911 -0.4810  1.3526
 8778SOL     OW37792   4.079   1.044   0.094  0.5171 -0.1137  0.0990
 8778SOL    HW137793   4.145   0.991   0.138 -0.8893 -0.2066  2.1220
 8778SOL    HW237794   4.010   1.060   0.158 -1.1000 -1.7044 -1.2463
 8779SOL     OW37795   1.070   2.974   8.351  0.7555  0.2160 -0.2528
 8779SOL    HW137796   1.010   2.987   8.278  0.1578 -0.0876  0.1889
 8779SOL    HW237797   1.136   3.042   8.339 -0.8594  1.8555  0.2777
 8780SOL     OW37798   4.049   4.374   0.479 -0.4044  0.0856 -0.0544
 8780SOL    HW137799   4.071   4.296   0.428 -0.5299 -1.5375  2.3655
 8780SOL    HW237800   4.071   4.358   0.570 -2.1669 -0.5566  0.2615
 8781SOL     OW37801   3.657   3.285   4.504  0.2236  0.1194  0.1642
 8781SOL    HW137802   3.622   3.322   4.584  1.8324 -2.1469  1.9424
 8781SOL    HW237803   3.713   3.354   4.470  2.1452 -1.0342  0.9582
 8782SOL     OW37804   0.183   4.466   8.418  0.5436  0.4894  0.2318
 8782SOL    HW137805   0.209   4.558   8.418  1.3089  0.2934  3.0131
 8782SOL    HW237806   0.262   4.425   8.383  1.2190  2.4107 -0.4585
 8783SOL     OW37807   0.264   1.040   3.374 -0.4066  0.0559  0.6388
 8783SOL    HW137808   0.358   1.021   3.368 -0.2314  0.4737  2.0676
 8783SOL    HW237809   0.270   1.112   3.437  0.8646  0.0818  0.5002
 8784SOL     OW37810   2.096   4.706   5.341  0.0636  0.0397  0.2530
 8784SOL    HW137811   2.043   4.627   5.353 -1.2094  0.9113  0.2343
 8784SOL    HW237812   2.167   4.666   5.289 -0.2649 -0.9284  0.5573
 8785SOL     OW37813   1.963   4.098   3.019  0.0031  0.5075  0.0973
 8785SOL    HW137814   1.966   4.115   3.113  0.9784  0.7193  0.0291
 8785SOL    HW237815   2.043   4.045   3.014 -0.8436 -0.9675  2.2281
 8786SOL     OW37816   1.190   2.507   7.789  0.3656  0.1968 -0.2659
 8786SOL    HW137817   1.168   2.468   7.873 -0.8258  1.1176 -0.1548
 8786SOL    HW237818   1.147   2.444   7.732 -0.6146  1.6691 -1.1664
 8787SOL     OW37819   2.805   1.684   6.185 -0.4916 -0.1308  0.2645
 8787SOL    HW137820   2.712   1.676   6.206 -0.8227  1.4745 -0.5967
 8787SOL    HW237821   2.845   1.616   6.239  2.1821  1.3237  0.1205
 8788SOL     OW37822   1.412   1.424  10.666  0.2112 -0.1302  0.1465
 8788SOL    HW137823   1.351   1.374  10.612 -0.2444  2.0205 -1.3342
 8788SOL    HW237824   1.347   1.470  10.719 -1.0636 -1.3009 -0.3930
 8789SOL     OW37825   1.127   2.587   6.319 -0.3865 -0.3179 -0.0022
 8789SOL    HW137826   1.120   2.579   6.414  1.4330  3.1712  0.4215
 8789SOL    HW237827   1.207   2.635   6.301  0.2975 -1.0960  0.9392
 8790SOL     OW37828   4.278   1.684   5.777  0.2152 -0.0966 -0.3488
 8790SOL    HW137829   4.318   1.710   5.860 -1.5590  0.2430  0.4003
 8790SOL    HW237830   4.299   1.591   5.777 -2.1819 -0.6578  1.0050
 8791SOL     OW37831   2.439   0.381  13.599  0.1192 -0.3261 -0.2264
 8791SOL    HW137832   2.481   0.365  13.683  2.9652  0.3063 -1.5105
 8791SOL    HW237833   2.427   0.475  13.611 -0.1534 -0.2303 -1.2165
 8792SOL     OW37834   3.499   2.810   4.862 -0.3387  0.3924  0.7777
 8792SOL    HW137835   3.574   2.836   4.915  0.5365 -0.3998 -0.0690
 8792SOL    HW237836   3.503   2.881   4.798 -0.3144 -1.3568 -1.1738
 8793SOL     OW37837   0.543   2.064  11.342 -0.2557  0.3687 -0.7259
 8793SOL    HW137838   0.535   2.085  11.248  0.9236 -2.1283 -1.3777
 8793SOL    HW237839   0.472   2.007  11.370 -0.0247  0.1613 -0.5579
 8794SOL     OW37840   0.423   1.608   9.240  0.0202 -0.2833  0.3681
 8794SOL    HW137841   0.332   1.579   9.244 -0.8092  2.3314  0.7852
 8794SOL    HW237842   0.461   1.539   9.294 -0.3767 -1.3844 -0.7883
 8795SOL     OW37843   2.928   1.453   6.768 -0.1329 -0.0138  0.2572
 8795SOL    HW137844   2.958   1.529   6.717  2.3946 -0.1868  1.4636
 8795SOL    HW237845   3.005   1.433   6.821 -0.7913 -3.2918 -0.0315
 8796SOL     OW37846   4.050   4.334   1.358  0.4658  0.7125 -0.6863
 8796SOL    HW137847   3.986   4.396   1.392  0.7320  1.0968 -0.8849
 8796SOL    HW237848   4.001   4.279   1.297 -2.1365  0.0242  2.0348
 8797SOL     OW37849   4.527   2.560  13.828  0.3958 -0.0926  0.5241
 8797SOL    HW137850   4.496   2.581  13.740  1.4253 -0.6867  0.0258
 8797SOL    HW237851   4.444   2.526  13.863  0.7473 -1.8380 -0.3325
 8798SOL     OW37852   0.420   0.466   6.528  0.2123  0.1674  0.6711
 8798SOL    HW137853   0.452   0.377   6.514  1.1317  0.6458 -0.2532
 8798SOL    HW237854   0.449   0.521   6.456  0.5225 -0.7932  0.0599
 8799SOL     OW37855   1.311   2.252   4.898  0.5794 -0.2493  0.2492
 8799SOL    HW137856   1.345   2.278   4.983 -1.9797  1.9107  0.5969
 8799SOL    HW237857   1.323   2.157   4.892  1.2542 -0.2325  1.3673
 8800SOL     OW37858   4.216   3.746   5.583 -0.2933  0.2835 -0.0376
 8800SOL    HW137859   4.207   3.832   5.626  1.7593  0.3930  0.1677
 8800SOL    HW237860   4.269   3.768   5.506  1.9706 -2.1520  0.8354
 8801SOL     OW37861   0.746   4.019   8.552 -0.0807 -0.3904  0.9447
 8801SOL    HW137862   0.702   3.974   8.480 -0.4060  2.1880 -0.4629
 8801SOL    HW237863   0.739   4.112   8.530  2.3686 -0.4624 -0.1265
 8802SOL     OW37864   0.360   1.415   2.862 -0.2051  0.3675 -0.4606
 8802SOL    HW137865   0.302   1.359   2.810  0.6309  0.5130 -1.5315
 8802SOL    HW237866   0.440   1.370   2.836 -0.2281  1.3845 -2.3077
 8803SOL     OW37867   4.284   4.581   5.027  0.3034 -0.0634 -0.2941
 8803SOL    HW137868   4.279   4.543   5.114  1.3908  0.7841  0.1350
 8803SOL    HW237869   4.362   4.636   5.032  0.1963  0.3245 -2.8623
 8804SOL     OW37870   2.589   1.576   8.396 -0.0270  0.0242  0.0442
 8804SOL    HW137871   2.495   1.587   8.415  0.0267  0.1410  0.2448
 8804SOL    HW237872   2.590   1.503   8.334  0.9876  0.0438  0.0398
 8805SOL     OW37873   4.277   3.481   3.108  0.4008  0.2081  0.2249
 8805SOL    HW137874   4.328   3.494   3.188 -0.6352  0.1665  0.8777
 8805SOL    HW237875   4.315   3.399   3.077 -2.3170 -0.7075 -0.6212
 8806SOL     OW37876   1.454   4.158  12.980  0.0502 -0.1481 -0.0992
 8806SOL    HW137877   1.507   4.143  12.902  0.3528  2.6685 -0.4124
 8806SOL    HW237878   1.395   4.083  12.970 -0.5838  0.1068  1.8410
 8807SOL     OW37879   1.968   3.933   6.429  0.2779  0.0995  0.6323
 8807SOL    HW137880   2.009   4.007   6.384 -0.6869 -0.8757 -1.8529
 8807SOL    HW237881   2.004   3.951   6.516  2.8415 -0.5817 -0.2926
 8808SOL     OW37882   2.916   3.807   5.958 -0.3518 -0.5687  0.0401
 8808SOL    HW137883   2.974   3.730   5.962 -1.9109 -1.8167 -1.3926
 8808SOL    HW237884   2.837   3.774   6.001 -0.8109  0.5218  0.0125
 8809SOL     OW37885   3.780   0.615   5.151 -0.3435 -0.4808  0.0580
 8809SOL    HW137886   3.720   0.642   5.082 -0.3092 -0.6652 -0.0439
 8809SOL    HW237887   3.772   0.521   5.134  0.7224 -0.4400 -0.6772
 8810SOL     OW37888   4.242   0.365  14.713  0.1580  0.2355  0.3226
 8810SOL    HW137889   4.281   0.445  14.747  1.5417 -0.3513  0.1042
 8810SOL    HW237890   4.322   0.326  14.679  1.1648  0.2033  2.7515
 8811SOL     OW37891   3.523   2.190   6.319 -0.3798  0.2403  0.4874
 8811SOL    HW137892   3.451   2.146   6.364 -1.7676  1.3639 -0.6310
 8811SOL    HW237893   3.479   2.233   6.246 -0.2739  0.8498  0.7873
 8812SOL     OW37894   3.330   0.064   1.907  0.2683  0.0787 -0.3373
 8812SOL    HW137895   3.351   4.695   1.911  1.5121  0.3864  0.1530
 8812SOL    HW237896   3.413   0.096   1.872 -0.5665  2.9711  0.3417
 8813SOL     OW37897   1.278   1.899   5.181 -0.4509 -0.3256 -0.5166
 8813SOL    HW137898   1.352   1.903   5.242 -1.5980  1.0739  0.8014
 8813SOL    HW237899   1.253   1.807   5.184  1.1863 -0.8254 -2.6131
 8814SOL     OW37900   1.430   1.789  16.377  0.0991  0.4964  0.5714
 8814SOL    HW137901   1.368   1.721  16.351 -0.3190  1.7827 -1.7370
 8814SOL    HW237902   1.420   1.786  16.472 -0.0303 -0.3538  0.5373
 8815SOL     OW37903   0.502   3.554   4.173 -0.2601  0.1326 -0.6158
 8815SOL    HW137904   0.547   3.588   4.250 -1.0693 -1.0880  0.3941
 8815SOL    HW237905   0.580   3.538   4.120 -0.1492  0.4184 -0.5381
 8816SOL     OW37906   3.793   1.615   8.005  0.3604 -0.2901 -0.4978
 8816SOL    HW137907   3.699   1.626   8.017  0.7011  1.7951  0.2080
 8816SOL    HW237908   3.803   1.520   8.004  1.0516 -0.2291  0.4289
 8817SOL     OW37909   4.140   2.801  10.872  0.0260 -0.0458 -0.4791
 8817SOL    HW137910   4.058   2.767  10.837 -0.1818  0.3968 -0.4285
 8817SOL    HW237911   4.127   2.791  10.966  2.3300  3.3275  0.2289
 8818SOL     OW37912   0.289   0.703  13.780 -0.2324  0.4059 -0.2093
 8818SOL    HW137913   0.355   0.719  13.712 -0.6846  1.0873 -0.4814
 8818SOL    HW237914   0.248   0.789  13.790 -0.2376  0.5091 -1.0701
 8819SOL     OW37915   4.308   3.523   5.744 -0.0459 -0.1120 -0.0636
 8819SOL    HW137916   4.265   3.535   5.660 -2.3163 -1.0947  0.9489
 8819SOL    HW237917   4.255   3.564   5.813 -1.3212  1.7800 -2.1815
 8820SOL     OW37918   2.609   1.339   9.957  0.1076 -0.3733 -0.3500
 8820SOL    HW137919   2.624   1.379   9.871 -0.4467  0.0399 -0.2549
 8820SOL    HW237920   2.536   1.395   9.983  1.3404 -0.1534  2.6110
 8821SOL     OW37921   1.469   1.185  11.219  0.5164 -0.1118 -0.9184
 8821SOL    HW137922   1.541   1.123  11.214  0.8140 -0.0775  2.4008
 8821SOL    HW237923   1.475   1.221  11.131 -1.9219  1.8655 -0.3098
 8822SOL     OW37924   1.303   0.904  10.427 -0.1055 -0.2059  0.0236
 8822SOL    HW137925   1.383   0.943  10.461  1.1082 -0.4735 -2.4854
 8822SOL    HW237926   1.270   0.857  10.503 -1.5759  0.3952 -0.2518
 8823SOL     OW37927   3.237   1.890   5.866  0.4912 -0.2645  0.4955
 8823SOL    HW137928   3.202   1.803   5.885 -1.5334  0.5484  0.4807
 8823SOL    HW237929   3.254   1.884   5.772  1.4090  2.5384  0.4849
 8824SOL     OW37930   4.136   0.252   2.348 -0.4874 -0.3340 -0.0320
 8824SOL    HW137931   4.179   0.184   2.296 -0.3858 -0.2091 -0.1110
 8824SOL    HW237932   4.208   0.315   2.345 -0.9600  0.1477 -1.3818
 8825SOL     OW37933   3.915   2.623   1.144  0.2463 -0.5126  0.7943
 8825SOL    HW137934   3.868   2.703   1.166  0.3385 -0.7961  2.0150
 8825SOL    HW237935   3.940   2.603   1.234  0.0165 -2.3166  0.4754
 8826SOL     OW37936   1.292   1.100  11.434 -0.1209 -0.8110  0.3021
 8826SOL    HW137937   1.234   1.129  11.363  1.0877  2.1926  0.5570
 8826SOL    HW237938   1.378   1.097  11.392 -0.3378  1.4157 -0.3253
 8827SOL     OW37939   1.658   1.665  15.362 -0.2237 -0.3421 -0.4065
 8827SOL    HW137940   1.700   1.687  15.445  2.2503 -2.4175 -1.1245
 8827SOL    HW237941   1.576   1.714  15.368  0.1829  0.3058 -0.1804
 8828SOL     OW37942   2.736   0.963   8.461 -0.1110  0.5428 -0.2053
 8828SOL    HW137943   2.743   1.044   8.511  1.8841  0.0596  0.3117
 8828SOL    HW237944   2.825   0.929   8.473  0.1837  1.5183  0.3357
 8829SOL     OW37945   0.671   4.627   6.112  0.1364  0.1593  0.1186
 8829SOL    HW137946   0.752   4.663   6.148  1.0313  0.4076 -2.1219
 8829SOL    HW237947   0.621   4.701   6.078  2.4341  1.6468 -0.0370
 8830SOL     OW37948   0.048   1.915  14.535  0.2200 -0.3095  0.4465
 8830SOL    HW137949   0.006   1.834  14.505  0.7255 -0.7853  1.0548
 8830SOL    HW237950   0.122   1.874  14.579  0.3189  1.8858  2.3250
 8831SOL     OW37951   4.174   3.195   6.548  0.1003 -0.1901  0.0232
 8831SOL    HW137952   4.141   3.107   6.568  1.7729 -0.3954  1.8117
 8831SOL    HW237953   4.159   3.248   6.626  0.2069 -1.1767  0.7029
 8832SOL     OW37954   2.144   1.073  15.244 -0.0159 -1.0376  0.3783
 8832SOL    HW137955   2.176   1.047  15.158  0.8449  0.9133  0.1100
 8832SOL    HW237956   2.229   1.110  15.267 -0.5451 -0.5723  1.5852
 8833SOL     OW37957   2.761   0.959  14.337  0.2953 -0.8615  0.1243
 8833SOL    HW137958   2.791   1.047  14.358  2.9391 -1.4181 -1.2803
 8833SOL    HW237959   2.829   0.944  14.271  1.5215  3.1257  0.4583
 8834SOL     OW37960   4.657   2.998   6.980  0.4701  0.3747 -0.7039
 8834SOL    HW137961   4.677   2.979   7.072 -1.1713 -1.4372 -0.7409
 8834SOL    HW237962   4.692   2.930   6.923  1.6050  1.6893 -1.5845
 8835SOL     OW37963   4.618   3.703   5.680 -0.4865  0.1858 -0.4145
 8835SOL    HW137964   4.599   3.679   5.590  2.2011  1.3122 -1.2940
 8835SOL    HW237965   4.688   3.640   5.699  1.5343  1.1656 -4.7611
 8836SOL     OW37966   4.067   2.902  15.204  0.0923  0.0077  0.6634
 8836SOL    HW137967   4.092   2.871  15.118 -2.7923 -0.8492  0.1620
 8836SOL    HW237968   4.002   2.838  15.231  0.1253  0.0052  0.7376
 8837SOL     OW37969   1.035   3.786   0.075  0.1903  0.1770  0.2582
 8837SOL    HW137970   0.970   3.743   0.019  1.0661  1.4700 -1.7624
 8837SOL    HW237971   1.039   3.706   0.128 -0.5351  0.5496  0.8809
 8838SOL     OW37972   4.551   1.315  14.528 -0.3531  0.2638 -0.1611
 8838SOL    HW137973   4.595   1.240  14.490 -0.1365  0.6687 -0.7162
 8838SOL    HW237974   4.495   1.288  14.600 -0.2919  0.9545  0.1441
 8839SOL     OW37975   0.462   0.336   4.788  0.1328  0.1896  0.0559
 8839SOL    HW137976   0.374   0.301   4.796 -0.2376  0.8281 -1.1833
 8839SOL    HW237977   0.503   0.289   4.861  2.2485 -0.3796 -1.4881
 8840SOL     OW37978   3.287   3.107   1.971 -0.4951 -0.0660  0.0194
 8840SOL    HW137979   3.381   3.124   1.980 -0.2450 -0.6485 -1.5129
 8840SOL    HW237980   3.268   3.088   2.063 -2.9354 -0.5140 -0.5932
 8841SOL     OW37981   1.089   3.118   6.854  0.2998  0.1344  0.2849
 8841SOL    HW137982   1.179   3.088   6.865  0.0311 -0.3663  1.1164
 8841SOL    HW237983   1.048   3.045   6.807  1.7803 -0.3119 -0.3165
 8842SOL     OW37984   0.655   4.010  14.753 -0.4174  0.6154  0.2983
 8842SOL    HW137985   0.587   3.943  14.756  1.6601 -1.4099  2.7054
 8842SOL    HW237986   0.607   4.086  14.720  0.5648  0.1120 -2.2872
 8843SOL     OW37987   2.506   4.078   3.028 -0.3404  0.1524 -0.3042
 8843SOL    HW137988   2.548   4.161   3.005 -2.4134  1.3105  0.0814
 8843SOL    HW237989   2.499   4.093   3.122  0.6906 -0.8169 -0.0691
 8844SOL     OW37990   0.420   3.466  15.656  0.0615  0.2747  0.0678
 8844SOL    HW137991   0.476   3.523  15.707  0.9814 -1.4415  0.9835
 8844SOL    HW237992   0.376   3.420  15.727  0.9804  2.8545  2.2774
 8845SOL     OW37993   3.518   4.305   4.097  0.3452 -0.3029 -0.1512
 8845SOL    HW137994   3.594   4.291   4.153  1.9396  1.8771 -1.7805
 8845SOL    HW237995   3.449   4.256   4.143 -1.4328  1.6433 -0.7051
 8846SOL     OW37996   3.724   4.641   3.518  0.5766  0.4770  0.4275
 8846SOL    HW137997   3.785   4.568   3.528 -0.1147 -0.1950 -0.2701
 8846SOL    HW237998   3.672   4.615   3.594  0.4476  1.1439  0.5632
 8847SOL     OW37999   3.220   3.999   8.086  0.8164  0.2961 -0.0907
 8847SOL    HW138000   3.181   4.078   8.047  1.5350  1.0738  0.7621
 8847SOL    HW238001   3.162   3.929   8.056  0.4820  0.7433 -0.4977
 8848SOL     OW38002   1.440   0.968   2.437  0.0886  0.2867 -0.6123
 8848SOL    HW138003   1.506   0.946   2.502 -1.8756 -0.9916  0.9615
 8848SOL    HW238004   1.464   0.899   2.376  1.7428 -0.0428  0.4218
 8849SOL     OW38005   4.222   2.339   6.874 -0.2447 -0.3308 -0.3424
 8849SOL    HW138006   4.226   2.263   6.931  2.7275 -0.9660 -1.3793
 8849SOL    HW238007   4.311   2.330   6.840  0.3304  0.4326  0.9849
 8850SOL     OW38008   0.806   3.042  16.085  0.1527  0.1589  0.2004
 8850SOL    HW138009   0.860   2.966  16.064  1.1528  0.7867  0.5150
 8850SOL    HW238010   0.717   3.008  16.075  0.8888 -1.8743  0.6618
 8851SOL     OW38011   1.516   0.244   7.038  0.2097 -0.2768  0.3005
 8851SOL    HW138012   1.432   0.271   7.075  1.9139  3.0364  1.7852
 8851SOL    HW238013   1.485   0.214   6.953 -0.8116 -1.0636  0.9464
 8852SOL     OW38014   3.585   1.172   2.885 -0.6903  0.0971 -0.5233
 8852SOL    HW138015   3.552   1.085   2.906 -0.3406 -0.0649 -0.6444
 8852SOL    HW238016   3.520   1.195   2.819 -2.0646 -0.0510  0.7748
 8853SOL     OW38017   0.345   4.573  14.471  0.5610 -0.6767  0.0980
 8853SOL    HW138018   0.434   4.606  14.458 -0.6714  3.2077  1.6547
 8853SOL    HW238019   0.342   4.611  14.559  0.6737 -0.7405  0.1298
 8854SOL     OW38020   2.731   1.609   0.618  0.0285 -0.8791 -0.1517
 8854SOL    HW138021   2.674   1.657   0.679  2.7123  0.5230  1.2509
 8854SOL    HW238022   2.793   1.580   0.684 -0.9227 -0.6246  0.8705
 8855SOL     OW38023   2.059   3.023   7.661  0.0899  0.2169 -0.0065
 8855SOL    HW138024   2.124   3.007   7.729  1.0646  0.7216 -0.8129
 8855SOL    HW238025   2.000   3.084   7.705 -1.4877 -0.2145 -1.5050
 8856SOL     OW38026   3.143   3.751   6.471  0.0769  0.2756 -0.2042
 8856SOL    HW138027   3.198   3.827   6.451 -1.0817  1.7326  2.2109
 8856SOL    HW238028   3.121   3.767   6.562 -0.4857 -1.9115  0.0404
 8857SOL     OW38029   4.284   3.395   9.374  0.6529 -0.2446  0.5264
 8857SOL    HW138030   4.279   3.319   9.432  1.2863 -0.1042  0.7606
 8857SOL    HW238031   4.242   3.366   9.293  0.7392 -1.6580  0.9909
 8858SOL     OW38032   2.100   1.574  10.230  0.5926  0.3802  0.4603
 8858SOL    HW138033   2.179   1.628  10.229 -0.6668  2.2062  0.1582
 8858SOL    HW238034   2.082   1.560  10.137  0.6169  0.4524  0.4447
 8859SOL     OW38035   1.745   0.967   9.949 -0.0783  0.3490 -0.7371
 8859SOL    HW138036   1.692   0.894   9.918 -1.0964  0.8152 -0.0961
 8859SOL    HW238037   1.800   0.978   9.871  0.0981  1.3113 -0.4790
 8860SOL     OW38038   2.878   3.259   7.497 -0.6080  0.6107 -0.0654
 8860SOL    HW138039   2.815   3.295   7.434 -0.6588 -0.3429 -0.5501
 8860SOL    HW238040   2.934   3.208   7.438  1.3692  1.7216  0.8179
 8861SOL     OW38041   1.976   4.263   6.651  0.2211 -0.1386  0.4756
 8861SOL    HW138042   1.934   4.266   6.738  0.1469  0.9065  0.4051
 8861SOL    HW238043   1.902   4.243   6.595  0.5703  0.7708 -0.3043
 8862SOL     OW38044   2.363   1.075   5.175  0.1173  0.4917  0.2501
 8862SOL    HW138045   2.380   1.114   5.261 -2.0699  1.1066  0.4044
 8862SOL    HW238046   2.275   1.045   5.197  0.5726 -0.8334  0.2420
 8863SOL     OW38047   3.513   3.641   9.279 -0.1557  0.2499  0.5216
 8863SOL    HW138048   3.565   3.589   9.340  0.0093  0.6232  0.6968
 8863SOL    HW238049   3.427   3.641   9.321 -0.5910  0.7372 -0.3537
 8864SOL     OW38050   3.145   2.258   5.841 -0.1914  0.1698  0.0753
 8864SOL    HW138051   3.070   2.199   5.853  1.6525 -2.0203  0.9671
 8864SOL    HW238052   3.171   2.248   5.749 -0.8469 -1.1502  0.0183
 8865SOL     OW38053   0.825   0.234  12.028  0.3981 -0.0591 -0.1797
 8865SOL    HW138054   0.762   0.170  11.994  1.1514 -0.7234 -0.3271
 8865SOL    HW238055   0.803   0.314  11.980 -0.5552  0.3125  0.8835
 8866SOL     OW38056   4.170   2.759   5.602 -0.1480  0.3786  0.1608
 8866SOL    HW138057   4.197   2.668   5.588 -0.7756  0.1373  0.5068
 8866SOL    HW238058   4.242   2.804   5.560 -2.2194  0.8850 -2.7937
 8867SOL     OW38059   3.031   0.882   4.282  0.0207  0.1703  0.5198
 8867SOL    HW138060   2.952   0.903   4.331 -2.1580  2.2558 -3.8594
 8867SOL    HW238061   2.994   0.878   4.194  0.2265  0.4794  0.4156
 8868SOL     OW38062   3.581   4.334  15.489  0.5162  0.1916 -0.0517
 8868SOL    HW138063   3.592   4.429  15.497 -0.0840  0.3211 -0.8042
 8868SOL    HW238064   3.645   4.305  15.554  0.3836 -1.2600 -0.5666
 8869SOL     OW38065   2.433   3.611  11.501 -0.0465  0.6660 -0.2947
 8869SOL    HW138066   2.338   3.625  11.504 -0.2172 -0.8485  1.7712
 8869SOL    HW238067   2.454   3.700  11.527  1.2559 -0.3792  2.2775
 8870SOL     OW38068   3.503   4.672   0.366 -0.5957  0.4984 -0.2573
 8870SOL    HW138069   3.551   4.590   0.378  0.3369  1.2297  0.9854
 8870SOL    HW238070   3.520   4.702   0.276  0.0302  0.9344  0.0048
 8871SOL     OW38071   2.218   1.503  11.202 -0.1790 -0.5734 -0.5090
 8871SOL    HW138072   2.167   1.530  11.126  0.3830 -1.3080 -1.1391
 8871SOL    HW238073   2.281   1.576  11.211 -0.8009 -0.2437  1.0796
 8872SOL     OW38074   1.544   0.026   7.316 -0.6694 -0.2947 -0.0633
 8872SOL    HW138075   1.488   4.710   7.382 -0.1965 -0.5219  0.2037
 8872SOL    HW238076   1.498   0.106   7.293  0.4808  0.6337  0.8425
 8873SOL     OW38077   3.923   3.080   3.412  0.0597 -0.0646  0.2403
 8873SOL    HW138078   3.939   3.134   3.489 -0.5537  1.0354 -0.3959
 8873SOL    HW238079   3.828   3.087   3.403 -0.0179  0.5306  1.5564
 8874SOL     OW38080   3.942   1.121   9.827 -0.3718 -0.0382 -0.0896
 8874SOL    HW138081   3.860   1.091   9.789  0.3488 -0.7124 -1.0894
 8874SOL    HW238082   4.001   1.133   9.753 -3.7081  1.6807 -2.4739
 8875SOL     OW38083   2.162   2.047   4.931  0.6822 -0.4389 -0.3638
 8875SOL    HW138084   2.226   1.975   4.936  0.6083 -0.6013 -1.9916
 8875SOL    HW238085   2.209   2.114   4.981  1.2451 -0.0606 -1.4026
 8876SOL     OW38086   4.173   4.158  11.569 -0.3668 -0.4790  0.0462
 8876SOL    HW138087   4.255   4.117  11.541  0.4975  0.0922  1.7409
 8876SOL    HW238088   4.118   4.112  11.506 -0.4440  2.9763 -2.3976
 8877SOL     OW38089   1.487   4.333  15.910 -0.0219  0.7299 -0.3415
 8877SOL    HW138090   1.417   4.351  15.848 -2.5771 -1.1071  2.0037
 8877SOL    HW238091   1.432   4.326  15.988  1.7414 -0.6027  0.7879
 8878SOL     OW38092   4.056   0.017   3.245  0.2498 -0.8159 -0.4902
 8878SOL    HW138093   4.122   4.671   3.246  0.8266 -0.2716 -1.2459
 8878SOL    HW238094   4.115   0.092   3.249  1.4996 -1.7860 -0.3083
 8879SOL     OW38095   4.102   2.556   4.946  0.2242 -0.3055 -0.0422
 8879SOL    HW138096   4.030   2.496   4.967  0.9038 -1.3858 -0.7827
 8879SOL    HW238097   4.122   2.529   4.856 -0.0343 -2.0830  0.4333
 8880SOL     OW38098   1.052   4.410   7.720  0.3767 -0.0916  0.0324
 8880SOL    HW138099   1.008   4.486   7.683 -2.7448 -1.4588  0.9466
 8880SOL    HW238100   1.057   4.434   7.812  0.1136  2.4669 -0.6237
 8881SOL     OW38101   3.542   4.016   1.020  0.1859  0.5678  0.0571
 8881SOL    HW138102   3.523   4.006   0.927 -1.6006 -1.3339  0.6323
 8881SOL    HW238103   3.631   3.984   1.038 -0.8736 -2.3367  0.0974
 8882SOL     OW38104   3.752   1.849  16.768  0.0024  0.6263 -0.3686
 8882SOL    HW138105   3.724   1.793  16.696 -1.9922  0.9955  0.1131
 8882SOL    HW238106   3.683   1.915  16.764 -0.0871  0.8117  3.6857
 8883SOL     OW38107   4.391   4.547   6.779  0.0712 -0.0555 -0.5629
 8883SOL    HW138108   4.338   4.613   6.824 -0.8231  0.8104 -2.8788
 8883SOL    HW238109   4.427   4.506   6.857  2.8839  0.0922 -1.7791
 8884SOL     OW38110   1.454   3.157   1.733  0.0761  0.2297  0.2435
 8884SOL    HW138111   1.375   3.109   1.759 -0.4692  0.5434 -0.8264
 8884SOL    HW238112   1.408   3.233   1.697  0.5059 -0.1705 -1.1242
 8885SOL     OW38113   1.066   4.128   3.376  0.1135 -0.1787 -0.5256
 8885SOL    HW138114   1.159   4.137   3.393  0.2326 -2.9480  0.3213
 8885SOL    HW238115   1.045   4.078   3.456  1.3016  1.9762  1.1257
 8886SOL     OW38116   3.855   2.672  15.294 -0.1658  0.1080 -0.3013
 8886SOL    HW138117   3.781   2.732  15.290  0.5182  0.9105 -0.9782
 8886SOL    HW238118   3.875   2.676  15.387  0.0685 -2.8269 -0.2278
 8887SOL     OW38119   2.308   0.850   3.572 -0.0991  0.1997  0.3390
 8887SOL    HW138120   2.293   0.896   3.654  0.2827  1.5194 -0.3225
 8887SOL    HW238121   2.243   0.780   3.580  0.4736 -0.1702  1.6091
 8888SOL     OW38122   3.112   4.307  14.835  0.0319  0.1766  0.5173
 8888SOL    HW138123   3.159   4.272  14.760  0.5031 -0.5794  1.1679
 8888SOL    HW238124   3.172   4.280  14.904 -1.7270 -0.0315  1.9735
 8889SOL     OW38125   0.704   3.178   8.287  0.2376  0.2026 -0.4702
 8889SOL    HW138126   0.697   3.183   8.382 -1.2588  2.5893 -0.6957
 8889SOL    HW238127   0.619   3.136   8.275 -0.6213  2.1681 -1.3734
 8890SOL     OW38128   2.744   1.608  11.396  0.5952 -0.2217 -0.0095
 8890SOL    HW138129   2.752   1.683  11.337 -1.4952 -1.9655 -2.5209
 8890SOL    HW238130   2.692   1.547  11.343  0.8509 -1.3764  1.0766
 8891SOL     OW38131   1.857   4.571   5.017  0.4218  0.2327 -0.0973
 8891SOL    HW138132   1.802   4.531   4.949 -0.1538  0.9093 -0.0197
 8891SOL    HW238133   1.911   4.626   4.959 -0.7130  1.0516 -0.3813
 8892SOL     OW38134   0.318   3.578  16.024 -0.4933  0.3418 -0.0129
 8892SOL    HW138135   0.360   3.504  15.979 -1.4755 -1.0980  1.4282
 8892SOL    HW238136   0.348   3.650  15.969 -0.9914  1.1407  0.7557
 8893SOL     OW38137   3.636   3.476   9.447 -0.4925  0.3205  0.3823
 8893SOL    HW138138   3.613   3.476   9.540  0.2611 -1.4059  0.5547
 8893SOL    HW238139   3.729   3.499   9.445 -0.7148  1.5693  3.8501
 8894SOL     OW38140   2.794   1.311   3.582 -0.2838  0.9053  0.3987
 8894SOL    HW138141   2.832   1.247   3.642 -0.5582  1.4883  1.1942
 8894SOL    HW238142   2.876   1.343   3.545 -0.6809  0.4100 -0.9058
 8895SOL     OW38143   1.872   3.495   5.066  0.1088 -0.4713  0.3782
 8895SOL    HW138144   1.813   3.432   5.024  1.3407 -1.0129 -0.5310
 8895SOL    HW238145   1.892   3.550   4.990  2.2282 -0.5243  0.9171
 8896SOL     OW38146   1.382   3.045   6.899  0.2797  0.1807  0.3687
 8896SOL    HW138147   1.429   3.129   6.893  0.5951 -0.0052  0.2360
 8896SOL    HW238148   1.442   2.985   6.856  1.3997  0.8849  0.9481
 8897SOL     OW38149   1.573   0.565   3.180  0.1825  0.4879 -0.5203
 8897SOL    HW138150   1.583   0.543   3.273 -0.7439 -0.7042 -0.7127
 8897SOL    HW238151   1.579   0.482   3.134 -1.4741  0.7422 -1.1645
 8898SOL     OW38152   1.873   4.245   6.900  0.3607  0.3477 -0.0717
 8898SOL    HW138153   1.910   4.249   6.988  1.4987  0.0997 -0.5380
 8898SOL    HW238154   1.804   4.310   6.915  0.3395  0.3632 -0.2414
 8899SOL     OW38155   2.783   3.869   8.419 -0.2829 -0.0711  0.9938
 8899SOL    HW138156   2.863   3.871   8.472  1.6375 -0.2981 -1.8766
 8899SOL    HW238157   2.818   3.911   8.341  2.9623 -1.6270  1.5987
 8900SOL     OW38158   3.211   0.461   6.150 -0.0058  0.3050  0.2344
 8900SOL    HW138159   3.190   0.497   6.064 -0.5238 -0.8577 -0.1266
 8900SOL    HW238160   3.138   0.398   6.156 -0.7684  1.2982  1.3249
 8901SOL     OW38161   3.064   2.757   2.528 -0.2171 -0.5778  0.4751
 8901SOL    HW138162   2.990   2.811   2.498  0.9503  0.1950 -1.0718
 8901SOL    HW238163   3.038   2.736   2.617  0.3523 -1.1212  0.5123
 8902SOL     OW38164   0.587   2.286  11.544 -0.2214 -0.0642 -0.0587
 8902SOL    HW138165   0.680   2.263  11.558  0.0225  1.4148  0.7252
 8902SOL    HW238166   0.576   2.240  11.461  0.6917 -2.3922  1.0832
 8903SOL     OW38167   2.124   2.225  15.515 -0.1009  0.1737  0.5752
 8903SOL    HW138168   2.105   2.297  15.455 -0.1428  0.5508  1.0431
 8903SOL    HW238169   2.073   2.158  15.470 -0.4152 -0.8157  2.3976
 8904SOL     OW38170   3.038   3.938   2.138 -0.5381 -0.0725  0.3088
 8904SOL    HW138171   3.034   4.029   2.110  0.4077 -0.5311 -1.3024
 8904SOL    HW238172   3.047   3.893   2.053  0.2850  0.3851  0.1640
 8905SOL     OW38173   2.238   4.295   5.187 -0.4235  0.0695 -0.1289
 8905SOL    HW138174   2.219   4.263   5.275 -2.1593  0.6318 -0.3140
 8905SOL    HW238175   2.308   4.234   5.160 -0.1542  0.8699 -1.2396
 8906SOL     OW38176   3.300   0.045   3.471  0.8105  0.2522  0.1385
 8906SOL    HW138177   3.373   0.058   3.411  0.8389  0.1640  0.1541
 8906SOL    HW238178   3.230   0.022   3.410  0.5357  1.2489  0.0699
 8907SOL     OW38179   0.348   2.864  15.975 -0.3790 -0.0374 -0.1214
 8907SOL    HW138180   0.341   2.820  15.891  1.4339  0.0377 -0.3172
 8907SOL    HW238181   0.276   2.824  16.024  1.5481 -1.5181  1.5387
 8908SOL     OW38182   0.749   3.741  15.914 -0.2826  0.0350  0.4148
 8908SOL    HW138183   0.805   3.710  15.985 -0.5984  0.2418  0.7545
 8908SOL    HW238184   0.734   3.655  15.876  0.0149 -0.7520  2.0470
 8909SOL     OW38185   2.929   2.068   4.674 -0.1753 -0.5307 -0.0434
 8909SOL    HW138186   2.889   2.127   4.610 -2.3639 -0.2352  1.6108
 8909SOL    HW238187   2.895   2.108   4.754 -2.5801  0.3134 -1.4758
 8910SOL     OW38188   2.783   0.041   5.715 -0.1999  0.1741 -0.2496
 8910SOL    HW138189   2.819   4.720   5.791  0.3149 -1.3856 -1.4161
 8910SOL    HW238190   2.855   0.102   5.696 -2.1254  1.9093 -1.9973
 8911SOL     OW38191   0.681   2.465   9.081  0.2572  0.1979  0.5756
 8911SOL    HW138192   0.761   2.485   9.129  0.2207 -1.6760  1.3986
 8911SOL    HW238193   0.670   2.531   9.012  1.9415 -0.6618 -0.5319
 8912SOL     OW38194   3.931   3.441  12.100  0.0221 -0.0975  0.4033
 8912SOL    HW138195   4.021   3.474  12.097  1.0117 -2.7749  0.8804
 8912SOL    HW238196   3.932   3.355  12.141 -0.0602 -1.0088 -1.5567
 8913SOL     OW38197   2.540   1.970  14.327  0.3403 -0.4029  0.3488
 8913SOL    HW138198   2.598   1.958  14.402  0.3323  0.1073  0.4353
 8913SOL    HW238199   2.593   2.035  14.280 -1.2573  1.0840  0.6158
 8914SOL     OW38200   3.839   0.897  16.580  0.0058 -0.0005 -0.1166
 8914SOL    HW138201   3.920   0.846  16.575  1.0450  1.7407 -1.2149
 8914SOL    HW238202   3.807   0.858  16.661 -1.6776  0.8613 -0.3640
 8915SOL     OW38203   2.983   4.516  12.763  0.9317  0.7299 -0.0246
 8915SOL    HW138204   3.045   4.527  12.834 -0.3157  0.0091  1.1854
 8915SOL    HW238205   3.010   4.562  12.683  1.6504  1.1806  0.4852
 8916SOL     OW38206   0.871   0.922  14.701  0.1098 -0.3061  0.1873
 8916SOL    HW138207   0.837   0.886  14.619  0.9300 -2.3561  0.7492
 8916SOL    HW238208   0.926   0.850  14.732 -0.2014 -0.6016  0.0561
 8917SOL     OW38209   2.938   3.623   9.547 -0.2485 -0.1922  0.0673
 8917SOL    HW138210   3.002   3.621   9.477 -0.5268  2.1582 -0.2606
 8917SOL    HW238211   2.867   3.672   9.505  0.2818  1.1257  0.6895
 8918SOL     OW38212   1.511   0.740   6.469 -0.5483  0.7779 -0.5116
 8918SOL    HW138213   1.553   0.656   6.486  0.7156  1.7434  1.1880
 8918SOL    HW238214   1.418   0.717   6.462  0.0237 -1.8216  0.2669
 8919SOL     OW38215   3.734   1.371   2.512  0.0794  0.0234  0.1269
 8919SOL    HW138216   3.780   1.293   2.544 -0.3757 -0.1296  0.4049
 8919SOL    HW238217   3.755   1.437   2.577  1.2248  0.9527 -1.1720
 8920SOL     OW38218   4.002   4.654  14.700  0.5920  0.7518 -0.8054
 8920SOL    HW138219   4.017   4.561  14.716 -1.2070  0.6876  0.4958
 8920SOL    HW238220   3.927   4.638  14.643  1.1634 -3.0280 -0.5060
 8921SOL     OW38221   1.735   1.235  12.148  0.4366  0.5295 -0.1474
 8921SOL    HW138222   1.649   1.202  12.173  0.1890  1.5148  0.2991
 8921SOL    HW238223   1.776   1.165  12.098 -0.8428 -1.1502  1.1569
 8922SOL     OW38224   3.670   0.562   1.452 -0.5562 -0.2508  0.2270
 8922SOL    HW138225   3.671   0.527   1.541 -0.4298 -2.2767 -0.5689
 8922SOL    HW238226   3.742   0.517   1.408 -2.3097 -1.7138 -1.1461
 8923SOL     OW38227   4.340   0.676  10.283 -0.3487 -0.1681  0.2046
 8923SOL    HW138228   4.296   0.733  10.346 -0.6127 -0.8195  0.6129
 8923SOL    HW238229   4.328   0.730  10.205 -2.6121 -2.0997 -0.7701
 8924SOL     OW38230   4.391   2.188  14.644 -0.7793  0.3890  0.8367
 8924SOL    HW138231   4.477   2.146  14.652 -0.5482  1.1255  2.0903
 8924SOL    HW238232   4.338   2.109  14.649  1.6792 -1.3659 -0.6750
 8925SOL     OW38233   2.304   2.688  12.897  0.2234  0.1012  0.2613
 8925SOL    HW138234   2.301   2.615  12.958  0.6521 -0.0604  0.0889
 8925SOL    HW238235   2.318   2.762  12.957 -1.7564  0.9990 -0.3781
 8926SOL     OW38236   4.459   3.052   8.759 -0.1335 -0.0460  0.1726
 8926SOL    HW138237   4.517   3.023   8.829  0.3494  2.1866  0.6949
 8926SOL    HW238238   4.442   3.138   8.798 -1.8283 -0.8418  1.1653
 8927SOL     OW38239   1.941   1.782   5.089 -0.3287 -0.5087  0.5456
 8927SOL    HW138240   1.916   1.804   5.179 -0.2687 -0.1179  0.4695
 8927SOL    HW238241   2.030   1.757   5.114  1.0981  4.8970  0.8875
 8928SOL     OW38242   3.704   0.274   6.336 -0.2562 -0.4076 -1.0283
 8928SOL    HW138243   3.690   0.230   6.253 -0.4261  1.5308 -2.0175
 8928SOL    HW238244   3.714   0.205   6.402 -2.0847 -0.4355 -0.8021
 8929SOL     OW38245   2.388   2.375   3.353  0.4669  0.5901 -0.9868
 8929SOL    HW138246   2.374   2.364   3.260  1.4728  4.3121 -1.5651
 8929SOL    HW238247   2.332   2.301   3.378  2.2685 -0.0633  1.1360
 8930SOL     OW38248   0.926   0.913   2.598  0.2061  0.1900  0.0030
 8930SOL    HW138249   0.984   0.839   2.578 -1.8571 -1.4630  0.1963
 8930SOL    HW238250   0.887   0.874   2.676  0.2927 -0.9419 -0.5229
 8931SOL     OW38251   1.061   1.324   6.413  0.0020 -0.0956 -0.1797
 8931SOL    HW138252   1.151   1.323   6.445  0.4698 -0.6099 -1.5029
 8931SOL    HW238253   1.051   1.232   6.388  0.3318  0.1824 -1.3270
 8932SOL     OW38254   0.486   2.244   2.210  0.1877  0.2577  0.7010
 8932SOL    HW138255   0.408   2.202   2.173  2.0063 -0.8481 -1.9300
 8932SOL    HW238256   0.464   2.267   2.300 -1.3428 -0.6229  0.5511
 8933SOL     OW38257   0.608   0.369  14.770  0.3520 -0.3619  0.1569
 8933SOL    HW138258   0.557   0.292  14.794  0.6847 -0.8055 -0.5379
 8933SOL    HW238259   0.680   0.347  14.830 -0.0149  2.0973  1.4949
 8934SOL     OW38260   0.841   2.052   4.225  0.0327 -0.1910 -0.5333
 8934SOL    HW138261   0.872   2.124   4.169 -0.3541 -0.6262 -1.3093
 8934SOL    HW238262   0.787   1.998   4.167 -0.1619  1.8353 -2.2564
 8935SOL     OW38263   1.031   2.510   8.656 -0.5252  0.4921 -0.3512
 8935SOL    HW138264   1.060   2.584   8.603  0.8731  1.1974  1.4198
 8935SOL    HW238265   1.076   2.437   8.612 -2.2637 -0.6381 -0.2661
 8936SOL     OW38266   2.809   0.237   4.139 -0.1462 -0.2245 -0.6808
 8936SOL    HW138267   2.878   0.256   4.075  1.6862  1.1510  1.6923
 8936SOL    HW238268   2.825   0.143   4.137  0.3802 -0.1137 -1.7202
 8937SOL     OW38269   3.963   2.984   7.071 -0.8941 -0.1991  0.1316
 8937SOL    HW138270   3.901   3.027   7.012 -0.5640  0.5523  0.3376
 8937SOL    HW238271   4.001   2.920   7.010 -1.3346  1.2353 -1.6316
 8938SOL     OW38272   2.393   4.414   1.621  0.5265 -0.4895  0.1806
 8938SOL    HW138273   2.428   4.445   1.704 -2.4142  0.0163  1.2314
 8938SOL    HW238274   2.308   4.458   1.624  0.1824 -1.1882  0.5175
 8939SOL     OW38275   0.566   3.354   5.624  0.0011  0.5727  0.1141
 8939SOL    HW138276   0.486   3.306   5.643 -0.1416  0.9231  0.4197
 8939SOL    HW238277   0.592   3.321   5.538  1.6937 -1.5506  1.4541
 8940SOL     OW38278   0.073   0.446   4.142  0.1267 -0.1426  0.1352
 8940SOL    HW138279   0.126   0.402   4.208  0.2124 -0.8915 -0.4253
 8940SOL    HW238280   4.713   0.434   4.186 -0.7998  1.8871 -1.1006
 8941SOL     OW38281   3.122   0.603   8.447  0.4004 -0.2659 -0.3985
 8941SOL    HW138282   3.182   0.655   8.394 -1.0168  0.5620 -1.1967
 8941SOL    HW238283   3.136   0.661   8.521  2.3128  0.6426 -1.4885
 8942SOL     OW38284   2.711   3.971   4.398  0.9487 -0.0123  0.3302
 8942SOL    HW138285   2.626   3.996   4.360  1.1480  0.0264 -0.0912
 8942SOL    HW238286   2.677   3.921   4.472 -1.2680 -0.4235 -0.9547
 8943SOL     OW38287   3.644   4.185  16.831 -0.0801 -0.2189  0.1832
 8943SOL    HW138288   3.581   4.256  16.821  1.5849  1.2185 -0.1222
 8943SOL    HW238289   3.689   4.223  16.907  0.1218 -2.3096  1.1175
 8944SOL     OW38290   4.523   1.894   3.411 -0.3729 -0.0612 -0.1185
 8944SOL    HW138291   4.469   1.970   3.392 -1.9157 -1.2844 -0.6472
 8944SOL    HW238292   4.471   1.845   3.476  0.3849 -2.9145 -1.6636
 8945SOL     OW38293   2.434   3.851   6.442 -0.6476  0.2681  0.2216
 8945SOL    HW138294   2.488   3.813   6.512  0.7441  0.0844 -0.9648
 8945SOL    HW238295   2.353   3.800   6.448  0.3724 -1.4187 -0.3810
 8946SOL     OW38296   3.386   3.856  12.408  0.2581  0.0218 -0.0396
 8946SOL    HW138297   3.306   3.809  12.382  0.3774  0.4842 -1.2432
 8946SOL    HW238298   3.389   3.908  12.328 -1.3958 -0.1681 -0.2306
 8947SOL     OW38299   1.776   1.882   5.293  0.1291 -0.3060 -0.0081
 8947SOL    HW138300   1.792   1.828   5.371  2.2508  1.6637  0.9127
 8947SOL    HW238301   1.760   1.957   5.350  0.2237  1.4336 -2.3007
 8948SOL     OW38302   4.534   3.134  17.287 -0.1639 -0.0756 -0.4815
 8948SOL    HW138303   4.612   3.078  17.285 -0.6827 -0.7119 -2.9339
 8948SOL    HW238304   4.508   3.122  17.378 -0.5372  1.5558 -0.3644
 8949SOL     OW38305   0.043   1.261   6.391 -0.8383  0.7462 -0.5257
 8949SOL    HW138306   0.051   1.322   6.464  0.8308  0.2433 -0.2839
 8949SOL    HW238307   4.673   1.245   6.386 -0.7019  0.2017 -1.2881
 8950SOL     OW38308   0.149   2.151   5.194  0.5882  0.5622  0.4737
 8950SOL    HW138309   0.099   2.233   5.202  0.9790  0.8623 -0.2301
 8950SOL    HW238310   0.104   2.102   5.263  1.8630 -0.1676  0.7814
 8951SOL     OW38311   2.276   2.552   3.769 -0.5334  0.0437  0.2947
 8951SOL    HW138312   2.306   2.512   3.851 -0.6209  0.5615  0.5768
 8951SOL    HW238313   2.231   2.477   3.729  1.1218 -1.1899  0.7472
 8952SOL     OW38314   3.166   1.587   7.582 -0.3421  0.2783  0.5329
 8952SOL    HW138315   3.154   1.675   7.546 -3.3521 -0.8867 -1.4040
 8952SOL    HW238316   3.202   1.552   7.501  2.7410  0.9150  1.6545
 8953SOL     OW38317   1.515   0.058   3.325  0.0692  0.0899 -0.8433
 8953SOL    HW138318   1.425   0.040   3.295 -0.9307 -0.1805  2.2893
 8953SOL    HW238319   1.498   0.080   3.417  0.5503  1.4785 -1.0928
 8954SOL     OW38320   0.034   2.622   9.147  0.2467  0.2681 -0.1727
 8954SOL    HW138321   0.064   2.697   9.197  1.1389  0.0873 -0.4273
 8954SOL    HW238322   0.022   2.665   9.062 -0.6872 -0.2757 -0.3175
 8955SOL     OW38323   4.288   3.023   2.323 -0.6202  0.3238 -0.4052
 8955SOL    HW138324   4.346   3.099   2.333 -0.8714  0.4489  0.1351
 8955SOL    HW238325   4.288   3.004   2.229 -1.0007  0.2283 -0.3880
 8956SOL     OW38326   2.832   1.148   6.803  0.5924  0.3638 -0.3424
 8956SOL    HW138327   2.854   1.228   6.755  0.3531  0.0058 -1.0541
 8956SOL    HW238328   2.759   1.173   6.859 -0.6165 -0.3372 -1.5901
 8957SOL     OW38329   2.564   0.834   6.191  0.9191 -0.1340  0.0507
 8957SOL    HW138330   2.547   0.906   6.130 -0.9329 -0.6941 -0.0811
 8957SOL    HW238331   2.581   0.777   6.115 -0.7315 -1.5270  0.7302
 8958SOL     OW38332   3.167   1.867   1.765  0.2153  0.1554  0.0368
 8958SOL    HW138333   3.256   1.848   1.797  0.7987  0.4697 -1.4089
 8958SOL    HW238334   3.186   1.867   1.672  1.4388 -0.1545  0.2793
 8959SOL     OW38335   0.275   4.086  15.548 -0.4127  0.0426 -0.0079
 8959SOL    HW138336   0.231   4.081  15.463 -2.5047  1.0541  1.0414
 8959SOL    HW238337   0.245   4.168  15.587  0.6143  1.0296 -1.2900
 8960SOL     OW38338   4.493   0.203  11.799  0.1202 -0.4088 -0.0055
 8960SOL    HW138339   4.509   0.137  11.731 -2.8465 -0.9309 -0.2155
 8960SOL    HW238340   4.584   0.223  11.821 -0.7152  0.8343  2.2633
 8961SOL     OW38341   2.062   2.115   8.340 -0.1994 -0.4318 -0.6175
 8961SOL    HW138342   2.017   2.116   8.255 -1.9346  1.8439  0.3299
 8961SOL    HW238343   2.089   2.206   8.336  1.1118 -0.8196 -0.4079
 8962SOL     OW38344   4.635   3.995   9.346 -0.1097  0.5322  0.1624
 8962SOL    HW138345   4.653   4.027   9.257 -0.8611 -0.4178 -0.3345
 8962SOL    HW238346   0.001   3.984   9.377  0.2371  2.4385 -0.1769
 8963SOL     OW38347   3.099   1.238  12.341  0.0961 -0.3047  0.1682
 8963SOL    HW138348   3.017   1.191  12.325  0.9767 -1.9107  0.4284
 8963SOL    HW238349   3.074   1.283  12.422 -1.8923  0.6802 -1.0092
 8964SOL     OW38350   1.630   1.059   5.025 -0.7707  0.3067 -0.2545
 8964SOL    HW138351   1.557   1.073   5.085 -2.4143 -1.2313 -1.9294
 8964SOL    HW238352   1.594   1.050   4.937 -0.1768  2.2789 -0.6876
 8965SOL     OW38353   2.614   1.850   8.455 -0.1075 -0.0574  0.2306
 8965SOL    HW138354   2.600   1.759   8.430 -1.8257  0.3489 -0.2755
 8965SOL    HW238355   2.703   1.856   8.490  0.2485 -0.0103 -0.6806
 8966SOL     OW38356   3.136   0.615  14.540 -0.1472  0.3126  0.1099
 8966SOL    HW138357   3.223   0.610  14.501  0.0102  1.2453  0.3171
 8966SOL    HW238358   3.129   0.711  14.544 -0.2398  0.2868  0.5895
 8967SOL     OW38359   0.619   0.598   4.269  0.1421  0.0314  0.0673
 8967SOL    HW138360   0.553   0.564   4.208 -0.8398  1.2822  0.4339
 8967SOL    HW238361   0.641   0.680   4.225  3.6418  0.0787  1.9342
 8968SOL     OW38362   4.679   0.698   3.378  0.5544 -0.2144  0.5196
 8968SOL    HW138363   4.627   0.659   3.449 -1.3475  0.3232 -0.5609
 8968SOL    HW238364   4.641   0.786   3.371  2.3647  0.5220  0.0320
 8969SOL     OW38365   3.143   0.680   4.706 -0.0264  0.2007 -0.1272
 8969SOL    HW138366   3.123   0.653   4.796 -4.0144  2.6435 -0.2674
 8969SOL    HW238367   3.093   0.760   4.691  0.0540 -0.0202 -1.5373
 8970SOL     OW38368   0.395   3.605  15.251 -0.6208  0.5608  0.0770
 8970SOL    HW138369   0.463   3.564  15.304 -2.3126  1.1616  2.6896
 8970SOL    HW238370   0.417   3.697  15.267 -1.8402  0.5942  1.5008
 8971SOL     OW38371   3.472   2.051   3.361  0.5111 -0.6600 -0.0562
 8971SOL    HW138372   3.548   2.066   3.305  0.2524  1.1687  0.0802
 8971SOL    HW238373   3.494   2.079   3.450  2.6044  1.0173 -1.1046
 8972SOL     OW38374   4.168   0.639   1.885  0.1233 -0.4200  0.6063
 8972SOL    HW138375   4.081   0.633   1.846  1.1347  0.6269 -1.8066
 8972SOL    HW238376   4.153   0.564   1.942 -1.9547 -0.5599 -0.1435
 8973SOL     OW38377   1.903   3.582   5.318 -0.1777  0.1213 -1.1833
 8973SOL    HW138378   1.880   3.675   5.318 -1.0910 -0.1034  1.6751
 8973SOL    HW238379   1.888   3.567   5.224 -0.9461 -3.3479 -0.4853
 8974SOL     OW38380   0.606   4.436   2.576  0.0452 -0.0069 -0.1896
 8974SOL    HW138381   0.678   4.467   2.632  0.0984  0.1711 -0.3560
 8974SOL    HW238382   0.579   4.513   2.527 -2.8574 -0.6648  0.4183
 8975SOL     OW38383   0.547   1.450   1.591  0.5852  0.0149  0.0410
 8975SOL    HW138384   0.556   1.545   1.592  2.1945 -0.1689  1.1554
 8975SOL    HW238385   0.547   1.435   1.685 -0.3478  0.7857  0.1666
 8976SOL     OW38386   1.630   2.330  13.891  0.2795 -0.3024 -0.2289
 8976SOL    HW138387   1.586   2.285  13.820 -0.1676  0.1587 -0.2423
 8976SOL    HW238388   1.653   2.253  13.942 -2.1141 -0.1137  1.1123
 8977SOL     OW38389   0.994   0.897   0.646  0.4204  0.7447 -0.1469
 8977SOL    HW138390   0.935   0.836   0.603 -1.4250  2.2054  0.3349
 8977SOL    HW238391   0.953   0.909   0.731 -0.6588 -1.9922 -0.3010
 8978SOL     OW38392   0.206   1.436   4.759  0.4238  0.8115 -0.1794
 8978SOL    HW138393   0.156   1.373   4.707  0.9644 -0.5701  0.9541
 8978SOL    HW238394   0.294   1.399   4.765 -0.3981 -0.9579  1.1763
 8979SOL     OW38395   2.796   4.339  13.138  0.5246  0.4880  0.6038
 8979SOL    HW138396   2.775   4.427  13.171 -0.0792 -0.5118  2.8909
 8979SOL    HW238397   2.829   4.296  13.217  4.0482 -0.6888 -1.5018
 8980SOL     OW38398   1.295   4.422   0.142 -0.1116  0.3077  0.1977
 8980SOL    HW138399   1.309   4.485   0.070 -2.3633 -1.1137 -1.4919
 8980SOL    HW238400   1.241   4.352   0.106 -0.6770  1.6080 -1.4972
 8981SOL     OW38401   2.726   3.251   5.182  0.0037 -0.1579  0.1167
 8981SOL    HW138402   2.780   3.220   5.255 -3.4037 -0.1655  2.6536
 8981SOL    HW238403   2.636   3.247   5.215  1.5900  0.3196  4.5439
 8982SOL     OW38404   2.880   2.785   5.842  0.5746  0.4179 -0.2325
 8982SOL    HW138405   2.935   2.863   5.829  2.5388 -0.6387  1.7461
 8982SOL    HW238406   2.944   2.714   5.839  0.9524  0.6658  1.9090
 8983SOL     OW38407   1.911   4.389   9.185  0.1257  0.5513 -0.0316
 8983SOL    HW138408   1.974   4.377   9.257 -1.7918 -1.0092  1.4043
 8983SOL    HW238409   1.864   4.307   9.198 -0.2084  0.8454  0.6524
 8984SOL     OW38410   2.196   2.624   3.083  0.1774  0.5497  0.2457
 8984SOL    HW138411   2.147   2.595   3.007 -0.0269  1.4202  0.0426
 8984SOL    HW238412   2.246   2.545   3.105  0.6414  0.7916  0.0673
 8985SOL     OW38413   1.417   1.989   6.812 -0.2353  0.0717  0.7067
 8985SOL    HW138414   1.512   1.996   6.822  0.1243 -0.9768 -1.9142
 8985SOL    HW238415   1.410   1.912   6.869  1.9775  0.9302  2.1443
 8986SOL     OW38416   1.422   0.270   7.315 -0.0970 -0.4889 -0.5716
 8986SOL    HW138417   1.484   0.311   7.375 -1.2130 -0.1661  0.3654
 8986SOL    HW238418   1.392   0.344   7.262 -0.6591  1.9631  3.1747
 8987SOL     OW38419   1.603   2.512   5.812 -0.4960 -0.3141 -0.7158
 8987SOL    HW138420   1.593   2.604   5.786 -1.6906 -1.1444 -3.2557
 8987SOL    HW238421   1.683   2.506   5.864 -0.5888 -1.8893 -0.7706
 8988SOL     OW38422   1.482   1.914  14.135  0.4153  0.2273  0.2111
 8988SOL    HW138423   1.459   1.879  14.050 -0.3316 -0.4493  0.6948
 8988SOL    HW238424   1.407   1.969  14.158  1.0936  0.4773  1.8524
 8989SOL     OW38425   2.707   1.550   6.879  0.2780  0.3087  0.0978
 8989SOL    HW138426   2.674   1.603   6.806 -1.0755  0.7107  0.9910
 8989SOL    HW238427   2.787   1.505   6.852 -0.7326 -0.8838 -0.8876
 8990SOL     OW38428   1.840   4.238  14.529 -0.2856 -0.2225  0.4904
 8990SOL    HW138429   1.915   4.282  14.490  1.7919 -1.1442  3.4652
 8990SOL    HW238430   1.766   4.294  14.503 -0.2094 -0.8876 -1.1743
 8991SOL     OW38431   3.891   3.989   2.504 -0.2453  0.1633  0.2989
 8991SOL    HW138432   3.798   4.010   2.506 -0.4174 -0.6544  0.7784
 8991SOL    HW238433   3.917   3.991   2.412  0.4697 -1.5278  0.4604
 8992SOL     OW38434   1.780   1.494   3.188 -0.6321 -0.1990  0.3975
 8992SOL    HW138435   1.791   1.589   3.184  0.0502 -0.2675  0.6054
 8992SOL    HW238436   1.849   1.478   3.253 -0.4925 -0.5904  0.1533
 8993SOL     OW38437   0.305   3.263   8.248 -0.1197 -0.4496  0.0922
 8993SOL    HW138438   0.273   3.202   8.314 -0.6498  3.2255  3.2360
 8993SOL    HW238439   0.274   3.236   8.162  0.5580 -3.8658  0.9367
 8994SOL     OW38440   3.530   0.510   3.897  0.0274  0.2259 -0.1928
 8994SOL    HW138441   3.441   0.504   3.864 -0.6654  0.2388  1.6899
 8994SOL    HW238442   3.575   0.492   3.814  1.4684 -2.7658  1.2169
 8995SOL     OW38443   1.563   3.294   8.690 -0.9891  0.1224 -0.0518
 8995SOL    HW138444   1.617   3.373   8.694  1.0765 -1.4242  2.4651
 8995SOL    HW238445   1.494   3.320   8.629 -1.4182 -2.3844 -0.6321
 8996SOL     OW38446   0.239   3.851   8.140  0.6421 -0.0053 -0.1694
 8996SOL    HW138447   0.195   3.873   8.058  0.1099  2.5662  0.8097
 8996SOL    HW238448   0.239   3.936   8.184 -0.3286  1.5755 -3.2776
 8997SOL     OW38449   0.718   1.453   8.638  0.1656 -0.5678 -0.0426
 8997SOL    HW138450   0.636   1.490   8.671  0.3012 -0.7659  0.5152
 8997SOL    HW238451   0.686   1.397   8.566 -0.7353 -0.2561  0.1074
 8998SOL     OW38452   2.347   3.280  10.980  0.0889  0.7841  0.3310
 8998SOL    HW138453   2.354   3.351  11.044  2.0062 -0.5262  1.5949
 8998SOL    HW238454   2.406   3.225  11.032  0.4251  0.8754  0.0554
 8999SOL     OW38455   1.599   1.687   9.470  0.0298  0.4753  0.0153
 8999SOL    HW138456   1.651   1.745   9.525  0.9795 -1.0650  0.7387
 8999SOL    HW238457   1.557   1.627   9.532  1.0776 -0.8663 -0.5584
 9000SOL     OW38458   1.161   0.185  17.502  0.1839 -0.4051 -0.0510
 9000SOL    HW138459   1.168   0.090  17.488 -2.0324 -0.4146 -1.1207
 9000SOL    HW238460   1.254   0.208  17.499  0.5785 -1.6530  2.9250
 9001SOL     OW38461   3.933   1.939   7.281  0.1387 -0.0878 -0.1299
 9001SOL    HW138462   3.854   1.972   7.240  0.1234  1.1050  0.8650
 9001SOL    HW238463   3.898   1.873   7.340 -0.0248 -0.0598 -0.1957
 9002SOL     OW38464   3.604   3.435  16.250  0.3770  0.9018  0.4495
 9002SOL    HW138465   3.527   3.488  16.269 -1.0375 -1.4190  1.2522
 9002SOL    HW238466   3.571   3.348  16.274 -3.6676  2.1199 -0.7308
 9003SOL     OW38467   2.929   2.824  14.794 -0.3819  0.0625  0.1896
 9003SOL    HW138468   2.865   2.817  14.723 -0.0913  2.7233 -0.3323
 9003SOL    HW238469   3.012   2.814  14.748 -0.9271 -3.0437 -0.0913
 9004SOL     OW38470   4.694   3.926   8.498  0.2398 -0.2833 -0.6232
 9004SOL    HW138471   4.684   3.924   8.593  1.1545 -1.3385 -0.5512
 9004SOL    HW238472   4.721   3.838   8.473 -1.8667 -0.6607 -1.6355
 9005SOL     OW38473   4.653   3.059  10.076  0.1621  0.2738  0.6898
 9005SOL    HW138474   4.675   3.125  10.011 -0.8273 -0.8018 -0.7286
 9005SOL    HW238475   4.597   2.990  10.041  1.5066  0.0612 -1.0401
 9006SOL     OW38476   1.333   3.124   8.434 -0.4389 -0.3349  0.8324
 9006SOL    HW138477   1.279   3.151   8.359  1.3745 -1.1367 -0.7601
 9006SOL    HW238478   1.371   3.206   8.463  0.4925 -0.9994  1.4825
 9007SOL     OW38479   0.292   3.622   8.253 -0.6522 -0.5484  1.3225
 9007SOL    HW138480   0.243   3.573   8.186  1.3586 -1.5702  0.6227
 9007SOL    HW238481   0.259   3.709   8.231 -1.6197 -0.5767  2.7038
 9008SOL     OW38482   3.068   2.356   6.584 -0.5280 -0.5150 -0.3716
 9008SOL    HW138483   3.098   2.391   6.501 -2.2012  0.9107 -0.3812
 9008SOL    HW238484   3.144   2.306   6.612 -1.9674 -1.0538  2.6959
 9009SOL     OW38485   3.829   1.337   7.871 -0.5725  0.0242  0.4022
 9009SOL    HW138486   3.898   1.320   7.935 -2.5089 -1.7814  1.9993
 9009SOL    HW238487   3.751   1.341   7.926  0.1100 -0.1466  1.3910
 9010SOL     OW38488   4.553   2.867  10.844  0.3871 -0.4245  0.2263
 9010SOL    HW138489   4.597   2.807  10.783 -0.1927  0.2584 -0.8497
 9010SOL    HW238490   4.623   2.866  10.910  1.8018  4.4500 -1.1519
 9011SOL     OW38491   1.304   4.519  13.428 -0.5224 -0.3784 -0.2334
 9011SOL    HW138492   1.322   4.449  13.365 -0.4794 -0.0541 -0.5795
 9011SOL    HW238493   1.325   4.593  13.371  0.4979 -1.1430 -0.8553
 9012SOL     OW38494   2.989   4.473   5.232 -0.1581 -0.2462 -1.1225
 9012SOL    HW138495   2.935   4.410   5.184  0.9054 -2.5745  0.7363
 9012SOL    HW238496   2.991   4.429   5.317 -1.3557  0.6815 -0.6054
 9013SOL     OW38497   2.203   1.087   9.767  0.4281  0.1475 -0.6515
 9013SOL    HW138498   2.267   1.155   9.749  0.7338  0.0137 -0.0536
 9013SOL    HW238499   2.199   1.079   9.862 -0.0952  0.3463 -0.6572
 9014SOL     OW38500   3.062   3.322   9.415 -0.3337  0.5902 -0.2011
 9014SOL    HW138501   3.150   3.297   9.386  0.3850  1.8709  0.8973
 9014SOL    HW238502   3.003   3.266   9.365 -0.6118  1.9309 -1.3811
 9015SOL     OW38503   0.086   2.508  13.447  0.2222 -0.3109 -0.1068
 9015SOL    HW138504   0.163   2.450  13.449  0.4700 -0.0656 -2.8542
 9015SOL    HW238505   0.039   2.482  13.526  2.3210 -1.6540  0.7038
 9016SOL     OW38506   1.502   2.448   4.483 -0.1964 -0.3834 -0.0889
 9016SOL    HW138507   1.492   2.444   4.578 -1.0225  0.6131 -0.1281
 9016SOL    HW238508   1.474   2.537   4.461  0.1001 -0.6836 -1.6923
 9017SOL     OW38509   3.905   2.550   0.871  0.3261 -0.7620 -0.7945
 9017SOL    HW138510   3.921   2.460   0.902  0.4674 -1.0485 -1.7083
 9017SOL    HW238511   3.905   2.603   0.950 -2.0753 -1.1749 -0.5172
 9018SOL     OW38512   2.275   0.100  15.466 -0.3199  0.1379 -0.3382
 9018SOL    HW138513   2.282   0.169  15.400  4.8304  0.2931  0.3475
 9018SOL    HW238514   2.286   0.146  15.550  0.5134 -1.1120  0.2426
 9019SOL     OW38515   3.583   4.074   1.365  0.2463 -0.2173  0.2606
 9019SOL    HW138516   3.539   4.085   1.280  2.1348  0.2288 -0.6444
 9019SOL    HW238517   3.558   4.148   1.420 -0.2657 -2.2083  2.7370
 9020SOL     OW38518   1.962   3.137   8.716  0.3144 -0.1289  0.5889
 9020SOL    HW138519   1.892   3.095   8.666  2.7902 -1.5562 -1.6286
 9020SOL    HW238520   1.918   3.213   8.753  1.1258  0.7670 -0.2944
 9021SOL     OW38521   3.454   2.046   1.888  0.0042  0.1913  0.5570
 9021SOL    HW138522   3.534   2.062   1.937  1.3410 -2.9011 -0.6492
 9021SOL    HW238523   3.440   1.952   1.877 -0.2480  0.3621 -0.5803
 9022SOL     OW38524   3.071   3.727  10.067 -0.3898  0.0824 -0.1994
 9022SOL    HW138525   3.065   3.812  10.111 -0.2360 -0.4846  0.9100
 9022SOL    HW238526   3.062   3.747   9.973  1.0433 -0.9160 -0.5411
 9023SOL     OW38527   4.499   2.555   7.785 -0.2411 -0.2662 -0.3575
 9023SOL    HW138528   4.534   2.636   7.748 -0.9008  0.8655  1.5091
 9023SOL    HW238529   4.473   2.586   7.871  0.0770 -2.8274  0.6533
 9024SOL     OW38530   2.532   2.670   2.881 -0.0068  0.4424  0.8650
 9024SOL    HW138531   2.549   2.641   2.971  0.9099 -0.3932  0.4120
 9024SOL    HW238532   2.543   2.765   2.884 -0.6301  0.5293  0.4740
 9025SOL     OW38533   3.827   1.196  16.681 -0.2084 -0.5063 -0.1557
 9025SOL    HW138534   3.840   1.101  16.674 -0.8603 -0.7547  1.9007
 9025SOL    HW238535   3.887   1.234  16.617 -0.5462 -0.7225 -0.5918
 9026SOL     OW38536   2.823   2.689   7.066 -0.5298  0.4625  0.4651
 9026SOL    HW138537   2.833   2.739   7.146  2.5044 -1.1216  1.0874
 9026SOL    HW238538   2.775   2.745   7.005 -0.1992 -3.2758 -3.2639
 9027SOL     OW38539   4.470   4.674   0.061  0.4594 -0.3879 -0.3327
 9027SOL    HW138540   4.420   0.025   0.095  1.0668  0.1221 -0.5673
 9027SOL    HW238541   4.405   4.614   0.098  0.3209 -1.8348 -2.9415
 9028SOL     OW38542   2.187   2.343   4.277 -0.3359  1.0864 -0.4759
 9028SOL    HW138543   2.165   2.272   4.217 -1.2139  0.2994  0.7865
 9028SOL    HW238544   2.154   2.294   4.352  3.1005  0.9022  0.9489
 9029SOL     OW38545   2.533   3.800  10.424 -0.3002  0.3213 -0.1723
 9029SOL    HW138546   2.626   3.817  10.441 -0.5754  0.1936  1.4870
 9029SOL    HW238547   2.523   3.835  10.335 -0.9036  3.1906  1.0083
 9030SOL     OW38548   3.631   4.152   2.526 -0.1040  0.4263  0.0495
 9030SOL    HW138549   3.640   4.167   2.620  0.2369 -0.8243  0.2224
 9030SOL    HW238550   3.590   4.236   2.506 -0.8869 -0.2849 -1.2948
 9031SOL     OW38551   0.741   0.422  10.533  0.0932  0.4054 -0.1107
 9031SOL    HW138552   0.758   0.509  10.570 -0.7960  1.0175 -1.1283
 9031SOL    HW238553   0.709   0.453  10.448 -0.9423 -0.8883 -0.2087
 9032SOL     OW38554   2.692   2.318  13.701 -0.5463  0.1753 -0.4663
 9032SOL    HW138555   2.666   2.371  13.626 -1.1697  1.3111  0.5377
 9032SOL    HW238556   2.696   2.230  13.662  1.4261  0.2281 -0.4189
 9033SOL     OW38557   2.238   3.779  14.740 -0.2026 -0.3045  0.4518
 9033SOL    HW138558   2.192   3.862  14.730  0.3522  0.2716  2.6472
 9033SOL    HW238559   2.166   3.729  14.777 -0.0229  0.1138  1.3767
 9034SOL     OW38560   3.580   1.744   3.850  0.0598  0.0692  0.1799
 9034SOL    HW138561   3.564   1.650   3.847 -2.2056  0.4900 -1.0383
 9034SOL    HW238562   3.543   1.775   3.933  0.8345  3.4232 -0.7239
 9035SOL     OW38563   3.305   4.628   0.787  0.7532  0.2257 -0.3727
 9035SOL    HW138564   3.288   4.708   0.738 -0.3060  0.0392 -0.3075
 9035SOL    HW238565   3.391   4.634   0.828  0.4254  0.8626  0.2134
 9036SOL     OW38566   4.565   2.953  11.412 -0.6411 -0.2013  0.9778
 9036SOL    HW138567   4.631   3.012  11.375 -1.9748 -0.9189 -2.4747
 9036SOL    HW238568   4.603   2.866  11.398 -0.5918  0.3084 -2.0087
 9037SOL     OW38569   1.097   1.593  16.785  0.2413  0.0522  0.6998
 9037SOL    HW138570   1.033   1.624  16.720  2.1703  0.7879 -0.8501
 9037SOL    HW238571   1.180   1.604  16.739  1.1280  0.4389  2.3991
 9038SOL     OW38572   3.235   1.372  12.138  0.2102  0.0466 -0.4476
 9038SOL    HW138573   3.160   1.340  12.188  0.9537  0.4099  0.8986
 9038SOL    HW238574   3.273   1.296  12.094 -3.9938 -1.7139 -1.0134
 9039SOL     OW38575   3.167   2.565  17.314  0.2344  0.0477 -0.0202
 9039SOL    HW138576   3.132   2.581  17.226  0.0788  2.1356  0.4103
 9039SOL    HW238577   3.093   2.592  17.367 -1.0024 -0.4124 -1.5201
 9040SOL     OW38578   4.630   1.236  10.567  0.6937  0.1907 -0.0980
 9040SOL    HW138579   4.574   1.162  10.590  1.3612 -0.5371 -0.7677
 9040SOL    HW238580   4.689   1.197  10.502  1.5121  0.8147  0.2755
 9041SOL     OW38581   0.819   2.239   5.525 -0.6213  0.4193  0.0321
 9041SOL    HW138582   0.894   2.194   5.563 -1.1239 -0.0634  0.4511
 9041SOL    HW238583   0.853   2.328   5.514 -1.5081  0.8015  0.2927
 9042SOL     OW38584   1.494   2.062  17.581  0.0742  0.1782 -0.4882
 9042SOL    HW138585   1.503   1.969  17.561  0.8180 -0.2163  1.7442
 9042SOL    HW238586   1.509   2.067  17.675 -2.6893  1.7875 -0.1135
 9043SOL     OW38587   2.481   1.093   6.077  0.2113  0.7508 -0.2443
 9043SOL    HW138588   2.394   1.128   6.099  0.0546  0.7058 -0.8098
 9043SOL    HW238589   2.479   1.086   5.982  2.2820 -1.0103 -0.1529
 9044SOL     OW38590   0.391   0.509   4.163 -0.4095  0.1743 -0.0968
 9044SOL    HW138591   0.338   0.429   4.167 -2.8703  1.8047  0.1107
 9044SOL    HW238592   0.335   0.578   4.128 -1.5241 -0.4677  0.4028
 9045SOL     OW38593   1.540   4.678  14.156 -0.3150  0.3404 -0.4163
 9045SOL    HW138594   1.572   0.025  14.211  0.5233  0.9846 -1.7304
 9045SOL    HW238595   1.613   4.616  14.164  0.4733  1.3041 -0.2617
 9046SOL     OW38596   0.656   2.924  10.178  0.2971 -0.1768  0.2667
 9046SOL    HW138597   0.597   2.913  10.252 -0.3660  0.7524 -0.1158
 9046SOL    HW238598   0.678   2.834  10.152  0.3032 -0.5460  1.5844
 9047SOL     OW38599   4.383   4.433  14.300 -0.2839 -0.3782  0.1185
 9047SOL    HW138600   4.323   4.489  14.350  0.4113 -0.8450  1.4549
 9047SOL    HW238601   4.334   4.438  14.218  0.9475 -0.6092 -0.6175
 9048SOL     OW38602   0.879   1.810  13.204  0.6556 -0.0209  0.3272
 9048SOL    HW138603   0.953   1.846  13.254 -1.4026 -0.0813  3.4731
 9048SOL    HW238604   0.901   1.832  13.114 -0.2204  0.7827  0.3050
 9049SOL     OW38605   2.164   0.314  16.291 -0.3386  0.2750 -0.4992
 9049SOL    HW138606   2.185   0.229  16.253 -0.3954 -0.7648  1.7754
 9049SOL    HW238607   2.071   0.327  16.271 -0.3150  1.2676  0.0478
 9050SOL     OW38608   1.935   2.167   2.626 -0.1096  0.3809  0.6789
 9050SOL    HW138609   1.912   2.246   2.578 -2.8170 -1.3164 -0.7905
 9050SOL    HW238610   1.975   2.122   2.552 -0.7289  2.5663 -0.9879
 9051SOL     OW38611   3.304   1.319   6.727 -0.0490 -0.5935 -0.1163
 9051SOL    HW138612   3.251   1.250   6.767 -1.9410  0.9898  0.0461
 9051SOL    HW238613   3.393   1.283   6.723  0.7347  1.4753 -1.1946
 9052SOL     OW38614   0.053   3.570  14.278 -0.1330  0.1062  0.3041
 9052SOL    HW138615   0.109   3.614  14.342  0.3291 -1.8568  1.2430
 9052SOL    HW238616   0.004   3.643  14.239 -0.2437 -0.1876 -0.1093
 9053SOL     OW38617   4.223   4.413   4.839  0.3884  0.3901 -0.5817
 9053SOL    HW138618   4.295   4.350   4.839 -1.6752 -1.9488  1.1930
 9053SOL    HW238619   4.255   4.482   4.897 -0.6425  1.0818 -0.8332
 9054SOL     OW38620   4.392   0.685  17.071  0.6852 -1.0743 -0.3463
 9054SOL    HW138621   4.407   0.592  17.055  1.3427 -0.6737 -2.0639
 9054SOL    HW238622   4.479   0.723  17.087  0.9311 -1.7141 -0.1553
 9055SOL     OW38623   3.049   3.820  13.759 -0.3135  0.0369 -0.1564
 9055SOL    HW138624   2.999   3.860  13.830 -1.0338 -0.1328 -0.5793
 9055SOL    HW238625   3.037   3.888  13.693  0.4710  0.7031  0.3718
 9056SOL     OW38626   0.707   1.808   5.611 -0.1557  0.5916 -0.8703
 9056SOL    HW138627   0.682   1.897   5.588  1.5942  0.8145 -1.8498
 9056SOL    HW238628   0.771   1.782   5.545 -0.6506 -0.7014 -0.8582
 9057SOL     OW38629   3.152   3.444   4.393 -0.0348  0.0707  0.4528
 9057SOL    HW138630   3.129   3.470   4.304 -0.2658 -0.5006  0.3458
 9057SOL    HW238631   3.246   3.456   4.389 -0.5884  3.4994 -1.9087
 9058SOL     OW38632   0.582   4.384  15.416  0.0874 -0.4025  0.2989
 9058SOL    HW138633   0.543   4.352  15.498 -1.6297 -1.2890 -0.8818
 9058SOL    HW238634   0.527   4.462  15.421  0.3394 -0.2320  0.4096
 9059SOL     OW38635   4.027   2.819   8.906  0.7997  0.2490  0.3948
 9059SOL    HW138636   4.012   2.878   8.980  2.5831  2.2060 -0.8187
 9059SOL    HW238637   3.949   2.838   8.855  0.4944  0.3635  0.8973
 9060SOL     OW38638   4.596   0.503   0.564 -0.0075 -0.4802  0.4289
 9060SOL    HW138639   4.583   0.505   0.659 -1.1990  0.0102  0.2624
 9060SOL    HW238640   4.673   0.449   0.546 -0.3845 -0.3184 -1.7306
 9061SOL     OW38641   3.542   4.231  15.232 -0.4633 -0.0142 -0.2199
 9061SOL    HW138642   3.559   4.170  15.304  1.7146  0.0215 -0.7065
 9061SOL    HW238643   3.564   4.317  15.268 -2.4684  0.5619 -0.3151
 9062SOL     OW38644   2.036   4.683   4.860  0.6146 -0.5704  0.1067
 9062SOL    HW138645   2.071   0.036   4.904  0.4937  0.5142 -1.6749
 9062SOL    HW238646   2.108   4.620   4.856 -1.6384 -3.1421 -0.3254
 9063SOL     OW38647   0.290   3.974   4.121  0.3787  0.3280  0.0357
 9063SOL    HW138648   0.256   3.886   4.107  0.7850  0.1762 -0.0207
 9063SOL    HW238649   0.341   3.959   4.201 -1.1199  1.9703  1.2907
 9064SOL     OW38650   1.163   4.484  16.231 -0.0070  0.1750  0.3666
 9064SOL    HW138651   1.126   4.397  16.217 -2.4268  1.4318 -0.9944
 9064SOL    HW238652   1.084   4.533  16.251 -1.8041 -2.0205 -1.4535
 9065SOL     OW38653   1.945   0.147   6.410 -0.4758  0.1315 -0.3421
 9065SOL    HW138654   1.916   0.117   6.496 -1.1261  0.2146 -0.5355
 9065SOL    HW238655   2.040   0.134   6.412 -0.7371 -1.5217  1.4799
 9066SOL     OW38656   0.838   0.343   5.027  0.3581 -0.7115  0.0802
 9066SOL    HW138657   0.852   0.435   5.005  1.3326 -0.8290  0.1988
 9066SOL    HW238658   0.890   0.337   5.108  1.2347 -1.4923 -0.5445
 9067SOL     OW38659   0.128   0.937  11.162 -0.1606 -0.0317  0.2393
 9067SOL    HW138660   0.149   1.024  11.196 -0.4810  0.3836 -0.6175
 9067SOL    HW238661   0.210   0.903  11.127 -0.7829 -2.7242  1.3920
 9068SOL     OW38662   3.483   2.098  13.395  0.4563 -1.1699 -0.8087
 9068SOL    HW138663   3.494   2.025  13.334  2.4483 -0.7750 -0.9265
 9068SOL    HW238664   3.458   2.175  13.344  0.1910 -0.1948  0.7740
 9069SOL     OW38665   0.550   3.500  13.839 -0.1236 -0.0180  0.6599
 9069SOL    HW138666   0.513   3.588  13.829 -0.8930 -0.3774  0.3471
 9069SOL    HW238667   0.472   3.446  13.846 -0.0464 -0.2968 -0.7261
 9070SOL     OW38668   2.900   1.993  13.413  0.3222 -0.3121  0.4399
 9070SOL    HW138669   2.813   1.974  13.449  0.1309 -0.8892 -0.3264
 9070SOL    HW238670   2.881   2.061  13.348 -1.3932 -0.1884  1.0523
 9071SOL     OW38671   3.433   2.701   2.245  0.7003 -0.9091  0.8801
 9071SOL    HW138672   3.460   2.640   2.177 -1.0679 -2.7794  1.8422
 9071SOL    HW238673   3.485   2.778   2.223  0.1294 -1.2160 -1.4776
 9072SOL     OW38674   0.862   1.955   1.354  0.1475 -0.1026  0.1517
 9072SOL    HW138675   0.773   1.921   1.344  0.5694 -1.1136 -0.1356
 9072SOL    HW238676   0.846   2.007   1.433  1.6868 -2.2469  1.8635
 9073SOL     OW38677   0.850   0.200   4.179  0.0985  0.4263 -0.1730
 9073SOL    HW138678   0.813   0.137   4.117  1.8479 -0.4941 -0.2738
 9073SOL    HW238679   0.903   0.137   4.226 -0.2225 -1.1625 -1.9587
 9074SOL     OW38680   0.976   4.646   4.210 -0.1292  0.4867  0.0510
 9074SOL    HW138681   0.956   4.567   4.261 -2.1740  0.9625 -0.0169
 9074SOL    HW238682   0.910   4.627   4.143  3.0290 -0.3014 -2.8050
 9075SOL     OW38683   1.926   3.713   4.091  0.0513 -0.0574  0.4292
 9075SOL    HW138684   1.924   3.806   4.111  0.3757  0.2074 -0.7301
 9075SOL    HW238685   1.976   3.685   4.168  3.0039 -1.6468 -2.0384
 9076SOL     OW38686   0.986   3.444   8.354 -0.8735  0.3408 -0.5083
 9076SOL    HW138687   1.010   3.363   8.309 -0.7722 -0.7876  1.5653
 9076SOL    HW238688   0.900   3.463   8.315 -0.8669  1.6577  0.1330
 9077SOL     OW38689   0.833   4.093   2.770 -0.5772 -0.2843  0.3732
 9077SOL    HW138690   0.755   4.141   2.741 -1.2530 -1.1983  0.6717
 9077SOL    HW238691   0.852   4.137   2.853  2.0002 -1.1120  0.2279
 9078SOL     OW38692   3.254   4.403   5.148  0.3272  0.0158  0.0920
 9078SOL    HW138693   3.238   4.433   5.058  0.1733  1.9654  0.7703
 9078SOL    HW238694   3.164   4.373   5.159  0.0141  0.1181 -2.1053
 9079SOL     OW38695   0.477   1.543   8.739 -0.1804  0.8758  0.2970
 9079SOL    HW138696   0.423   1.523   8.662  1.0889  2.2119 -0.9305
 9079SOL    HW238697   0.406   1.565   8.800 -0.5340  0.2052  0.1379
 9080SOL     OW38698   1.886   3.380   8.830 -0.5079 -0.5227  0.1660
 9080SOL    HW138699   1.957   3.436   8.861 -1.6477 -0.2518  2.2976
 9080SOL    HW238700   1.838   3.441   8.774  2.2233  3.2488  1.9210
 9081SOL     OW38701   3.664   1.049   9.764  0.0699 -0.0788 -0.1410
 9081SOL    HW138702   3.641   1.047   9.856 -1.2366  1.0120 -0.4492
 9081SOL    HW238703   3.625   1.130   9.732 -2.1089 -1.4215 -0.8947
 9082SOL     OW38704   1.777   4.161   4.493  0.4313 -0.0171 -0.0541
 9082SOL    HW138705   1.786   4.191   4.583 -0.2854  0.5104 -0.1543
 9082SOL    HW238706   1.795   4.243   4.446 -2.0152 -0.4847 -1.8686
 9083SOL     OW38707   1.435   4.317   4.029  0.9804 -0.1396 -0.9114
 9083SOL    HW138708   1.517   4.365   4.014  0.2158  0.9321 -1.6327
 9083SOL    HW238709   1.453   4.228   3.997  0.8915 -0.4900  0.0027
 9084SOL     OW38710   0.461   1.493  13.779  0.3483  0.1908  0.0267
 9084SOL    HW138711   0.415   1.490  13.695  0.2137 -1.0433  0.1458
 9084SOL    HW238712   0.387   1.518  13.835  1.8247  1.7329  1.2819
 9085SOL     OW38713   0.049   3.442   9.342 -0.5092 -0.0064  0.2177
 9085SOL    HW138714   0.049   3.395   9.426  1.2840 -0.8277 -0.2403
 9085SOL    HW238715   4.679   3.457   9.330  0.4943  4.1306 -2.4378
 9086SOL     OW38716   2.832   1.672   3.013  0.3777 -0.1170  0.3292
 9086SOL    HW138717   2.912   1.621   2.997 -1.6562 -2.6168 -1.9734
 9086SOL    HW238718   2.806   1.665   3.105  1.3187 -0.9782  0.5382
 9087SOL     OW38719   1.707   1.256  10.505 -0.0488  0.3128  0.4823
 9087SOL    HW138720   1.710   1.314  10.580 -0.1006  1.6692 -0.5621
 9087SOL    HW238721   1.796   1.266  10.470 -0.8316  0.5210 -1.4371
 9088SOL     OW38722   0.527   1.090   8.402  0.0062 -0.4259 -0.9952
 9088SOL    HW138723   0.501   1.011   8.450 -1.1783 -0.0848 -1.0579
 9088SOL    HW238724   0.451   1.125   8.355 -0.4150  0.5295  0.4045
 9089SOL     OW38725   0.334   0.938   5.401  0.5675  0.3483 -0.3961
 9089SOL    HW138726   0.243   0.966   5.411  0.6008  0.8101 -1.3835
 9089SOL    HW238727   0.392   0.995   5.452 -0.4597  1.3945 -0.4142
 9090SOL     OW38728   3.742   2.729   3.036  0.0501 -0.1582  0.8692
 9090SOL    HW138729   3.676   2.666   3.064 -0.2329 -1.1854 -2.0148
 9090SOL    HW238730   3.821   2.691   3.075  1.4304  0.4441 -1.3501
 9091SOL     OW38731   1.696   2.726  17.318  0.5143 -0.2293 -0.0430
 9091SOL    HW138732   1.708   2.698  17.227 -0.0827 -2.3944  0.5667
 9091SOL    HW238733   1.727   2.643  17.353 -0.2334 -1.5658 -2.5753
 9092SOL     OW38734   2.678   4.703   2.899  0.1137  0.1788  0.0091
 9092SOL    HW138735   2.732   4.639   2.945 -1.1559 -1.0854 -0.2736
 9092SOL    HW238736   2.704   4.703   2.807 -0.3194 -0.4755 -0.1090
 9093SOL     OW38737   0.487   4.178  16.126 -0.0245  0.3335  0.0571
 9093SOL    HW138738   0.481   4.231  16.205 -2.8384 -1.2491  0.9183
 9093SOL    HW238739   0.522   4.094  16.156 -1.5095 -0.1599  0.4032
 9094SOL     OW38740   1.810   3.118   2.436  0.1743 -0.6306  0.0877
 9094SOL    HW138741   1.780   3.041   2.484  0.1673 -0.6605  0.0350
 9094SOL    HW238742   1.882   3.090   2.380  2.0877 -1.5377  2.9818
 9095SOL     OW38743   2.402   0.036  14.868  0.1439 -0.5731  0.7731
 9095SOL    HW138744   2.410   4.666  14.850 -0.4514 -0.5124  0.1793
 9095SOL    HW238745   2.311   0.051  14.843  0.0284 -0.7666  1.0840
 9096SOL     OW38746   1.339   1.218   4.318 -0.3702 -0.6108 -0.1906
 9096SOL    HW138747   1.321   1.290   4.258 -2.6864  1.1615  2.5992
 9096SOL    HW238748   1.248   1.207   4.346  0.8502  0.1807  4.0232
 9097SOL     OW38749   4.557   0.809   2.755  0.1324 -0.0983  0.3624
 9097SOL    HW138750   4.547   0.808   2.850  1.3171 -2.3761  0.4682
 9097SOL    HW238751   4.616   0.738   2.728  1.0184  0.7637  0.0491
 9098SOL     OW38752   1.280   2.266   9.870 -0.0300 -0.3505 -0.0271
 9098SOL    HW138753   1.233   2.195   9.914  2.5127 -1.2492  1.2207
 9098SOL    HW238754   1.327   2.222   9.799  1.8291  1.6557 -0.0411
 9099SOL     OW38755   0.970   2.305  13.105 -0.2460  0.4963  0.3185
 9099SOL    HW138756   0.943   2.386  13.062  1.4026 -0.1961 -2.0614
 9099SOL    HW238757   0.907   2.298  13.177 -0.7836 -1.8253 -0.3792
 9100SOL     OW38758   3.354   2.585   7.395 -0.1173  0.0269  0.4956
 9100SOL    HW138759   3.415   2.512   7.400  1.0013  0.8196 -1.7871
 9100SOL    HW238760   3.310   2.595   7.480  0.8619 -0.2802  1.0357
 9101SOL     OW38761   0.337   4.198  13.194 -0.0262 -0.1156 -0.0121
 9101SOL    HW138762   0.322   4.290  13.214  0.9206  0.3120 -1.2782
 9101SOL    HW238763   0.251   4.157  13.205 -0.3449  0.3700 -0.7043
 9102SOL     OW38764   2.584   3.863   2.494  0.1378  0.1603 -0.2454
 9102SOL    HW138765   2.628   3.871   2.409 -1.3926 -1.4077 -1.1972
 9102SOL    HW238766   2.662   3.878   2.548  0.5917 -1.0430 -0.5711
 9103SOL     OW38767   1.809   4.406   4.328  0.3649  0.0322 -0.1656
 9103SOL    HW138768   1.859   4.470   4.378  0.0723  2.1562 -2.5640
 9103SOL    HW238769   1.774   4.474   4.271 -2.5654 -0.1107  1.4755
 9104SOL     OW38770   2.051   1.423   1.501 -0.2954  0.5876 -0.1836
 9104SOL    HW138771   1.957   1.406   1.501 -0.4294  1.2998  0.4547
 9104SOL    HW238772   2.073   1.438   1.593  0.4718 -1.0592 -0.1024
 9105SOL     OW38773   0.037   4.603  11.599  0.2008 -0.1267 -0.5693
 9105SOL    HW138774   4.691   4.599  11.665 -0.5875 -1.6629 -1.4968
 9105SOL    HW238775   0.112   4.607  11.659  0.5837 -2.6714 -0.8832
 9106SOL     OW38776   2.550   2.735   8.918  0.1780  0.4635 -0.0104
 9106SOL    HW138777   2.619   2.697   8.972 -0.5202 -0.8321 -0.0194
 9106SOL    HW238778   2.491   2.769   8.986  1.1110 -1.1183  1.5690
 9107SOL     OW38779   1.667   0.211   7.801  0.4547 -0.3584 -0.0618
 9107SOL    HW138780   1.637   0.298   7.829  1.1553 -0.5058  1.1507
 9107SOL    HW238781   1.747   0.189   7.848  0.0202 -0.5842  0.5783
 9108SOL     OW38782   3.382   2.019   4.237  0.0093 -0.3910  0.2079
 9108SOL    HW138783   3.291   2.029   4.262 -0.6641 -0.3905 -2.2148
 9108SOL    HW238784   3.402   1.976   4.320 -1.9786 -1.7756 -0.0331
 9109SOL     OW38785   2.755   2.474   3.390 -0.6184 -0.3539 -0.0085
 9109SOL    HW138786   2.723   2.558   3.423 -0.0759  0.0281 -0.4460
 9109SOL    HW238787   2.777   2.420   3.466  0.3150  0.6508  0.4271
 9110SOL     OW38788   4.545   4.205   9.752 -0.1752 -0.3752  0.4225
 9110SOL    HW138789   4.591   4.123   9.769  0.0201 -0.6732 -1.4812
 9110SOL    HW238790   4.511   4.210   9.841 -0.4881 -0.9438  0.3354
 9111SOL     OW38791   0.372   1.395   7.189 -0.1051  0.4418  0.7346
 9111SOL    HW138792   0.289   1.369   7.230  1.6614 -3.3896  1.9372
 9111SOL    HW238793   0.335   1.426   7.107 -1.7551 -1.9720  0.5479
 9112SOL     OW38794   3.957   1.833   4.966 -0.2926  0.3596  0.3417
 9112SOL    HW138795   3.930   1.775   5.037  1.3889 -0.0718  0.6294
 9112SOL    HW238796   3.928   1.782   4.891 -1.8526 -0.0313  1.2149
 9113SOL     OW38797   0.841   3.292   5.888 -0.4417  0.0201 -0.1088
 9113SOL    HW138798   0.752   3.281   5.853 -0.2015 -1.4346 -0.2908
 9113SOL    HW238799   0.896   3.253   5.820 -0.8547  0.6563 -0.7993
 9114SOL     OW38800   1.071   0.823  13.772  0.3638 -0.3399 -0.2514
 9114SOL    HW138801   0.999   0.760  13.779  0.2158 -0.2357 -0.8391
 9114SOL    HW238802   1.129   0.813  13.847 -2.7977 -0.0643  2.1896
 9115SOL     OW38803   4.263   3.368  12.789 -0.5193 -0.0839 -0.2054
 9115SOL    HW138804   4.224   3.431  12.729 -2.7812  1.0939  2.5161
 9115SOL    HW238805   4.301   3.311  12.722  0.3283  0.1784  0.0466
 9116SOL     OW38806   0.077   2.686   7.297 -0.6663  0.0808 -0.0080
 9116SOL    HW138807   0.074   2.632   7.219  1.3417  1.1313 -0.8279
 9116SOL    HW238808   0.033   2.640   7.369  0.9729 -3.1017 -1.0300
 9117SOL     OW38809   2.131   4.562   1.914 -0.1968  0.3814 -0.5175
 9117SOL    HW138810   2.223   4.535   1.910 -0.0048  1.0586 -0.7223
 9117SOL    HW238811   2.121   4.597   2.002  0.5278  0.8894 -0.6394
 9118SOL     OW38812   3.668   4.472   0.253 -0.6145  0.2026 -0.5562
 9118SOL    HW138813   3.750   4.495   0.209  0.1697  2.0488  1.8669
 9118SOL    HW238814   3.601   4.492   0.187  1.6651  0.9911 -2.6291
 9119SOL     OW38815   2.576   0.410   3.507 -0.2123  0.7052 -0.5180
 9119SOL    HW138816   2.499   0.459   3.537  1.0616  0.7807  2.6414
 9119SOL    HW238817   2.621   0.477   3.456 -1.6074  1.3379 -0.9159
 9120SOL     OW38818   1.036   2.938   5.607 -0.7775  0.0367 -0.5442
 9120SOL    HW138819   0.957   2.929   5.659 -0.2017  2.2174  0.7015
 9120SOL    HW238820   1.100   2.954   5.676  0.4563  0.7645 -1.8555
 9121SOL     OW38821   2.531   4.355   2.987  0.0107 -0.8738 -0.8033
 9121SOL    HW138822   2.549   4.359   2.893 -0.5255 -1.6467 -0.9378
 9121SOL    HW238823   2.439   4.380   2.993  0.6274  1.3842 -0.8053
 9122SOL     OW38824   1.928   0.836   6.728 -0.3369 -0.4119 -0.2826
 9122SOL    HW138825   1.949   0.833   6.822  0.9036  0.6647 -0.5214
 9122SOL    HW238826   1.947   0.924   6.693 -0.8019 -1.1292 -2.3256
 9123SOL     OW38827   0.683   3.493   8.226  0.2198 -0.1188  0.3923
 9123SOL    HW138828   0.599   3.481   8.271 -0.8109  0.1630 -1.4670
 9123SOL    HW238829   0.662   3.440   8.149  0.3779 -0.9159  0.8904
 9124SOL     OW38830   0.751   1.256   3.985  0.1728 -0.1121 -0.4680
 9124SOL    HW138831   0.709   1.341   3.970 -1.4041 -0.8690 -0.3123
 9124SOL    HW238832   0.676   1.201   4.003  1.2544 -2.3837 -2.9379
 9125SOL     OW38833   3.508   0.702   6.307  0.3300 -0.2540  0.2012
 9125SOL    HW138834   3.435   0.641   6.315  0.5517 -0.4954  0.3921
 9125SOL    HW238835   3.575   0.649   6.352  1.2918 -1.7866 -3.0727
 9126SOL     OW38836   3.094   2.366   9.657  0.2905  0.4928 -0.2202
 9126SOL    HW138837   3.067   2.454   9.681 -2.0650 -1.0103  2.6617
 9126SOL    HW238838   3.089   2.313   9.736  0.4216  0.8183  0.0047
 9127SOL     OW38839   2.787   1.896   6.754 -0.2356 -0.3970 -0.5011
 9127SOL    HW138840   2.801   1.987   6.781 -3.0325 -0.3061  0.7085
 9127SOL    HW238841   2.708   1.886   6.807  0.1890 -2.8548 -0.3389
 9128SOL     OW38842   0.677   1.685   5.281 -0.3677 -0.4819  0.8046
 9128SOL    HW138843   0.652   1.773   5.254  0.0988  0.2194  2.6365
 9128SOL    HW238844   0.619   1.634   5.225 -0.2547 -0.3740  0.5905
 9129SOL     OW38845   0.354   1.496   8.515  0.5547 -0.0035 -0.1960
 9129SOL    HW138846   0.269   1.514   8.476 -1.0463 -0.4768  3.1056
 9129SOL    HW238847   0.366   1.404   8.490 -1.6354 -0.1808 -0.6044
 9130SOL     OW38848   0.254   2.710  15.747 -0.1283 -0.0584 -0.3142
 9130SOL    HW138849   0.340   2.697  15.707 -0.6891  1.2798 -1.9448
 9130SOL    HW238850   0.227   2.778  15.685  0.7324 -1.5347 -2.3150
 9131SOL     OW38851   2.006   1.960   2.415 -0.2554  0.3483  0.0358
 9131SOL    HW138852   2.027   1.909   2.493 -0.2274  0.2734 -0.0210
 9131SOL    HW238853   2.086   2.008   2.394 -1.0007  1.5617 -0.0262
 9132SOL     OW38854   2.653   0.455   6.931  0.4181 -0.1813  0.5812
 9132SOL    HW138855   2.588   0.466   6.862  0.3606 -2.1377  0.3123
 9132SOL    HW238856   2.635   0.541   6.968  1.7621  1.0377 -1.5738
 9133SOL     OW38857   3.014   3.500   6.697  0.4964  0.1162 -0.2629
 9133SOL    HW138858   3.041   3.411   6.677  4.2318  0.9368  1.1404
 9133SOL    HW238859   2.918   3.499   6.689  0.5151 -1.5645 -0.0764
 9134SOL     OW38860   3.252   4.086   4.675 -0.0241  0.1048 -0.2941
 9134SOL    HW138861   3.257   4.149   4.603 -2.7066 -0.7766 -1.2729
 9134SOL    HW238862   3.311   4.019   4.640  1.3689  0.1292  2.0395
 9135SOL     OW38863   4.465   0.594   1.770  0.2943 -0.4187 -0.4619
 9135SOL    HW138864   4.465   0.677   1.722  0.7960 -0.6014 -0.7778
 9135SOL    HW238865   4.372   0.574   1.770  0.9457 -3.4795  0.7774
 9136SOL     OW38866   0.864   3.850   4.957 -0.1339 -0.2677 -0.4707
 9136SOL    HW138867   0.869   3.871   4.864 -0.6601 -1.2737 -0.7252
 9136SOL    HW238868   0.782   3.802   4.949  0.0116 -0.6197  0.1196
 9137SOL     OW38869   3.509   0.833   8.853 -0.0730 -0.2270 -0.4539
 9137SOL    HW138870   3.517   0.885   8.933  0.8450 -1.2610  0.1263
 9137SOL    HW238871   3.494   0.744   8.886 -1.8299 -0.2879 -1.3725
 9138SOL     OW38872   1.859   4.649   4.454 -0.1165 -0.6470 -0.0740
 9138SOL    HW138873   1.923   4.710   4.489 -1.6975 -0.3342  2.2506
 9138SOL    HW238874   1.777   4.699   4.445 -0.1073 -0.3087  1.8894
 9139SOL     OW38875   0.508   1.892   3.723  0.0496 -0.2172  0.3920
 9139SOL    HW138876   0.473   1.907   3.636  2.6311 -1.8297 -0.9132
 9139SOL    HW238877   0.602   1.896   3.703 -0.0053 -1.7923 -0.1793
 9140SOL     OW38878   0.248   0.185   1.716  0.1611 -0.1655  0.2384
 9140SOL    HW138879   0.312   0.253   1.694 -0.0163 -0.4624 -1.2352
 9140SOL    HW238880   0.175   0.211   1.659  0.6669 -0.5308 -0.5796
 9141SOL     OW38881   1.888   3.988   5.536 -0.2770 -0.3830 -0.7555
 9141SOL    HW138882   1.857   3.897   5.531 -0.0701 -0.6672  2.6181
 9141SOL    HW238883   1.971   3.985   5.489  0.1897 -1.9328  0.1680
 9142SOL     OW38884   2.435   2.087   8.713 -0.3432 -0.5501 -0.4909
 9142SOL    HW138885   2.357   2.104   8.767 -0.3888  0.2959 -0.8193
 9142SOL    HW238886   2.474   2.011   8.757 -3.1221 -0.6971  1.7637
 9143SOL     OW38887   3.772   2.561   2.675  0.2034  0.3779  0.6249
 9143SOL    HW138888   3.776   2.582   2.769  2.4603 -0.7578  0.7857
 9143SOL    HW238889   3.738   2.472   2.672 -1.3022  0.9087  1.7072
 9144SOL     OW38890   2.118   2.453   0.294 -0.3012  0.0995 -0.5772
 9144SOL    HW138891   2.122   2.509   0.372 -3.3007  0.2615 -0.5180
 9144SOL    HW238892   2.201   2.481   0.255 -1.0563  0.7685 -1.7115
 9145SOL     OW38893   0.495   4.581   4.944 -0.3638 -0.6054  0.1808
 9145SOL    HW138894   0.561   4.603   4.879  0.0191  1.1843  1.1710
 9145SOL    HW238895   0.434   4.519   4.905 -2.4042  0.7111  1.2130
 9146SOL     OW38896   1.366   1.966   8.170  0.1539 -0.0942 -0.3182
 9146SOL    HW138897   1.387   1.978   8.077  1.3951  0.7273  0.0633
 9146SOL    HW238898   1.446   1.921   8.198  0.4830  1.0042  0.5161
 9147SOL     OW38899   0.752   1.926   3.611  0.7419 -0.0572  0.0126
 9147SOL    HW138900   0.734   1.918   3.518 -1.3352 -1.4842  0.5154
 9147SOL    HW238901   0.846   1.939   3.602  1.0406 -1.3105  1.1809
 9148SOL     OW38902   4.458   3.819   4.947 -0.7073 -0.0598  0.2836
 9148SOL    HW138903   4.506   3.902   4.944 -0.1245 -0.3981  0.3056
 9148SOL    HW238904   4.470   3.790   5.038 -2.3920  0.2046  0.5982
 9149SOL     OW38905   1.812   1.833  10.035  0.1073  0.5988  0.0601
 9149SOL    HW138906   1.798   1.747  10.074 -2.1556 -0.6266 -3.5156
 9149SOL    HW238907   1.812   1.803   9.944  0.0686 -2.5781  1.1028
 9150SOL     OW38908   1.088   0.931  13.401  0.4503  0.1867 -0.3202
 9150SOL    HW138909   1.166   0.877  13.401 -0.4282 -1.0990  0.0578
 9150SOL    HW238910   1.116   0.995  13.466 -0.4176 -0.5445  0.7803
 9151SOL     OW38911   0.232   1.478  10.015 -0.4219 -0.5015 -0.0686
 9151SOL    HW138912   0.290   1.489   9.940 -0.0440  0.7928  0.4068
 9151SOL    HW238913   0.163   1.542   9.994 -0.3012 -0.5800 -0.7005
 9152SOL     OW38914   2.027   0.574   9.390 -0.6863 -0.0505 -0.2254
 9152SOL    HW138915   2.065   0.599   9.306 -0.7703  1.2426  0.1200
 9152SOL    HW238916   2.075   0.492   9.405  1.9588  1.7526  1.2587
 9153SOL     OW38917   3.313   2.283   2.829 -0.3302  0.4569 -0.0793
 9153SOL    HW138918   3.222   2.254   2.824 -0.8155  2.1034 -0.6529
 9153SOL    HW238919   3.353   2.234   2.757 -2.0707 -0.3435 -0.4965
 9154SOL     OW38920   2.427   2.023   7.288  0.0806  0.3924 -0.2710
 9154SOL    HW138921   2.331   2.026   7.292  0.0356  0.5662 -1.6486
 9154SOL    HW238922   2.464   2.111   7.286 -0.5890  0.7085  1.2835
 9155SOL     OW38923   3.652   2.450   4.555 -0.7191  0.3969  0.0801
 9155SOL    HW138924   3.731   2.409   4.519  0.2218 -0.1403  2.7161
 9155SOL    HW238925   3.615   2.495   4.480 -0.5304  2.1319  1.0346
 9156SOL     OW38926   2.353   1.760  16.902 -0.3748 -0.5516 -0.5391
 9156SOL    HW138927   2.277   1.753  16.959 -1.7420 -2.1753 -2.5759
 9156SOL    HW238928   2.358   1.670  16.870  3.5122 -0.2901 -0.7640
 9157SOL     OW38929   4.282   2.031   1.543 -0.0628  0.2390  0.1000
 9157SOL    HW138930   4.275   2.078   1.626  0.8924  0.7098 -0.0914
 9157SOL    HW238931   4.253   1.942   1.566  1.9878 -0.9362 -1.8081
 9158SOL     OW38932   4.212   0.927   5.303 -0.0841 -0.0497  0.2974
 9158SOL    HW138933   4.216   0.883   5.387 -2.0914 -2.2264 -0.7614
 9158SOL    HW238934   4.161   0.861   5.256 -0.0333 -0.2866  0.5812
 9159SOL     OW38935   3.661   1.718   3.274 -0.0788 -0.6674  0.4196
 9159SOL    HW138936   3.751   1.690   3.262 -0.7197 -2.8086  0.5720
 9159SOL    HW238937   3.666   1.793   3.334  0.0546  0.4047 -0.9182
 9160SOL     OW38938   0.255   0.160   8.173  0.1920 -0.0161  0.1557
 9160SOL    HW138939   0.162   0.142   8.155  0.6546  0.6640 -2.8271
 9160SOL    HW238940   0.258   0.111   8.255  0.9273  0.6244  0.5066
 9161SOL     OW38941   1.319   1.707  15.038 -0.2134  0.0294 -0.1161
 9161SOL    HW138942   1.334   1.746  14.952  1.3351 -1.1803 -0.4008
 9161SOL    HW238943   1.225   1.721  15.028 -0.0320  2.7513  1.9879
 9162SOL     OW38944   3.052   3.505   5.233  0.0259 -0.2819  0.4026
 9162SOL    HW138945   3.115   3.547   5.175  0.2869 -1.6451 -0.2881
 9162SOL    HW238946   3.059   3.565   5.307  0.3646 -1.2367  1.1417
 9163SOL     OW38947   2.191   0.830   7.151  0.2726  0.7775 -0.6280
 9163SOL    HW138948   2.175   0.856   7.242  2.3736 -0.0302 -0.0361
 9163SOL    HW238949   2.232   0.743   7.161  0.3331  0.8155 -0.5446
 9164SOL     OW38950   0.267   2.239  17.115  0.0711  0.2759  0.5045
 9164SOL    HW138951   0.233   2.322  17.149  0.4897  0.7376 -0.2050
 9164SOL    HW238952   0.333   2.274  17.056  1.3592  0.1306  1.8746
 9165SOL     OW38953   1.683   0.677   8.452  0.2278  0.0729  0.0643
 9165SOL    HW138954   1.624   0.652   8.381  1.2024 -0.4267 -0.5727
 9165SOL    HW238955   1.767   0.666   8.408 -0.6074 -1.8664 -1.0803
 9166SOL     OW38956   2.629   0.845   6.864 -1.1123 -0.2631 -0.1914
 9166SOL    HW138957   2.606   0.766   6.913 -1.4486 -0.7220 -1.0900
 9166SOL    HW238958   2.551   0.856   6.811 -0.1598  2.2195 -1.0638
 9167SOL     OW38959   4.234   2.478  17.199  0.4471  0.0890 -0.1985
 9167SOL    HW138960   4.240   2.443  17.287  1.0773 -0.5392 -0.4978
 9167SOL    HW238961   4.154   2.442  17.161  0.8256 -1.2790  0.3040
 9168SOL     OW38962   0.190   3.599  13.487 -0.0459 -0.2226  0.1120
 9168SOL    HW138963   0.266   3.542  13.501  0.1064  0.3059  1.3782
 9168SOL    HW238964   0.128   3.526  13.487 -1.7192  1.2167  0.5339
 9169SOL     OW38965   1.251   0.697   3.601  0.0106  0.6274 -0.1801
 9169SOL    HW138966   1.182   0.744   3.647 -0.2724  0.0986 -0.0626
 9169SOL    HW238967   1.254   0.734   3.513 -1.1208  1.4374  0.1237
 9170SOL     OW38968   2.470   1.657   0.905 -0.0057 -0.1908 -0.1504
 9170SOL    HW138969   2.446   1.671   0.996 -1.0087 -2.3577 -0.0848
 9170SOL    HW238970   2.504   1.743   0.880  2.1825 -0.7171  1.0442
 9171SOL     OW38971   3.090   1.564  16.216 -0.2287  0.0339 -0.0553
 9171SOL    HW138972   3.086   1.502  16.289 -1.5580  0.2505  0.0498
 9171SOL    HW238973   3.094   1.508  16.138  0.9334 -2.8924  2.1311
 9172SOL     OW38974   4.138   2.638  12.155 -0.3556  0.3711  0.2307
 9172SOL    HW138975   4.067   2.681  12.108  0.1045  0.9732  0.0914
 9172SOL    HW238976   4.079   2.565  12.173 -0.6773  0.5099 -0.2801
 9173SOL     OW38977   1.788   3.986   6.751  0.3663 -0.0491 -0.3301
 9173SOL    HW138978   1.774   4.073   6.789 -0.0049 -0.9400  1.5642
 9173SOL    HW238979   1.878   4.004   6.723  1.2116 -1.9702  1.1830
 9174SOL     OW38980   4.257   3.368  15.695  0.0004  0.0884 -0.0137
 9174SOL    HW138981   4.352   3.371  15.706 -0.0738  0.7241  0.4517
 9174SOL    HW238982   4.249   3.406  15.607 -0.7237  1.4750  0.6559
 9175SOL     OW38983   0.036   4.716  13.420 -0.8081 -0.2151  0.0998
 9175SOL    HW138984   0.070   4.626  13.419 -1.1825 -0.3577  0.5725
 9175SOL    HW238985   4.668   4.691  13.428 -1.0612  0.7049  0.0325
 9176SOL     OW38986   2.748   2.620   8.173  0.5106  0.7112 -0.0989
 9176SOL    HW138987   2.685   2.556   8.206  0.4866 -0.0750 -1.6581
 9176SOL    HW238988   2.726   2.700   8.221  0.4991 -0.3927  1.7425
 9177SOL     OW38989   4.538   4.345  16.487 -0.2409 -0.1924  0.2469
 9177SOL    HW138990   4.504   4.328  16.399 -1.8669  1.4317  0.5776
 9177SOL    HW238991   4.475   4.298  16.542  0.0350  1.1032  1.6811
 9178SOL     OW38992   3.288   4.137   1.084  0.1733  0.3528 -0.1110
 9178SOL    HW138993   3.239   4.129   1.002 -1.4784 -0.4958  0.9745
 9178SOL    HW238994   3.377   4.115   1.057 -0.2130 -0.6788 -0.5284
 9179SOL     OW38995   1.757   2.233   2.256 -0.4156 -0.5186 -0.1848
 9179SOL    HW138996   1.791   2.151   2.219  3.7136  1.5507 -0.9594
 9179SOL    HW238997   1.669   2.204   2.277 -0.7533 -0.5391 -1.6388
 9180SOL     OW38998   3.718   2.834   7.163  0.0034 -0.5750  0.6692
 9180SOL    HW138999   3.813   2.836   7.153  0.0762  1.3187  1.7583
 9180SOL    HW239000   3.712   2.845   7.258  0.0630  0.5430  0.5358
 9181SOL     OW39001   2.375   0.614   4.418  0.1740 -0.2042  0.5127
 9181SOL    HW139002   2.366   0.634   4.512  0.5706  0.7320  0.3517
 9181SOL    HW239003   2.412   0.697   4.388 -0.2535  0.0004  0.5468
 9182SOL     OW39004   2.297   4.134   2.755  0.6636  0.0147  0.0907
 9182SOL    HW139005   2.360   4.172   2.693 -1.4189  1.8604 -0.8637
 9182SOL    HW239006   2.321   4.041   2.751 -0.1435 -0.0829 -2.0325
 9183SOL     OW39007   1.824   1.691   8.071 -0.5198 -0.0336 -0.8799
 9183SOL    HW139008   1.745   1.691   8.125  0.5692 -2.2568  0.6749
 9183SOL    HW239009   1.798   1.647   7.990 -0.0964 -1.3921 -0.2691
 9184SOL     OW39010   1.549   3.325   4.339  0.3885  0.1830  0.0139
 9184SOL    HW139011   1.611   3.383   4.385 -0.5303  1.4125 -0.3171
 9184SOL    HW239012   1.464   3.368   4.351 -1.2454 -2.7218 -1.3506
 9185SOL     OW39013   1.897   1.219   3.247  0.1966  0.2470  0.2100
 9185SOL    HW139014   1.813   1.178   3.269  1.1888 -1.3212  1.0809
 9185SOL    HW239015   1.954   1.172   3.308  1.3286  0.6049 -0.5796
 9186SOL     OW39016   0.200   0.374   4.619 -0.0286  0.2643  0.4707
 9186SOL    HW139017   0.123   0.381   4.563  1.2315 -1.1842 -1.4479
 9186SOL    HW239018   0.226   0.466   4.625  0.2129  0.2165  0.1464
 9187SOL     OW39019   3.298   3.810   1.153  0.3278  0.5559  0.5857
 9187SOL    HW139020   3.390   3.835   1.147  0.9216 -1.1183  2.7964
 9187SOL    HW239021   3.256   3.889   1.119 -0.9301  0.1447  1.1532
 9188SOL     OW39022   3.085   1.687   4.232 -0.3909  0.0744 -0.5733
 9188SOL    HW139023   3.120   1.767   4.193  1.4007 -0.8722 -0.9175
 9188SOL    HW239024   2.997   1.690   4.192  0.5847 -0.7774 -2.8011
 9189SOL     OW39025   2.135   0.025   3.940 -0.3549  0.0752 -0.1333
 9189SOL    HW139026   2.216   0.076   3.944 -0.2886 -0.0761  0.4996
 9189SOL    HW239027   2.104   0.036   4.030  1.5098 -2.3388  0.8037
 9190SOL     OW39028   2.511   0.524   3.167 -0.2631 -0.0543  0.1437
 9190SOL    HW139029   2.566   0.575   3.107 -0.6766  1.0599  0.6977
 9190SOL    HW239030   2.577   0.505   3.233 -3.1251  1.0517  3.3589
 9191SOL     OW39031   2.603   0.727   5.272  0.0091  0.1728  0.1998
 9191SOL    HW139032   2.528   0.681   5.235 -2.0089  1.7059  2.3392
 9191SOL    HW239033   2.552   0.786   5.328 -2.3980 -0.7678 -1.0209
 9192SOL     OW39034   2.609   4.077   1.784 -0.0876 -0.3613 -0.2633
 9192SOL    HW139035   2.623   4.083   1.690 -1.1887  1.4448 -0.3235
 9192SOL    HW239036   2.691   4.111   1.821 -1.5937  1.4181  1.4648
 9193SOL     OW39037   2.190   0.249   8.193  0.2520 -0.1963 -0.1165
 9193SOL    HW139038   2.151   0.240   8.280  0.1518 -1.3184 -0.2865
 9193SOL    HW239039   2.207   0.156   8.177  0.7282 -0.1788  0.2821
 9194SOL     OW39040   3.689   2.114   3.223 -0.5943 -0.1319  0.4387
 9194SOL    HW139041   3.699   2.206   3.248  0.5716  0.1699 -1.0811
 9194SOL    HW239042   3.770   2.070   3.248 -1.0222  1.0630  3.9494
 9195SOL     OW39043   1.935   1.110   8.348 -0.1136  0.2217 -0.1681
 9195SOL    HW139044   1.839   1.110   8.348 -0.1178 -2.3919 -0.2653
 9195SOL    HW239045   1.944   1.020   8.381  1.5111  0.3572 -0.2194
 9196SOL     OW39046   0.566   2.802   1.344 -0.0100 -0.1970  0.5491
 9196SOL    HW139047   0.587   2.830   1.254 -0.5501  2.0095  1.1151
 9196SOL    HW239048   0.566   2.709   1.322  1.1330 -0.5457  2.0739
 9197SOL     OW39049   4.223   3.558   6.622  0.3721 -0.9263 -0.3021
 9197SOL    HW139050   4.258   3.647   6.624  2.4028 -1.7632  1.3917
 9197SOL    HW239051   4.174   3.561   6.541  1.7595  0.1992 -1.0900
 9198SOL     OW39052   2.754   3.173  16.613 -0.0555  0.2868 -0.9530
 9198SOL    HW139053   2.670   3.144  16.578  0.2282 -4.4273  2.2467
 9198SOL    HW239054   2.731   3.256  16.656  0.1094  0.4321 -1.1414
 9199SOL     OW39055   3.522   4.484   1.275  0.1261  0.2130  0.6133
 9199SOL    HW139056   3.496   4.435   1.197  0.0585  0.1685  0.6633
 9199SOL    HW239057   3.447   4.543   1.283 -0.2762  0.0694 -2.2151
 9200SOL     OW39058   2.454   0.302   2.708  0.5567 -0.2163 -0.1248
 9200SOL    HW139059   2.421   0.217   2.679  0.5600  0.4332 -2.0137
 9200SOL    HW239060   2.455   0.342   2.621 -1.5883  1.1805  0.4874
 9201SOL     OW39061   4.339   1.153   7.229  0.1155 -0.0004  0.0693
 9201SOL    HW139062   4.245   1.174   7.227  0.3584  1.2033  0.8133
 9201SOL    HW239063   4.377   1.240   7.212 -2.8325  1.0722 -1.0228
 9202SOL     OW39064   0.736   2.589   7.200 -0.3414  0.0869  0.2311
 9202SOL    HW139065   0.732   2.509   7.147 -1.2033 -0.4820  1.1475
 9202SOL    HW239066   0.771   2.561   7.285  1.0880 -1.9645 -1.0290
 9203SOL     OW39067   4.103   2.857   6.863  0.1075 -0.1231 -0.1755
 9203SOL    HW139068   4.188   2.865   6.821  0.4680 -1.9790  0.2172
 9203SOL    HW239069   4.081   2.767   6.840  0.5645 -0.3222  0.1564
 9204SOL     OW39070   3.005   0.287   9.025 -0.4594  0.7830 -0.3553
 9204SOL    HW139071   2.997   0.221   9.094  0.8141 -0.1484 -1.0882
 9204SOL    HW239072   2.994   0.230   8.949 -0.1843 -0.6092  0.6594
 9205SOL     OW39073   2.861   3.237   3.267 -0.1798  0.4985  0.1762
 9205SOL    HW139074   2.783   3.223   3.213 -0.9460 -0.3195  1.4965
 9205SOL    HW239075   2.933   3.232   3.204 -0.1605 -0.5985  0.2862
 9206SOL     OW39076   3.664   3.517   9.103 -0.0224 -0.5237 -0.5186
 9206SOL    HW139077   3.670   3.594   9.047 -2.2602 -0.1773 -0.2909
 9206SOL    HW239078   3.609   3.555   9.172  1.5446  0.5992  0.0955
 9207SOL     OW39079   2.044   3.198  16.473  0.1731 -0.6585 -0.0738
 9207SOL    HW139080   1.980   3.143  16.518 -1.4497 -0.6262 -2.2979
 9207SOL    HW239081   2.000   3.283  16.474 -2.3823 -2.0006  0.4740
 9208SOL     OW39082   2.568   3.813   3.391 -0.5140 -0.0377  0.1033
 9208SOL    HW139083   2.573   3.849   3.480  0.7111 -0.6317  0.2843
 9208SOL    HW239084   2.474   3.795   3.386 -0.6452  0.1339  1.8181
 9209SOL     OW39085   0.907   2.494   4.270  0.2126 -0.3348  0.4620
 9209SOL    HW139086   0.925   2.532   4.184 -1.8173 -0.1540  0.1011
 9209SOL    HW239087   0.845   2.556   4.310 -1.6817 -2.3260  0.6121
 9210SOL     OW39088   4.012   4.532  16.615 -0.0638  0.1755 -0.0926
 9210SOL    HW139089   4.081   4.562  16.556 -0.4296  0.1355 -0.5433
 9210SOL    HW239090   3.969   4.474  16.553 -0.6986  0.4909  0.0487
 9211SOL     OW39091   3.240   4.284  11.357 -0.5483 -0.0497  0.1456
 9211SOL    HW139092   3.248   4.341  11.281 -2.1445 -0.1541 -0.1141
 9211SOL    HW239093   3.276   4.203  11.320 -0.8525  0.3516 -1.0287
 9212SOL     OW39094   4.475   0.684   5.477  0.2338 -0.0310 -0.1303
 9212SOL    HW139095   4.517   0.677   5.391  0.3932  1.8526 -0.2073
 9212SOL    HW239096   4.555   0.668   5.527 -0.6609 -2.4391  0.5162
 9213SOL     OW39097   1.090   1.472  12.655  0.2170  0.3490 -0.3128
 9213SOL    HW139098   1.043   1.457  12.573 -0.7994 -1.1530  0.5528
 9213SOL    HW239099   1.085   1.384  12.692  1.5802  0.7097  0.7729
 9214SOL     OW39100   0.773   1.630   7.861 -0.0078 -0.5330  0.2433
 9214SOL    HW139101   0.785   1.674   7.945  1.1093  2.1301 -1.3033
 9214SOL    HW239102   0.720   1.554   7.886 -0.2388 -1.2269 -2.2807
 9215SOL     OW39103   1.888   3.281   7.225  0.2640 -0.0262  0.0026
 9215SOL    HW139104   1.943   3.343   7.273  2.0969 -0.1478 -1.9655
 9215SOL    HW239105   1.937   3.203   7.251 -0.7780 -0.6433  0.1243
 9216SOL     OW39106   0.133   0.780   6.191 -0.7727 -0.0173  0.0673
 9216SOL    HW139107   0.226   0.794   6.210 -0.4814 -1.8926  0.0238
 9216SOL    HW239108   0.150   0.740   6.106  1.9633  0.6632  0.3050
 9217SOL     OW39109   0.165   0.828   5.739  0.3013 -0.2890  0.2951
 9217SOL    HW139110   0.162   0.924   5.741 -1.2717 -0.3886  2.5412
 9217SOL    HW239111   0.231   0.820   5.670  0.2198  0.2056  0.1553
 9218SOL     OW39112   0.810   4.209   3.029  0.2687  0.4857  0.7280
 9218SOL    HW139113   0.813   4.121   3.066  1.7973  0.5506  0.7675
 9218SOL    HW239114   0.806   4.260   3.110  0.4021  1.8769 -0.1464
 9219SOL     OW39115   4.653   1.294   2.953  0.5697  0.2764  0.2626
 9219SOL    HW139116   4.623   1.339   3.032  1.4904  1.2014  0.1001
 9219SOL    HW239117   0.010   1.249   2.980 -1.7044 -2.5336  2.3110
 9220SOL     OW39118   1.872   1.292   6.021 -0.4351 -0.5232  0.2732
 9220SOL    HW139119   1.897   1.201   6.006 -0.1883 -0.3669 -0.2487
 9220SOL    HW239120   1.835   1.317   5.937  0.3481  0.3977  0.1962
 9221SOL     OW39121   1.318   3.596   7.232 -0.4021 -0.3648 -0.5447
 9221SOL    HW139122   1.329   3.506   7.202  1.1665 -0.0743 -0.8243
 9221SOL    HW239123   1.348   3.594   7.323  0.4464 -0.5291 -0.8321
 9222SOL     OW39124   3.601   3.240   1.039 -0.3275 -0.4215  0.0016
 9222SOL    HW139125   3.511   3.261   1.064 -0.4762 -1.1467  0.0772
 9222SOL    HW239126   3.641   3.255   1.124  0.6631 -0.6997 -0.4203
 9223SOL     OW39127   0.336   1.145  10.241 -0.3856  0.1157  0.5443
 9223SOL    HW139128   0.411   1.087  10.253 -0.5615 -0.2741 -0.2369
 9223SOL    HW239129   0.377   1.229  10.260  0.4743 -0.3466  0.7101
 9224SOL     OW39130   0.635   1.454   3.810 -0.4086 -0.3173 -0.2455
 9224SOL    HW139131   0.609   1.398   3.737  1.0255 -0.7559 -0.4155
 9224SOL    HW239132   0.580   1.532   3.802  0.5764  0.5365  1.2166
 9225SOL     OW39133   0.464   4.271   2.358 -0.2790 -0.1702 -0.4307
 9225SOL    HW139134   0.507   4.278   2.443  0.0868  2.0493 -0.8025
 9225SOL    HW239135   0.428   4.183   2.365  0.2784 -0.2541  1.3738
 9226SOL     OW39136   3.981   1.557   7.770 -0.0308 -0.1057 -0.2352
 9226SOL    HW139137   3.970   1.557   7.675  0.0294  0.0140 -0.2433
 9226SOL    HW239138   3.920   1.489   7.797 -0.4464  0.8147  1.1790
 9227SOL     OW39139   3.340   3.662  15.854  0.0468  0.3622  0.2413
 9227SOL    HW139140   3.328   3.584  15.908 -1.8151  1.3237  1.2266
 9227SOL    HW239141   3.425   3.635  15.819 -0.1345 -1.1828  1.0006
 9228SOL     OW39142   0.676   2.822   5.121 -0.7197 -0.2391 -0.2980
 9228SOL    HW139143   0.755   2.857   5.081 -1.2601 -0.3941 -1.4874
 9228SOL    HW239144   0.694   2.734   5.154 -0.7231  0.0310  0.4200
 9229SOL     OW39145   2.519   3.842   1.955  0.2691  1.0530 -0.0976
 9229SOL    HW139146   2.505   3.812   1.865  1.1700  2.4265 -0.6975
 9229SOL    HW239147   2.436   3.827   2.000  0.9360  2.2458  1.5202
 9230SOL     OW39148   0.094   4.373   5.047 -0.6396 -0.8076  0.4532
 9230SOL    HW139149   0.170   4.331   5.089  1.3746  2.9209  0.4890
 9230SOL    HW239150   0.021   4.322   5.083 -3.0042  1.9104 -0.4661
 9231SOL     OW39151   3.989   0.401   8.370  0.0484 -0.1878  0.4477
 9231SOL    HW139152   4.000   0.331   8.306 -0.3567  0.7211 -0.6140
 9231SOL    HW239153   3.901   0.380   8.401 -0.9106  1.4082 -1.2324
 9232SOL     OW39154   2.565   3.819   2.927 -0.2343 -0.2598 -0.6169
 9232SOL    HW139155   2.544   3.840   2.836 -3.1907  0.3898  0.1952
 9232SOL    HW239156   2.532   3.899   2.968  2.3247  1.0996 -1.2338
 9233SOL     OW39157   4.375   2.668   8.396 -0.0868 -0.1088 -0.4400
 9233SOL    HW139158   4.405   2.759   8.399 -1.7884  0.5025 -1.8718
 9233SOL    HW239159   4.422   2.636   8.473 -1.6027 -0.7811  0.2092
 9234SOL     OW39160   3.119   1.078   2.010 -0.2982  0.2595  0.4390
 9234SOL    HW139161   3.125   1.117   2.097 -3.3594  0.8382  0.4033
 9234SOL    HW239162   3.102   1.151   1.950  0.8018 -0.5227 -0.8317
 9235SOL     OW39163   3.052   2.406   5.563 -0.1065 -0.1141  0.0014
 9235SOL    HW139164   3.036   2.500   5.561  0.4861  0.0130  1.3252
 9235SOL    HW239165   3.047   2.387   5.469 -2.6309  1.5520 -0.2015
 9236SOL     OW39166   3.705   0.807   3.049 -0.0595 -0.2019  0.3146
 9236SOL    HW139167   3.720   0.718   3.017 -2.4437  0.3536 -2.3036
 9236SOL    HW239168   3.740   0.792   3.137 -1.3964  0.5523  0.9649
 9237SOL     OW39169   2.133   1.335  14.920 -0.4509 -0.0072 -0.2963
 9237SOL    HW139170   2.178   1.250  14.917 -0.2331  0.1138 -0.4639
 9237SOL    HW239171   2.134   1.365  14.829  0.8077 -0.9687 -0.6019
 9238SOL     OW39172   1.559   3.085   8.144  0.5053  0.2727  0.7680
 9238SOL    HW139173   1.603   3.083   8.230  0.2923  0.6563  0.8818
 9238SOL    HW239174   1.544   2.991   8.131 -1.2476  0.5601  0.7833
 9239SOL     OW39175   3.193   2.327   0.770 -0.0900  0.6174  0.1559
 9239SOL    HW139176   3.116   2.287   0.729 -1.1678  0.3482  2.4667
 9239SOL    HW239177   3.252   2.252   0.778  0.1728  0.8437  0.3240
 9240SOL     OW39178   3.751   3.714   6.776 -0.3942  0.4436  0.2107
 9240SOL    HW139179   3.676   3.669   6.816  0.0511 -0.7088 -0.2437
 9240SOL    HW239180   3.775   3.666   6.697  0.3426  0.6672  0.3061
 9241SOL     OW39181   1.352   1.908   7.888 -0.2196  0.1312 -0.2627
 9241SOL    HW139182   1.391   1.910   7.800 -2.6226 -0.4595 -1.3430
 9241SOL    HW239183   1.260   1.920   7.866 -0.1443  1.1143 -0.0429
 9242SOL     OW39184   3.614   4.659   5.368  0.0420 -0.0065 -0.0713
 9242SOL    HW139185   3.669   4.672   5.291 -0.0892  2.0917  0.2019
 9242SOL    HW239186   3.653   0.002   5.423 -3.8270  0.7915  1.7438
 9243SOL     OW39187   0.323   2.638   5.900 -0.9356 -0.1080 -0.1433
 9243SOL    HW139188   0.363   2.561   5.860 -0.6176 -0.4130  0.7605
 9243SOL    HW239189   0.350   2.642   5.992  2.6361 -0.6041 -1.1714
 9244SOL     OW39190   4.630   2.522   2.799  0.1769 -0.1473 -0.0779
 9244SOL    HW139191   4.565   2.576   2.753  1.3004 -0.1941 -1.7174
 9244SOL    HW239192   4.608   2.432   2.777 -2.8111  1.0847 -2.0791
 9245SOL     OW39193   4.084   4.616   3.751  0.2067  0.0971  0.1209
 9245SOL    HW139194   4.168   4.661   3.745 -0.2960  0.7219 -2.1939
 9245SOL    HW239195   4.035   4.697   3.766  3.2604  1.9162  0.3502
 9246SOL     OW39196   1.637   0.562   5.592  0.1750 -0.7079 -0.4505
 9246SOL    HW139197   1.725   0.525   5.593 -0.1575 -1.5121 -1.3254
 9246SOL    HW239198   1.590   0.483   5.615  0.5065 -0.5433  0.7777
 9247SOL     OW39199   2.254   1.394   5.863 -0.4198  0.1313  0.4375
 9247SOL    HW139200   2.253   1.315   5.917 -0.2056 -0.7397 -0.8501
 9247SOL    HW239201   2.201   1.454   5.915  1.9841  2.2304  0.4746
 9248SOL     OW39202   2.385   4.171  13.172  0.0149 -0.1893  0.6540
 9248SOL    HW139203   2.368   4.165  13.266  0.6616  0.4767  0.8067
 9248SOL    HW239204   2.397   4.263  13.151 -0.9068 -0.3724 -0.6661
 9249SOL     OW39205   0.999   2.023  10.908  0.3888  0.1373 -0.0099
 9249SOL    HW139206   1.030   1.953  10.964  0.6960 -0.3535 -0.7963
 9249SOL    HW239207   0.977   2.088  10.975 -0.5459 -0.1107 -0.0854
 9250SOL     OW39208   3.906   2.665  10.789  0.1234 -0.1244  0.5139
 9250SOL    HW139209   3.926   2.587  10.842 -0.8371 -1.2133 -0.7053
 9250SOL    HW239210   3.960   2.645  10.712  0.8829  1.8716  0.5453
 9251SOL     OW39211   3.379   2.864  17.434 -0.1063 -0.2512 -0.2216
 9251SOL    HW139212   3.376   2.921  17.358  0.0727  1.7673  1.2834
 9251SOL    HW239213   3.447   2.901  17.491  1.9078 -1.8079 -1.6069
 9252SOL     OW39214   2.129   1.354   3.142 -0.1287 -0.2535  0.2772
 9252SOL    HW139215   2.048   1.338   3.191  0.2726 -2.3771  0.2788
 9252SOL    HW239216   2.124   1.284   3.077  0.8179 -0.2410  0.1909
 9253SOL     OW39217   4.150   1.964  15.739  0.3142  0.2868  0.5326
 9253SOL    HW139218   4.120   1.884  15.696  1.8316 -0.4903  0.8999
 9253SOL    HW239219   4.224   1.992  15.684  1.8437  0.4339  2.6746
 9254SOL     OW39220   1.977   2.674   4.167  0.6024  0.2525  1.0949
 9254SOL    HW139221   1.925   2.747   4.133 -1.0354 -0.9078  1.1153
 9254SOL    HW239222   2.060   2.706   4.130 -0.4605  0.4830 -1.1312
 9255SOL     OW39223   0.110   0.437  12.756  0.3009 -0.6576  0.3671
 9255SOL    HW139224   0.110   0.423  12.662 -1.3786 -2.2375  0.5867
 9255SOL    HW239225   0.190   0.390  12.780  0.4267  0.3594  1.9668
 9256SOL     OW39226   2.362   3.471   5.230 -0.0878  0.0876 -0.0583
 9256SOL    HW139227   2.389   3.427   5.310 -0.9719 -1.4117 -0.5763
 9256SOL    HW239228   2.278   3.427   5.215 -0.7441  0.3626  2.7361
 9257SOL     OW39229   4.457   4.227   5.645 -0.7476  0.5928 -0.0812
 9257SOL    HW139230   4.530   4.170   5.621 -1.4845  0.4199 -1.8763
 9257SOL    HW239231   4.457   4.198   5.737  0.1980 -1.5751 -0.7561
 9258SOL     OW39232   2.325   2.730   6.531  0.0480  0.5126  0.3339
 9258SOL    HW139233   2.354   2.681   6.454  0.5538 -0.9184  1.4245
 9258SOL    HW239234   2.373   2.692   6.604  0.1825 -1.6162 -0.8370
 9259SOL     OW39235   3.651   2.790   4.233  0.0071 -0.3551 -0.1056
 9259SOL    HW139236   3.747   2.794   4.243 -0.1078  0.5859  0.6805
 9259SOL    HW239237   3.630   2.708   4.189  0.2807  0.0920 -1.0892
 9260SOL     OW39238   3.472   1.079   5.191  0.1952 -0.4720  0.1527
 9260SOL    HW139239   3.431   1.159   5.159 -0.9413 -0.5797  1.3658
 9260SOL    HW239240   3.476   1.104   5.283 -2.2050 -0.4933  0.2595
 9261SOL     OW39241   4.712   1.433   3.589  0.3444  0.1983  0.0348
 9261SOL    HW139242   4.684   1.463   3.502  0.6153 -2.0286 -0.8270
 9261SOL    HW239243   4.637   1.373   3.594  0.6429 -0.0851  1.0959
 9262SOL     OW39244   0.397   3.491   6.326 -0.1192  0.0078  0.4379
 9262SOL    HW139245   0.315   3.537   6.315  1.3423  2.8263  1.2989
 9262SOL    HW239246   0.411   3.448   6.242  2.6150 -0.4834  1.1276
 9263SOL     OW39247   1.318   2.358   1.144 -0.1117  0.0935 -0.4644
 9263SOL    HW139248   1.310   2.352   1.049 -0.2954  0.5681 -0.4788
 9263SOL    HW239249   1.304   2.453   1.149  2.5172  0.6007 -2.5955
 9264SOL     OW39250   1.415   1.245  10.361  0.6609  0.3427 -0.3361
 9264SOL    HW139251   1.503   1.227  10.395 -0.7378 -1.6569  2.1830
 9264SOL    HW239252   1.368   1.256  10.443  1.9365  1.0805  0.3030
 9265SOL     OW39253   4.208   2.703  12.576 -0.0278 -0.8854  0.0140
 9265SOL    HW139254   4.291   2.749  12.565 -0.0954 -0.8445 -0.3187
 9265SOL    HW239255   4.215   2.631  12.513  0.8895  0.3227 -1.2616
 9266SOL     OW39256   1.018   2.464  15.977  0.2448  0.4256 -0.9320
 9266SOL    HW139257   0.964   2.440  16.053 -0.8361  0.5693 -1.6523
 9266SOL    HW239258   1.105   2.440  16.010  0.0690  0.4266 -0.4580
 9267SOL     OW39259   4.297   0.330   3.832 -0.0091  0.1280 -0.5962
 9267SOL    HW139260   4.338   0.310   3.748 -0.8369 -0.3070 -0.8993
 9267SOL    HW239261   4.205   0.342   3.808 -0.7752  2.2055  3.3859
 9268SOL     OW39262   4.215   2.238  12.199 -0.1046 -0.3262  0.2810
 9268SOL    HW139263   4.243   2.249  12.109  2.1439  0.8187  1.1077
 9268SOL    HW239264   4.145   2.173  12.192 -0.5765  0.1540  0.5406
 9269SOL     OW39265   0.738   4.225   5.153 -0.8329  0.3303 -0.0128
 9269SOL    HW139266   0.676   4.297   5.164  2.3561  2.8124  1.5449
 9269SOL    HW239267   0.776   4.253   5.069 -1.6228 -1.9252 -1.1375
 9270SOL     OW39268   4.647   1.370  16.396 -0.4379 -0.5697 -0.4004
 9270SOL    HW139269   4.569   1.410  16.435  0.7206 -1.3681  2.7437
 9270SOL    HW239270   4.604   1.347  16.314  0.6871  3.2314 -2.0206
 9271SOL     OW39271   0.864   3.004   8.180 -0.1368 -0.4156 -0.2791
 9271SOL    HW139272   0.810   3.069   8.225 -0.6921  0.4771 -2.2476
 9271SOL    HW239273   0.866   3.043   8.093 -1.9086 -0.2520 -0.2595
 9272SOL     OW39274   1.359   4.016  10.919 -0.3740  0.3037  0.1792
 9272SOL    HW139275   1.407   3.971  10.989 -0.2753  0.4538  0.2083
 9272SOL    HW239276   1.402   3.983  10.841  0.4878  0.5358  0.5633
 9273SOL     OW39277   4.481   1.466   2.335  0.0898  0.7603 -0.1686
 9273SOL    HW139278   4.455   1.423   2.416 -0.7791 -1.6935 -1.7511
 9273SOL    HW239279   4.471   1.559   2.356  0.9668  0.7157  0.4323
 9274SOL     OW39280   3.662   2.734   9.321 -0.3449  0.1077 -0.0189
 9274SOL    HW139281   3.711   2.811   9.291  0.8422 -0.7090 -0.1641
 9274SOL    HW239282   3.612   2.776   9.391  0.1983 -0.3656  0.6467
 9275SOL     OW39283   1.859   0.992   2.697 -0.1278  0.5185  0.1518
 9275SOL    HW139284   1.881   1.031   2.782  1.1649 -3.5303  1.6908
 9275SOL    HW239285   1.849   1.065   2.636  0.7508 -0.4690 -1.1720
 9276SOL     OW39286   1.886   2.763   7.656  0.1356  0.1392  0.5332
 9276SOL    HW139287   1.976   2.782   7.683  0.5946 -1.3976  0.0740
 9276SOL    HW239288   1.846   2.756   7.743  1.2261 -2.5528  0.8293
 9277SOL     OW39289   2.323   0.443   5.436 -0.5373  0.4839  0.2557
 9277SOL    HW139290   2.241   0.392   5.439 -0.7950  1.0110  2.6144
 9277SOL    HW239291   2.372   0.399   5.367 -1.4895  0.0951 -0.1843
 9278SOL     OW39292   3.119   2.816  14.613 -0.5068  0.0940  0.4296
 9278SOL    HW139293   3.130   2.909  14.593 -1.6786  0.5778  1.9695
 9278SOL    HW239294   3.067   2.787  14.538 -1.2721 -0.3375  1.1262
 9279SOL     OW39295   4.034   1.948   9.125 -0.1439  1.0040  0.2187
 9279SOL    HW139296   4.102   1.896   9.082 -0.1311  1.8603 -0.8114
 9279SOL    HW239297   3.962   1.936   9.062 -1.1352  0.5270  1.4443
 9280SOL     OW39298   0.955   1.656   9.271 -0.1545  0.2200 -0.3563
 9280SOL    HW139299   0.986   1.743   9.246  2.2163 -0.6394 -0.3683
 9280SOL    HW239300   0.907   1.626   9.194 -2.7938  1.3172  0.8636
 9281SOL     OW39301   3.395   1.626   8.772  0.1198  0.6023  0.6078
 9281SOL    HW139302   3.322   1.613   8.711 -0.5976  1.4961  1.2677
 9281SOL    HW239303   3.350   1.635   8.856 -2.1850 -1.6116 -0.3849
 9282SOL     OW39304   1.794   3.652   7.900  0.2408 -0.2803  0.5442
 9282SOL    HW139305   1.737   3.576   7.900  1.2865 -1.0691 -0.0568
 9282SOL    HW239306   1.753   3.701   7.829  2.5507  0.8008 -0.0704
 9283SOL     OW39307   0.905   2.998   2.863  0.0370 -0.0740 -0.3230
 9283SOL    HW139308   0.993   3.032   2.882  0.4478 -0.8538 -0.8403
 9283SOL    HW239309   0.914   2.991   2.768 -0.9995  3.3315 -0.6980
 9284SOL     OW39310   3.305   3.082  10.367  0.2745 -0.4025 -0.1375
 9284SOL    HW139311   3.318   3.141  10.441  0.8293 -1.2544  0.4317
 9284SOL    HW239312   3.295   3.152  10.302  0.7689 -0.7270 -0.5652
 9285SOL     OW39313   3.893   0.041   4.035  0.0918  0.1845  0.2202
 9285SOL    HW139314   3.810   0.088   4.033 -0.4684 -0.8999 -1.7838
 9285SOL    HW239315   3.851   4.679   4.029 -0.2676  0.2678  1.5602
 9286SOL     OW39316   1.474   0.660   5.360  0.3353  0.2010  0.1962
 9286SOL    HW139317   1.521   0.624   5.434  0.3554  0.6280  0.3916
 9286SOL    HW239318   1.415   0.591   5.329  0.1186  0.7382 -0.6120
 9287SOL     OW39319   1.082   3.476  11.522  0.3079 -0.5386  0.5020
 9287SOL    HW139320   1.171   3.446  11.541  0.7968 -0.3064 -1.4880
 9287SOL    HW239321   1.031   3.433  11.590 -0.2594  0.7029  0.8613
 9288SOL     OW39322   1.213   3.809   6.711 -0.3235  0.2938 -0.5161
 9288SOL    HW139323   1.227   3.805   6.616  3.5500 -1.3590  0.1286
 9288SOL    HW239324   1.118   3.801   6.712 -0.2560 -0.3913  0.0917
 9289SOL     OW39325   4.425   2.758   0.509  0.6738  0.0701 -0.2261
 9289SOL    HW139326   4.381   2.832   0.466  0.4640  0.0344 -0.0685
 9289SOL    HW239327   4.512   2.798   0.515  0.7802 -0.2300  0.1748
 9290SOL     OW39328   2.102   0.668  15.667 -0.2545  0.0129  0.0138
 9290SOL    HW139329   2.142   0.692  15.750  0.0759 -1.5612  0.2936
 9290SOL    HW239330   2.093   0.574  15.678 -0.7090 -0.0187 -0.5970
 9291SOL     OW39331   2.846   1.152   8.863 -0.6519 -0.4285 -0.7287
 9291SOL    HW139332   2.885   1.071   8.828  1.6416  1.1563 -1.8372
 9291SOL    HW239333   2.920   1.208   8.886 -0.5402 -0.9259  0.1244
 9292SOL     OW39334   4.184   1.677   7.012  0.9530 -0.0535  0.1517
 9292SOL    HW139335   4.204   1.712   6.926 -1.5650  0.5703 -0.1800
 9292SOL    HW239336   4.208   1.587   6.990 -1.6807 -0.4841 -0.9741
 9293SOL     OW39337   3.105   1.158   3.235  0.4287  0.4461  0.3001
 9293SOL    HW139338   3.112   1.108   3.154  0.8713 -0.0461  0.6383
 9293SOL    HW239339   3.094   1.090   3.302  3.2315 -1.5718 -1.2799
 9294SOL     OW39340   1.755   2.484   8.542 -0.0417 -0.3967 -0.4291
 9294SOL    HW139341   1.761   2.388   8.545 -0.7055 -0.4512 -0.7367
 9294SOL    HW239342   1.844   2.501   8.573 -1.1325 -0.9181  3.0636
 9295SOL     OW39343   2.008   0.098   4.600  0.1135  0.0658 -0.2063
 9295SOL    HW139344   1.959   0.180   4.609 -0.1539 -0.1738  0.5292
 9295SOL    HW239345   2.009   0.059   4.688 -3.1151 -0.8311 -0.5437
 9296SOL     OW39346   4.698   0.320  12.219 -0.4641  0.0308 -0.0251
 9296SOL    HW139347   4.689   0.227  12.197 -0.3113 -0.1935  0.8385
 9296SOL    HW239348   4.618   0.359  12.184 -0.1524 -0.6830 -1.5526
 9297SOL     OW39349   0.615   3.740  14.694 -0.0943  0.0519  0.0151
 9297SOL    HW139350   0.555   3.682  14.648 -0.8411 -0.3895  1.5380
 9297SOL    HW239351   0.575   3.740  14.781 -0.6927  1.7299 -0.2670
 9298SOL     OW39352   2.317   1.794  13.060  0.3356 -0.9960  0.5753
 9298SOL    HW139353   2.333   1.751  12.976 -1.1925 -1.6738  0.6210
 9298SOL    HW239354   2.383   1.863  13.058 -1.9344  1.1406 -0.9781
 9299SOL     OW39355   4.478   0.838   1.692 -0.1756 -0.6107 -0.5016
 9299SOL    HW139356   4.569   0.854   1.664 -0.1312 -0.4578 -0.2771
 9299SOL    HW239357   4.429   0.884   1.624 -2.1880 -0.3289  1.1604
 9300SOL     OW39358   4.291   3.996   3.585  0.1328  0.3653 -0.2635
 9300SOL    HW139359   4.385   3.985   3.571 -0.2800 -0.8048 -2.1328
 9300SOL    HW239360   4.288   4.078   3.634  0.1240 -0.2419  0.7421
 9301SOL     OW39361   0.100   4.313   2.942 -0.4354 -0.6798 -0.2429
 9301SOL    HW139362   0.080   4.245   3.006 -0.6511 -2.4841 -2.2306
 9301SOL    HW239363   0.195   4.328   2.948 -0.5971  0.4505 -0.4527
 9302SOL     OW39364   1.338   0.866   8.594  0.6921  0.3996 -0.7981
 9302SOL    HW139365   1.328   0.945   8.646 -0.9384  1.0778 -2.1228
 9302SOL    HW239366   1.429   0.848   8.616  0.0604  0.6046  1.9585
 9303SOL     OW39367   4.319   1.767   9.770  0.0913 -0.0701  0.9899
 9303SOL    HW139368   4.292   1.678   9.791  0.5146 -0.4155  0.0519
 9303SOL    HW239369   4.316   1.808   9.856 -2.0632 -0.9288  1.3285
 9304SOL     OW39370   2.803   2.934  14.328 -0.0939  0.2439 -0.4226
 9304SOL    HW139371   2.835   2.992  14.259  0.0094  4.0710  2.8059
 9304SOL    HW239372   2.724   2.976  14.361 -1.0806 -0.4442 -1.9223
 9305SOL     OW39373   2.438   4.393  15.226  0.0625 -0.1892 -0.6246
 9305SOL    HW139374   2.383   4.457  15.182  0.0058 -1.1648 -1.9711
 9305SOL    HW239375   2.429   4.415  15.319  1.4153  1.0118 -0.7862
 9306SOL     OW39376   0.435   4.097  14.118  0.4573 -0.4596  0.1937
 9306SOL    HW139377   0.490   4.176  14.122 -1.2252  0.6102  2.2016
 9306SOL    HW239378   0.425   4.085  14.212  0.9758 -0.6066  0.2329
 9307SOL     OW39379   0.422   2.322   8.003  0.1556  0.1958  0.1587
 9307SOL    HW139380   0.400   2.242   8.052  2.5316 -0.9991 -0.7725
 9307SOL    HW239381   0.434   2.280   7.918 -1.0480 -0.8861  0.5112
 9308SOL     OW39382   0.048   4.143   3.485 -0.0595 -0.0521  0.0404
 9308SOL    HW139383   0.107   4.125   3.558  0.7318 -1.0999 -0.8562
 9308SOL    HW239384   0.107   4.107   3.418  0.0731  0.7788 -0.2994
 9309SOL     OW39385   4.290   2.836   0.080 -0.1026  0.0198 -0.2503
 9309SOL    HW139386   4.377   2.805   0.105 -0.3130 -0.5812 -0.2826
 9309SOL    HW239387   4.269   2.871   0.167  0.9471 -0.7208  0.3083
 9310SOL     OW39388   0.976   4.232   4.487 -0.4751  0.2271 -0.5770
 9310SOL    HW139389   0.897   4.217   4.539  0.0868  1.4945  0.6532
 9310SOL    HW239390   0.938   4.301   4.431 -0.5757  0.9362  0.3720
 9311SOL     OW39391   1.105   0.792   8.198  0.4299 -0.7404 -0.4379
 9311SOL    HW139392   1.013   0.817   8.188  0.6732  0.3658  0.0881
 9311SOL    HW239393   1.108   0.761   8.288  2.0584  0.4673 -0.0765
 9312SOL     OW39394   0.271   2.886  14.449 -0.6044 -0.5053  0.2010
 9312SOL    HW139395   0.342   2.907  14.508 -0.7527  1.8778 -0.4735
 9312SOL    HW239396   0.199   2.938  14.485  0.8518  3.1403 -2.1862
 9313SOL     OW39397   0.680   3.720   4.805 -0.2478  0.0357 -0.1240
 9313SOL    HW139398   0.608   3.782   4.796 -1.8978 -1.8010  0.2069
 9313SOL    HW239399   0.639   3.658   4.865 -2.1362  1.1223 -0.3052
 9314SOL     OW39400   0.467   3.908   4.835 -0.5038 -0.2713  0.1279
 9314SOL    HW139401   0.454   3.929   4.928 -1.7518  0.3977 -0.1891
 9314SOL    HW239402   0.388   3.855   4.822  1.0000 -1.7698 -2.8307
 9315SOL     OW39403   4.176   3.714   6.949  0.1735 -0.1683 -0.2625
 9315SOL    HW139404   4.117   3.639   6.938 -1.1666  0.9686 -0.9168
 9315SOL    HW239405   4.243   3.653   6.979 -0.5058 -1.0582 -0.5362
 9316SOL     OW39406   3.152   2.941   7.495 -0.4868  0.1519 -0.1791
 9316SOL    HW139407   3.093   2.869   7.518 -0.7686  1.0824  2.0547
 9316SOL    HW239408   3.103   2.976   7.420  1.3998  1.6772 -0.6872
 9317SOL     OW39409   0.821   2.756   1.713  0.0110 -0.3125 -0.5741
 9317SOL    HW139410   0.726   2.753   1.702  0.0532 -1.2538 -0.6772
 9317SOL    HW239411   0.849   2.846   1.695  2.4451 -0.6359  1.6666
 9318SOL     OW39412   1.105   1.605  14.545 -0.4915 -0.1639  0.0937
 9318SOL    HW139413   1.089   1.619  14.638  0.1308 -2.1314  0.5027
 9318SOL    HW239414   1.026   1.642  14.506 -1.8673 -2.5620  0.5899
 9319SOL     OW39415   2.474   1.083   5.797 -0.0927 -0.5712  0.1339
 9319SOL    HW139416   2.453   0.995   5.766  1.8050 -0.2317 -2.1060
 9319SOL    HW239417   2.565   1.086   5.768  0.7331 -0.2449  2.7262
 9320SOL     OW39418   2.700   1.892  17.568 -0.4673 -0.1050 -0.3730
 9320SOL    HW139419   2.636   1.822  17.565  0.6229 -1.2416  2.9683
 9320SOL    HW239420   2.762   1.852  17.630 -1.1220 -0.6036 -0.0391
 9321SOL     OW39421   4.721   4.118   6.419 -0.1673 -0.0668 -0.6501
 9321SOL    HW139422   0.056   4.174   6.469 -0.2267 -0.2393 -0.3809
 9321SOL    HW239423   0.056   4.101   6.346 -0.5851  0.4653 -1.1151
 9322SOL     OW39424   1.397   4.400   6.839 -0.1440 -0.1592  0.4290
 9322SOL    HW139425   1.412   4.315   6.880 -0.9062 -0.0326  0.9561
 9322SOL    HW239426   1.308   4.382   6.812  0.1798 -2.1547  0.6555
 9323SOL     OW39427   3.670   0.315   4.526  0.7649  0.4521 -0.5550
 9323SOL    HW139428   3.596   0.259   4.551 -0.7810  1.9754 -1.7458
 9323SOL    HW239429   3.712   0.267   4.455 -2.6023  0.6604 -2.6819
 9324SOL     OW39430   0.803   0.201   6.343 -0.0188  0.8056 -0.4883
 9324SOL    HW139431   0.734   0.162   6.396  0.8329  0.4401  0.3463
 9324SOL    HW239432   0.875   0.141   6.363  1.3294  2.3463 -0.7562
 9325SOL     OW39433   1.776   4.539   2.810  0.3785  0.0225  0.1284
 9325SOL    HW139434   1.859   4.537   2.762 -0.4588  1.3320 -1.3643
 9325SOL    HW239435   1.704   4.532   2.747  0.4354  0.2484  0.0383
 9326SOL     OW39436   3.259   4.240   3.269 -0.1217  0.2501 -0.4148
 9326SOL    HW139437   3.276   4.206   3.182 -0.1180  0.5933 -0.5459
 9326SOL    HW239438   3.348   4.271   3.287 -0.6223  1.3402  0.1768
 9327SOL     OW39439   1.533   3.262   6.790  1.0080  0.3459  0.0104
 9327SOL    HW139440   1.519   3.194   6.724  0.3486  0.0845  0.4148
 9327SOL    HW239441   1.621   3.293   6.768  1.7917 -1.8781 -0.0418
 9328SOL     OW39442   2.684   3.104   8.804  0.4762  0.1290  0.1573
 9328SOL    HW139443   2.632   3.076   8.729  1.9401 -0.0718 -0.7845
 9328SOL    HW239444   2.618   3.143   8.861 -1.3330 -1.3612 -0.9557
 9329SOL     OW39445   1.481   1.391  10.128  0.2985 -0.4378  0.6748
 9329SOL    HW139446   1.573   1.362  10.127  0.5398  0.2799  1.7183
 9329SOL    HW239447   1.451   1.340  10.203  0.5930 -1.4940  0.0791
 9330SOL     OW39448   1.093   2.049   5.313  0.1374  0.2485  0.2112
 9330SOL    HW139449   1.152   1.983   5.275  0.2046  0.2763  0.2673
 9330SOL    HW239450   1.076   2.108   5.239 -2.5005 -1.8385 -0.8388
 9331SOL     OW39451   1.876   2.374  10.676 -0.3867  0.5462 -0.0867
 9331SOL    HW139452   1.945   2.428  10.714 -0.8637  0.5241  0.7986
 9331SOL    HW239453   1.860   2.429  10.599 -3.0998 -0.5851 -0.3474
 9332SOL     OW39454   2.738   4.440   4.886  0.0919 -0.3921 -0.3145
 9332SOL    HW139455   2.782   4.523   4.899  0.5268 -0.3505 -2.0627
 9332SOL    HW239456   2.705   4.444   4.796  0.5303  2.3276 -0.3396
 9333SOL     OW39457   4.641   1.855   5.116 -0.1611 -0.9041 -0.9826
 9333SOL    HW139458   4.640   1.777   5.171 -1.6171 -0.5435 -0.4979
 9333SOL    HW239459   4.718   1.900   5.152 -1.9900  2.3252 -1.1211
 9334SOL     OW39460   3.311   3.686   9.450  0.4400  0.1820  0.3499
 9334SOL    HW139461   3.241   3.750   9.435 -0.0889 -0.4095  0.2883
 9334SOL    HW239462   3.330   3.703   9.543  0.2271  1.2160  0.2104
 9335SOL     OW39463   1.152   3.322   2.670  0.3119 -0.4481  0.0084
 9335SOL    HW139464   1.155   3.410   2.707  2.3802 -0.7276  0.5152
 9335SOL    HW239465   1.063   3.308   2.638  1.0419  0.5765 -2.4808
 9336SOL     OW39466   4.418   3.287   8.866  0.6656 -0.1302 -0.1792
 9336SOL    HW139467   4.488   3.306   8.929  0.0169  0.2380  0.4375
 9336SOL    HW239468   4.410   3.368   8.815  0.3458  0.6300  1.0830
 9337SOL     OW39469   3.599   0.912  14.979 -0.1393 -0.0165 -0.2070
 9337SOL    HW139470   3.658   0.872  15.042 -0.1091  0.6478  0.1804
 9337SOL    HW239471   3.668   0.960  14.932  1.4883 -0.3204  1.8965
 9338SOL     OW39472   2.637   2.600  15.996 -0.1655  0.4481 -0.3172
 9338SOL    HW139473   2.579   2.661  16.041 -0.5774 -1.7515  2.0897
 9338SOL    HW239474   2.616   2.525  16.052  0.4973  0.3639 -0.1782
 9339SOL     OW39475   3.670   3.068  15.855  0.2222  0.6172 -0.0718
 9339SOL    HW139476   3.627   3.109  15.930 -0.6780  2.2483 -1.4613
 9339SOL    HW239477   3.611   2.992  15.859  3.0995 -1.5524  0.7891
 9340SOL     OW39478   3.814   3.846  16.482 -0.1390  0.0704  0.5668
 9340SOL    HW139479   3.733   3.825  16.529  0.5403 -1.7374  0.9040
 9340SOL    HW239480   3.829   3.936  16.512  1.5266 -0.1960  0.4869
 9341SOL     OW39481   4.241   3.471   1.551  0.5930 -0.3431  0.1212
 9341SOL    HW139482   4.219   3.482   1.458 -3.4232  0.1427  1.1225
 9341SOL    HW239483   4.236   3.376   1.562  3.4078 -0.5172 -0.1675
 9342SOL     OW39484   3.524   0.080  12.104 -0.1686  0.4626  0.0806
 9342SOL    HW139485   3.568   0.107  12.023 -1.3672  0.2685 -0.6354
 9342SOL    HW239486   3.603   0.054  12.151 -0.3575  0.0903  0.1884
 9343SOL     OW39487   4.163   0.083  14.865  0.1902 -0.3389 -0.2690
 9343SOL    HW139488   4.129   0.172  14.854 -2.9168 -1.2561  1.9763
 9343SOL    HW239489   4.116   0.041  14.794  1.9014 -1.7053 -0.5865
 9344SOL     OW39490   3.386   2.800   1.851 -0.6579 -0.4263 -0.8468
 9344SOL    HW139491   3.310   2.848   1.884 -0.0364 -0.1351  0.1454
 9344SOL    HW239492   3.357   2.722   1.803 -0.2399 -1.1134  0.0069
 9345SOL     OW39493   3.889   0.528  14.101  0.4570  0.2338 -0.1878
 9345SOL    HW139494   3.809   0.580  14.098  0.7108  0.6477  0.1055
 9345SOL    HW239495   3.911   0.532  14.195 -0.1770 -1.6996  0.0363
 9346SOL     OW39496   3.675   4.020  16.142  0.2654 -0.3679  0.2685
 9346SOL    HW139497   3.611   4.031  16.072 -2.8432  2.3196  3.5080
 9346SOL    HW239498   3.642   3.938  16.180  0.2067  0.1533  1.3555
 9347SOL     OW39499   4.191   3.552  16.945  0.8379 -0.0771 -0.0317
 9347SOL    HW139500   4.241   3.597  16.877 -2.7166 -0.1803 -2.6987
 9347SOL    HW239501   4.242   3.580  17.022  1.7880  0.7424 -0.9573
 9348SOL     OW39502   0.194   0.225   5.597  0.0572 -0.0483 -0.4653
 9348SOL    HW139503   0.186   0.314   5.563 -2.4011  0.2565  0.9087
 9348SOL    HW239504   0.193   0.224   5.692  2.1686  0.0247 -0.4594
 9349SOL     OW39505   1.066   2.633  15.002 -0.1844  0.4730 -0.3617
 9349SOL    HW139506   1.022   2.632  14.916 -1.5134 -0.4482  0.3347
 9349SOL    HW239507   1.148   2.585  14.990  0.7309  2.3185 -1.4730
 9350SOL     OW39508   1.546   0.805  11.909  0.0009 -0.2151 -0.3130
 9350SOL    HW139509   1.631   0.826  11.870  0.2835 -0.2052  0.3178
 9350SOL    HW239510   1.497   0.887  11.908  1.5012  0.6980  3.0783
 9351SOL     OW39511   4.550   2.735   4.157 -0.0653  0.6081  0.4647
 9351SOL    HW139512   4.573   2.827   4.168 -0.0953  0.4210  2.1169
 9351SOL    HW239513   4.631   2.693   4.127  1.5307  1.6624  3.3143
 9352SOL     OW39514   2.090   2.172   6.241 -0.3331 -0.6585 -0.0164
 9352SOL    HW139515   2.070   2.261   6.213 -1.3822 -1.2690 -1.1903
 9352SOL    HW239516   2.124   2.129   6.163 -3.1251 -0.6601 -1.2084
 9353SOL     OW39517   1.032   2.090   6.680 -0.0022  0.1685 -0.4109
 9353SOL    HW139518   1.090   2.025   6.719  0.1009  0.0307 -0.7911
 9353SOL    HW239519   1.068   2.172   6.714  1.5267 -1.0703  0.9627
 9354SOL     OW39520   2.974   0.925  15.565 -0.2154  0.4042 -0.0033
 9354SOL    HW139521   3.030   0.849  15.548  0.5606  1.1434 -0.7772
 9354SOL    HW239522   3.040   0.987  15.599  1.6020 -0.3735 -2.0810
 9355SOL     OW39523   1.347   0.532  12.039  1.1600 -0.7654 -0.5651
 9355SOL    HW139524   1.369   0.529  12.132  1.5697  0.2520 -0.6289
 9355SOL    HW239525   1.318   0.623  12.034 -2.3204 -1.7892  1.2935
 9356SOL     OW39526   0.116   3.999  17.607  0.4907 -0.3321 -0.2305
 9356SOL    HW139527   0.056   4.049  17.663 -0.7770 -0.1537 -1.7594
 9356SOL    HW239528   0.169   4.072  17.575 -0.8529  1.0976  0.8227
 9357SOL     OW39529   3.444   2.379  12.793  0.1286  0.1254  0.6775
 9357SOL    HW139530   3.383   2.315  12.756 -1.2549  0.6331  2.1287
 9357SOL    HW239531   3.478   2.321  12.862 -3.9561 -0.6781  2.0035
 9358SOL     OW39532   0.483   2.581   8.005  0.0765 -0.0371 -0.6114
 9358SOL    HW139533   0.478   2.486   8.000  3.3168 -0.3170  1.8950
 9358SOL    HW239534   0.570   2.593   8.043 -0.9726  2.0439  1.1296
 9359SOL     OW39535   4.036   3.551   4.636  0.2060 -0.0893  0.0165
 9359SOL    HW139536   3.985   3.613   4.688 -1.5559  0.1342 -1.9667
 9359SOL    HW239537   4.062   3.486   4.701  0.6324  1.3337  1.2885
 9360SOL     OW39538   3.545   2.811   7.413  0.1545  0.5130 -0.5772
 9360SOL    HW139539   3.467   2.759   7.392 -0.1274 -0.0100  1.7428
 9360SOL    HW239540   3.602   2.762   7.473  0.3484  1.7760  0.2719
 9361SOL     OW39541   0.332   4.615   0.477 -0.2943 -0.1906  0.2543
 9361SOL    HW139542   0.281   4.618   0.557 -0.0381 -0.7686  0.4395
 9361SOL    HW239543   0.388   4.539   0.493  0.6860  0.4236 -0.2319
 9362SOL     OW39544   3.941   0.567   9.480 -0.2849 -0.5257 -0.0798
 9362SOL    HW139545   4.025   0.587   9.522 -2.0896  3.7820  1.4895
 9362SOL    HW239546   3.958   0.498   9.416 -0.7027  2.4364 -3.4020
 9363SOL     OW39547   0.638   3.117  15.329 -0.2706  0.0153 -0.2273
 9363SOL    HW139548   0.610   3.066  15.405  0.2105 -0.0947 -0.1238
 9363SOL    HW239549   0.571   3.108  15.261  1.3827 -0.9991 -1.7421
 9364SOL     OW39550   3.230   4.655  16.515 -0.2504  0.5121 -0.3161
 9364SOL    HW139551   3.320   4.630  16.538 -0.5596  0.0710  0.4170
 9364SOL    HW239552   3.224   4.611  16.430 -1.6612  2.0876 -1.0421
 9365SOL     OW39553   1.203   4.204   4.288 -0.8560 -0.3806 -0.1715
 9365SOL    HW139554   1.177   4.274   4.228 -1.8219  1.2106  2.1005
 9365SOL    HW239555   1.148   4.227   4.363  0.2437 -0.5962  0.6952
 9366SOL     OW39556   2.729   1.157   3.965 -0.2599 -0.1245 -0.3391
 9366SOL    HW139557   2.716   1.100   3.890 -2.7322  2.2311 -1.6869
 9366SOL    HW239558   2.701   1.238   3.923 -2.1818 -0.0466  1.1271
 9367SOL     OW39559   0.318   1.953   1.974  0.7770 -0.3297 -0.2914
 9367SOL    HW139560   0.408   1.951   2.007 -0.0845 -1.4984  2.0221
 9367SOL    HW239561   0.317   1.879   1.912  1.4122 -0.0329 -0.6554
 9368SOL     OW39562   3.502   1.413   7.609  0.1029  0.0078 -0.1391
 9368SOL    HW139563   3.477   1.483   7.549  1.0170  0.2407 -0.2584
 9368SOL    HW239564   3.506   1.465   7.688 -2.7976  0.9587 -0.6488
 9369SOL     OW39565   4.441   4.445  12.639 -0.4524  0.3280  0.3538
 9369SOL    HW139566   4.389   4.366  12.621 -0.5200  0.9094 -1.9854
 9369SOL    HW239567   4.508   4.427  12.573  0.8577  1.3809  1.4128
 9370SOL     OW39568   3.722   2.216   2.564 -0.2195  0.5162 -0.1845
 9370SOL    HW139569   3.805   2.223   2.518 -0.4007 -0.9813 -0.7688
 9370SOL    HW239570   3.748   2.246   2.650 -0.1880  0.8935 -0.3260
 9371SOL     OW39571   1.395   2.375   8.341 -0.1154 -0.1194  0.0613
 9371SOL    HW139572   1.489   2.365   8.358  0.2659  0.8756 -1.4703
 9371SOL    HW239573   1.381   2.332   8.257  0.3777  1.9191 -1.0749
 9372SOL     OW39574   2.500   2.259   4.274 -0.4472 -0.3595 -0.3708
 9372SOL    HW139575   2.428   2.234   4.215 -1.3860  3.5856 -0.9094
 9372SOL    HW239576   2.519   2.176   4.317 -2.0575  0.4566  1.9454
 9373SOL     OW39577   1.717   0.816   3.071 -0.4975  0.2928 -0.4231
 9373SOL    HW139578   1.659   0.741   3.085 -0.0611  0.2257  1.0037
 9373SOL    HW239579   1.795   0.775   3.108  1.7553  2.1849 -3.1608
 9374SOL     OW39580   4.078   0.353   3.476 -0.0595  0.1785  0.1937
 9374SOL    HW139581   4.106   0.296   3.405  0.0458 -0.1666  0.5157
 9374SOL    HW239582   4.012   0.304   3.524  0.0829 -1.8788 -1.7548
 9375SOL     OW39583   1.958   4.713  12.137  0.4034 -0.0958  0.5124
 9375SOL    HW139584   2.021   0.042  12.088  1.1187 -1.1188  0.3312
 9375SOL    HW239585   1.916   0.062  12.182 -0.6443 -0.5541  0.2612
 9376SOL     OW39586   2.153   4.268   7.535  0.4732  0.2143  0.1704
 9376SOL    HW139587   2.120   4.357   7.548  0.7611  0.4982 -1.0346
 9376SOL    HW239588   2.204   4.284   7.455 -1.6217 -0.9362 -1.3995
 9377SOL     OW39589   0.194   0.441  13.738 -0.2609  0.4275  0.0182
 9377SOL    HW139590   0.123   0.435  13.803  2.9124 -3.6011  3.1473
 9377SOL    HW239591   0.222   0.532  13.740 -0.8656  0.6238 -0.5158
 9378SOL     OW39592   4.226   0.709   2.733  0.1185 -0.6449  0.7604
 9378SOL    HW139593   4.134   0.734   2.743  0.3516  0.1878  0.8230
 9378SOL    HW239594   4.261   0.797   2.728 -0.6478 -0.3884 -0.0185
 9379SOL     OW39595   0.501   1.309   4.702 -0.3537  0.1894 -0.6021
 9379SOL    HW139596   0.492   1.288   4.609  2.6001 -2.2223 -0.3410
 9379SOL    HW239597   0.555   1.387   4.715  0.1462 -0.2567  0.0267
 9380SOL     OW39598   2.700   2.783   9.701  0.2037  0.0823 -0.3363
 9380SOL    HW139599   2.674   2.803   9.791  2.5532 -0.1899  0.4023
 9380SOL    HW239600   2.744   2.863   9.672  0.7188  0.4180  1.3546
 9381SOL     OW39601   0.986   1.066   5.322 -0.1549 -0.2310 -0.0715
 9381SOL    HW139602   0.933   1.025   5.390  1.2998 -1.4564  0.3249
 9381SOL    HW239603   0.922   1.051   5.252  0.0186 -1.4909  0.0430
 9382SOL     OW39604   2.792   3.209   2.116 -0.3046 -0.0758  0.4045
 9382SOL    HW139605   2.716   3.210   2.174  0.1573  1.1454  1.0039
 9382SOL    HW239606   2.766   3.270   2.047 -0.4446  0.5755  1.0341
 9383SOL     OW39607   1.242   3.072  14.599  0.0895  0.0548  0.5144
 9383SOL    HW139608   1.187   3.100  14.525  0.9500 -1.2111 -0.6057
 9383SOL    HW239609   1.273   2.989  14.563  1.8837  1.3904 -0.9657
 9384SOL     OW39610   2.320   4.432   9.257 -0.2025  0.1533  0.9819
 9384SOL    HW139611   2.303   4.341   9.231 -1.2267  0.9327 -1.1205
 9384SOL    HW239612   2.247   4.451   9.316  0.9961 -0.3210  2.6065
 9385SOL     OW39613   1.088   3.449  11.205  0.1595 -0.2119 -0.2458
 9385SOL    HW139614   1.068   3.459  11.112 -0.8290  2.5262  0.2579
 9385SOL    HW239615   1.156   3.382  11.206  0.2828 -0.1088 -2.0985
 9386SOL     OW39616   4.671   0.760  16.695  0.0940 -0.3276  0.3446
 9386SOL    HW139617   4.645   0.764  16.603 -0.7086  1.6436  0.6483
 9386SOL    HW239618   4.669   0.850  16.727 -0.9923  0.0833 -0.8684
 9387SOL     OW39619   0.164   3.502   8.860 -0.3135 -0.4723 -0.2091
 9387SOL    HW139620   0.259   3.507   8.844 -0.2534 -0.5721  0.1116
 9387SOL    HW239621   0.165   3.460   8.946  1.9320 -0.9781 -0.4685
 9388SOL     OW39622   2.239   2.472  13.122 -0.1464  0.5569 -0.5720
 9388SOL    HW139623   2.275   2.392  13.160  0.4524  1.6517  1.1731
 9388SOL    HW239624   2.147   2.447  13.111  0.0722  0.3594 -1.9958
 9389SOL     OW39625   0.763   0.916  17.481 -0.5477 -0.0383  0.0193
 9389SOL    HW139626   0.692   0.874  17.529  0.9923 -0.5443  1.8892
 9389SOL    HW239627   0.720   0.998  17.458 -0.4348 -0.2323 -0.8660
 9390SOL     OW39628   2.137   4.032  14.741  0.2471  0.1401  0.4176
 9390SOL    HW139629   2.067   4.065  14.798 -0.6142 -1.0284  0.0421
 9390SOL    HW239630   2.209   4.092  14.759  0.8704  1.0962 -5.1922
 9391SOL     OW39631   2.621   0.241   8.699  0.0346  0.1877  0.1750
 9391SOL    HW139632   2.644   0.264   8.609 -1.3364  1.2143  0.0964
 9391SOL    HW239633   2.617   0.327   8.739 -1.2070  0.0648  0.3000
 9392SOL     OW39634   1.328   4.155   3.354  0.0911 -0.6972  0.0650
 9392SOL    HW139635   1.369   4.182   3.437  0.3453  0.6579 -0.5032
 9392SOL    HW239636   1.327   4.237   3.305 -4.1490 -1.6254 -1.3766
 9393SOL     OW39637   2.983   3.472  17.392 -0.1597  0.0472 -0.5660
 9393SOL    HW139638   3.036   3.394  17.379  0.1519  0.3149 -0.9217
 9393SOL    HW239639   2.967   3.492  17.300  1.1785  0.6826 -0.6756
 9394SOL     OW39640   3.669   3.296   1.843  0.1415 -0.4555 -0.5854
 9394SOL    HW139641   3.720   3.377   1.844  0.5745 -0.7154 -1.9709
 9394SOL    HW239642   3.724   3.241   1.787  1.9337 -0.4965  1.2055
 9395SOL     OW39643   4.408   1.495  16.503  0.0964  0.1510 -0.1410
 9395SOL    HW139644   4.374   1.551  16.432  0.0997 -1.2281 -1.2338
 9395SOL    HW239645   4.327   1.463  16.541  1.1334 -0.9164  1.1672
 9396SOL     OW39646   0.188   4.679   3.899  0.3837 -0.3501 -0.2945
 9396SOL    HW139647   0.241   4.699   3.822  1.4478  2.3687  1.1368
 9396SOL    HW239648   0.156   4.593   3.872 -0.8275 -0.1924  0.6310
 9397SOL     OW39649   0.960   1.026  10.227  0.4118  0.1995  0.9183
 9397SOL    HW139650   0.965   0.979  10.143 -0.6190 -0.8218  1.4265
 9397SOL    HW239651   0.928   1.107  10.189  1.4889 -1.4607 -3.6111
 9398SOL     OW39652   1.986   0.584   5.478 -0.6138  0.6149  0.2347
 9398SOL    HW139653   1.952   0.499   5.508 -0.7224  0.3302 -0.7032
 9398SOL    HW239654   1.993   0.575   5.383  0.9477  1.2414  0.3024
 9399SOL     OW39655   0.396   2.383  12.860  0.1515 -0.1004 -0.4912
 9399SOL    HW139656   0.482   2.340  12.854 -1.0130 -2.2979 -1.5231
 9399SOL    HW239657   0.345   2.308  12.891  1.2892 -1.7213 -2.5031
 9400SOL     OW39658   2.293   1.725   3.551 -0.2941 -0.1022  0.3225
 9400SOL    HW139659   2.266   1.803   3.501 -0.5547 -1.0207 -0.9788
 9400SOL    HW239660   2.374   1.756   3.590 -0.3881  0.1872  0.2888
 9401SOL     OW39661   3.145   2.814   4.393 -1.0092 -0.1475  0.0817
 9401SOL    HW139662   3.222   2.795   4.340 -1.9402 -0.3648 -1.2104
 9401SOL    HW239663   3.125   2.726   4.425 -1.2653 -0.2933 -0.4618
 9402SOL     OW39664   4.005   1.049  16.173  0.1975  0.4374 -0.2214
 9402SOL    HW139665   3.929   1.029  16.228  0.4623 -0.8185 -0.3289
 9402SOL    HW239666   3.974   1.131  16.133 -0.2150  0.6510  0.5386
 9403SOL     OW39667   1.199   3.427  17.436 -0.2047  0.1547 -0.6366
 9403SOL    HW139668   1.240   3.344  17.413  0.6343  0.3356  0.2402
 9403SOL    HW239669   1.274   3.485  17.430 -0.6224  0.6284 -1.2054
 9404SOL     OW39670   4.210   1.321   3.828 -0.2092  0.5024  0.2108
 9404SOL    HW139671   4.180   1.374   3.754 -0.7256 -0.0197  0.0454
 9404SOL    HW239672   4.187   1.233   3.798  2.0860 -0.6613  1.8004
 9405SOL     OW39673   0.700   0.154   8.278  0.0485  0.6942  0.3387
 9405SOL    HW139674   0.709   0.061   8.299 -0.8484  0.3748 -0.6740
 9405SOL    HW239675   0.779   0.174   8.227  0.6549 -1.7825  0.3398
 9406SOL     OW39676   3.967   2.564   1.762  0.0231  0.2200  0.0657
 9406SOL    HW139677   4.042   2.511   1.791  1.8221  1.4437 -2.3516
 9406SOL    HW239678   3.923   2.504   1.702  2.7848 -0.0179 -1.7668
 9407SOL     OW39679   3.688   2.239   3.604 -0.4328  0.2067 -0.9104
 9407SOL    HW139680   3.657   2.307   3.544 -1.1066 -0.3268 -1.1673
 9407SOL    HW239681   3.631   2.253   3.680 -0.4979  1.0013 -1.1061
 9408SOL     OW39682   1.282   1.776   9.783 -0.2676 -0.0325  0.3931
 9408SOL    HW139683   1.235   1.727   9.851 -0.0855 -0.2126  0.3902
 9408SOL    HW239684   1.286   1.864   9.821  1.0407  0.0586  0.0334
 9409SOL     OW39685   4.047   0.461   6.885 -0.2295  0.2385  0.0086
 9409SOL    HW139686   4.010   0.373   6.892 -0.4490  0.4849  2.1744
 9409SOL    HW239687   3.967   0.511   6.870 -0.8663 -0.7661  0.0888
 9410SOL     OW39688   0.971   1.099   2.835 -0.1247 -0.5666  0.4270
 9410SOL    HW139689   0.944   1.026   2.779  0.7273  0.1479 -0.8998
 9410SOL    HW239690   0.933   1.070   2.918  0.4670 -1.5342  0.3653
 9411SOL     OW39691   0.766   3.274   0.574 -0.2567 -0.5575 -0.2626
 9411SOL    HW139692   0.832   3.307   0.512 -1.6568 -1.8057 -2.4376
 9411SOL    HW239693   0.756   3.343   0.639 -3.3317 -1.0065 -0.2707
 9412SOL     OW39694   0.995   2.670   8.877  0.3929 -0.4890 -0.0883
 9412SOL    HW139695   1.009   2.607   8.806  0.2301 -0.5643 -0.0545
 9412SOL    HW239696   0.922   2.720   8.839  1.2152 -1.2554 -2.6989
 9413SOL     OW39697   4.405   1.090  13.897  0.7650  0.0841 -0.1939
 9413SOL    HW139698   4.393   1.108  13.804 -0.3882  2.1352  0.3387
 9413SOL    HW239699   4.401   1.182  13.924  0.7830 -0.2856  1.0829
 9414SOL     OW39700   1.407   0.960   7.896 -0.6733 -0.2026  0.0418
 9414SOL    HW139701   1.410   0.864   7.899 -2.7878 -0.2435  0.8931
 9414SOL    HW239702   1.487   0.976   7.846 -0.0919 -0.7036  0.8006
 9415SOL     OW39703   1.163   0.525   1.669  0.4076  0.2694  0.0815
 9415SOL    HW139704   1.169   0.582   1.745 -2.1301 -1.0961  1.3180
 9415SOL    HW239705   1.236   0.565   1.621 -2.0619  2.2031 -2.0795
 9416SOL     OW39706   2.599   1.856   3.339 -0.2129  0.0985 -0.2950
 9416SOL    HW139707   2.542   1.786   3.308 -0.6380  0.3253 -0.0382
 9416SOL    HW239708   2.558   1.925   3.287 -0.7175 -0.3506 -0.4827
 9417SOL     OW39709   2.099   0.917   2.988 -0.1290  0.1380 -0.7451
 9417SOL    HW139710   2.066   0.879   3.070 -0.1498 -0.1730 -0.8998
 9417SOL    HW239711   2.091   0.843   2.928  1.6350 -1.5882  1.1417
 9418SOL     OW39712   4.293   1.681   2.736  0.2113  0.0751 -0.8024
 9418SOL    HW139713   4.303   1.723   2.651  0.9043  2.5295  0.4950
 9418SOL    HW239714   4.387   1.691   2.753 -0.3789  0.2175  2.4496
 9419SOL     OW39715   0.401   4.309   3.992 -0.3082 -0.5843  0.2935
 9419SOL    HW139716   0.420   4.234   3.935  1.1833  0.0957 -0.1069
 9419SOL    HW239717   0.311   4.290   4.017 -0.1528  0.2254  1.4842
 9420SOL     OW39718   2.877   1.463   7.504  0.0791 -0.0404  0.4047
 9420SOL    HW139719   2.901   1.393   7.443 -1.7118 -0.5701  0.3021
 9420SOL    HW239720   2.961   1.507   7.515 -0.1637  0.7691 -1.0569
 9421SOL     OW39721   3.291   3.410   8.696 -0.2343 -0.4501  0.4710
 9421SOL    HW139722   3.283   3.383   8.787 -1.1396  3.6115  1.6274
 9421SOL    HW239723   3.242   3.340   8.651 -1.6742  1.2179 -0.5818
 9422SOL     OW39724   4.521   4.112   7.051 -0.6258  0.6177 -0.0683
 9422SOL    HW139725   4.465   4.165   6.995  0.6069  1.3226 -0.6479
 9422SOL    HW239726   4.490   4.022   7.037 -0.7188  0.7619 -0.8275
 9423SOL     OW39727   2.351   0.506   1.113 -0.1395 -0.6883  0.0386
 9423SOL    HW139728   2.316   0.418   1.121 -1.7123 -0.3206 -2.7084
 9423SOL    HW239729   2.391   0.495   1.027  0.5736 -0.8275  0.3911
 9424SOL     OW39730   1.100   3.143   1.576  0.1841  0.4071 -0.0432
 9424SOL    HW139731   1.085   3.055   1.542  0.7071  0.6750 -0.9617
 9424SOL    HW239732   1.011   3.173   1.597  0.1982  0.7370 -0.4636
 9425SOL     OW39733   3.518   3.119   6.850  0.2312 -0.1003 -0.0533
 9425SOL    HW139734   3.468   3.183   6.901 -3.5088 -2.1681 -1.1272
 9425SOL    HW239735   3.441   3.078   6.810  0.5319 -0.0693 -0.6640
 9426SOL     OW39736   0.387   1.953   0.890  0.1097 -0.5754  0.0183
 9426SOL    HW139737   0.466   1.929   0.939 -0.7354  0.4837  1.9018
 9426SOL    HW239738   0.373   1.879   0.831 -1.9044 -0.7946  0.7628
 9427SOL     OW39739   4.707   3.085   5.000  0.0203 -0.1199  0.2275
 9427SOL    HW139740   0.014   2.998   4.973  0.1485  0.3055 -1.0170
 9427SOL    HW239741   4.635   3.087   4.936 -0.7553 -1.4617  1.0601
 9428SOL     OW39742   1.985   3.067   6.752 -0.7212 -0.4994  0.3259
 9428SOL    HW139743   1.925   3.087   6.823 -1.1496 -0.7007  0.0209
 9428SOL    HW239744   2.020   3.153   6.728  0.3972 -1.0257  0.0624
 9429SOL     OW39745   4.463   4.720   2.544 -0.1898  0.1384  0.4160
 9429SOL    HW139746   4.458   0.042   2.628  1.2184 -1.2333  1.2583
 9429SOL    HW239747   4.392   4.656   2.551 -0.6514  0.8503  2.4731
 9430SOL     OW39748   0.175   3.255   2.944  0.0528  0.1361 -0.0467
 9430SOL    HW139749   0.168   3.205   2.863 -2.4122 -0.1848  0.3644
 9430SOL    HW239750   0.174   3.344   2.911 -0.1795  0.2991  0.3974
 9431SOL     OW39751   3.083   2.071   6.393  0.0087 -0.0953 -0.2797
 9431SOL    HW139752   2.999   2.056   6.436  0.5711 -0.6407  0.6278
 9431SOL    HW239753   3.071   2.021   6.312  0.5232 -1.6008  0.5806
 9432SOL     OW39754   1.342   0.744  14.913  0.2056 -0.2281 -0.2325
 9432SOL    HW139755   1.395   0.813  14.873 -1.5211  0.4015 -1.4241
 9432SOL    HW239756   1.350   0.676  14.846  0.1045  0.1391 -0.6176
 9433SOL     OW39757   3.356   1.703  14.898  0.3040  0.4643  0.2839
 9433SOL    HW139758   3.311   1.621  14.878  0.8579  0.1635  0.2757
 9433SOL    HW239759   3.407   1.687  14.978  1.3279  0.8180 -0.3009
 9434SOL     OW39760   4.151   0.898   2.118  0.0140  0.4225 -0.2341
 9434SOL    HW139761   4.160   0.821   2.062  0.8893  1.9646 -2.2275
 9434SOL    HW239762   4.230   0.949   2.096 -0.3729  1.0023 -0.2676
 9435SOL     OW39763   2.444   0.639   6.428 -0.1640 -0.4689 -0.1085
 9435SOL    HW139764   2.383   0.686   6.485 -2.0082 -1.6705 -1.0873
 9435SOL    HW239765   2.475   0.715   6.379 -2.5506 -0.6218 -1.8208
 9436SOL     OW39766   2.312   2.806   8.529  0.1043 -0.2932 -0.3442
 9436SOL    HW139767   2.274   2.868   8.468 -0.9444 -0.1401  0.4724
 9436SOL    HW239768   2.236   2.772   8.576  0.8539  0.1421  1.2035
 9437SOL     OW39769   3.104   2.948   8.629 -0.1630 -0.8796  0.6998
 9437SOL    HW139770   3.033   2.920   8.686 -1.2291  1.4344  0.5041
 9437SOL    HW239771   3.072   2.903   8.551 -1.9285 -0.7503  1.3432
 9438SOL     OW39772   1.103   0.518  10.512 -0.0853  0.3125 -0.0809
 9438SOL    HW139773   1.028   0.507  10.453 -2.4550  0.7338  2.8867
 9438SOL    HW239774   1.135   0.428  10.502  1.1208  0.6392  0.8090
 9439SOL     OW39775   4.445   1.308   6.099  0.2162  0.6247 -0.5714
 9439SOL    HW139776   4.422   1.400   6.091 -0.5392  0.4922  0.0631
 9439SOL    HW239777   4.439   1.281   6.008 -1.0919  1.2604 -0.6689
 9440SOL     OW39778   0.645   3.445   6.094 -1.0231 -0.3069 -0.1513
 9440SOL    HW139779   0.692   3.464   6.175 -1.5399  0.7201 -0.0880
 9440SOL    HW239780   0.683   3.504   6.028 -4.3636 -2.5961 -4.1020
 9441SOL     OW39781   0.935   1.521  12.890  0.5958 -0.3206 -0.1064
 9441SOL    HW139782   0.982   1.497  12.810  0.4699  1.4306 -0.6942
 9441SOL    HW239783   0.957   1.459  12.959  3.2599  2.0658  1.1835
 9442SOL     OW39784   2.234   1.008   3.782  0.1217  0.1281  0.0576
 9442SOL    HW139785   2.295   1.028   3.854 -0.4993  4.6074 -0.6741
 9442SOL    HW239786   2.153   1.048   3.811  1.0525  1.6692  0.5614
 9443SOL     OW39787   1.604   3.400   9.512  0.5743  0.0597 -0.2245
 9443SOL    HW139788   1.626   3.336   9.445 -2.5574 -2.5346  1.2100
 9443SOL    HW239789   1.690   3.442   9.521  1.8422 -2.5980  0.0811
 9444SOL     OW39790   0.353   2.963   8.892 -0.1518  0.4643  0.3483
 9444SOL    HW139791   0.287   2.895   8.904  0.5414 -0.1161  0.8499
 9444SOL    HW239792   0.331   2.989   8.802 -0.2251 -0.4011  0.1159
 9445SOL     OW39793   3.548   3.311   8.828  0.6113  0.2887  0.3364
 9445SOL    HW139794   3.508   3.294   8.914 -1.3099  0.9013 -0.4497
 9445SOL    HW239795   3.496   3.386   8.801  0.2449  0.2690  0.9763
 9446SOL     OW39796   3.509   0.787  10.014  0.0464  0.3300 -0.2213
 9446SOL    HW139797   3.438   0.754   9.960  0.5877 -0.6523 -0.3369
 9446SOL    HW239798   3.554   0.705  10.036  0.2987  1.1052  2.1651
 9447SOL     OW39799   2.856   3.133  13.476 -0.2547  0.1230  0.1029
 9447SOL    HW139800   2.931   3.120  13.535 -0.6484 -0.4018  0.4823
 9447SOL    HW239801   2.870   3.081  13.398  0.9232 -1.6928  1.5191
 9448SOL     OW39802   0.245   4.039   3.303  0.0956 -0.4398  0.2161
 9448SOL    HW139803   0.326   4.020   3.257  0.5363  1.9101  0.0356
 9448SOL    HW239804   0.251   3.968   3.367  1.4831  0.7450  1.4204
 9449SOL     OW39805   0.947   2.668  14.736 -0.5885 -0.3960  0.3837
 9449SOL    HW139806   1.010   2.612  14.691 -1.0054 -0.8670  0.3811
 9449SOL    HW239807   0.882   2.673  14.666 -0.2938  1.7926  0.2525
 9450SOL     OW39808   0.085   4.583  10.112 -0.4836  0.3073 -0.1573
 9450SOL    HW139809   0.176   4.597  10.138 -0.0585  1.1359 -2.0463
 9450SOL    HW239810   0.054   4.559  10.199  0.9262 -0.2616  0.1931
 9451SOL     OW39811   2.849   3.088   5.732 -0.3849 -0.8279  0.1928
 9451SOL    HW139812   2.899   3.135   5.798 -0.3534  0.2728 -0.6109
 9451SOL    HW239813   2.919   3.031   5.700  1.3671  0.8382  1.1402
 9452SOL     OW39814   1.904   0.882  15.038  0.0878  0.1912 -0.0751
 9452SOL    HW139815   1.932   0.973  15.031  1.8564 -0.3054  0.3682
 9452SOL    HW239816   1.877   0.857  14.950 -0.4030 -1.4498  0.5461
 9453SOL     OW39817   3.410   1.241   0.798 -0.0040 -0.2384  0.6140
 9453SOL    HW139818   3.487   1.191   0.772  1.3269  2.2934 -0.3754
 9453SOL    HW239819   3.445   1.330   0.784  1.3126 -0.8618 -0.0617
 9454SOL     OW39820   2.767   1.170   8.604 -0.3803  0.0319  0.1360
 9454SOL    HW139821   2.804   1.173   8.693  0.8713  1.3084 -0.4353
 9454SOL    HW239822   2.754   1.263   8.589 -0.0427  0.2916  1.4603
 9455SOL     OW39823   1.945   2.784   5.854  0.4828 -0.6173  0.1809
 9455SOL    HW139824   2.029   2.802   5.812  0.6585 -1.7134  0.0583
 9455SOL    HW239825   1.926   2.856   5.914 -0.5374  0.1985 -1.1242
 9456SOL     OW39826   4.623   2.901   8.067  0.0921  0.5094 -0.7411
 9456SOL    HW139827   4.587   2.984   8.100 -1.9553 -0.4823 -0.4745
 9456SOL    HW239828   4.653   2.919   7.978 -3.3048  1.8750 -1.5967
 9457SOL     OW39829   0.609   4.199   6.126  0.4614  0.2762 -0.9476
 9457SOL    HW139830   0.655   4.265   6.179 -0.4062  2.0008 -2.3302
 9457SOL    HW239831   0.682   4.157   6.080  0.7218  0.9715 -1.1760
 9458SOL     OW39832   2.985   0.835  10.676  0.0997 -0.1496 -0.2875
 9458SOL    HW139833   2.994   0.918  10.722 -0.4894  0.1508 -0.7053
 9458SOL    HW239834   2.924   0.868  10.610 -1.5602  0.0924  1.3578
 9459SOL     OW39835   2.153   3.148   0.187 -0.0179 -0.0387 -0.6325
 9459SOL    HW139836   2.068   3.177   0.222  1.4071 -0.1872  2.8950
 9459SOL    HW239837   2.157   3.055   0.209 -0.1582  0.2468  0.5965
 9460SOL     OW39838   1.207   0.057   7.945 -0.4523  0.2290 -0.1996
 9460SOL    HW139839   1.229   0.148   7.964  1.9359 -0.0873 -1.4754
 9460SOL    HW239840   1.200   0.063   7.850 -1.0661 -2.4813 -0.3518
 9461SOL     OW39841   4.563   1.766   2.742 -0.0063  0.3904  0.0029
 9461SOL    HW139842   4.639   1.803   2.786  0.2097 -0.4365  0.3321
 9461SOL    HW239843   4.600   1.695   2.689 -1.5478 -2.0170  2.1843
 9462SOL     OW39844   1.807   4.649  13.502 -0.3492  0.5657 -0.5814
 9462SOL    HW139845   1.838   4.597  13.576  0.4903 -1.5730 -2.4080
 9462SOL    HW239846   1.718   4.667  13.531 -0.3400 -1.8118  0.9684
 9463SOL     OW39847   3.514   2.839  16.224  0.1669  0.0809  0.3031
 9463SOL    HW139848   3.473   2.785  16.156  2.7193 -2.7236  0.9883
 9463SOL    HW239849   3.509   2.926  16.185  0.3926 -1.3759 -3.0051
 9464SOL     OW39850   4.425   0.655   7.238  0.1285  0.1698  0.1744
 9464SOL    HW139851   4.359   0.724   7.234  0.2658  0.2331 -1.1192
 9464SOL    HW239852   4.382   0.587   7.186  1.4566 -1.4535  1.2055
 9465SOL     OW39853   0.410   3.679   7.976 -0.6528  0.0241 -0.0254
 9465SOL    HW139854   0.499   3.698   8.003 -0.8587  0.9147  0.0253
 9465SOL    HW239855   0.362   3.718   8.049  0.4633  1.0151  0.1653
 9466SOL     OW39856   4.608   2.716   1.024  0.3497 -0.6506 -0.1105
 9466SOL    HW139857   4.690   2.753   0.990  1.3826 -1.8873  1.0333
 9466SOL    HW239858   4.564   2.686   0.945 -0.9807 -0.4162  0.5373
 9467SOL     OW39859   2.278   3.183   3.276 -0.0842  1.1537  0.0087
 9467SOL    HW139860   2.322   3.246   3.218 -1.5666  2.1476 -0.0558
 9467SOL    HW239861   2.279   3.224   3.362  2.2121 -1.5084  1.2461
 9468SOL     OW39862   1.053   2.911   4.244 -0.2830  0.9924  0.2488
 9468SOL    HW139863   1.134   2.917   4.194 -0.6497 -1.3147 -0.6400
 9468SOL    HW239864   1.080   2.833   4.293  0.0071 -0.0975 -1.6738
 9469SOL     OW39865   2.558   0.817   9.584 -0.9813 -0.4981 -0.0109
 9469SOL    HW139866   2.532   0.893   9.531  0.8904 -1.0303 -1.7060
 9469SOL    HW239867   2.530   0.745   9.528  2.3259 -1.7471 -0.0720
 9470SOL     OW39868   4.633   3.719   0.811  0.1047  0.1733 -0.7074
 9470SOL    HW139869   4.656   3.631   0.781 -0.7824  0.0325 -0.9664
 9470SOL    HW239870   4.722   3.753   0.808 -1.2664  3.9127  0.7828
 9471SOL     OW39871   2.156   2.424   2.884 -0.1587 -0.1878 -0.1705
 9471SOL    HW139872   2.097   2.466   2.822  0.5834  1.1614  0.0287
 9471SOL    HW239873   2.149   2.332   2.861 -1.3147 -0.4446  1.2243
 9472SOL     OW39874   3.486   4.630   3.244  0.5051  0.0562  0.3268
 9472SOL    HW139875   3.524   4.616   3.158  0.5727 -0.9142  0.5194
 9472SOL    HW239876   3.489   4.540   3.277  1.4359  0.1302  0.4269
 9473SOL     OW39877   2.131   1.340  15.675  0.2560 -0.5261  0.0465
 9473SOL    HW139878   2.083   1.380  15.603 -2.7549 -2.4468  1.0177
 9473SOL    HW239879   2.188   1.286  15.620  0.4905 -0.3867  0.1523
 9474SOL     OW39880   3.398   4.567   7.720 -0.4404  0.4078 -0.1701
 9474SOL    HW139881   3.482   4.589   7.680 -0.1231  0.6481  0.6251
 9474SOL    HW239882   3.397   4.471   7.722  1.6413  0.3876  0.5801
 9475SOL     OW39883   1.826   4.197  15.717 -0.6662  0.6567  0.7490
 9475SOL    HW139884   1.816   4.106  15.745  1.2669 -0.5857 -2.6007
 9475SOL    HW239885   1.804   4.244  15.798  0.8053  1.7820  0.4883
 9476SOL     OW39886   4.124   2.770  11.126  0.2314  0.2220 -0.4235
 9476SOL    HW139887   4.153   2.685  11.160  0.5575  0.7723  0.6646
 9476SOL    HW239888   4.058   2.777  11.196  1.2097  0.3901  0.4824
 9477SOL     OW39889   4.266   1.392   2.735 -0.4802 -0.6346 -0.0479
 9477SOL    HW139890   4.289   1.480   2.763 -1.2276 -0.7726  0.9970
 9477SOL    HW239891   4.211   1.361   2.807  1.1794 -0.5064  1.2688
 9478SOL     OW39892   3.397   4.076   6.689 -0.2934  0.9224 -0.0795
 9478SOL    HW139893   3.382   4.147   6.752 -1.3417  1.5846 -1.0750
 9478SOL    HW239894   3.444   4.012   6.742  1.2188 -1.6356 -4.5361
 9479SOL     OW39895   1.679   1.431  10.710 -0.2170 -0.5208 -0.7432
 9479SOL    HW139896   1.683   1.439  10.806  0.7288  0.6474 -0.8834
 9479SOL    HW239897   1.584   1.424  10.700 -0.3377  1.6835 -1.1608
 9480SOL     OW39898   0.385   4.254   6.331  0.7237 -0.2835  0.0502
 9480SOL    HW139899   0.405   4.313   6.258  1.1041  0.5894  0.8631
 9480SOL    HW239900   0.425   4.179   6.287 -0.5312 -0.0361 -1.4886
 9481SOL     OW39901   0.193   4.514  17.582  0.0228  0.8218 -0.3976
 9481SOL    HW139902   0.206   4.604  17.612 -1.2821  0.5824  0.9028
 9481SOL    HW239903   0.121   4.491  17.642  1.1542  0.9922  1.0361
 9482SOL     OW39904   3.693   4.332   4.913 -0.0729 -0.1196  0.5961
 9482SOL    HW139905   3.687   4.242   4.881  0.3468  0.3846 -0.8556
 9482SOL    HW239906   3.625   4.372   4.859 -1.0089  0.3704  2.1230
 9483SOL     OW39907   2.627   3.674   8.309 -0.5101  0.0335 -0.6518
 9483SOL    HW139908   2.689   3.736   8.347  0.3949 -1.6058  0.5382
 9483SOL    HW239909   2.657   3.688   8.219  1.8150  1.2250  0.3047
 9484SOL     OW39910   1.770   2.351   4.505  0.1017 -0.9758  0.2780
 9484SOL    HW139911   1.816   2.367   4.423 -1.1225 -0.5936 -0.3305
 9484SOL    HW239912   1.692   2.405   4.496 -0.3105 -1.7942 -0.9722
 9485SOL     OW39913   2.837   0.931  10.434  0.2116 -0.4907 -0.0092
 9485SOL    HW139914   2.789   0.911  10.354 -0.9601  0.7742  0.3793
 9485SOL    HW239915   2.928   0.925  10.404 -0.7552 -0.6605 -2.8844
 9486SOL     OW39916   3.510   0.234   1.073  0.5137  0.2709  0.0974
 9486SOL    HW139917   3.502   0.324   1.103 -0.3829  0.4691 -0.7471
 9486SOL    HW239918   3.573   0.242   1.002 -0.3551  4.4290 -0.1764
 9487SOL     OW39919   1.121   2.381   4.423 -0.2182  0.7888  0.5005
 9487SOL    HW139920   1.059   2.409   4.355  0.5670  1.4479  0.0649
 9487SOL    HW239921   1.138   2.471   4.449 -2.4763  1.0951  0.9357
 9488SOL     OW39922   1.578   4.024   5.632 -0.3574 -0.5837 -0.4286
 9488SOL    HW139923   1.488   4.018   5.600 -0.3474 -1.9827 -0.2071
 9488SOL    HW239924   1.613   3.938   5.606  1.0064 -0.2546  0.3210
 9489SOL     OW39925   1.608   1.539   8.137  0.1355 -0.0867 -0.4798
 9489SOL    HW139926   1.587   1.591   8.059  0.7165 -0.4654 -0.8817
 9489SOL    HW239927   1.540   1.569   8.199  0.7601 -1.2776  0.7731
 9490SOL     OW39928   1.452   3.706  16.382 -0.2794  0.0773  0.4098
 9490SOL    HW139929   1.542   3.734  16.394 -0.1332 -0.0059 -0.4575
 9490SOL    HW239930   1.404   3.722  16.463  0.9916  0.5836  1.0611
 9491SOL     OW39931   4.691   1.552   6.208 -0.2145  0.3279 -0.6731
 9491SOL    HW139932   4.691   1.586   6.118  1.2071  0.5620 -0.5797
 9491SOL    HW239933   4.684   1.459   6.184  2.1165 -0.1412  0.4918
 9492SOL     OW39934   4.295   2.355  15.388 -1.0455  0.0602 -0.2644
 9492SOL    HW139935   4.362   2.413  15.423 -0.2305 -0.4032 -1.0743
 9492SOL    HW239936   4.353   2.290  15.349 -2.5121 -1.5184  0.1555
 9493SOL     OW39937   3.393   4.294   1.441  0.3362  0.4442 -0.1762
 9493SOL    HW139938   3.333   4.338   1.502  0.9521  2.0861 -0.7675
 9493SOL    HW239939   3.437   4.371   1.404 -2.2968  1.0777 -1.9868
 9494SOL     OW39940   1.144   3.495   3.463  0.5975  0.1214 -0.6381
 9494SOL    HW139941   1.196   3.462   3.537 -0.6289 -1.3746 -0.4239
 9494SOL    HW239942   1.058   3.464   3.493  0.9534 -0.2892 -0.0402
 9495SOL     OW39943   3.726   1.474   3.545 -0.2482  0.2413 -0.3585
 9495SOL    HW139944   3.765   1.445   3.463 -0.7632  1.4211 -1.0239
 9495SOL    HW239945   3.762   1.563   3.543 -3.0066  1.3934  1.0735
 9496SOL     OW39946   0.893   2.681   6.209  0.2224  0.3887 -0.2688
 9496SOL    HW139947   0.946   2.761   6.201 -0.1925  0.7750  0.8231
 9496SOL    HW239948   0.963   2.619   6.230 -0.8294 -0.4530  0.7146
 9497SOL     OW39949   0.771   2.146   6.537  0.1922  0.2303  0.4109
 9497SOL    HW139950   0.863   2.121   6.538  0.4738  1.2427  0.2085
 9497SOL    HW239951   0.781   2.241   6.538 -1.1327  0.4037 -3.5399
 9498SOL     OW39952   0.126   0.952   7.786 -0.0601  0.1793  0.3460
 9498SOL    HW139953   0.159   0.868   7.819 -0.1159 -0.5542 -1.4849
 9498SOL    HW239954   0.052   0.919   7.736  1.7318  0.1250 -2.2181
 9499SOL     OW39955   1.930   3.863  11.943  0.1353 -0.6931 -0.0995
 9499SOL    HW139956   1.886   3.789  11.901 -0.9874 -1.2248  2.0297
 9499SOL    HW239957   1.961   3.911  11.866  0.3399  0.3422  0.6347
 9500SOL     OW39958   3.145   2.880  11.652 -0.3857  0.3836  0.1559
 9500SOL    HW139959   3.219   2.941  11.653  1.4370 -1.8691  0.7079
 9500SOL    HW239960   3.071   2.942  11.656  0.2407  1.0826  0.9927
 9501SOL     OW39961   2.965   3.070  16.795  0.3308  0.3331  0.0377
 9501SOL    HW139962   2.913   3.070  16.875  1.6936  1.9199  0.9342
 9501SOL    HW239963   2.900   3.047  16.729 -0.3531  3.2225 -0.3064
 9502SOL     OW39964   1.801   0.343   8.793 -0.3388  0.0376 -0.0228
 9502SOL    HW139965   1.815   0.335   8.887  0.5169 -1.8342 -0.3256
 9502SOL    HW239966   1.721   0.396   8.786 -1.6651 -2.1476 -1.3004
 9503SOL     OW39967   1.967   0.610  12.224  0.1634 -0.3449 -0.2653
 9503SOL    HW139968   1.918   0.668  12.282 -1.1391 -2.1191  0.4013
 9503SOL    HW239969   2.010   0.553  12.288  0.7558 -3.1048 -3.1477
 9504SOL     OW39970   3.767   3.429   6.944  0.0712 -0.6769 -0.0226
 9504SOL    HW139971   3.800   3.469   7.025 -0.6848 -2.2072  1.0557
 9504SOL    HW239972   3.681   3.461   6.919  0.7295  2.3239  1.5220
 9505SOL     OW39973   1.419   3.471   3.842 -0.7700 -0.1300  0.2174
 9505SOL    HW139974   1.342   3.473   3.786 -0.1522  0.0738 -0.6327
 9505SOL    HW239975   1.472   3.422   3.779 -0.4538 -0.7044  0.9371
 9506SOL     OW39976   0.742   3.078   6.161  0.2340 -0.2947  0.2527
 9506SOL    HW139977   0.685   3.017   6.207  1.3040  0.5525  2.6778
 9506SOL    HW239978   0.701   3.162   6.180  2.9358  1.0889 -0.0138
 9507SOL     OW39979   0.531   2.669   3.675  0.5171 -0.3622  0.0852
 9507SOL    HW139980   0.439   2.692   3.687 -0.0177 -2.2620 -0.4032
 9507SOL    HW239981   0.533   2.642   3.583 -1.2401  0.7850 -0.2992
 9508SOL     OW39982   4.225   1.682   9.169  0.4587 -0.1545  0.4095
 9508SOL    HW139983   4.150   1.629   9.195  0.9872 -0.7308  0.7630
 9508SOL    HW239984   4.233   1.740   9.245 -1.3288  0.2857  0.2580
 9509SOL     OW39985   1.719   1.209   8.841 -0.4724  0.1250 -0.1546
 9509SOL    HW139986   1.803   1.239   8.878 -0.9495 -0.9179  1.7294
 9509SOL    HW239987   1.648   1.219   8.903  1.1527 -2.6903  2.1569
 9510SOL     OW39988   4.120   2.571   7.938  0.0305 -0.2351 -0.0452
 9510SOL    HW139989   4.053   2.504   7.952 -2.3945  1.6436 -2.4025
 9510SOL    HW239990   4.180   2.511   7.895 -0.4352 -0.4866 -0.3481
 9511SOL     OW39991   0.954   4.042   5.131  0.1869 -0.8563 -0.3962
 9511SOL    HW139992   0.931   3.969   5.073  0.6263  0.7299 -2.5458
 9511SOL    HW239993   0.874   4.090   5.149  1.0260  0.4779 -0.2461
 9512SOL     OW39994   0.140   1.847   8.359 -0.5146 -0.2917  0.0882
 9512SOL    HW139995   0.100   1.899   8.429 -0.5879  0.3953 -0.4602
 9512SOL    HW239996   0.233   1.871   8.368 -1.5169  3.7553 -0.3117
 9513SOL     OW39997   4.118   0.239   5.226 -0.2520 -0.2133 -0.3400
 9513SOL    HW139998   4.133   0.161   5.280  0.1043  0.0220 -0.0970
 9513SOL    HW239999   4.074   0.206   5.148 -0.3913 -0.1282 -0.2977
 9514SOL     OW40000   0.081   0.458   2.132  0.5401 -0.5237 -0.0063
 9514SOL    HW140001   4.718   0.425   2.108  0.8262 -0.4568 -1.1277
 9514SOL    HW240002   0.110   0.392   2.195  0.4254 -1.3944 -0.8495
 9515SOL     OW40003   1.433   3.097   6.005  0.3853  0.0009 -0.4466
 9515SOL    HW140004   1.479   3.163   6.056 -0.4142  0.0840  0.1683
 9515SOL    HW240005   1.463   3.018   6.051 -0.0911  0.1302  0.0875
 9516SOL     OW40006   0.166   3.607   5.818 -0.2638 -0.0788 -0.3576
 9516SOL    HW140007   0.174   3.649   5.904  0.1417 -0.5011 -0.1899
 9516SOL    HW240008   0.102   3.536   5.821 -0.0207 -0.2215  1.4297
 9517SOL     OW40009   0.853   0.246   2.089 -0.8607 -0.5204 -0.1110
 9517SOL    HW140010   0.900   0.175   2.133  0.9681 -0.6954 -2.3519
 9517SOL    HW240011   0.911   0.274   2.019 -1.2475  1.7913  0.5083
 9518SOL     OW40012   3.184   0.745   3.890  0.1696  0.5354 -0.0371
 9518SOL    HW140013   3.182   0.811   3.959  0.1831 -0.0868  0.5622
 9518SOL    HW240014   3.249   0.789   3.836  1.9153 -0.7811  0.9606
 9519SOL     OW40015   0.634   4.311   9.661  0.1826  0.3165  0.3348
 9519SOL    HW140016   0.618   4.273   9.747  0.1520 -0.2050  0.1028
 9519SOL    HW240017   0.610   4.237   9.604 -2.0513  2.1887 -1.1276
 9520SOL     OW40018   4.551   3.134   2.836  0.1863 -0.2020  0.1857
 9520SOL    HW140019   4.640   3.097   2.839 -1.0617 -2.8639  3.7509
 9520SOL    HW240020   4.548   3.169   2.747  2.2800 -2.1155 -0.6457
 9521SOL     OW40021   4.275   1.275  12.820  0.1737  0.3600  0.0286
 9521SOL    HW140022   4.181   1.263  12.835  0.5534 -0.5666  1.6142
 9521SOL    HW240023   4.312   1.193  12.851 -0.9922 -0.1020  0.1734
 9522SOL     OW40024   2.700   1.946  16.122  0.1377  0.0437 -0.4777
 9522SOL    HW140025   2.697   1.996  16.204 -1.7896 -0.5558 -0.1815
 9522SOL    HW240026   2.789   1.964  16.091 -0.1253  0.6935 -0.8564
 9523SOL     OW40027   1.939   3.057  14.955  0.0371  0.1632  0.3160
 9523SOL    HW140028   1.909   3.076  14.866 -0.7126 -2.3085  0.0393
 9523SOL    HW240029   1.912   2.965  14.964 -1.3936  0.5266 -0.2415
 9524SOL     OW40030   2.444   1.333  16.901 -0.5858  0.5035 -0.5896
 9524SOL    HW140031   2.373   1.331  16.964 -0.4468  0.6287 -0.4276
 9524SOL    HW240032   2.512   1.368  16.958 -0.4146  0.4911 -0.7843
 9525SOL     OW40033   1.124   0.042  12.342 -0.2416 -0.0386 -0.3686
 9525SOL    HW140034   1.217   0.037  12.320 -0.0419  2.2310  0.0009
 9525SOL    HW240035   1.112   4.709  12.419  2.4884  1.0628  0.8670
 9526SOL     OW40036   2.256   4.408   2.906 -0.9723 -0.9787  0.7268
 9526SOL    HW140037   2.278   4.316   2.889 -0.9987 -0.8419 -0.0441
 9526SOL    HW240038   2.161   4.405   2.894 -0.6518  2.7615 -2.8083
 9527SOL     OW40039   0.846   2.189   2.808  0.5761 -0.1056 -0.7971
 9527SOL    HW140040   0.932   2.229   2.797  0.2948  1.1876  1.6896
 9527SOL    HW240041   0.794   2.260   2.772  1.8307  0.9192 -0.5916
 9528SOL     OW40042   3.232   4.268   8.446  0.2160 -0.1348  0.2872
 9528SOL    HW140043   3.178   4.255   8.524  0.6701  1.5525  0.8737
 9528SOL    HW240044   3.206   4.358   8.432  1.7499  0.6126  2.1623
 9529SOL     OW40045   1.517   0.081   5.117 -0.4210 -0.2048  0.2394
 9529SOL    HW140046   1.558   0.163   5.088 -1.5498  0.5458  0.7733
 9529SOL    HW240047   1.488   0.056   5.029  0.2061 -2.6405  0.7451
 9530SOL     OW40048   2.978   3.869   4.641 -0.1193 -0.1749  0.9523
 9530SOL    HW140049   2.960   3.955   4.601  1.1424 -1.2412 -1.9103
 9530SOL    HW240050   3.063   3.851   4.601 -0.6241 -2.1241  0.7518
 9531SOL     OW40051   4.111   0.994   3.303 -0.3525  0.8584 -0.5266
 9531SOL    HW140052   4.113   0.958   3.215 -0.4463  1.3892 -0.7433
 9531SOL    HW240053   4.125   0.913   3.352 -0.0495  0.6758 -0.9225
 9532SOL     OW40054   4.248   0.005   6.913 -0.3808  0.7639  0.5174
 9532SOL    HW140055   4.222   0.075   6.853  1.4812 -0.6649 -1.9292
 9532SOL    HW240056   4.162   4.699   6.945 -0.0962 -0.5372  0.0336
 9533SOL     OW40057   3.152   1.318   5.194  0.1283 -0.2367 -0.0584
 9533SOL    HW140058   3.100   1.258   5.248 -3.3869  2.8522 -0.0229
 9533SOL    HW240059   3.101   1.397   5.212  2.8962  2.0318 -2.0884
 9534SOL     OW40060   0.004   4.410   7.045 -0.4161  0.0824 -0.1540
 9534SOL    HW140061   0.077   4.356   7.076 -0.4292 -0.9856 -1.9822
 9534SOL    HW240062   0.037   4.476   6.985  0.1212 -1.6251 -1.7207
 9535SOL     OW40063   1.487   0.396   4.442 -0.0068  0.1637  0.3056
 9535SOL    HW140064   1.486   0.325   4.507 -2.0852 -0.0919  0.0016
 9535SOL    HW240065   1.395   0.421   4.433 -0.3142 -1.1325 -0.1815
 9536SOL     OW40066   1.852   1.071  11.969  0.1133 -0.2425 -0.2199
 9536SOL    HW140067   1.830   1.004  11.905  1.7689 -0.9585 -0.0370
 9536SOL    HW240068   1.865   1.150  11.916  0.6955 -0.7981 -0.9014
 9537SOL     OW40069   2.789   0.223  16.882 -0.1672 -0.2900 -0.0326
 9537SOL    HW140070   2.873   0.271  16.881 -0.7609  0.7569  0.3387
 9537SOL    HW240071   2.809   0.155  16.818 -1.1634 -1.5971  1.0613
 9538SOL     OW40072   3.230   4.446   1.567 -0.3062  0.0248  0.0147
 9538SOL    HW140073   3.292   4.519   1.573  0.3697 -0.3603 -2.3648
 9538SOL    HW240074   3.148   4.492   1.584 -0.3680 -0.4761  1.0755
 9539SOL     OW40075   3.065   2.337  12.746  0.2380 -0.1976 -0.0682
 9539SOL    HW140076   3.061   2.406  12.680  0.1621  0.5830  0.7639
 9539SOL    HW240077   3.149   2.297  12.725  1.2640  1.5307  0.8253
 9540SOL     OW40078   0.044   2.938   7.222 -0.2150 -0.6739  0.0460
 9540SOL    HW140079   0.066   2.848   7.244 -0.8978 -0.8116  0.1892
 9540SOL    HW240080   0.022   2.974   7.308  0.7526  0.7493 -0.2988
 9541SOL     OW40081   2.868   3.915   7.400  0.1170 -0.1095  0.7106
 9541SOL    HW140082   2.822   3.998   7.418  1.8753  0.8277  0.8760
 9541SOL    HW240083   2.924   3.929   7.324 -2.4046 -1.9587 -1.4618
 9542SOL     OW40084   4.306   4.209  12.613 -0.1010 -0.1167 -0.0990
 9542SOL    HW140085   4.271   4.120  12.609  1.2437 -0.6533  0.2725
 9542SOL    HW240086   4.244   4.256  12.557  0.0953  0.0018 -0.2177
 9543SOL     OW40087   0.605   3.193   7.431 -0.6604  0.0340  0.2185
 9543SOL    HW140088   0.556   3.176   7.512 -0.0555 -1.4504  0.2747
 9543SOL    HW240089   0.539   3.241   7.382 -0.0376 -0.0129 -0.6540
 9544SOL     OW40090   0.507   2.617   8.391 -0.6222 -0.4307  0.1782
 9544SOL    HW140091   0.468   2.531   8.375  2.6241 -1.7410 -0.9276
 9544SOL    HW240092   0.584   2.620   8.333 -0.0688 -1.2464  0.8655
 9545SOL     OW40093   0.745   3.159   1.199 -0.1381  0.5082 -0.2584
 9545SOL    HW140094   0.812   3.205   1.251 -0.3909 -0.0998  0.5969
 9545SOL    HW240095   0.667   3.177   1.252  0.1725 -0.2779  0.4679
 9546SOL     OW40096   3.315   0.677   5.540 -0.0640  0.1829 -0.3869
 9546SOL    HW140097   3.227   0.644   5.523  0.5521 -1.5824 -0.2117
 9546SOL    HW240098   3.365   0.659   5.460 -1.4362 -0.6718 -1.0434
 9547SOL     OW40099   4.331   4.165   2.773  0.5575  0.0919 -0.2026
 9547SOL    HW140100   4.425   4.156   2.784  0.5013  1.3829  1.3228
 9547SOL    HW240101   4.313   4.212   2.855  2.3627  1.8152 -0.8071
 9548SOL     OW40102   2.523   1.339   8.783 -0.2347  0.2806  0.1082
 9548SOL    HW140103   2.480   1.262   8.746  1.1227 -0.4788  0.1022
 9548SOL    HW240104   2.598   1.348   8.724 -2.6075  0.5545 -2.8668
 9549SOL     OW40105   0.946   2.409   1.847  0.1495 -0.4256  0.2067
 9549SOL    HW140106   0.902   2.357   1.914  0.2630  0.1488  0.7270
 9549SOL    HW240107   0.915   2.366   1.767 -1.9965  0.7507  0.4217
 9550SOL     OW40108   0.346   4.498  12.078 -0.6730 -0.4742  0.0159
 9550SOL    HW140109   0.353   4.552  11.999  1.6207  1.2815  1.4311
 9550SOL    HW240110   0.359   4.409  12.044  0.2292 -0.1036 -0.5987
 9551SOL     OW40111   2.786   1.329   9.200 -0.0879 -0.2456 -0.7091
 9551SOL    HW140112   2.779   1.265   9.272  0.8261 -0.4841 -0.8326
 9551SOL    HW240113   2.863   1.289   9.160 -0.1860 -1.6624  0.4997
 9552SOL     OW40114   2.670   0.740   4.141 -0.3076 -0.2828  1.1177
 9552SOL    HW140115   2.598   0.802   4.149  0.8456  1.2683 -0.6698
 9552SOL    HW240116   2.632   0.654   4.120 -2.3284  0.6673  0.8965
 9553SOL     OW40117   0.643   3.929   6.428  0.4286 -0.1718  0.0825
 9553SOL    HW140118   0.723   3.980   6.424 -0.9957  1.9963 -1.0202
 9553SOL    HW240119   0.597   3.979   6.495  0.3717  0.1477 -0.1939
 9554SOL     OW40120   0.790   3.151   3.975 -0.7255  0.0059  0.4192
 9554SOL    HW140121   0.800   3.064   4.015 -1.8102 -1.2463 -2.0216
 9554SOL    HW240122   0.709   3.182   4.015 -1.6295 -0.9687 -0.6564
 9555SOL     OW40123   1.379   3.078   9.558  0.2239  0.3365 -0.2838
 9555SOL    HW140124   1.418   3.086   9.645 -0.1437 -1.8030  0.0754
 9555SOL    HW240125   1.447   3.099   9.494 -0.4809 -0.3428 -1.2463
 9556SOL     OW40126   0.327   3.825  15.565 -0.5356  0.1242  0.2355
 9556SOL    HW140127   0.315   3.919  15.563  0.5728  0.3188  2.5625
 9556SOL    HW240128   0.249   3.799  15.516 -0.9384  0.5776  0.6349
 9557SOL     OW40129   4.578   1.090  11.434  0.1069 -0.4770 -0.3536
 9557SOL    HW140130   4.649   1.043  11.391  0.3067  0.1862 -0.7508
 9557SOL    HW240131   4.587   1.059  11.524  0.0111  0.4787 -0.0183
 9558SOL     OW40132   0.997   1.714  12.315  0.2842 -0.3201  0.0550
 9558SOL    HW140133   0.930   1.664  12.267  1.3669  0.6278 -2.4639
 9558SOL    HW240134   0.954   1.800  12.310 -0.1955 -0.3738  3.0872
 9559SOL     OW40135   4.198   4.586   0.455  0.5664  0.5860 -0.5421
 9559SOL    HW140136   4.217   4.590   0.549  0.9161  0.7967 -0.6219
 9559SOL    HW240137   4.142   4.508   0.454 -1.7699  2.2637  2.9131
 9560SOL     OW40138   1.112   2.305  10.669  0.1611 -0.2467 -0.6606
 9560SOL    HW140139   1.206   2.298  10.687 -0.2805  0.9038  2.1851
 9560SOL    HW240140   1.124   2.397  10.648 -1.0510 -0.7604 -3.5657
 9561SOL     OW40141   1.937   4.036  11.107 -0.9171 -0.3396 -0.4339
 9561SOL    HW140142   1.976   4.026  11.020 -1.9602 -0.4426 -0.8900
 9561SOL    HW240143   2.006   4.096  11.138  0.1448 -0.5551 -2.3929
 9562SOL     OW40144   3.200   4.411  14.204 -0.2861 -0.5437  0.1621
 9562SOL    HW140145   3.288   4.413  14.242 -0.1066 -0.1400 -0.2603
 9562SOL    HW240146   3.168   4.494  14.240  0.7916 -0.0449 -0.0202
 9563SOL     OW40147   4.242   3.780  11.541 -0.6746  0.3797  0.7423
 9563SOL    HW140148   4.279   3.716  11.481  1.8427  2.9527 -0.4274
 9563SOL    HW240149   4.242   3.733  11.625 -0.6190 -0.7843  0.0825
 9564SOL     OW40150   1.863   0.170   9.200  0.5188  0.0916  0.3384
 9564SOL    HW140151   1.861   0.219   9.283 -0.4910  0.8060 -0.1123
 9564SOL    HW240152   1.857   0.086   9.245 -2.3964  0.6742  1.0838
 9565SOL     OW40153   2.815   4.594   7.447  1.0575 -0.0175 -0.6724
 9565SOL    HW140154   2.804   4.507   7.408  2.6588 -0.3969 -0.2675
 9565SOL    HW240155   2.736   4.594   7.500  1.4844 -1.5217 -0.0458
   4.72374   4.72374  17.69668
